<LesHouchesEvents version="3.0">
<header>
<!--
#*********************************************************************
#                                                                    *
#                        MadGraph5_aMC@NLO                           *
#                                                                    *
#                           Going Beyond                             *
#                                                                    *
#                   http://madgraph.hep.uiuc.edu                     *
#                   http://madgraph.phys.ucl.ac.be                   *
#                   http://amcatnlo.cern.ch                          *
#                                                                    *
#                     The MadGraph5_aMC@NLO team                     *
#                                                                    *
#....................................................................*
#                                                                    *
# This file contains all the information necessary to reproduce      *
# the events generated:                                              *
#                                                                    *
# 1. software version                                                *
# 2. proc_card          : code generation info including model       *
# 3. param_card         : model primary parameters in the LH format  *
# 4. run_card           : running parameters (collider and cuts)     *
# 5. pythia_card        : present only if pythia has been run        *
# 6. pgs_card           : present only if pgs has been run           *
# 7. delphes_cards      : present only if delphes has been run       *
#                                                                    *
#                                                                    *
#*********************************************************************
-->
<MGVersion>
#5.2.2.3
</MGVersion>
<MG5ProcCard>
#************************************************************
#*                     MadGraph5_aMC@NLO                    *
#*                                                          *
#*                *                       *                 *
#*                  *        * *        *                   *
#*                    * * * * 5 * * * *                     *
#*                  *        * *        *                   *
#*                *                       *                 *
#*                                                          *
#*                                                          *
#*         VERSION 2.2.3                 2015-02-10         *
#*                                                          *
#*    The MadGraph5_aMC@NLO Development Team - Find us at   *
#*    https://server06.fynu.ucl.ac.be/projects/madgraph     *
#*                                                          *
#************************************************************
#*                                                          *
#*               Command File for MadGraph5_aMC@NLO         *
#*                                                          *
#*     run as ./bin/mg5_aMC  filename                       *
#*                                                          *
#************************************************************
set group_subprocesses Auto
set ignore_six_quark_processes False
set loop_optimized_output True
set gauge unitary
set complex_mass_scheme False
import model sm
define p = g u c d s u~ c~ d~ s~
define j = g u c d s u~ c~ d~ s~
define l+ = e+ mu+
define l- = e- mu-
define vl = ve vm vt
define vl~ = ve~ vm~ vt~
import model Zprime_UFO
generate p p > zph, zph > j j
add process p p > zph, zph > b b~
output Dijet_signal
</MG5ProcCard>
<MGProcCard>
#*********************************************************************
#                        MadGraph/MadEvent                           *
#                   http://madgraph.hep.uiuc.edu                     *
#                                                                    *
#                          proc_card.dat                             *
#*********************************************************************
#                                                                    *
#            This Files is generated by MADGRAPH 5                   *
#                                                                    *
# WARNING: This Files is generated for MADEVENT (compatibility issue)*
#          This files is NOT a valid MG4 proc_card.dat               *
#          Running this in MG4 will NEVER reproduce the result of MG5*
#                                                                    *
#*********************************************************************
#*********************************************************************
# Process(es) requested : mg2 input                                  *
#*********************************************************************
# Begin PROCESS # This is TAG. Do not modify this line
p p > zph , zph > j j           #Process
# Be carefull the coupling are here in MG5 convention
          
end_coup           # End the couplings input

done               # this tells MG there are no more procs
# End PROCESS  # This is TAG. Do not modify this line
#*********************************************************************
# Model information                                                  *
#*********************************************************************
# Begin MODEL  # This is TAG. Do not modify this line
Zprime_UFO
# End   MODEL  # This is TAG. Do not modify this line
#*********************************************************************
# Start multiparticle definitions                                    *
#*********************************************************************
# Begin MULTIPARTICLES # This is TAG. Do not modify this line

# End  MULTIPARTICLES # This is TAG. Do not modify this line
</MGProcCard>
<MGRunCard>
#*********************************************************************
#                       MadGraph5_aMC@NLO                            *
#                                                                    *
#                     run_card.dat MadEvent                          *
#                                                                    *
#  This file is used to set the parameters of the run.               *
#                                                                    *
#  Some notation/conventions:                                        *
#                                                                    *
#   Lines starting with a '# ' are info or comments                  *
#                                                                    *
#   mind the format:   value    = variable     ! comment             *
#*********************************************************************
#
#*******************                                                 
# Running parameters
#*******************                                                 
#                                                                    
#*********************************************************************
# Tag name for the run (one word)                                    *
#*********************************************************************
  tag_1     = run_tag ! name of the run 
#*********************************************************************
# Run to generate the grid pack                                      *
#*********************************************************************
  .false.     = gridpack  !True = setting up the grid pack
#*********************************************************************
# Number of events and rnd seed                                      *
# Warning: Do not generate more than 1M events in a single run       *
# If you want to run Pythia, avoid more than 50k events in a run.    *
#*********************************************************************
  2000 = nevents ! Number of unweighted events requested 
 2541 = iseed   ! rnd seed (0=assigned automatically=default))
#*********************************************************************
# Collider type and energy                                           *
# lpp: 0=No PDF, 1=proton, -1=antiproton, 2=photon from proton,      *
#                                         3=photon from electron     *
#*********************************************************************
        1     = lpp1    ! beam 1 type 
        1     = lpp2    ! beam 2 type
     4000     = ebeam1  ! beam 1 total energy in GeV
     4000     = ebeam2  ! beam 2 total energy in GeV
#*********************************************************************
# Beam polarization from -100 (left-handed) to 100 (right-handed)    *
#*********************************************************************
        0     = polbeam1 ! beam polarization for beam 1
        0     = polbeam2 ! beam polarization for beam 2
#*********************************************************************
# PDF CHOICE: this automatically fixes also alpha_s and its evol.    *
#*********************************************************************
 'nn23lo1'    = pdlabel     ! PDF set                                     
 230000    = lhaid     ! if pdlabel=lhapdf, this is the lhapdf number
#*********************************************************************
# Renormalization and factorization scales                           *
#*********************************************************************
 F        = fixed_ren_scale  ! if .true. use fixed ren scale
 F        = fixed_fac_scale  ! if .true. use fixed fac scale
 91.1880  = scale            ! fixed ren scale
 91.1880  = dsqrt_q2fact1    ! fixed fact scale for pdf1
 91.1880  = dsqrt_q2fact2    ! fixed fact scale for pdf2
 1        = scalefact        ! scale factor for event-by-event scales
#*********************************************************************
# Matching - Warning! ickkw > 1 is still beta
#*********************************************************************
 0        = ickkw            ! 0 no matching, 1 MLM, 2 CKKW matching
 1        = highestmult      ! for ickkw=2, highest mult group
 1        = ktscheme         ! for ickkw=1, 1 Durham kT, 2 Pythia pTE
 1        = alpsfact         ! scale factor for QCD emission vx
 F        = chcluster        ! cluster only according to channel diag
 T        = pdfwgt           ! for ickkw=1, perform pdf reweighting
 5        = asrwgtflavor     ! highest quark flavor for a_s reweight
 T        = clusinfo         ! include clustering tag in output
 3.0      = lhe_version       ! Change the way clustering information pass to shower.        
#*********************************************************************
#**********************************************************
#
#**********************************************************
# Automatic ptj and mjj cuts if xqcut > 0
# (turn off for VBF and single top processes)
#**********************************************************
   T  = auto_ptj_mjj  ! Automatic setting of ptj and mjj
#**********************************************************
#                                                                    
#**********************************
# BW cutoff (M+/-bwcutoff*Gamma)
#**********************************
  15  = bwcutoff      ! (M+/-bwcutoff*Gamma)
#**********************************************************
# Apply pt/E/eta/dr/mij cuts on decay products or not
# (note that etmiss/ptll/ptheavy/ht/sorted cuts always apply)
#**********************************************************
   T  = cut_decays    ! Cut decay products 
#*************************************************************
# Number of helicities to sum per event (0 = all helicities)
# 0 gives more stable result, but longer run time (needed for
# long decay chains e.g.).
# Use >=2 if most helicities contribute, e.g. pure QCD.
#*************************************************************
   0  = nhel          ! Number of helicities used per event
#*******************                                                 
# Standard Cuts
#*******************                                                 
#                                                                    
#*********************************************************************
# Minimum and maximum pt's (for max, -1 means no cut)                *
#*********************************************************************
 20  = ptj       ! minimum pt for the jets 
  0  = ptb       ! minimum pt for the b 
 10  = pta       ! minimum pt for the photons 
 10  = ptl       ! minimum pt for the charged leptons 
  0  = misset    ! minimum missing Et (sum of neutrino's momenta)
  0  = ptheavy   ! minimum pt for one heavy final state
 1.0 = ptonium   ! minimum pt for the quarkonium states
 -1  = ptjmax    ! maximum pt for the jets
 -1  = ptbmax    ! maximum pt for the b
 -1  = ptamax    ! maximum pt for the photons
 -1  = ptlmax    ! maximum pt for the charged leptons
 -1  = missetmax ! maximum missing Et (sum of neutrino's momenta)
#*********************************************************************
# Minimum and maximum E's (in the center of mass frame)              *
#*********************************************************************
  0  = ej     ! minimum E for the jets 
  0  = eb     ! minimum E for the b 
  0  = ea     ! minimum E for the photons 
  0  = el     ! minimum E for the charged leptons 
 -1   = ejmax ! maximum E for the jets
 -1   = ebmax ! maximum E for the b
 -1   = eamax ! maximum E for the photons
 -1   = elmax ! maximum E for the charged leptons
#*********************************************************************
# Maximum and minimum absolute rapidity (for max, -1 means no cut)   *
#*********************************************************************
   5  = etaj    ! max rap for the jets 
  -1  = etab    ! max rap for the b
 2.5  = etaa    ! max rap for the photons 
 2.5  = etal    ! max rap for the charged leptons 
 0.6  = etaonium ! max rap for the quarkonium states
   0  = etajmin ! min rap for the jets
   0  = etabmin ! min rap for the b
   0  = etaamin ! min rap for the photons
   0  = etalmin ! main rap for the charged leptons
#*********************************************************************
# Minimum and maximum DeltaR distance                                *
#*********************************************************************
 0.4 = drjj    ! min distance between jets 
 0   = drbb    ! min distance between b's 
 0.4 = drll    ! min distance between leptons 
 0.4 = draa    ! min distance between gammas 
 0   = drbj    ! min distance between b and jet 
 0.4 = draj    ! min distance between gamma and jet 
 0.4 = drjl    ! min distance between jet and lepton 
 0   = drab    ! min distance between gamma and b 
 0   = drbl    ! min distance between b and lepton 
 0.4 = dral    ! min distance between gamma and lepton 
 -1  = drjjmax ! max distance between jets
 -1  = drbbmax ! max distance between b's
 -1  = drllmax ! max distance between leptons
 -1  = draamax ! max distance between gammas
 -1  = drbjmax ! max distance between b and jet
 -1  = drajmax ! max distance between gamma and jet
 -1  = drjlmax ! max distance between jet and lepton
 -1  = drabmax ! max distance between gamma and b
 -1  = drblmax ! max distance between b and lepton
 -1  = dralmax ! maxdistance between gamma and lepton
#*********************************************************************
# Minimum and maximum invariant mass for pairs                       *
# WARNING: for four lepton final state mmll cut require to have      *
#          different lepton masses for each flavor!                  *           
#*********************************************************************
 0   = mmjj    ! min invariant mass of a jet pair 
 0   = mmbb    ! min invariant mass of a b pair 
 0   = mmaa    ! min invariant mass of gamma gamma pair
 0   = mmll    ! min invariant mass of l+l- (same flavour) lepton pair
 -1  = mmjjmax ! max invariant mass of a jet pair
 -1  = mmbbmax ! max invariant mass of a b pair
 -1  = mmaamax ! max invariant mass of gamma gamma pair
 -1  = mmllmax ! max invariant mass of l+l- (same flavour) lepton pair
#*********************************************************************
# Minimum and maximum invariant mass for all letpons                 *
#*********************************************************************
 0   = mmnl    ! min invariant mass for all letpons (l+- and vl) 
 -1  = mmnlmax ! max invariant mass for all letpons (l+- and vl) 
#*********************************************************************
# Minimum and maximum pt for 4-momenta sum of leptons                *
#*********************************************************************
 0   = ptllmin  ! Minimum pt for 4-momenta sum of leptons(l and vl)
 -1  = ptllmax  ! Maximum pt for 4-momenta sum of leptons(l and vl)
#*********************************************************************
# Inclusive cuts                                                     *
#*********************************************************************
 0  = xptj ! minimum pt for at least one jet  
 0  = xptb ! minimum pt for at least one b 
 0  = xpta ! minimum pt for at least one photon 
 0  = xptl ! minimum pt for at least one charged lepton 
#*********************************************************************
# Control the pt's of the jets sorted by pt                          *
#*********************************************************************
 0   = ptj1min ! minimum pt for the leading jet in pt
 0   = ptj2min ! minimum pt for the second jet in pt
 0   = ptj3min ! minimum pt for the third jet in pt
 0   = ptj4min ! minimum pt for the fourth jet in pt
 -1  = ptj1max ! maximum pt for the leading jet in pt 
 -1  = ptj2max ! maximum pt for the second jet in pt
 -1  = ptj3max ! maximum pt for the third jet in pt
 -1  = ptj4max ! maximum pt for the fourth jet in pt
 0   = cutuse  ! reject event if fails any (0) / all (1) jet pt cuts
#*********************************************************************
# Control the pt's of leptons sorted by pt                           *
#*********************************************************************
 0   = ptl1min ! minimum pt for the leading lepton in pt
 0   = ptl2min ! minimum pt for the second lepton in pt
 0   = ptl3min ! minimum pt for the third lepton in pt
 0   = ptl4min ! minimum pt for the fourth lepton in pt
 -1  = ptl1max ! maximum pt for the leading lepton in pt 
 -1  = ptl2max ! maximum pt for the second lepton in pt
 -1  = ptl3max ! maximum pt for the third lepton in pt
 -1  = ptl4max ! maximum pt for the fourth lepton in pt
#*********************************************************************
# Control the Ht(k)=Sum of k leading jets                            *
#*********************************************************************
 0   = htjmin ! minimum jet HT=Sum(jet pt)
 -1  = htjmax ! maximum jet HT=Sum(jet pt)
 0   = ihtmin  !inclusive Ht for all partons (including b)
 -1  = ihtmax  !inclusive Ht for all partons (including b)
 0   = ht2min ! minimum Ht for the two leading jets
 0   = ht3min ! minimum Ht for the three leading jets
 0   = ht4min ! minimum Ht for the four leading jets
 -1  = ht2max ! maximum Ht for the two leading jets
 -1  = ht3max ! maximum Ht for the three leading jets
 -1  = ht4max ! maximum Ht for the four leading jets
#***********************************************************************
# Photon-isolation cuts, according to hep-ph/9801442                   *
# When ptgmin=0, all the other parameters are ignored                  *
# When ptgmin>0, pta and draj are not going to be used                 *
#***********************************************************************
   0 = ptgmin ! Min photon transverse momentum
 0.4 = R0gamma ! Radius of isolation code
 1.0 = xn ! n parameter of eq.(3.4) in hep-ph/9801442
 1.0 = epsgamma ! epsilon_gamma parameter of eq.(3.4) in hep-ph/9801442
 .true. = isoEM ! isolate photons from EM energy (photons and leptons)
#*********************************************************************
# WBF cuts                                                           *
#*********************************************************************
 0   = xetamin ! minimum rapidity for two jets in the WBF case  
 0   = deltaeta ! minimum rapidity for two jets in the WBF case 
#*********************************************************************
# KT DURHAM CUT                                                      *
#*********************************************************************
 -1    =  ktdurham        
 0.4  =  dparameter 
#*********************************************************************
# maximal pdg code for quark to be considered as a light jet         *
# (otherwise b cuts are applied)                                     *
#*********************************************************************
 4 = maxjetflavor    ! Maximum jet pdg code
#*********************************************************************
# Jet measure cuts                                                   *
#*********************************************************************
 0   = xqcut   ! minimum kt jet measure between partons
#*********************************************************************
#
#*********************************************************************
# Store info for systematics studies                                 *
# WARNING: If use_syst is T, matched Pythia output is                *
#          meaningful ONLY if plotted taking matchscale              *
#          reweighting into account!                                 *
#*********************************************************************
   F  = use_syst      ! Enable systematics studies
#
#**************************************
# Parameter of the systematics study
#  will be used by SysCalc (if installed)
#**************************************                                  
#
0.5 1 2 = sys_scalefact  # factorization/renormalization scale factor
0.5 1 2 = sys_alpsfact  # \alpha_s emission scale factors
30 50 = sys_matchscale # variation of merging scale
# PDF sets and number of members (0 or none for all members).
CT10nlo.LHgrid = sys_pdf # matching scales
# MSTW2008nlo68cl.LHgrid 1  = sys_pdf
</MGRunCard>
<slha>
######################################################################
## PARAM_CARD AUTOMATICALY GENERATED BY MG5 FOLLOWING UFO MODEL   ####
######################################################################
##                                                                  ##
##  Width set on Auto will be computed following the information    ##
##        present in the decay.py files of the model.               ##
##        See  arXiv:1402.1178 for more details.                    ##
##                                                                  ##
######################################################################

###################################
## INFORMATION FOR CKMBLOCK
###################################
Block ckmblock 
    1 2.277360e-01 # cabi 

###################################
## INFORMATION FOR FRBLOCK
###################################
Block frblock 
    1 1.400000e+00 # gz 

###################################
## INFORMATION FOR MASS
###################################
Block mass 
    1 5.040000e-03 # MD 
    2 2.550000e-03 # MU 
    3 1.010000e-01 # MS 
    4 1.270000e+00 # MC 
    5 4.700000e+00 # MB 
    6 1.720000e+02 # MT 
   11 5.110000e-04 # Me 
   13 1.056600e-01 # MM 
   15 1.777000e+00 # MTA 
   23 9.118760e+01 # MZ 
   25 1.200000e+02 # MH 
  10030 1.600000e+03 # MZph 
  10031 3.000000e+02 # MZpl 
## Dependent parameters, given by model restrictions.
## Those values should be edited following the 
## analytical expression. MG5 ignores those values 
## but they are important for interfacing the output of MG5
## to external program such as Pythia.
  12 0.000000 # ve : 0.0 
  14 0.000000 # vm : 0.0 
  16 0.000000 # vt : 0.0 
  21 0.000000 # g : 0.0 
  22 0.000000 # a : 0.0 
  24 79.824360 # w+ : cmath.sqrt(MZ__exp__2/2. + cmath.sqrt(MZ__exp__4/4. - (aEW*cmath.pi*MZ__exp__2)/(Gf*sqrt__2))) 

###################################
## INFORMATION FOR SMINPUTS
###################################
Block sminputs 
    1 1.279000e+02 # aEWM1 
    2 1.166370e-05 # Gf 
    3 1.184000e-01 # aS 

###################################
## INFORMATION FOR YUKAWA
###################################
Block yukawa 
    1 5.040000e-03 # ymdo 
    2 2.550000e-03 # ymup 
    3 1.010000e-01 # yms 
    4 1.270000e+00 # ymc 
    5 4.700000e+00 # ymb 
    6 1.720000e+02 # ymt 
   11 5.110000e-04 # yme 
   13 1.056600e-01 # ymm 
   15 1.777000e+00 # ymtau 

###################################
## INFORMATION FOR DECAY
###################################
DECAY   6 1.508336e+00 # WT 
DECAY  23 2.495200e+00 # WZ 
DECAY  24 2.085000e+00 # WW 
DECAY  25 5.753088e-03 # WH 
## Dependent parameters, given by model restrictions.
## Those values should be edited following the 
## analytical expression. MG5 ignores those values 
## but they are important for interfacing the output of MG5
## to external program such as Pythia.
DECAY  1 0.000000 # d : 0.0 
DECAY  2 0.000000 # u : 0.0 
DECAY  3 0.000000 # s : 0.0 
DECAY  4 0.000000 # c : 0.0 
DECAY  5 0.000000 # b : 0.0 
DECAY  11 0.000000 # e- : 0.0 
DECAY  12 0.000000 # ve : 0.0 
DECAY  13 0.000000 # mu- : 0.0 
DECAY  14 0.000000 # vm : 0.0 
DECAY  15 0.000000 # ta- : 0.0 
DECAY  16 0.000000 # vt : 0.0 
DECAY  21 0.000000 # g : 0.0 
DECAY  22 0.000000 # a : 0.0 
DECAY  10030 0.308725 # zph : (gz__exp__2*MZph*(5 + cmath.sqrt(1 - (4*MT__exp__2)/MZph__exp__2)))/(144.*cmath.pi) 
DECAY  10031 0.132629 # zpl : (5*gz__exp__2*MZpl)/(144.*cmath.pi) 
#===========================================================
# QUANTUM NUMBERS OF NEW STATE(S) (NON SM PDG CODE)
#===========================================================

Block QNUMBERS 10030  # zph 
        1 0  # 3 times electric charge
        2 3  # number of spin states (2S+1)
        3 1  # colour rep (1: singlet, 3: triplet, 8: octet)
        4 0  # Particle/Antiparticle distinction (0=own anti)
Block QNUMBERS 10031  # zpl 
        1 0  # 3 times electric charge
        2 3  # number of spin states (2S+1)
        3 1  # colour rep (1: singlet, 3: triplet, 8: octet)
        4 0  # Particle/Antiparticle distinction (0=own anti)
</slha>
## END BANNER##
<MGGenerationInfo>
#  Number of Events        :         4005
#  Integrated weight (pb)  :  0.30660E+00
#  Max wgt                 :  0.10579E-03
#  Average wgt             :  0.76554E-04
</MGGenerationInfo>
</header>
<init>
     2212     2212  0.40000000000E+04  0.40000000000E+04 0 0  247000  247000 2   1
  0.30674918460E+00  0.58221315393E-03  0.10578720000E-03   0
</init>
<event>
 5   0  0.1030027E-03  0.1612884E+04  0.7818609E-02  0.8812672E-01
       -2   -1    0    0    0  501  0.00000000000E+00  0.00000000000E+00  0.65289570262E+03  0.65289570262E+03  0.25500000920E-02 0.  1.
        2   -1    0    0  501    0  0.00000000000E+00  0.00000000000E+00 -0.99609939750E+03  0.99609939750E+03  0.25500000920E-02 0. -1.
    10030    2    1    2    0    0  0.00000000000E+00  0.00000000000E+00 -0.34320369488E+03  0.16489951001E+04  0.16128843926E+04 0.  0.
        1    1    3    3  502    0 -0.65438570910E+03 -0.35963699986E+03  0.13983195555E+03  0.75967914527E+03  0.50400001928E-02 0.  1.
       -1    1    3    3    0  502  0.65438570910E+03  0.35963699986E+03 -0.48303565044E+03  0.88931595485E+03  0.50400001928E-02 0. -1.
</event>
<event>
 5   0  0.1030027E-03  0.1629669E+04  0.7818609E-02  0.8802526E-01
        2   -1    0    0  501    0  0.00000000000E+00  0.00000000000E+00  0.71451939767E+03  0.71451939767E+03  0.25500000920E-02 0.  1.
       -2   -1    0    0    0  501  0.00000000000E+00  0.00000000000E+00 -0.92923285318E+03  0.92923285318E+03  0.25500000920E-02 0. -1.
    10030    2    1    2    0    0  0.00000000000E+00  0.00000000000E+00 -0.21471345551E+03  0.16437522508E+04  0.16296685535E+04 0.  0.
        1    1    3    3  502    0 -0.20928403743E+03  0.61442310962E+03 -0.60419801293E+03  0.88677550982E+03  0.50400001928E-02 0. -1.
       -1    1    3    3    0  502  0.20928403743E+03 -0.61442310962E+03  0.38948455742E+03  0.75697674103E+03  0.50400001928E-02 0.  1.
</event>
<event>
 5   0  0.9844690E-04  0.1572347E+04  0.7818609E-02  0.8837719E-01
        2   -1    0    0  501    0  0.00000000000E+00  0.00000000000E+00  0.55267890098E+03  0.55267890098E+03  0.25500000920E-02 0. -1.
       -2   -1    0    0    0  501  0.00000000000E+00  0.00000000000E+00 -0.11183146266E+04  0.11183146266E+04  0.25500000920E-02 0.  1.
    10030    2    1    2    0    0  0.00000000000E+00  0.00000000000E+00 -0.56563572566E+03  0.16709935276E+04  0.15723471612E+04 0.  0.
        3    1    3    3  502    0  0.31399322372E+03  0.31598783110E+03  0.40561087029E+03  0.60246181808E+03  0.10100000352E+00 0. -1.
       -3    1    3    3    0  502 -0.31399322372E+03 -0.31598783110E+03 -0.97124659596E+03  0.10685317095E+04  0.10100000352E+00 0.  1.
</event>
<event>
 5   0  0.1030027E-03  0.1586848E+04  0.7818609E-02  0.8828669E-01
        2   -1    0    0  501    0  0.00000000000E+00  0.00000000000E+00  0.98552366216E+03  0.98552366216E+03  0.25500000920E-02 0. -1.
       -2   -1    0    0    0  501  0.00000000000E+00  0.00000000000E+00 -0.63876851553E+03  0.63876851554E+03  0.25500000920E-02 0.  1.
    10030    2    1    2    0    0  0.00000000000E+00  0.00000000000E+00  0.34675514662E+03  0.16242921777E+04  0.15868478020E+04 0.  0.
        1    1    3    3  502    0 -0.30559307930E+03 -0.55150273142E+03 -0.31962967223E+03  0.70689852190E+03  0.50400001928E-02 0.  1.
       -1    1    3    3    0  502  0.30559307930E+03  0.55150273142E+03  0.66638481885E+03  0.91739365580E+03  0.50400001928E-02 0. -1.
</event>
<event>
 5   0  0.9844690E-04  0.1574291E+04  0.7818609E-02  0.8836499E-01
       -2   -1    0    0    0  501  0.00000000000E+00  0.00000000000E+00  0.10254903144E+04  0.10254903144E+04  0.25500000920E-02 0.  1.
        2   -1    0    0  501    0  0.00000000000E+00  0.00000000000E+00 -0.60419695272E+03  0.60419695273E+03  0.25500000920E-02 0. -1.
    10030    2    1    2    0    0  0.00000000000E+00  0.00000000000E+00  0.42129336169E+03  0.16296872671E+04  0.15742911078E+04 0.  0.
        3    1    3    3  502    0  0.72008550086E+02  0.34741769737E+03  0.93801917544E+03  0.10028779943E+04  0.10100000352E+00 0.  1.
       -3    1    3    3    0  502 -0.72008550086E+02 -0.34741769737E+03 -0.51672581375E+03  0.62680927285E+03  0.10100000352E+00 0. -1.
</event>
<event>
 5   0  0.5288658E-04  0.1596570E+04  0.7818609E-02  0.8822658E-01
        1   -1    0    0  501    0  0.00000000000E+00  0.00000000000E+00  0.13848369435E+04  0.13848369435E+04  0.50400001928E-02 0. -1.
       -1   -1    0    0    0  501  0.00000000000E+00  0.00000000000E+00 -0.46016866684E+03  0.46016866687E+03  0.50400001928E-02 0.  1.
    10030    2    1    2    0    0  0.00000000000E+00  0.00000000000E+00  0.92466827662E+03  0.18450056103E+04  0.15965695351E+04 0.  0.
        1    1    3    3  502    0  0.48895452657E+03  0.55907267823E+03  0.12419385624E+03  0.75303579102E+03  0.50400001928E-02 0. -1.
       -1    1    3    3    0  502 -0.48895452657E+03 -0.55907267823E+03  0.80047442038E+03  0.10919698193E+04  0.50400001928E-02 0.  1.
</event>
<event>
 5   0  0.5623061E-04  0.1689689E+04  0.7818609E-02  0.8767267E-01
        1   -1    0    0  501    0  0.00000000000E+00  0.00000000000E+00  0.91942373262E+03  0.91942373264E+03  0.50400001928E-02 0. -1.
       -1   -1    0    0    0  501  0.00000000000E+00  0.00000000000E+00 -0.77631498489E+03  0.77631498490E+03  0.50400001928E-02 0.  1.
    10030    2    1    2    0    0  0.00000000000E+00  0.00000000000E+00  0.14310874774E+03  0.16957387175E+04  0.16896892272E+04 0.  0.
        3    1    3    3  502    0 -0.30067049660E+03 -0.78551503715E+03 -0.82652136736E+01  0.84113313160E+03  0.10100000352E+00 0. -1.
       -3    1    3    3    0  502  0.30067049660E+03  0.78551503715E+03  0.15137396141E+03  0.85460558594E+03  0.10100000352E+00 0.  1.
</event>
<event>
 5   0  0.1030027E-03  0.1593525E+04  0.7818609E-02  0.8824536E-01
        2   -1    0    0  501    0  0.00000000000E+00  0.00000000000E+00  0.11097359274E+04  0.11097359274E+04  0.25500000920E-02 0. -1.
       -2   -1    0    0    0  501  0.00000000000E+00  0.00000000000E+00 -0.57205557913E+03  0.57205557913E+03  0.25500000920E-02 0.  1.
    10030    2    1    2    0    0  0.00000000000E+00  0.00000000000E+00  0.53768034831E+03  0.16817915066E+04  0.15935251848E+04 0.  0.
        1    1    3    3  502    0  0.19501244191E+03 -0.25931474428E+03  0.10368546962E+04  0.10864352950E+04  0.50400001928E-02 0. -1.
       -1    1    3    3    0  502 -0.19501244191E+03  0.25931474428E+03 -0.49917434788E+03  0.59535621161E+03  0.50400001928E-02 0.  1.
</event>
<event>
 5   0  0.5281116E-04  0.1590321E+04  0.7818609E-02  0.8826516E-01
        1   -1    0    0  501    0  0.00000000000E+00  0.00000000000E+00  0.65446398438E+03  0.65446398440E+03  0.50400001928E-02 0.  1.
       -1   -1    0    0    0  501  0.00000000000E+00  0.00000000000E+00 -0.96610424201E+03  0.96610424202E+03  0.50400001928E-02 0. -1.
    10030    2    1    2    0    0  0.00000000000E+00  0.00000000000E+00 -0.31164025762E+03  0.16205682264E+04  0.15903212651E+04 0.  0.
        2    1    3    3  502    0  0.76224763762E+03  0.22530121979E+03 -0.17856803087E+03  0.81465860479E+03  0.25500000920E-02 0. -1.
       -2    1    3    3    0  502 -0.76224763762E+03 -0.22530121979E+03 -0.13307222676E+03  0.80590962163E+03  0.25500000920E-02 0.  1.
</event>
<event>
 5   0  0.1030027E-03  0.1646934E+04  0.7818609E-02  0.8792222E-01
        2   -1    0    0  501    0  0.00000000000E+00  0.00000000000E+00  0.11405072474E+04  0.11405072474E+04  0.25500000920E-02 0.  1.
       -2   -1    0    0    0  501  0.00000000000E+00  0.00000000000E+00 -0.59455829318E+03  0.59455829318E+03  0.25500000920E-02 0. -1.
    10030    2    1    2    0    0  0.00000000000E+00  0.00000000000E+00  0.54594895426E+03  0.17350655406E+04  0.16469341728E+04 0.  0.
        1    1    3    3  502    0 -0.43468806760E+03  0.14128179697E+03  0.99459875938E+03  0.10945962518E+04  0.50400001928E-02 0.  1.
       -1    1    3    3    0  502  0.43468806760E+03 -0.14128179697E+03 -0.44864980512E+03  0.64046928882E+03  0.50400001928E-02 0. -1.
</event>
<event>
 5   0  0.3832500E-04  0.1608399E+04  0.7818609E-02  0.8815405E-01
       -4   -1    0    0    0  501  0.00000000000E+00  0.00000000000E+00  0.49329268480E+03  0.49329431963E+03  0.12699999809E+01 0.  1.
        4   -1    0    0  501    0  0.00000000000E+00  0.00000000000E+00 -0.13110572792E+04  0.13110578943E+04  0.12699999809E+01 0. -1.
    10030    2    1    2    0    0  0.00000000000E+00  0.00000000000E+00 -0.81776459442E+03  0.18043522140E+04  0.16083991980E+04 0.  0.
        2    1    3    3  502    0  0.47366970071E+02  0.60613348039E+03  0.18164810273E+03  0.63453720075E+03  0.25500000920E-02 0.  1.
       -2    1    3    3    0  502 -0.47366970071E+02 -0.60613348039E+03 -0.99941269715E+03  0.11698150132E+04  0.25500000920E-02 0. -1.
</event>
<event>
 5   0  0.1037321E-03  0.1595716E+04  0.7818609E-02  0.8823184E-01
       -2   -1    0    0    0  501  0.00000000000E+00  0.00000000000E+00  0.50777954568E+03  0.50777954569E+03  0.25500000920E-02 0. -1.
        2   -1    0    0  501    0  0.00000000000E+00  0.00000000000E+00 -0.12536490663E+04  0.12536490663E+04  0.25500000920E-02 0.  1.
    10030    2    1    2    0    0  0.00000000000E+00  0.00000000000E+00 -0.74586952064E+03  0.17614286120E+04  0.15957159564E+04 0.  0.
        5    1    3    3  502    0 -0.25570895171E+03  0.71396837761E+03 -0.64649627503E+03  0.99655277624E+03  0.46999998093E+01 0.  1.
       -5    1    3    3    0  502  0.25570895171E+03 -0.71396837761E+03 -0.99373245610E+02  0.76487583577E+03  0.46999998093E+01 0. -1.
</event>
<event>
 5   0  0.5425525E-04  0.1590296E+04  0.7818609E-02  0.8826532E-01
       -1   -1    0    0    0  501  0.00000000000E+00  0.00000000000E+00  0.12136248908E+04  0.12136248908E+04  0.50400001928E-02 0.  1.
        1   -1    0    0  501    0  0.00000000000E+00  0.00000000000E+00 -0.52096864221E+03  0.52096864223E+03  0.50400001928E-02 0. -1.
    10030    2    1    2    0    0  0.00000000000E+00  0.00000000000E+00  0.69265624861E+03  0.17345935331E+04  0.15902962134E+04 0.  0.
        5    1    3    3  502    0  0.63868282559E+02  0.49555167480E+02 -0.51645969934E+03  0.52276914903E+03  0.46999998093E+01 0. -1.
       -5    1    3    3    0  502 -0.63868282559E+02 -0.49555167480E+02  0.12091159480E+04  0.12118243840E+04  0.46999998093E+01 0.  1.
</event>
<event>
 5   0  0.3832500E-04  0.1583615E+04  0.7818609E-02  0.8830678E-01
       -3   -1    0    0    0  501  0.00000000000E+00  0.00000000000E+00  0.16085549246E+04  0.16085549277E+04  0.10100000352E+00 0.  1.
        3   -1    0    0  501    0  0.00000000000E+00  0.00000000000E+00 -0.38976537863E+03  0.38976539172E+03  0.10100000352E+00 0. -1.
    10030    2    1    2    0    0  0.00000000000E+00  0.00000000000E+00  0.12187895459E+04  0.19983203194E+04  0.15836148969E+04 0.  0.
        3    1    3    3  502    0  0.18132218701E+02  0.46769284257E+03 -0.19651978273E+03  0.50762723287E+03  0.10100000352E+00 0. -1.
       -3    1    3    3    0  502 -0.18132218701E+02 -0.46769284257E+03  0.14153093287E+04  0.14906930866E+04  0.10100000352E+00 0.  1.
</event>
<event>
 5   0  0.5288658E-04  0.1759931E+04  0.7818609E-02  0.8727903E-01
        1   -1    0    0  501    0  0.00000000000E+00  0.00000000000E+00  0.60788679803E+03  0.60788679805E+03  0.50400001928E-02 0. -1.
       -1   -1    0    0    0  501  0.00000000000E+00  0.00000000000E+00 -0.12738216318E+04  0.12738216318E+04  0.50400001928E-02 0.  1.
    10030    2    1    2    0    0  0.00000000000E+00  0.00000000000E+00 -0.66593483375E+03  0.18817084298E+04  0.17599310816E+04 0.  0.
        1    1    3    3  502    0  0.21561262388E+03 -0.66495257053E+02  0.57643186180E+03  0.61901867024E+03  0.50400001928E-02 0. -1.
       -1    1    3    3    0  502 -0.21561262388E+03  0.66495257053E+02 -0.12423666955E+04  0.12626897596E+04  0.50400001928E-02 0.  1.
</event>
<event>
 5   0  0.5623061E-04  0.1590923E+04  0.7818609E-02  0.8826144E-01
        1   -1    0    0  501    0  0.00000000000E+00  0.00000000000E+00  0.14623847952E+04  0.14623847952E+04  0.50400001928E-02 0. -1.
       -1   -1    0    0    0  501  0.00000000000E+00  0.00000000000E+00 -0.43268979636E+03  0.43268979639E+03  0.50400001928E-02 0.  1.
    10030    2    1    2    0    0  0.00000000000E+00  0.00000000000E+00  0.10296949988E+04  0.18950745916E+04  0.15909229765E+04 0.  0.
        3    1    3    3  502    0  0.63895631063E+03 -0.17444986158E+03  0.10395901213E+04  0.12326579216E+04  0.10100000352E+00 0. -1.
       -3    1    3    3    0  502 -0.63895631063E+03  0.17444986158E+03 -0.98951224434E+01  0.66241667005E+03  0.10100000352E+00 0.  1.
</event>
<event>
 5   0  0.5623061E-04  0.1570035E+04  0.7818609E-02  0.8839171E-01
       -1   -1    0    0    0  501  0.00000000000E+00  0.00000000000E+00  0.15232959413E+04  0.15232959413E+04  0.50400001928E-02 0. -1.
        1   -1    0    0  501    0  0.00000000000E+00  0.00000000000E+00 -0.40455208566E+03  0.40455208569E+03  0.50400001928E-02 0.  1.
    10030    2    1    2    0    0  0.00000000000E+00  0.00000000000E+00  0.11187438556E+04  0.19278480270E+04  0.15700350954E+04 0.  0.
        3    1    3    3  502    0  0.57722603312E+03 -0.41826199286E+03  0.15561912179E+03  0.72962340235E+03  0.10100000352E+00 0.  1.
       -3    1    3    3    0  502 -0.57722603312E+03  0.41826199286E+03  0.96312473383E+03  0.11982246246E+04  0.10100000352E+00 0. -1.
</event>
<event>
 5   0  0.1030027E-03  0.1531543E+04  0.7818609E-02  0.8863744E-01
       -2   -1    0    0    0  501  0.00000000000E+00  0.00000000000E+00  0.82351123382E+03  0.82351123382E+03  0.25500000920E-02 0.  1.
        2   -1    0    0  501    0  0.00000000000E+00  0.00000000000E+00 -0.71208042833E+03  0.71208042834E+03  0.25500000920E-02 0. -1.
    10030    2    1    2    0    0  0.00000000000E+00  0.00000000000E+00  0.11143080548E+03  0.15355916622E+04  0.15315433159E+04 0.  0.
        1    1    3    3  502    0 -0.29239685495E+03  0.48529628055E+03  0.57224492184E+03  0.80527799628E+03  0.50400001928E-02 0.  1.
       -1    1    3    3    0  502  0.29239685495E+03 -0.48529628055E+03 -0.46081411635E+03  0.73031366587E+03  0.50400001928E-02 0. -1.
</event>
<event>
 5   0  0.5532881E-04  0.1571131E+04  0.7818609E-02  0.8838482E-01
       -1   -1    0    0    0  501  0.00000000000E+00  0.00000000000E+00  0.11168080845E+04  0.11168080845E+04  0.50400001928E-02 0.  1.
        1   -1    0    0  501    0  0.00000000000E+00  0.00000000000E+00 -0.55256900071E+03  0.55256900073E+03  0.50400001928E-02 0. -1.
    10030    2    1    2    0    0  0.00000000000E+00  0.00000000000E+00  0.56423908376E+03  0.16693770852E+04  0.15711314741E+04 0.  0.
        4    1    3    3  502    0  0.75719126845E+03  0.20906233094E+03  0.29076721292E+03  0.83761140169E+03  0.12699999809E+01 0.  1.
       -4    1    3    3    0  502 -0.75719126845E+03 -0.20906233094E+03  0.27347187084E+03  0.83176568352E+03  0.12699999809E+01 0. -1.
</event>
<event>
 5   0  0.5288658E-04  0.1297005E+04  0.7818609E-02  0.9031943E-01
       -1   -1    0    0    0  501  0.00000000000E+00  0.00000000000E+00  0.91139569926E+03  0.91139569927E+03  0.50400001928E-02 0.  1.
        1   -1    0    0  501    0  0.00000000000E+00  0.00000000000E+00 -0.46144137611E+03  0.46144137614E+03  0.50400001928E-02 0. -1.
    10030    2    1    2    0    0  0.00000000000E+00  0.00000000000E+00  0.44995432315E+03  0.13728370754E+04  0.12970052979E+04 0.  0.
        1    1    3    3  502    0  0.40941612811E+03 -0.49765458737E+03  0.30184569642E+03  0.71161259036E+03  0.50400001928E-02 0.  1.
       -1    1    3    3    0  502 -0.40941612811E+03  0.49765458737E+03  0.14810862673E+03  0.66122448505E+03  0.50400001928E-02 0. -1.
</event>
<event>
 5   0  0.1057872E-03  0.1611235E+04  0.7818609E-02  0.8813675E-01
       -2   -1    0    0    0  501  0.00000000000E+00  0.00000000000E+00  0.59922181994E+03  0.59922181995E+03  0.25500000920E-02 0. -1.
        2   -1    0    0  501    0  0.00000000000E+00  0.00000000000E+00 -0.10831044312E+04  0.10831044312E+04  0.25500000920E-02 0.  1.
    10030    2    1    2    0    0  0.00000000000E+00  0.00000000000E+00 -0.48388261126E+03  0.16823262512E+04  0.16112353130E+04 0.  0.
        2    1    3    3  502    0  0.25738183482E+03  0.10820878077E+03  0.54708979261E+03  0.61421640349E+03  0.25500000920E-02 0. -1.
       -2    1    3    3    0  502 -0.25738183482E+03 -0.10820878077E+03 -0.10309724039E+04  0.10681098477E+04  0.25500000920E-02 0.  1.
</event>
<event>
 5   0  0.5623061E-04  0.1963758E+04  0.7818609E-02  0.8623755E-01
        1   -1    0    0  501    0  0.00000000000E+00  0.00000000000E+00  0.81815576581E+03  0.81815576583E+03  0.50400001928E-02 0. -1.
       -1   -1    0    0    0  501  0.00000000000E+00  0.00000000000E+00 -0.11783657340E+04  0.11783657340E+04  0.50400001928E-02 0.  1.
    10030    2    1    2    0    0  0.00000000000E+00  0.00000000000E+00 -0.36020996820E+03  0.19965214998E+04  0.19637583553E+04 0.  0.
        3    1    3    3  502    0  0.89585431288E+03  0.14492041535E+03  0.20102244908E+03  0.92949820437E+03  0.10100000352E+00 0.  1.
       -3    1    3    3    0  502 -0.89585431288E+03 -0.14492041535E+03 -0.56123241728E+03  0.10670232955E+04  0.10100000352E+00 0. -1.
</event>
<event>
 5   0  0.3832500E-04  0.1584210E+04  0.7818609E-02  0.8830308E-01
        3   -1    0    0  501    0  0.00000000000E+00  0.00000000000E+00  0.11585504392E+04  0.11585504436E+04  0.10100000352E+00 0. -1.
       -3   -1    0    0    0  501  0.00000000000E+00  0.00000000000E+00 -0.54156497938E+03  0.54156498880E+03  0.10100000352E+00 0.  1.
    10030    2    1    2    0    0  0.00000000000E+00  0.00000000000E+00  0.61698545981E+03  0.17001154324E+04  0.15842100321E+04 0.  0.
        5    1    3    3  502    0 -0.86820379066E+02  0.59355947977E+03  0.86359668593E+03  0.10515093724E+04  0.46999998093E+01 0. -1.
       -5    1    3    3    0  502  0.86820379066E+02 -0.59355947977E+03 -0.24661122613E+03  0.64860606002E+03  0.46999998093E+01 0.  1.
</event>
<event>
 5   0  0.9844690E-04  0.1582489E+04  0.7818609E-02  0.8831378E-01
       -2   -1    0    0    0  501  0.00000000000E+00  0.00000000000E+00  0.84673703483E+03  0.84673703483E+03  0.25500000920E-02 0. -1.
        2   -1    0    0  501    0  0.00000000000E+00  0.00000000000E+00 -0.73938875503E+03  0.73938875503E+03  0.25500000920E-02 0.  1.
    10030    2    1    2    0    0  0.00000000000E+00  0.00000000000E+00  0.10734827980E+03  0.15861257899E+04  0.15824889788E+04 0.  0.
        3    1    3    3  502    0  0.55382484236E+03 -0.46931783586E+03 -0.26182958714E+03  0.77170974464E+03  0.10100000352E+00 0.  1.
       -3    1    3    3    0  502 -0.55382484236E+03  0.46931783586E+03  0.36917786695E+03  0.81441604522E+03  0.10100000352E+00 0. -1.
</event>
<event>
 5   0  0.5288658E-04  0.1602465E+04  0.7818609E-02  0.8819035E-01
       -1   -1    0    0    0  501  0.00000000000E+00  0.00000000000E+00  0.45200979240E+03  0.45200979243E+03  0.50400001928E-02 0. -1.
        1   -1    0    0  501    0  0.00000000000E+00  0.00000000000E+00 -0.14202653411E+04  0.14202653411E+04  0.50400001928E-02 0.  1.
    10030    2    1    2    0    0  0.00000000000E+00  0.00000000000E+00 -0.96825554867E+03  0.18722751335E+04  0.16024654031E+04 0.  0.
        1    1    3    3  502    0 -0.19967049263E+03  0.72520532479E+03 -0.16164286522E+03  0.76936303825E+03  0.50400001928E-02 0. -1.
       -1    1    3    3    0  502  0.19967049263E+03 -0.72520532479E+03 -0.80661268345E+03  0.11029120953E+04  0.50400001928E-02 0.  1.
</event>
<event>
 5   0  0.1057872E-03  0.1599898E+04  0.7818609E-02  0.8820610E-01
       -2   -1    0    0    0  501  0.00000000000E+00  0.00000000000E+00  0.74715821759E+03  0.74715821760E+03  0.25500000920E-02 0. -1.
        2   -1    0    0  501    0  0.00000000000E+00  0.00000000000E+00 -0.85647011615E+03  0.85647011615E+03  0.25500000920E-02 0.  1.
    10030    2    1    2    0    0  0.00000000000E+00  0.00000000000E+00 -0.10931189855E+03  0.16036283337E+04  0.15998983535E+04 0.  0.
        2    1    3    3  502    0  0.37152947338E+03  0.37538143280E+03  0.54755532082E+03  0.76076422040E+03  0.25500000920E-02 0. -1.
       -2    1    3    3    0  502 -0.37152947338E+03 -0.37538143280E+03 -0.65686721937E+03  0.84286411335E+03  0.25500000920E-02 0.  1.
</event>
<event>
 5   0  0.5281116E-04  0.1603495E+04  0.7818609E-02  0.8818404E-01
       -1   -1    0    0    0  501  0.00000000000E+00  0.00000000000E+00  0.48236907435E+03  0.48236907438E+03  0.50400001928E-02 0. -1.
        1   -1    0    0  501    0  0.00000000000E+00  0.00000000000E+00 -0.13325881175E+04  0.13325881175E+04  0.50400001928E-02 0.  1.
    10030    2    1    2    0    0  0.00000000000E+00  0.00000000000E+00 -0.85021904313E+03  0.18149571919E+04  0.16034953031E+04 0.  0.
        2    1    3    3  502    0  0.37101901491E+03 -0.29205992876E+03  0.30829449238E+03  0.56391453737E+03  0.25500000920E-02 0. -1.
       -2    1    3    3    0  502 -0.37101901491E+03  0.29205992876E+03 -0.11585135355E+04  0.12510426545E+04  0.25500000920E-02 0.  1.
</event>
<event>
 5   0  0.9844690E-04  0.1606959E+04  0.7818609E-02  0.8816284E-01
        2   -1    0    0  501    0  0.00000000000E+00  0.00000000000E+00  0.15481740057E+04  0.15481740057E+04  0.25500000920E-02 0.  1.
       -2   -1    0    0    0  501  0.00000000000E+00  0.00000000000E+00 -0.41699377662E+03  0.41699377663E+03  0.25500000920E-02 0. -1.
    10030    2    1    2    0    0  0.00000000000E+00  0.00000000000E+00  0.11311802291E+04  0.19651677824E+04  0.16069585253E+04 0.  0.
        3    1    3    3  502    0  0.35512073356E+03 -0.38960726324E+03  0.13071165535E+04  0.14094176988E+04  0.10100000352E+00 0.  1.
       -3    1    3    3    0  502 -0.35512073356E+03  0.38960726324E+03 -0.17593632439E+03  0.55575008359E+03  0.10100000352E+00 0. -1.
</event>
<event>
 5   0  0.1037321E-03  0.1587114E+04  0.7818609E-02  0.8828504E-01
       -2   -1    0    0    0  501  0.00000000000E+00  0.00000000000E+00  0.61101151691E+03  0.61101151691E+03  0.25500000920E-02 0. -1.
        2   -1    0    0  501    0  0.00000000000E+00  0.00000000000E+00 -0.10306395321E+04  0.10306395321E+04  0.25500000920E-02 0.  1.
    10030    2    1    2    0    0  0.00000000000E+00  0.00000000000E+00 -0.41962801518E+03  0.16416510490E+04  0.15871138887E+04 0.  0.
        5    1    3    3  502    0 -0.28508287587E+03  0.71906898288E+03 -0.26588481067E+02  0.77399062370E+03  0.46999998093E+01 0. -1.
       -5    1    3    3    0  502  0.28508287587E+03 -0.71906898288E+03 -0.39303953411E+03  0.86766042530E+03  0.46999998093E+01 0.  1.
</event>
<event>
 5   0  0.5281116E-04  0.1612852E+04  0.7818609E-02  0.8812691E-01
       -1   -1    0    0    0  501  0.00000000000E+00  0.00000000000E+00  0.99998572030E+03  0.99998572031E+03  0.50400001928E-02 0. -1.
        1   -1    0    0  501    0  0.00000000000E+00  0.00000000000E+00 -0.65033212114E+03  0.65033212116E+03  0.50400001928E-02 0.  1.
    10030    2    1    2    0    0  0.00000000000E+00  0.00000000000E+00  0.34965359915E+03  0.16503178415E+04  0.16128519270E+04 0.  0.
        2    1    3    3  502    0 -0.69226989767E+03 -0.41295038962E+03  0.19898020123E+03  0.83027631304E+03  0.25500000920E-02 0.  1.
       -2    1    3    3    0  502  0.69226989767E+03  0.41295038962E+03  0.15067339792E+03  0.82004152843E+03  0.25500000920E-02 0. -1.
</event>
<event>
 5   0  0.9844690E-04  0.1580896E+04  0.7818609E-02  0.8832371E-01
       -2   -1    0    0    0  501  0.00000000000E+00  0.00000000000E+00  0.81071659411E+03  0.81071659411E+03  0.25500000920E-02 0. -1.
        2   -1    0    0  501    0  0.00000000000E+00  0.00000000000E+00 -0.77068597281E+03  0.77068597281E+03  0.25500000920E-02 0.  1.
    10030    2    1    2    0    0  0.00000000000E+00  0.00000000000E+00  0.40030621297E+02  0.15814025669E+04  0.15808958309E+04 0.  0.
        3    1    3    3  502    0  0.54324993495E+03  0.17324009472E+02 -0.55409136875E+03  0.77616871121E+03  0.10100000352E+00 0.  1.
       -3    1    3    3    0  502 -0.54324993495E+03 -0.17324009472E+02  0.59412199005E+03  0.80523385572E+03  0.10100000352E+00 0. -1.
</event>
<event>
 5   0  0.1030027E-03  0.1643976E+04  0.7818609E-02  0.8793978E-01
       -2   -1    0    0    0  501  0.00000000000E+00  0.00000000000E+00  0.31348340410E+03  0.31348340411E+03  0.25500000920E-02 0.  1.
        2   -1    0    0  501    0  0.00000000000E+00  0.00000000000E+00 -0.21553434217E+04  0.21553434217E+04  0.25500000920E-02 0. -1.
    10030    2    1    2    0    0  0.00000000000E+00  0.00000000000E+00 -0.18418600176E+04  0.24688268259E+04  0.16439761469E+04 0.  0.
        1    1    3    3  502    0 -0.11957434233E+03 -0.74947473038E+03 -0.13950000154E+04  0.15880917599E+04  0.50400001928E-02 0. -1.
       -1    1    3    3    0  502  0.11957434233E+03  0.74947473038E+03 -0.44686000226E+03  0.88073506599E+03  0.50400001928E-02 0.  1.
</event>
<event>
 5   0  0.5623061E-04  0.1319648E+04  0.7818609E-02  0.9014128E-01
        1   -1    0    0  501    0  0.00000000000E+00  0.00000000000E+00  0.31265226570E+03  0.31265226574E+03  0.50400001928E-02 0. -1.
       -1   -1    0    0    0  501  0.00000000000E+00  0.00000000000E+00 -0.13924979336E+04  0.13924979336E+04  0.50400001928E-02 0.  1.
    10030    2    1    2    0    0  0.00000000000E+00  0.00000000000E+00 -0.10798456679E+04  0.17051501994E+04  0.13196478833E+04 0.  0.
        3    1    3    3  502    0 -0.14073820116E+02  0.28312122526E+03  0.22996249593E+03  0.36501843835E+03  0.10100000352E+00 0. -1.
       -3    1    3    3    0  502  0.14073820116E+02 -0.28312122526E+03 -0.13098081639E+04  0.13401317610E+04  0.10100000352E+00 0.  1.
</event>
<event>
 5   0  0.9844690E-04  0.1579476E+04  0.7818609E-02  0.8833257E-01
        2   -1    0    0  501    0  0.00000000000E+00  0.00000000000E+00  0.13830464306E+04  0.13830464306E+04  0.25500000920E-02 0. -1.
       -2   -1    0    0    0  501  0.00000000000E+00  0.00000000000E+00 -0.45095071662E+03  0.45095071663E+03  0.25500000920E-02 0.  1.
    10030    2    1    2    0    0  0.00000000000E+00  0.00000000000E+00  0.93209571395E+03  0.18339971472E+04  0.15794755826E+04 0.  0.
        3    1    3    3  502    0  0.77934088873E+03  0.95354769230E+02  0.56471780301E+03  0.96714578017E+03  0.10100000352E+00 0.  1.
       -3    1    3    3    0  502 -0.77934088873E+03 -0.95354769230E+02  0.36737791094E+03  0.86685136702E+03  0.10100000352E+00 0. -1.
</event>
<event>
 5   0  0.5532881E-04  0.1588066E+04  0.7818609E-02  0.8827913E-01
       -1   -1    0    0    0  501  0.00000000000E+00  0.00000000000E+00  0.41511081996E+03  0.41511081999E+03  0.50400001928E-02 0.  1.
        1   -1    0    0  501    0  0.00000000000E+00  0.00000000000E+00 -0.15188437361E+04  0.15188437362E+04  0.50400001928E-02 0. -1.
    10030    2    1    2    0    0  0.00000000000E+00  0.00000000000E+00 -0.11037329162E+04  0.19339545561E+04  0.15880660802E+04 0.  0.
        4    1    3    3  502    0  0.72315329081E+03 -0.32170556189E+03 -0.47444523704E+03  0.92279198436E+03  0.12699999809E+01 0.  1.
       -4    1    3    3    0  502 -0.72315329081E+03  0.32170556189E+03 -0.62928767915E+03  0.10111625718E+04  0.12699999809E+01 0. -1.
</event>
<event>
 5   0  0.5288658E-04  0.1605241E+04  0.7818609E-02  0.8817335E-01
       -1   -1    0    0    0  501  0.00000000000E+00  0.00000000000E+00  0.99974600896E+03  0.99974600898E+03  0.50400001928E-02 0. -1.
        1   -1    0    0  501    0  0.00000000000E+00  0.00000000000E+00 -0.64436358946E+03  0.64436358948E+03  0.50400001928E-02 0.  1.
    10030    2    1    2    0    0  0.00000000000E+00  0.00000000000E+00  0.35538241951E+03  0.16441095985E+04  0.16052413238E+04 0.  0.
        1    1    3    3  502    0 -0.41016659501E+03  0.61449718613E+03  0.49890336053E+03  0.89148639395E+03  0.50400001928E-02 0. -1.
       -1    1    3    3    0  502  0.41016659501E+03 -0.61449718613E+03 -0.14352094103E+03  0.75262320451E+03  0.50400001928E-02 0.  1.
</event>
<event>
 5   0  0.5623061E-04  0.1532616E+04  0.7818609E-02  0.8863048E-01
       -1   -1    0    0    0  501  0.00000000000E+00  0.00000000000E+00  0.25416279869E+03  0.25416279874E+03  0.50400001928E-02 0.  1.
        1   -1    0    0  501    0  0.00000000000E+00  0.00000000000E+00 -0.23104413581E+04  0.23104413581E+04  0.50400001928E-02 0. -1.
    10030    2    1    2    0    0  0.00000000000E+00  0.00000000000E+00 -0.20562785594E+04  0.25646041568E+04  0.15326163797E+04 0.  0.
        3    1    3    3  502    0 -0.54428211827E+03 -0.43708548876E+03 -0.49913428362E+03  0.85815021531E+03  0.10100000352E+00 0.  1.
       -3    1    3    3    0  502  0.54428211827E+03  0.43708548876E+03 -0.15571442758E+04  0.17064539415E+04  0.10100000352E+00 0. -1.
</event>
<event>
 5   0  0.1000121E-03  0.1594503E+04  0.7818609E-02  0.8823932E-01
       -2   -1    0    0    0  501  0.00000000000E+00  0.00000000000E+00  0.60239309794E+03  0.60239309794E+03  0.25500000920E-02 0.  1.
        2   -1    0    0  501    0  0.00000000000E+00  0.00000000000E+00 -0.10551417204E+04  0.10551417204E+04  0.25500000920E-02 0. -1.
    10030    2    1    2    0    0  0.00000000000E+00  0.00000000000E+00 -0.45274862244E+03  0.16575348183E+04  0.15945031699E+04 0.  0.
        4    1    3    3  502    0  0.65474094169E+03  0.34441468490E+03 -0.53527638508E+03  0.91314270365E+03  0.12699999809E+01 0. -1.
       -4    1    3    3    0  502 -0.65474094169E+03 -0.34441468490E+03  0.82527762639E+02  0.74439211468E+03  0.12699999809E+01 0.  1.
</event>
<event>
 5   0  0.1000121E-03  0.1592309E+04  0.7818609E-02  0.8825287E-01
       -2   -1    0    0    0  501  0.00000000000E+00  0.00000000000E+00  0.12695367522E+04  0.12695367522E+04  0.25500000920E-02 0.  1.
        2   -1    0    0  501    0  0.00000000000E+00  0.00000000000E+00 -0.49928605814E+03  0.49928605814E+03  0.25500000920E-02 0. -1.
    10030    2    1    2    0    0  0.00000000000E+00  0.00000000000E+00  0.77025069402E+03  0.17688228103E+04  0.15923090161E+04 0.  0.
        4    1    3    3  502    0 -0.13710665912E+03  0.74516642127E+03  0.11350131677E+03  0.76613014115E+03  0.12699999809E+01 0. -1.
       -4    1    3    3    0  502  0.13710665912E+03 -0.74516642127E+03  0.65674937725E+03  0.10026926692E+04  0.12699999809E+01 0.  1.
</event>
<event>
 5   0  0.3832500E-04  0.1621824E+04  0.7818609E-02  0.8807252E-01
        4   -1    0    0  501    0  0.00000000000E+00  0.00000000000E+00  0.84675305269E+03  0.84675400509E+03  0.12699999809E+01 0.  1.
       -4   -1    0    0    0  501  0.00000000000E+00  0.00000000000E+00 -0.77658587632E+03  0.77658691478E+03  0.12699999809E+01 0. -1.
    10030    2    1    2    0    0  0.00000000000E+00  0.00000000000E+00  0.70167176367E+02  0.16233409199E+04  0.16218237603E+04 0.  0.
        1    1    3    3  502    0  0.37923657329E+03  0.70720616785E+03  0.15188523029E+03  0.81671908609E+03  0.50400001928E-02 0.  1.
       -1    1    3    3    0  502 -0.37923657329E+03 -0.70720616785E+03 -0.81718053923E+02  0.80662183378E+03  0.50400001928E-02 0. -1.
</event>
<event>
 5   0  0.5623061E-04  0.1567059E+04  0.7818609E-02  0.8841045E-01
       -1   -1    0    0    0  501  0.00000000000E+00  0.00000000000E+00  0.56632073830E+03  0.56632073832E+03  0.50400001928E-02 0.  1.
        1   -1    0    0  501    0  0.00000000000E+00  0.00000000000E+00 -0.10840469375E+04  0.10840469375E+04  0.50400001928E-02 0. -1.
    10030    2    1    2    0    0  0.00000000000E+00  0.00000000000E+00 -0.51772619916E+03  0.16503676758E+04  0.15670587251E+04 0.  0.
        3    1    3    3  502    0  0.30728506993E+03  0.27086192192E+03  0.44457381748E+03  0.60451317962E+03  0.10100000352E+00 0.  1.
       -3    1    3    3    0  502 -0.30728506993E+03 -0.27086192192E+03 -0.96230001664E+03  0.10458544962E+04  0.10100000352E+00 0. -1.
</event>
<event>
 5   0  0.5425525E-04  0.1544585E+04  0.7818609E-02  0.8855334E-01
        1   -1    0    0  501    0  0.00000000000E+00  0.00000000000E+00  0.13196479506E+04  0.13196479506E+04  0.50400001928E-02 0.  1.
       -1   -1    0    0    0  501  0.00000000000E+00  0.00000000000E+00 -0.45196574838E+03  0.45196574841E+03  0.50400001928E-02 0. -1.
    10030    2    1    2    0    0  0.00000000000E+00  0.00000000000E+00  0.86768220226E+03  0.17716136991E+04  0.15445849587E+04 0.  0.
        5    1    3    3  502    0  0.62495099628E+03  0.25649963126E+03  0.86309163102E+03  0.10960406298E+04  0.46999998093E+01 0. -1.
       -5    1    3    3    0  502 -0.62495099628E+03 -0.25649963126E+03  0.45905712381E+01  0.67557306928E+03  0.46999998093E+01 0.  1.
</event>
<event>
 5   0  0.1057872E-03  0.1496193E+04  0.7818609E-02  0.8886988E-01
        2   -1    0    0  501    0  0.00000000000E+00  0.00000000000E+00  0.10813564539E+04  0.10813564539E+04  0.25500000920E-02 0.  1.
       -2   -1    0    0    0  501  0.00000000000E+00  0.00000000000E+00 -0.51754317423E+03  0.51754317424E+03  0.25500000920E-02 0. -1.
    10030    2    1    2    0    0  0.00000000000E+00  0.00000000000E+00  0.56381327967E+03  0.15988996281E+04  0.14961933720E+04 0.  0.
        2    1    3    3  502    0  0.60609156019E+03  0.28025188660E+03 -0.78530322577E+02  0.67235043753E+03  0.25500000920E-02 0. -1.
       -2    1    3    3    0  502 -0.60609156019E+03 -0.28025188660E+03  0.64234360224E+03  0.92654919061E+03  0.25500000920E-02 0.  1.
</event>
<event>
 5   0  0.9844690E-04  0.1563067E+04  0.7818609E-02  0.8843564E-01
        2   -1    0    0  501    0  0.00000000000E+00  0.00000000000E+00  0.22921188358E+04  0.22921188358E+04  0.25500000920E-02 0.  1.
       -2   -1    0    0    0  501  0.00000000000E+00  0.00000000000E+00 -0.26647584997E+03  0.26647584998E+03  0.25500000920E-02 0. -1.
    10030    2    1    2    0    0  0.00000000000E+00  0.00000000000E+00  0.20256429858E+04  0.25585946858E+04  0.15630666205E+04 0.  0.
        3    1    3    3  502    0  0.57896225121E+02 -0.68876821326E+03  0.41576388962E+03  0.80660600456E+03  0.10100000352E+00 0. -1.
       -3    1    3    3    0  502 -0.57896225121E+02  0.68876821326E+03  0.16098790962E+04  0.17519886812E+04  0.10100000352E+00 0.  1.
</event>
<event>
 5   0  0.1030027E-03  0.1612149E+04  0.7818609E-02  0.8813119E-01
        2   -1    0    0  501    0  0.00000000000E+00  0.00000000000E+00  0.19649149907E+04  0.19649149907E+04  0.25500000920E-02 0.  1.
       -2   -1    0    0    0  501  0.00000000000E+00  0.00000000000E+00 -0.33067902085E+03  0.33067902086E+03  0.25500000920E-02 0. -1.
    10030    2    1    2    0    0  0.00000000000E+00  0.00000000000E+00  0.16342359699E+04  0.22955940116E+04  0.16121490814E+04 0.  0.
        1    1    3    3  502    0  0.53129258531E+03  0.27706372886E+03  0.15848813246E+04  0.16943685946E+04  0.50400001928E-02 0.  1.
       -1    1    3    3    0  502 -0.53129258531E+03 -0.27706372886E+03  0.49354645252E+02  0.60122541703E+03  0.50400001928E-02 0. -1.
</event>
<event>
 5   0  0.1057872E-03  0.1589934E+04  0.7818609E-02  0.8826756E-01
       -2   -1    0    0    0  501  0.00000000000E+00  0.00000000000E+00  0.79526091153E+03  0.79526091153E+03  0.25500000920E-02 0.  1.
        2   -1    0    0  501    0  0.00000000000E+00  0.00000000000E+00 -0.79467276299E+03  0.79467276299E+03  0.25500000920E-02 0. -1.
    10030    2    1    2    0    0  0.00000000000E+00  0.00000000000E+00  0.58814853934E+00  0.15899336745E+04  0.15899335657E+04 0.  0.
        2    1    3    3  502    0 -0.23988477331E+03 -0.33792555856E+03  0.67869945547E+03  0.79521779310E+03  0.25500000920E-02 0.  1.
       -2    1    3    3    0  502  0.23988477331E+03  0.33792555856E+03 -0.67811130693E+03  0.79471588143E+03  0.25500000920E-02 0. -1.
</event>
<event>
 5   0  0.9844690E-04  0.1614633E+04  0.7818609E-02  0.8811608E-01
       -2   -1    0    0    0  501  0.00000000000E+00  0.00000000000E+00  0.71624002441E+03  0.71624002441E+03  0.25500000920E-02 0.  1.
        2   -1    0    0  501    0  0.00000000000E+00  0.00000000000E+00 -0.90997471113E+03  0.90997471113E+03  0.25500000920E-02 0. -1.
    10030    2    1    2    0    0  0.00000000000E+00  0.00000000000E+00 -0.19373468672E+03  0.16262147355E+04  0.16146334684E+04 0.  0.
        3    1    3    3  502    0 -0.36281990151E+03 -0.20806199220E+03 -0.79235069899E+03  0.89596189312E+03  0.10100000352E+00 0. -1.
       -3    1    3    3    0  502  0.36281990151E+03  0.20806199220E+03  0.59861601227E+03  0.73025284243E+03  0.10100000352E+00 0.  1.
</event>
<event>
 5   0  0.5623061E-04  0.1634448E+04  0.7818609E-02  0.8799660E-01
       -1   -1    0    0    0  501  0.00000000000E+00  0.00000000000E+00  0.36864545032E+03  0.36864545035E+03  0.50400001928E-02 0.  1.
        1   -1    0    0  501    0  0.00000000000E+00  0.00000000000E+00 -0.18116467771E+04  0.18116467771E+04  0.50400001928E-02 0. -1.
    10030    2    1    2    0    0  0.00000000000E+00  0.00000000000E+00 -0.14430013268E+04  0.21802922275E+04  0.16344483375E+04 0.  0.
        3    1    3    3  502    0  0.78824403658E+02  0.26023254021E+03  0.30653427632E+03  0.40975301629E+03  0.10100000352E+00 0.  1.
       -3    1    3    3    0  502 -0.78824403658E+02 -0.26023254021E+03 -0.17495356031E+04  0.17705392112E+04  0.10100000352E+00 0. -1.
</event>
<event>
 5   0  0.1037321E-03  0.1609352E+04  0.7818609E-02  0.8814823E-01
        2   -1    0    0  501    0  0.00000000000E+00  0.00000000000E+00  0.72833100885E+03  0.72833100885E+03  0.25500000920E-02 0.  1.
       -2   -1    0    0    0  501  0.00000000000E+00  0.00000000000E+00 -0.88902331749E+03  0.88902331749E+03  0.25500000920E-02 0. -1.
    10030    2    1    2    0    0  0.00000000000E+00  0.00000000000E+00 -0.16069230864E+03  0.16173543263E+04  0.16093517325E+04 0.  0.
        5    1    3    3  502    0 -0.18645000256E+03 -0.26313737339E+03 -0.82122040218E+03  0.88228675593E+03  0.46999998093E+01 0. -1.
       -5    1    3    3    0  502  0.18645000256E+03  0.26313737339E+03  0.66052809354E+03  0.73506757042E+03  0.46999998093E+01 0.  1.
</event>
<event>
 5   0  0.5425525E-04  0.1558372E+04  0.7818609E-02  0.8846538E-01
        1   -1    0    0  501    0  0.00000000000E+00  0.00000000000E+00  0.15206758461E+04  0.15206758461E+04  0.50400001928E-02 0. -1.
       -1   -1    0    0    0  501  0.00000000000E+00  0.00000000000E+00 -0.39925076270E+03  0.39925076274E+03  0.50400001928E-02 0.  1.
    10030    2    1    2    0    0  0.00000000000E+00  0.00000000000E+00  0.11214250834E+04  0.19199266088E+04  0.15583722167E+04 0.  0.
        5    1    3    3  502    0 -0.53863195256E+03  0.37710753988E+03  0.45659007934E+02  0.65912162152E+03  0.46999998093E+01 0.  1.
       -5    1    3    3    0  502  0.53863195256E+03 -0.37710753988E+03  0.10757660754E+04  0.12608049873E+04  0.46999998093E+01 0. -1.
</event>
<event>
 5   0  0.5623061E-04  0.1613220E+04  0.7818609E-02  0.8812467E-01
        1   -1    0    0  501    0  0.00000000000E+00  0.00000000000E+00  0.72945707011E+03  0.72945707013E+03  0.50400001928E-02 0. -1.
       -1   -1    0    0    0  501  0.00000000000E+00  0.00000000000E+00 -0.89192344313E+03  0.89192344315E+03  0.50400001928E-02 0.  1.
    10030    2    1    2    0    0  0.00000000000E+00  0.00000000000E+00 -0.16246637302E+03  0.16213805133E+04  0.16132202102E+04 0.  0.
        3    1    3    3  502    0  0.38148981715E+03  0.24476749990E+03  0.58935563378E+03  0.74349558362E+03  0.10100000352E+00 0. -1.
       -3    1    3    3    0  502 -0.38148981715E+03 -0.24476749990E+03 -0.75182200680E+03  0.87788492965E+03  0.10100000352E+00 0.  1.
</event>
<event>
 5   0  0.9844690E-04  0.1539499E+04  0.7818609E-02  0.8858603E-01
        2   -1    0    0  501    0  0.00000000000E+00  0.00000000000E+00  0.11998665891E+04  0.11998665891E+04  0.25500000920E-02 0. -1.
       -2   -1    0    0    0  501  0.00000000000E+00  0.00000000000E+00 -0.49381672210E+03  0.49381672211E+03  0.25500000920E-02 0.  1.
    10030    2    1    2    0    0  0.00000000000E+00  0.00000000000E+00  0.70604986700E+03  0.16936833112E+04  0.15394988613E+04 0.  0.
        3    1    3    3  502    0  0.87627298201E+02  0.37762752606E+03 -0.37858307525E+03  0.54185445176E+03  0.10100000352E+00 0.  1.
       -3    1    3    3    0  502 -0.87627298201E+02 -0.37762752606E+03  0.10846329423E+04  0.11518288594E+04  0.10100000352E+00 0. -1.
</event>
<event>
 5   0  0.5288658E-04  0.1689976E+04  0.7818609E-02  0.8767102E-01
       -1   -1    0    0    0  501  0.00000000000E+00  0.00000000000E+00  0.56282416352E+03  0.56282416354E+03  0.50400001928E-02 0.  1.
        1   -1    0    0  501    0  0.00000000000E+00  0.00000000000E+00 -0.12686104181E+04  0.12686104181E+04  0.50400001928E-02 0. -1.
    10030    2    1    2    0    0  0.00000000000E+00  0.00000000000E+00 -0.70578625459E+03  0.18314345817E+04  0.16899758548E+04 0.  0.
        1    1    3    3  502    0 -0.63815531161E+03 -0.22850507581E+03  0.19386545252E+03  0.70501105318E+03  0.50400001928E-02 0.  1.
       -1    1    3    3    0  502  0.63815531161E+03  0.22850507581E+03 -0.89965170710E+03  0.11264235285E+04  0.50400001928E-02 0. -1.
</event>
<event>
 5   0  0.5623061E-04  0.1600617E+04  0.7818609E-02  0.8820169E-01
       -1   -1    0    0    0  501  0.00000000000E+00  0.00000000000E+00  0.51221624885E+03  0.51221624888E+03  0.50400001928E-02 0. -1.
        1   -1    0    0  501    0  0.00000000000E+00  0.00000000000E+00 -0.12504363696E+04  0.12504363696E+04  0.50400001928E-02 0.  1.
    10030    2    1    2    0    0  0.00000000000E+00  0.00000000000E+00 -0.73822012077E+03  0.17626526185E+04  0.16006171644E+04 0.  0.
        3    1    3    3  502    0  0.10532805589E+03 -0.73480543950E+03 -0.39731286320E+02  0.74337851636E+03  0.10100000352E+00 0. -1.
       -3    1    3    3    0  502 -0.10532805589E+03  0.73480543950E+03 -0.69848883445E+03  0.10192741022E+04  0.10100000352E+00 0.  1.
</event>
<event>
 5   0  0.5281116E-04  0.1567606E+04  0.7818609E-02  0.8840700E-01
       -1   -1    0    0    0  501  0.00000000000E+00  0.00000000000E+00  0.45010013700E+03  0.45010013702E+03  0.50400001928E-02 0. -1.
        1   -1    0    0  501    0  0.00000000000E+00  0.00000000000E+00 -0.13649118499E+04  0.13649118499E+04  0.50400001928E-02 0.  1.
    10030    2    1    2    0    0  0.00000000000E+00  0.00000000000E+00 -0.91481171286E+03  0.18150119869E+04  0.15676058314E+04 0.  0.
        2    1    3    3  502    0 -0.46761332030E+03  0.57828390225E+03 -0.74400540660E+03  0.10519593785E+04  0.25500000920E-02 0.  1.
       -2    1    3    3    0  502  0.46761332030E+03 -0.57828390225E+03 -0.17080630625E+03  0.76305260840E+03  0.25500000920E-02 0. -1.
</event>
<event>
 5   0  0.5425525E-04  0.9953261E+03  0.7818609E-02  0.9313686E-01
       -1   -1    0    0    0  501  0.00000000000E+00  0.00000000000E+00  0.58207652867E+03  0.58207652869E+03  0.50400001928E-02 0. -1.
        1   -1    0    0  501    0  0.00000000000E+00  0.00000000000E+00 -0.42549133191E+03  0.42549133194E+03  0.50400001928E-02 0.  1.
    10030    2    1    2    0    0  0.00000000000E+00  0.00000000000E+00  0.15658519676E+03  0.10075678606E+04  0.99532611235E+03 0.  0.
        5    1    3    3  502    0  0.21718109945E+02  0.25387685587E+03 -0.35442393401E+03  0.43653585104E+03  0.46999998093E+01 0.  1.
       -5    1    3    3    0  502 -0.21718109945E+02 -0.25387685587E+03  0.51100913077E+03  0.57103200959E+03  0.46999998093E+01 0. -1.
</event>
<event>
 5   0  0.1000121E-03  0.1582122E+04  0.7818609E-02  0.8831607E-01
       -2   -1    0    0    0  501  0.00000000000E+00  0.00000000000E+00  0.32799802411E+03  0.32799802412E+03  0.25500000920E-02 0.  1.
        2   -1    0    0  501    0  0.00000000000E+00  0.00000000000E+00 -0.19078699970E+04  0.19078699970E+04  0.25500000920E-02 0. -1.
    10030    2    1    2    0    0  0.00000000000E+00  0.00000000000E+00 -0.15798719729E+04  0.22358680211E+04  0.15821221056E+04 0.  0.
        4    1    3    3  502    0 -0.69053627179E+02 -0.74369103235E+03 -0.42160277693E+03  0.85766850790E+03  0.12699999809E+01 0.  1.
       -4    1    3    3    0  502  0.69053627179E+02  0.74369103235E+03 -0.11582691960E+04  0.13781995132E+04  0.12699999809E+01 0. -1.
</event>
<event>
 5   0  0.1030027E-03  0.1563087E+04  0.7818609E-02  0.8843551E-01
        2   -1    0    0  501    0  0.00000000000E+00  0.00000000000E+00  0.13036943491E+04  0.13036943491E+04  0.25500000920E-02 0.  1.
       -2   -1    0    0    0  501  0.00000000000E+00  0.00000000000E+00 -0.46852283453E+03  0.46852283453E+03  0.25500000920E-02 0. -1.
    10030    2    1    2    0    0  0.00000000000E+00  0.00000000000E+00  0.83517151454E+03  0.17722171836E+04  0.15630874215E+04 0.  0.
        1    1    3    3  502    0 -0.24408661690E+03  0.70444778947E+03  0.15172258200E+03  0.76081844519E+03  0.50400001928E-02 0. -1.
       -1    1    3    3    0  502  0.24408661690E+03 -0.70444778947E+03  0.68344893255E+03  0.10113987384E+04  0.50400001928E-02 0.  1.
</event>
<event>
 5   0  0.5532881E-04  0.1522272E+04  0.7818609E-02  0.8869776E-01
        1   -1    0    0  501    0  0.00000000000E+00  0.00000000000E+00  0.89447102317E+03  0.89447102318E+03  0.50400001928E-02 0.  1.
       -1   -1    0    0    0  501  0.00000000000E+00  0.00000000000E+00 -0.64767682713E+03  0.64767682715E+03  0.50400001928E-02 0. -1.
    10030    2    1    2    0    0  0.00000000000E+00  0.00000000000E+00  0.24679419604E+03  0.15421478503E+04  0.15222721889E+04 0.  0.
        4    1    3    3  502    0  0.63048745335E+03  0.40654654807E+03  0.25365276243E+03  0.79191910027E+03  0.12699999809E+01 0.  1.
       -4    1    3    3    0  502 -0.63048745335E+03 -0.40654654807E+03 -0.68585663880E+01  0.75022875006E+03  0.12699999809E+01 0. -1.
</event>
<event>
 5   0  0.1057872E-03  0.1566477E+04  0.7818609E-02  0.8841411E-01
       -2   -1    0    0    0  501  0.00000000000E+00  0.00000000000E+00  0.10651137411E+04  0.10651137411E+04  0.25500000920E-02 0. -1.
        2   -1    0    0  501    0  0.00000000000E+00  0.00000000000E+00 -0.57595995789E+03  0.57595995789E+03  0.25500000920E-02 0.  1.
    10030    2    1    2    0    0  0.00000000000E+00  0.00000000000E+00  0.48915378323E+03  0.16410736990E+04  0.15664774055E+04 0.  0.
        2    1    3    3  502    0  0.24979146328E+02 -0.17067142037E+03  0.10449686013E+04  0.10591090923E+04  0.25500000920E-02 0. -1.
       -2    1    3    3    0  502 -0.24979146328E+02  0.17067142037E+03 -0.55581481811E+03  0.58196460676E+03  0.25500000920E-02 0.  1.
</event>
<event>
 5   0  0.5425525E-04  0.1579748E+04  0.7818609E-02  0.8833087E-01
       -1   -1    0    0    0  501  0.00000000000E+00  0.00000000000E+00  0.46947607776E+03  0.46947607779E+03  0.50400001928E-02 0.  1.
        1   -1    0    0  501    0  0.00000000000E+00  0.00000000000E+00 -0.13289302235E+04  0.13289302235E+04  0.50400001928E-02 0. -1.
    10030    2    1    2    0    0  0.00000000000E+00  0.00000000000E+00 -0.85945414576E+03  0.17984063013E+04  0.15797480166E+04 0.  0.
        5    1    3    3  502    0 -0.17745893809E+03 -0.57233283386E+03  0.15611058230E+03  0.61923271177E+03  0.46999998093E+01 0.  1.
       -5    1    3    3    0  502  0.17745893809E+03  0.57233283386E+03 -0.10155647281E+04  0.11791735895E+04  0.46999998093E+01 0. -1.
</event>
<event>
 5   0  0.1057872E-03  0.1668447E+04  0.7818609E-02  0.8779567E-01
        2   -1    0    0  501    0  0.00000000000E+00  0.00000000000E+00  0.18142038693E+04  0.18142038693E+04  0.25500000920E-02 0.  1.
       -2   -1    0    0    0  501  0.00000000000E+00  0.00000000000E+00 -0.38360025080E+03  0.38360025080E+03  0.25500000920E-02 0. -1.
    10030    2    1    2    0    0  0.00000000000E+00  0.00000000000E+00  0.14306036185E+04  0.21978041201E+04  0.16684472533E+04 0.  0.
        2    1    3    3  502    0  0.18209381599E+03  0.29316888744E+03  0.17157572504E+04  0.17501225947E+04  0.25500000920E-02 0.  1.
       -2    1    3    3    0  502 -0.18209381599E+03 -0.29316888744E+03 -0.28515363187E+03  0.44768152537E+03  0.25500000920E-02 0. -1.
</event>
<event>
 5   0  0.5281116E-04  0.1651845E+04  0.7818609E-02  0.8789316E-01
       -1   -1    0    0    0  501  0.00000000000E+00  0.00000000000E+00  0.10331337458E+04  0.10331337458E+04  0.50400001928E-02 0. -1.
        1   -1    0    0  501    0  0.00000000000E+00  0.00000000000E+00 -0.66027075328E+03  0.66027075330E+03  0.50400001928E-02 0.  1.
    10030    2    1    2    0    0  0.00000000000E+00  0.00000000000E+00  0.37286299253E+03  0.16934044991E+04  0.16518450249E+04 0.  0.
        2    1    3    3  502    0 -0.63006196298E+03  0.43818336991E+03 -0.12647774910E+03  0.77780419379E+03  0.25500000920E-02 0.  1.
       -2    1    3    3    0  502  0.63006196298E+03 -0.43818336991E+03  0.49934074163E+03  0.91560030532E+03  0.25500000920E-02 0. -1.
</event>
<event>
 5   0  0.5281116E-04  0.1528278E+04  0.7818609E-02  0.8865863E-01
       -1   -1    0    0    0  501  0.00000000000E+00  0.00000000000E+00  0.46837066159E+03  0.46837066162E+03  0.50400001928E-02 0. -1.
        1   -1    0    0  501    0  0.00000000000E+00  0.00000000000E+00 -0.12466799148E+04  0.12466799148E+04  0.50400001928E-02 0.  1.
    10030    2    1    2    0    0  0.00000000000E+00  0.00000000000E+00 -0.77830925324E+03  0.17150505765E+04  0.15282778498E+04 0.  0.
        2    1    3    3  502    0 -0.36661051404E+03  0.41038799488E+03  0.20581497603E+03  0.58752138660E+03  0.25500000920E-02 0. -1.
       -2    1    3    3    0  502  0.36661051404E+03 -0.41038799488E+03 -0.98412422927E+03  0.11275291899E+04  0.25500000920E-02 0.  1.
</event>
<event>
 5   0  0.5281116E-04  0.1499099E+04  0.7818609E-02  0.8885052E-01
        1   -1    0    0  501    0  0.00000000000E+00  0.00000000000E+00  0.93749990990E+03  0.93749990992E+03  0.50400001928E-02 0.  1.
       -1   -1    0    0    0  501  0.00000000000E+00  0.00000000000E+00 -0.59927962830E+03  0.59927962832E+03  0.50400001928E-02 0. -1.
    10030    2    1    2    0    0  0.00000000000E+00  0.00000000000E+00  0.33822028160E+03  0.15367795382E+04  0.14990991929E+04 0.  0.
        2    1    3    3  502    0 -0.54348413887E+03  0.49857952581E+03  0.32078860496E+02  0.73823140414E+03  0.25500000920E-02 0. -1.
       -2    1    3    3    0  502  0.54348413887E+03 -0.49857952581E+03  0.30614142111E+03  0.79854813410E+03  0.25500000920E-02 0.  1.
</event>
<event>
 5   0  0.1000121E-03  0.1581799E+04  0.7818609E-02  0.8831808E-01
       -2   -1    0    0    0  501  0.00000000000E+00  0.00000000000E+00  0.38245827903E+03  0.38245827904E+03  0.25500000920E-02 0. -1.
        2   -1    0    0  501    0  0.00000000000E+00  0.00000000000E+00 -0.16355293471E+04  0.16355293471E+04  0.25500000920E-02 0.  1.
    10030    2    1    2    0    0  0.00000000000E+00  0.00000000000E+00 -0.12530710681E+04  0.20179876261E+04  0.15817986464E+04 0.  0.
        4    1    3    3  502    0  0.77652719034E+03  0.66544818469E+02 -0.45491240030E+03  0.90242428771E+03  0.12699999809E+01 0. -1.
       -4    1    3    3    0  502 -0.77652719034E+03 -0.66544818469E+02 -0.79815866776E+03  0.11155633384E+04  0.12699999809E+01 0.  1.
</event>
<event>
 5   0  0.5425525E-04  0.1586285E+04  0.7818609E-02  0.8829018E-01
       -1   -1    0    0    0  501  0.00000000000E+00  0.00000000000E+00  0.66315954167E+03  0.66315954169E+03  0.50400001928E-02 0. -1.
        1   -1    0    0  501    0  0.00000000000E+00  0.00000000000E+00 -0.94860245818E+03  0.94860245819E+03  0.50400001928E-02 0.  1.
    10030    2    1    2    0    0  0.00000000000E+00  0.00000000000E+00 -0.28544291651E+03  0.16117619999E+04  0.15862846799E+04 0.  0.
        5    1    3    3  502    0  0.50785822672E+03 -0.20814151441E+03 -0.72446391064E+03  0.90890754001E+03  0.46999998093E+01 0.  1.
       -5    1    3    3    0  502 -0.50785822672E+03  0.20814151441E+03  0.43902099414E+03  0.70285445987E+03  0.46999998093E+01 0. -1.
</event>
<event>
 5   0  0.1037321E-03  0.1616825E+04  0.7818609E-02  0.8810278E-01
        2   -1    0    0  501    0  0.00000000000E+00  0.00000000000E+00  0.87646386942E+03  0.87646386943E+03  0.25500000920E-02 0.  1.
       -2   -1    0    0    0  501  0.00000000000E+00  0.00000000000E+00 -0.74564444716E+03  0.74564444716E+03  0.25500000920E-02 0. -1.
    10030    2    1    2    0    0  0.00000000000E+00  0.00000000000E+00  0.13081942226E+03  0.16221083166E+04  0.16168245636E+04 0.  0.
        5    1    3    3  502    0  0.33177229467E+03  0.49105169496E+03 -0.48620861631E+03  0.76656736899E+03  0.46999998093E+01 0. -1.
       -5    1    3    3    0  502 -0.33177229467E+03 -0.49105169496E+03  0.61702803857E+03  0.85554094760E+03  0.46999998093E+01 0.  1.
</event>
<event>
 5   0  0.1037321E-03  0.1624158E+04  0.7818609E-02  0.8805843E-01
        2   -1    0    0  501    0  0.00000000000E+00  0.00000000000E+00  0.62889017685E+03  0.62889017685E+03  0.25500000920E-02 0.  1.
       -2   -1    0    0    0  501  0.00000000000E+00  0.00000000000E+00 -0.10486286494E+04  0.10486286494E+04  0.25500000920E-02 0. -1.
    10030    2    1    2    0    0  0.00000000000E+00  0.00000000000E+00 -0.41973847253E+03  0.16775188262E+04  0.16241579440E+04 0.  0.
        5    1    3    3  502    0  0.60830957007E+03 -0.16030692495E+03 -0.74026925576E+03  0.97147285307E+03  0.46999998093E+01 0. -1.
       -5    1    3    3    0  502 -0.60830957007E+03  0.16030692495E+03  0.32053078323E+03  0.70604597317E+03  0.46999998093E+01 0.  1.
</event>
<event>
 5   0  0.1000121E-03  0.1627346E+04  0.7818609E-02  0.8803922E-01
        2   -1    0    0  501    0  0.00000000000E+00  0.00000000000E+00  0.10862509600E+04  0.10862509600E+04  0.25500000920E-02 0.  1.
       -2   -1    0    0    0  501  0.00000000000E+00  0.00000000000E+00 -0.60949414254E+03  0.60949414255E+03  0.25500000920E-02 0. -1.
    10030    2    1    2    0    0  0.00000000000E+00  0.00000000000E+00  0.47675681749E+03  0.16957451026E+04  0.16273458114E+04 0.  0.
        4    1    3    3  502    0  0.24975145109E+03  0.65988419770E+03 -0.18391949320E+03  0.72914397383E+03  0.12699999809E+01 0. -1.
       -4    1    3    3    0  502 -0.24975145109E+03 -0.65988419770E+03  0.66067631069E+03  0.96660112875E+03  0.12699999809E+01 0.  1.
</event>
<event>
 5   0  0.5532881E-04  0.1608809E+04  0.7818609E-02  0.8815154E-01
        1   -1    0    0  501    0  0.00000000000E+00  0.00000000000E+00  0.52135545403E+03  0.52135545405E+03  0.50400001928E-02 0.  1.
       -1   -1    0    0    0  501  0.00000000000E+00  0.00000000000E+00 -0.12411243962E+04  0.12411243963E+04  0.50400001928E-02 0. -1.
    10030    2    1    2    0    0  0.00000000000E+00  0.00000000000E+00 -0.71976894221E+03  0.17624798503E+04  0.16088094643E+04 0.  0.
        4    1    3    3  502    0  0.41353430968E+03  0.41259512069E+03  0.24594792234E+03  0.63382754145E+03  0.12699999809E+01 0.  1.
       -4    1    3    3    0  502 -0.41353430968E+03 -0.41259512069E+03 -0.96571686455E+03  0.11286523089E+04  0.12699999809E+01 0. -1.
</event>
<event>
 5   0  0.5281116E-04  0.1598764E+04  0.7818609E-02  0.8821308E-01
        1   -1    0    0  501    0  0.00000000000E+00  0.00000000000E+00  0.18477059838E+04  0.18477059838E+04  0.50400001928E-02 0. -1.
       -1   -1    0    0    0  501  0.00000000000E+00  0.00000000000E+00 -0.34584048031E+03  0.34584048034E+03  0.50400001928E-02 0.  1.
    10030    2    1    2    0    0  0.00000000000E+00  0.00000000000E+00  0.15018655035E+04  0.21935464642E+04  0.15987639287E+04 0.  0.
        2    1    3    3  502    0 -0.54333729217E+03 -0.40470817368E+03  0.13330462686E+04  0.14953315596E+04  0.25500000920E-02 0. -1.
       -2    1    3    3    0  502  0.54333729217E+03  0.40470817368E+03  0.16881923494E+03  0.69821490460E+03  0.25500000920E-02 0.  1.
</event>
<event>
 5   0  0.1057872E-03  0.1603504E+04  0.7818609E-02  0.8818398E-01
        2   -1    0    0  501    0  0.00000000000E+00  0.00000000000E+00  0.87845797584E+03  0.87845797584E+03  0.25500000920E-02 0.  1.
       -2   -1    0    0    0  501  0.00000000000E+00  0.00000000000E+00 -0.73174414674E+03  0.73174414675E+03  0.25500000920E-02 0. -1.
    10030    2    1    2    0    0  0.00000000000E+00  0.00000000000E+00  0.14671382910E+03  0.16102021226E+04  0.16035042650E+04 0.  0.
        2    1    3    3  502    0  0.63251298207E+03 -0.33887366342E+03  0.43247966252E+03  0.83782258907E+03  0.25500000920E-02 0.  1.
       -2    1    3    3    0  502 -0.63251298207E+03  0.33887366342E+03 -0.28576583342E+03  0.77237953352E+03  0.25500000920E-02 0. -1.
</event>
<event>
 5   0  0.5281116E-04  0.1547692E+04  0.7818609E-02  0.8853343E-01
       -1   -1    0    0    0  501  0.00000000000E+00  0.00000000000E+00  0.55348417041E+03  0.55348417043E+03  0.50400001928E-02 0. -1.
        1   -1    0    0  501    0  0.00000000000E+00  0.00000000000E+00 -0.10819417411E+04  0.10819417411E+04  0.50400001928E-02 0.  1.
    10030    2    1    2    0    0  0.00000000000E+00  0.00000000000E+00 -0.52845757073E+03  0.16354259116E+04  0.15476919940E+04 0.  0.
        2    1    3    3  502    0 -0.39339351267E+02  0.77284400158E+03 -0.26266441999E+03  0.81720746011E+03  0.25500000920E-02 0. -1.
       -2    1    3    3    0  502  0.39339351267E+02 -0.77284400158E+03 -0.26579315074E+03  0.81821845146E+03  0.25500000920E-02 0.  1.
</event>
<event>
 5   0  0.9844690E-04  0.1606428E+04  0.7818609E-02  0.8816609E-01
       -2   -1    0    0    0  501  0.00000000000E+00  0.00000000000E+00  0.27472392051E+03  0.27472392052E+03  0.25500000920E-02 0. -1.
        2   -1    0    0  501    0  0.00000000000E+00  0.00000000000E+00 -0.23483666516E+04  0.23483666516E+04  0.25500000920E-02 0.  1.
    10030    2    1    2    0    0  0.00000000000E+00  0.00000000000E+00 -0.20736427311E+04  0.26230905722E+04  0.16064277056E+04 0.  0.
        3    1    3    3  502    0  0.15573081468E+03 -0.78130260565E+03 -0.12038748886E+04  0.14436068044E+04  0.10100000352E+00 0. -1.
       -3    1    3    3    0  502 -0.15573081468E+03  0.78130260565E+03 -0.86976784255E+03  0.11794837677E+04  0.10100000352E+00 0.  1.
</event>
<event>
 5   0  0.1037321E-03  0.1583648E+04  0.7818609E-02  0.8830657E-01
        2   -1    0    0  501    0  0.00000000000E+00  0.00000000000E+00  0.23234771184E+04  0.23234771184E+04  0.25500000920E-02 0. -1.
       -2   -1    0    0    0  501  0.00000000000E+00  0.00000000000E+00 -0.26984768069E+03  0.26984768070E+03  0.25500000920E-02 0.  1.
    10030    2    1    2    0    0  0.00000000000E+00  0.00000000000E+00  0.20536294377E+04  0.25933247991E+04  0.15836475764E+04 0.  0.
        5    1    3    3  502    0  0.11025152866E+02 -0.32634960832E+03  0.22080619696E+04  0.22320809511E+04  0.46999998093E+01 0. -1.
       -5    1    3    3    0  502 -0.11025152866E+02  0.32634960832E+03 -0.15443253183E+03  0.36124384802E+03  0.46999998093E+01 0.  1.
</event>
<event>
 5   0  0.5425525E-04  0.1475252E+04  0.7818609E-02  0.8901079E-01
        1   -1    0    0  501    0  0.00000000000E+00  0.00000000000E+00  0.42401452673E+03  0.42401452676E+03  0.50400001928E-02 0. -1.
       -1   -1    0    0    0  501  0.00000000000E+00  0.00000000000E+00 -0.12831928293E+04  0.12831928293E+04  0.50400001928E-02 0.  1.
    10030    2    1    2    0    0  0.00000000000E+00  0.00000000000E+00 -0.85917830253E+03  0.17072073560E+04  0.14752523855E+04 0.  0.
        5    1    3    3  502    0 -0.15869436081E+03  0.27421308071E+03  0.34124603071E+03  0.46566904263E+03  0.46999998093E+01 0. -1.
       -5    1    3    3    0  502  0.15869436081E+03 -0.27421308071E+03 -0.12004243332E+04  0.12415383134E+04  0.46999998093E+01 0.  1.
</event>
<event>
 5   0  0.5623061E-04  0.1588977E+04  0.7818609E-02  0.8827348E-01
        1   -1    0    0  501    0  0.00000000000E+00  0.00000000000E+00  0.92762678751E+03  0.92762678752E+03  0.50400001928E-02 0. -1.
       -1   -1    0    0    0  501  0.00000000000E+00  0.00000000000E+00 -0.68045928078E+03  0.68045928080E+03  0.50400001928E-02 0.  1.
    10030    2    1    2    0    0  0.00000000000E+00  0.00000000000E+00  0.24716750673E+03  0.16080860683E+04  0.15889773525E+04 0.  0.
        3    1    3    3  502    0  0.73257918576E+02 -0.46685977100E+03  0.76992484676E+03  0.90338754046E+03  0.10100000352E+00 0. -1.
       -3    1    3    3    0  502 -0.73257918576E+02  0.46685977100E+03 -0.52275734003E+03  0.70469852786E+03  0.10100000352E+00 0.  1.
</event>
<event>
 5   0  0.9844690E-04  0.1376791E+04  0.7818609E-02  0.8970792E-01
       -2   -1    0    0    0  501  0.00000000000E+00  0.00000000000E+00  0.13270988424E+04  0.13270988424E+04  0.25500000920E-02 0.  1.
        2   -1    0    0  501    0  0.00000000000E+00  0.00000000000E+00 -0.35708618130E+03  0.35708618131E+03  0.25500000920E-02 0. -1.
    10030    2    1    2    0    0  0.00000000000E+00  0.00000000000E+00  0.97001266111E+03  0.16841850237E+04  0.13767914263E+04 0.  0.
        3    1    3    3  502    0  0.30441044595E+03 -0.56133243975E+03  0.17043652391E+03  0.66091485564E+03  0.10100000352E+00 0. -1.
       -3    1    3    3    0  502 -0.30441044595E+03  0.56133243975E+03  0.79957613720E+03  0.10232701681E+04  0.10100000352E+00 0.  1.
</event>
<event>
 5   0  0.1030027E-03  0.1597518E+04  0.7818609E-02  0.8822074E-01
       -2   -1    0    0    0  501  0.00000000000E+00  0.00000000000E+00  0.49024206439E+03  0.49024206440E+03  0.25500000920E-02 0.  1.
        2   -1    0    0  501    0  0.00000000000E+00  0.00000000000E+00 -0.13014302567E+04  0.13014302567E+04  0.25500000920E-02 0. -1.
    10030    2    1    2    0    0  0.00000000000E+00  0.00000000000E+00 -0.81118819231E+03  0.17916723211E+04  0.15975178944E+04 0.  0.
        1    1    3    3  502    0 -0.79058921867E+03 -0.61435899502E+02 -0.29796077203E+03  0.84710465948E+03  0.50400001928E-02 0. -1.
       -1    1    3    3    0  502  0.79058921867E+03  0.61435899502E+02 -0.51322742027E+03  0.94456766161E+03  0.50400001928E-02 0.  1.
</event>
<event>
 5   0  0.1030027E-03  0.1827742E+04  0.7818609E-02  0.8691684E-01
       -2   -1    0    0    0  501  0.00000000000E+00  0.00000000000E+00  0.77163274626E+03  0.77163274627E+03  0.25500000920E-02 0. -1.
        2   -1    0    0  501    0  0.00000000000E+00  0.00000000000E+00 -0.10823282632E+04  0.10823282632E+04  0.25500000920E-02 0.  1.
    10030    2    1    2    0    0  0.00000000000E+00  0.00000000000E+00 -0.31069551692E+03  0.18539610095E+04  0.18277416996E+04 0.  0.
        1    1    3    3  502    0 -0.74482923788E+03  0.34781783415E+03 -0.56033972148E+03  0.99485096514E+03  0.50400001928E-02 0.  1.
       -1    1    3    3    0  502  0.74482923788E+03 -0.34781783415E+03  0.24964420456E+03  0.85911004432E+03  0.50400001928E-02 0. -1.
</event>
<event>
 5   0  0.1057872E-03  0.1554689E+04  0.7818609E-02  0.8848878E-01
        2   -1    0    0  501    0  0.00000000000E+00  0.00000000000E+00  0.12250071950E+04  0.12250071950E+04  0.25500000920E-02 0. -1.
       -2   -1    0    0    0  501  0.00000000000E+00  0.00000000000E+00 -0.49327447726E+03  0.49327447727E+03  0.25500000920E-02 0.  1.
    10030    2    1    2    0    0  0.00000000000E+00  0.00000000000E+00  0.73173271775E+03  0.17182816723E+04  0.15546894015E+04 0.  0.
        2    1    3    3  502    0 -0.67855626910E+03 -0.99580284990E+02  0.77030917716E+03  0.10313733911E+04  0.25500000920E-02 0. -1.
       -2    1    3    3    0  502  0.67855626910E+03  0.99580284990E+02 -0.38576459413E+02  0.68690828115E+03  0.25500000920E-02 0.  1.
</event>
<event>
 5   0  0.5288658E-04  0.1608977E+04  0.7818609E-02  0.8815052E-01
       -1   -1    0    0    0  501  0.00000000000E+00  0.00000000000E+00  0.35944677221E+03  0.35944677224E+03  0.50400001928E-02 0. -1.
        1   -1    0    0  501    0  0.00000000000E+00  0.00000000000E+00 -0.18005496034E+04  0.18005496034E+04  0.50400001928E-02 0.  1.
    10030    2    1    2    0    0  0.00000000000E+00  0.00000000000E+00 -0.14411028312E+04  0.21599963756E+04  0.16089769957E+04 0.  0.
        1    1    3    3  502    0  0.10375544055E+03 -0.72185426262E+03 -0.11765215646E+04  0.13842116023E+04  0.50400001928E-02 0.  1.
       -1    1    3    3    0  502 -0.10375544055E+03  0.72185426262E+03 -0.26458126658E+03  0.77578477335E+03  0.50400001928E-02 0. -1.
</event>
<event>
 5   0  0.1030027E-03  0.1652569E+04  0.7818609E-02  0.8788888E-01
        2   -1    0    0  501    0  0.00000000000E+00  0.00000000000E+00  0.11794360114E+04  0.11794360114E+04  0.25500000920E-02 0.  1.
       -2   -1    0    0    0  501  0.00000000000E+00  0.00000000000E+00 -0.57887474901E+03  0.57887474902E+03  0.25500000920E-02 0. -1.
    10030    2    1    2    0    0  0.00000000000E+00  0.00000000000E+00  0.60056126239E+03  0.17583107604E+04  0.16525685766E+04 0.  0.
        1    1    3    3  502    0 -0.13774767514E+03  0.53595395834E+03 -0.35259860170E+03  0.65616068262E+03  0.50400001928E-02 0. -1.
       -1    1    3    3    0  502  0.13774767514E+03 -0.53595395834E+03  0.95315986409E+03  0.11021500778E+04  0.50400001928E-02 0.  1.
</event>
<event>
 5   0  0.1000121E-03  0.1601057E+04  0.7818609E-02  0.8819899E-01
        2   -1    0    0  501    0  0.00000000000E+00  0.00000000000E+00  0.14077927371E+04  0.14077927371E+04  0.25500000920E-02 0.  1.
       -2   -1    0    0    0  501  0.00000000000E+00  0.00000000000E+00 -0.45521348033E+03  0.45521348034E+03  0.25500000920E-02 0. -1.
    10030    2    1    2    0    0  0.00000000000E+00  0.00000000000E+00  0.95257925681E+03  0.18630062175E+04  0.16010574399E+04 0.  0.
        4    1    3    3  502    0  0.43685360746E+03  0.57917686290E+03  0.87012937637E+03  0.11328784831E+04  0.12699999809E+01 0.  1.
       -4    1    3    3    0  502 -0.43685360746E+03 -0.57917686290E+03  0.82449880435E+02  0.73012773441E+03  0.12699999809E+01 0. -1.
</event>
<event>
 5   0  0.9844690E-04  0.1646367E+04  0.7818609E-02  0.8792559E-01
       -2   -1    0    0    0  501  0.00000000000E+00  0.00000000000E+00  0.64076570944E+03  0.64076570945E+03  0.25500000920E-02 0.  1.
        2   -1    0    0  501    0  0.00000000000E+00  0.00000000000E+00 -0.10575330629E+04  0.10575330629E+04  0.25500000920E-02 0. -1.
    10030    2    1    2    0    0  0.00000000000E+00  0.00000000000E+00 -0.41676735350E+03  0.16982987724E+04  0.16463668162E+04 0.  0.
        3    1    3    3  502    0 -0.69615907466E+03 -0.40600112320E+03 -0.35291609639E+02  0.80667210017E+03  0.10100000352E+00 0.  1.
       -3    1    3    3    0  502  0.69615907466E+03  0.40600112320E+03 -0.38147574386E+03  0.89162667223E+03  0.10100000352E+00 0. -1.
</event>
<event>
 5   0  0.5623061E-04  0.1595430E+04  0.7818609E-02  0.8823360E-01
       -1   -1    0    0    0  501  0.00000000000E+00  0.00000000000E+00  0.17671769806E+04  0.17671769806E+04  0.50400001928E-02 0. -1.
        1   -1    0    0  501    0  0.00000000000E+00  0.00000000000E+00 -0.36009374895E+03  0.36009374899E+03  0.50400001928E-02 0.  1.
    10030    2    1    2    0    0  0.00000000000E+00  0.00000000000E+00  0.14070832316E+04  0.21272707296E+04  0.15954302041E+04 0.  0.
        3    1    3    3  502    0  0.15190031738E+03  0.29069463719E+03  0.16731119098E+04  0.17049576392E+04  0.10100000352E+00 0. -1.
       -3    1    3    3    0  502 -0.15190031738E+03 -0.29069463719E+03 -0.26602867816E+03  0.42231309039E+03  0.10100000352E+00 0.  1.
</event>
<event>
 5   0  0.3832500E-04  0.1305851E+04  0.7818609E-02  0.9024938E-01
        4   -1    0    0  501    0  0.00000000000E+00  0.00000000000E+00  0.14972216325E+04  0.14972221712E+04  0.12699999809E+01 0. -1.
       -4   -1    0    0    0  501  0.00000000000E+00  0.00000000000E+00 -0.28473329936E+03  0.28473613165E+03  0.12699999809E+01 0.  1.
    10030    2    1    2    0    0  0.00000000000E+00  0.00000000000E+00  0.12124883332E+04  0.17819583028E+04  0.13058512300E+04 0.  0.
        3    1    3    3  502    0  0.34354123356E+03  0.12250744226E+03  0.13452492489E+04  0.13938164170E+04  0.10100000352E+00 0. -1.
       -3    1    3    3    0  502 -0.34354123356E+03 -0.12250744226E+03 -0.13276091570E+03  0.38814188579E+03  0.10100000352E+00 0.  1.
</event>
<event>
 5   0  0.1030027E-03  0.1624050E+04  0.7818609E-02  0.8805908E-01
        2   -1    0    0  501    0  0.00000000000E+00  0.00000000000E+00  0.15618444175E+04  0.15618444175E+04  0.25500000920E-02 0.  1.
       -2   -1    0    0    0  501  0.00000000000E+00  0.00000000000E+00 -0.42218302619E+03  0.42218302619E+03  0.25500000920E-02 0. -1.
    10030    2    1    2    0    0  0.00000000000E+00  0.00000000000E+00  0.11396613913E+04  0.19840274437E+04  0.16240495099E+04 0.  0.
        1    1    3    3  502    0  0.26190503859E+03  0.42127902365E+03 -0.21556485334E+03  0.54086825663E+03  0.50400001928E-02 0. -1.
       -1    1    3    3    0  502 -0.26190503859E+03 -0.42127902365E+03  0.13552262447E+04  0.14431591871E+04  0.50400001928E-02 0.  1.
</event>
<event>
 5   0  0.1000121E-03  0.1206755E+04  0.7818609E-02  0.9106964E-01
        2   -1    0    0  501    0  0.00000000000E+00  0.00000000000E+00  0.21229992817E+04  0.21229992817E+04  0.25500000920E-02 0.  1.
       -2   -1    0    0    0  501  0.00000000000E+00  0.00000000000E+00 -0.17148585368E+03  0.17148585370E+03  0.25500000920E-02 0. -1.
    10030    2    1    2    0    0  0.00000000000E+00  0.00000000000E+00  0.19515134280E+04  0.22944851354E+04  0.12067548951E+04 0.  0.
        4    1    3    3  502    0  0.26120518596E+03 -0.41252644026E+03  0.16497548419E+04  0.17204937851E+04  0.12699999809E+01 0.  1.
       -4    1    3    3    0  502 -0.26120518596E+03  0.41252644026E+03  0.30175858609E+03  0.57399135034E+03  0.12699999809E+01 0. -1.
</event>
<event>
 5   0  0.9844690E-04  0.1598894E+04  0.7818609E-02  0.8821228E-01
       -2   -1    0    0    0  501  0.00000000000E+00  0.00000000000E+00  0.39726195214E+03  0.39726195214E+03  0.25500000920E-02 0. -1.
        2   -1    0    0  501    0  0.00000000000E+00  0.00000000000E+00 -0.16088020064E+04  0.16088020064E+04  0.25500000920E-02 0.  1.
    10030    2    1    2    0    0  0.00000000000E+00  0.00000000000E+00 -0.12115400543E+04  0.20060639586E+04  0.15988944001E+04 0.  0.
        3    1    3    3  502    0  0.59162534553E+03 -0.29827379120E+03 -0.11670492085E+04  0.13420103090E+04  0.10100000352E+00 0.  1.
       -3    1    3    3    0  502 -0.59162534553E+03  0.29827379120E+03 -0.44490845739E+02  0.66405364960E+03  0.10100000352E+00 0. -1.
</event>
<event>
 5   0  0.5288658E-04  0.1442748E+04  0.7818609E-02  0.8923443E-01
       -1   -1    0    0    0  501  0.00000000000E+00  0.00000000000E+00  0.26375147868E+04  0.26375147868E+04  0.50400001928E-02 0. -1.
        1   -1    0    0  501    0  0.00000000000E+00  0.00000000000E+00 -0.19729964541E+03  0.19729964547E+03  0.50400001928E-02 0.  1.
    10030    2    1    2    0    0  0.00000000000E+00  0.00000000000E+00  0.24402151414E+04  0.28348144323E+04  0.14427483943E+04 0.  0.
        1    1    3    3  502    0  0.41713926706E+02 -0.22805265581E+03  0.25623210771E+04  0.25727878591E+04  0.50400001928E-02 0. -1.
       -1    1    3    3    0  502 -0.41713926706E+02  0.22805265581E+03 -0.12210593573E+03  0.26202657321E+03  0.50400001928E-02 0.  1.
</event>
<event>
 5   0  0.1057872E-03  0.1579742E+04  0.7818609E-02  0.8833091E-01
        2   -1    0    0  501    0  0.00000000000E+00  0.00000000000E+00  0.16982111620E+04  0.16982111620E+04  0.25500000920E-02 0.  1.
       -2   -1    0    0    0  501  0.00000000000E+00  0.00000000000E+00 -0.36738444703E+03  0.36738444704E+03  0.25500000920E-02 0. -1.
    10030    2    1    2    0    0  0.00000000000E+00  0.00000000000E+00  0.13308267150E+04  0.20655956091E+04  0.15797422178E+04 0.  0.
        2    1    3    3  502    0  0.65679352660E+03  0.84954211231E+02  0.12282708400E+04  0.13954369248E+04  0.25500000920E-02 0.  1.
       -2    1    3    3    0  502 -0.65679352660E+03 -0.84954211231E+02  0.10255587494E+03  0.67015868426E+03  0.25500000920E-02 0. -1.
</event>
<event>
 5   0  0.5288658E-04  0.1612384E+04  0.7818609E-02  0.8812976E-01
        1   -1    0    0  501    0  0.00000000000E+00  0.00000000000E+00  0.99772180839E+03  0.99772180841E+03  0.50400001928E-02 0. -1.
       -1   -1    0    0    0  501  0.00000000000E+00  0.00000000000E+00 -0.65142953244E+03  0.65142953246E+03  0.50400001928E-02 0.  1.
    10030    2    1    2    0    0  0.00000000000E+00  0.00000000000E+00  0.34629227595E+03  0.16491513409E+04  0.16123838887E+04 0.  0.
        1    1    3    3  502    0 -0.19986288258E+03 -0.33817768283E+03  0.89321419026E+03  0.97577707838E+03  0.50400001928E-02 0. -1.
       -1    1    3    3    0  502  0.19986288258E+03  0.33817768283E+03 -0.54692191431E+03  0.67337426248E+03  0.50400001928E-02 0.  1.
</event>
<event>
 5   0  0.5281116E-04  0.1618017E+04  0.7818609E-02  0.8809555E-01
       -1   -1    0    0    0  501  0.00000000000E+00  0.00000000000E+00  0.93741619887E+03  0.93741619889E+03  0.50400001928E-02 0. -1.
        1   -1    0    0  501    0  0.00000000000E+00  0.00000000000E+00 -0.69819029980E+03  0.69819029982E+03  0.50400001928E-02 0.  1.
    10030    2    1    2    0    0  0.00000000000E+00  0.00000000000E+00  0.23922589907E+03  0.16356064987E+04  0.16180171779E+04 0.  0.
        2    1    3    3  502    0 -0.44580449974E+03 -0.27719258541E+03 -0.50264154182E+03  0.72679151135E+03  0.25500000920E-02 0.  1.
       -2    1    3    3    0  502  0.44580449974E+03  0.27719258541E+03  0.74186744089E+03  0.90881498736E+03  0.25500000920E-02 0. -1.
</event>
<event>
 5   0  0.1037321E-03  0.1592501E+04  0.7818609E-02  0.8825168E-01
        2   -1    0    0  501    0  0.00000000000E+00  0.00000000000E+00  0.80236051136E+03  0.80236051137E+03  0.25500000920E-02 0.  1.
       -2   -1    0    0    0  501  0.00000000000E+00  0.00000000000E+00 -0.79018743057E+03  0.79018743058E+03  0.25500000920E-02 0. -1.
    10030    2    1    2    0    0  0.00000000000E+00  0.00000000000E+00  0.12173080791E+02  0.15925479419E+04  0.15925014171E+04 0.  0.
        5    1    3    3  502    0  0.10352925658E+03 -0.31203672248E+03  0.73130278877E+03  0.80181736200E+03  0.46999998093E+01 0.  1.
       -5    1    3    3    0  502 -0.10352925658E+03  0.31203672248E+03 -0.71912970798E+03  0.79073057994E+03  0.46999998093E+01 0. -1.
</event>
<event>
 5   0  0.5288658E-04  0.1663093E+04  0.7818609E-02  0.8782698E-01
        1   -1    0    0  501    0  0.00000000000E+00  0.00000000000E+00  0.11605061563E+04  0.11605061563E+04  0.50400001928E-02 0. -1.
       -1   -1    0    0    0  501  0.00000000000E+00  0.00000000000E+00 -0.59583447835E+03  0.59583447837E+03  0.50400001928E-02 0.  1.
    10030    2    1    2    0    0  0.00000000000E+00  0.00000000000E+00  0.56467167795E+03  0.17563406347E+04  0.16630929983E+04 0.  0.
        1    1    3    3  502    0 -0.53911378776E+03  0.63301431590E+03  0.27082614363E+03  0.87446989679E+03  0.50400001928E-02 0.  1.
       -1    1    3    3    0  502  0.53911378776E+03 -0.63301431590E+03  0.29384553433E+03  0.88187073789E+03  0.50400001928E-02 0. -1.
</event>
<event>
 5   0  0.1000121E-03  0.1582232E+04  0.7818609E-02  0.8831539E-01
       -2   -1    0    0    0  501  0.00000000000E+00  0.00000000000E+00  0.31785542162E+03  0.31785542163E+03  0.25500000920E-02 0. -1.
        2   -1    0    0  501    0  0.00000000000E+00  0.00000000000E+00 -0.19690215693E+04  0.19690215693E+04  0.25500000920E-02 0.  1.
    10030    2    1    2    0    0  0.00000000000E+00  0.00000000000E+00 -0.16511661477E+04  0.22868769909E+04  0.15822315647E+04 0.  0.
        4    1    3    3  502    0  0.18043590811E+03 -0.10029789698E+03  0.27823770321E+03  0.34646012391E+03  0.12699999809E+01 0. -1.
       -4    1    3    3    0  502 -0.18043590811E+03  0.10029789698E+03 -0.19294038509E+04  0.19404168670E+04  0.12699999809E+01 0.  1.
</event>
<event>
 5   0  0.5425525E-04  0.1602204E+04  0.7818609E-02  0.8819195E-01
       -1   -1    0    0    0  501  0.00000000000E+00  0.00000000000E+00  0.36080895840E+03  0.36080895844E+03  0.50400001928E-02 0.  1.
        1   -1    0    0  501    0  0.00000000000E+00  0.00000000000E+00 -0.17786830172E+04  0.17786830172E+04  0.50400001928E-02 0. -1.
    10030    2    1    2    0    0  0.00000000000E+00  0.00000000000E+00 -0.14178740588E+04  0.21394919757E+04  0.16022044399E+04 0.  0.
        5    1    3    3  502    0 -0.36957229203E+03  0.67532769080E+03 -0.41307044588E+03  0.87367067723E+03  0.46999998093E+01 0.  1.
       -5    1    3    3    0  502  0.36957229203E+03 -0.67532769080E+03 -0.10048036129E+04  0.12658212984E+04  0.46999998093E+01 0. -1.
</event>
<event>
 5   0  0.9844690E-04  0.1707948E+04  0.7818609E-02  0.8756844E-01
        2   -1    0    0  501    0  0.00000000000E+00  0.00000000000E+00  0.88756726530E+03  0.88756726530E+03  0.25500000920E-02 0.  1.
       -2   -1    0    0    0  501  0.00000000000E+00  0.00000000000E+00 -0.82165234186E+03  0.82165234186E+03  0.25500000920E-02 0. -1.
    10030    2    1    2    0    0  0.00000000000E+00  0.00000000000E+00  0.65914923443E+02  0.17092196072E+04  0.17079481516E+04 0.  0.
        3    1    3    3  502    0  0.83506754965E+03 -0.13856257641E+03  0.14588787666E+03  0.85896489033E+03  0.10100000352E+00 0. -1.
       -3    1    3    3    0  502 -0.83506754965E+03  0.13856257641E+03 -0.79972953219E+02  0.85025471684E+03  0.10100000352E+00 0.  1.
</event>
<event>
 5   0  0.9844690E-04  0.1477499E+04  0.7818609E-02  0.8899555E-01
       -2   -1    0    0    0  501  0.00000000000E+00  0.00000000000E+00  0.60921341149E+03  0.60921341150E+03  0.25500000920E-02 0. -1.
        2   -1    0    0  501    0  0.00000000000E+00  0.00000000000E+00 -0.89582916887E+03  0.89582916888E+03  0.25500000920E-02 0.  1.
    10030    2    1    2    0    0  0.00000000000E+00  0.00000000000E+00 -0.28661575738E+03  0.15050425804E+04  0.14774994336E+04 0.  0.
        3    1    3    3  502    0 -0.32478210025E+03  0.54490113537E+03  0.24236671489E+03  0.67907458696E+03  0.10100000352E+00 0.  1.
       -3    1    3    3    0  502  0.32478210025E+03 -0.54490113537E+03 -0.52898247227E+03  0.82596799341E+03  0.10100000352E+00 0. -1.
</event>
<event>
 5   0  0.5623061E-04  0.1613714E+04  0.7818609E-02  0.8812167E-01
       -1   -1    0    0    0  501  0.00000000000E+00  0.00000000000E+00  0.78581225743E+03  0.78581225745E+03  0.50400001928E-02 0.  1.
        1   -1    0    0  501    0  0.00000000000E+00  0.00000000000E+00 -0.82846548160E+03  0.82846548162E+03  0.50400001928E-02 0. -1.
    10030    2    1    2    0    0  0.00000000000E+00  0.00000000000E+00 -0.42653224172E+02  0.16142777391E+04  0.16137141387E+04 0.  0.
        3    1    3    3  502    0  0.43032559450E+03 -0.40280358562E+03 -0.57250677427E+03  0.82170241733E+03  0.10100000352E+00 0. -1.
       -3    1    3    3    0  502 -0.43032559450E+03  0.40280358562E+03  0.52985355010E+03  0.79257532173E+03  0.10100000352E+00 0.  1.
</event>
<event>
 5   0  0.1057872E-03  0.1587880E+04  0.7818609E-02  0.8828028E-01
        2   -1    0    0  501    0  0.00000000000E+00  0.00000000000E+00  0.19121742521E+04  0.19121742521E+04  0.25500000920E-02 0.  1.
       -2   -1    0    0    0  501  0.00000000000E+00  0.00000000000E+00 -0.32964626416E+03  0.32964626417E+03  0.25500000920E-02 0. -1.
    10030    2    1    2    0    0  0.00000000000E+00  0.00000000000E+00  0.15825279879E+04  0.22418205163E+04  0.15878804724E+04 0.  0.
        2    1    3    3  502    0  0.30314192623E+03  0.65148672015E+03  0.31455137699E+03  0.78439310473E+03  0.25500000920E-02 0. -1.
       -2    1    3    3    0  502 -0.30314192623E+03 -0.65148672015E+03  0.12679766109E+04  0.14574274115E+04  0.25500000920E-02 0.  1.
</event>
<event>
 5   0  0.1000121E-03  0.1523076E+04  0.7818609E-02  0.8869251E-01
       -2   -1    0    0    0  501  0.00000000000E+00  0.00000000000E+00  0.57676155666E+03  0.57676155667E+03  0.25500000920E-02 0.  1.
        2   -1    0    0  501    0  0.00000000000E+00  0.00000000000E+00 -0.10055108913E+04  0.10055108913E+04  0.25500000920E-02 0. -1.
    10030    2    1    2    0    0  0.00000000000E+00  0.00000000000E+00 -0.42874933467E+03  0.15822724480E+04  0.15230758706E+04 0.  0.
        4    1    3    3  502    0  0.73135844625E+02  0.30097554231E+03  0.50836831368E+03  0.59529411562E+03  0.12699999809E+01 0.  1.
       -4    1    3    3    0  502 -0.73135844625E+02 -0.30097554231E+03 -0.93711764836E+03  0.98697833239E+03  0.12699999809E+01 0. -1.
</event>
<event>
 5   0  0.1000121E-03  0.1580295E+04  0.7818609E-02  0.8832746E-01
        2   -1    0    0  501    0  0.00000000000E+00  0.00000000000E+00  0.21339701369E+04  0.21339701369E+04  0.25500000920E-02 0. -1.
       -2   -1    0    0    0  501  0.00000000000E+00  0.00000000000E+00 -0.29256878868E+03  0.29256878869E+03  0.25500000920E-02 0.  1.
    10030    2    1    2    0    0  0.00000000000E+00  0.00000000000E+00  0.18414013482E+04  0.24265389256E+04  0.15802949827E+04 0.  0.
        4    1    3    3  502    0  0.77116304846E+03 -0.11567014278E+03  0.11164956626E+04  0.13618502879E+04  0.12699999809E+01 0.  1.
       -4    1    3    3    0  502 -0.77116304846E+03  0.11567014278E+03  0.72490568564E+03  0.10646886377E+04  0.12699999809E+01 0. -1.
</event>
<event>
 5   0  0.5532881E-04  0.1603655E+04  0.7818609E-02  0.8818306E-01
        1   -1    0    0  501    0  0.00000000000E+00  0.00000000000E+00  0.72548018449E+03  0.72548018451E+03  0.50400001928E-02 0. -1.
       -1   -1    0    0    0  501  0.00000000000E+00  0.00000000000E+00 -0.88620926202E+03  0.88620926204E+03  0.50400001928E-02 0.  1.
    10030    2    1    2    0    0  0.00000000000E+00  0.00000000000E+00 -0.16072907753E+03  0.16116894465E+04  0.16036548992E+04 0.  0.
        4    1    3    3  502    0 -0.39625052483E+03  0.65711733502E+03 -0.31414116653E+03  0.82915858303E+03  0.12699999809E+01 0.  1.
       -4    1    3    3    0  502  0.39625052483E+03 -0.65711733502E+03  0.15341208899E+03  0.78253086352E+03  0.12699999809E+01 0. -1.
</event>
<event>
 5   0  0.5623061E-04  0.1605412E+04  0.7818609E-02  0.8817230E-01
        1   -1    0    0  501    0  0.00000000000E+00  0.00000000000E+00  0.13909549136E+04  0.13909549136E+04  0.50400001928E-02 0.  1.
       -1   -1    0    0    0  501  0.00000000000E+00  0.00000000000E+00 -0.46323352701E+03  0.46323352704E+03  0.50400001928E-02 0. -1.
    10030    2    1    2    0    0  0.00000000000E+00  0.00000000000E+00  0.92772138657E+03  0.18541884406E+04  0.16054120350E+04 0.  0.
        3    1    3    3  502    0  0.29260070708E+03 -0.10418216918E+03 -0.39101950933E+03  0.49936496176E+03  0.10100000352E+00 0. -1.
       -3    1    3    3    0  502 -0.29260070708E+03  0.10418216918E+03  0.13187408959E+04  0.13548234789E+04  0.10100000352E+00 0.  1.
</event>
<event>
 5   0  0.5288658E-04  0.1610907E+04  0.7818609E-02  0.8813875E-01
        1   -1    0    0  501    0  0.00000000000E+00  0.00000000000E+00  0.52567907887E+03  0.52567907889E+03  0.50400001928E-02 0.  1.
       -1   -1    0    0    0  501  0.00000000000E+00  0.00000000000E+00 -0.12341277923E+04  0.12341277923E+04  0.50400001928E-02 0. -1.
    10030    2    1    2    0    0  0.00000000000E+00  0.00000000000E+00 -0.70844871344E+03  0.17598068712E+04  0.16109067771E+04 0.  0.
        1    1    3    3  502    0  0.23170720300E+02 -0.28616786078E+03 -0.11763305891E+04  0.12108602651E+04  0.50400001928E-02 0. -1.
       -1    1    3    3    0  502 -0.23170720300E+02  0.28616786078E+03  0.46788187561E+03  0.54894660612E+03  0.50400001928E-02 0.  1.
</event>
<event>
 5   0  0.5281116E-04  0.1598674E+04  0.7818609E-02  0.8821363E-01
       -1   -1    0    0    0  501  0.00000000000E+00  0.00000000000E+00  0.73239157776E+03  0.73239157778E+03  0.50400001928E-02 0. -1.
        1   -1    0    0  501    0  0.00000000000E+00  0.00000000000E+00 -0.87240159011E+03  0.87240159012E+03  0.50400001928E-02 0.  1.
    10030    2    1    2    0    0  0.00000000000E+00  0.00000000000E+00 -0.14001001235E+03  0.16047931679E+04  0.15986739218E+04 0.  0.
        2    1    3    3  502    0  0.22468787826E+03  0.10218367672E+03  0.69317703285E+03  0.73581284666E+03  0.25500000920E-02 0. -1.
       -2    1    3    3    0  502 -0.22468787826E+03 -0.10218367672E+03 -0.83318704520E+03  0.86898032125E+03  0.25500000920E-02 0.  1.
</event>
<event>
 5   0  0.5288658E-04  0.1579022E+04  0.7818609E-02  0.8833540E-01
       -1   -1    0    0    0  501  0.00000000000E+00  0.00000000000E+00  0.36296047055E+03  0.36296047058E+03  0.50400001928E-02 0. -1.
        1   -1    0    0  501    0  0.00000000000E+00  0.00000000000E+00 -0.17173432572E+04  0.17173432572E+04  0.50400001928E-02 0.  1.
    10030    2    1    2    0    0  0.00000000000E+00  0.00000000000E+00 -0.13543827866E+04  0.20803037278E+04  0.15790221237E+04 0.  0.
        1    1    3    3  502    0 -0.55625351018E+03  0.17766568085E+03 -0.13772401968E+04  0.14959189890E+04  0.50400001928E-02 0.  1.
       -1    1    3    3    0  502  0.55625351018E+03 -0.17766568085E+03  0.22857410186E+02  0.58438473882E+03  0.50400001928E-02 0. -1.
</event>
<event>
 5   0  0.1057872E-03  0.1509254E+04  0.7818609E-02  0.8878322E-01
        2   -1    0    0  501    0  0.00000000000E+00  0.00000000000E+00  0.11941285942E+04  0.11941285942E+04  0.25500000920E-02 0.  1.
       -2   -1    0    0    0  501  0.00000000000E+00  0.00000000000E+00 -0.47688481021E+03  0.47688481022E+03  0.25500000920E-02 0. -1.
    10030    2    1    2    0    0  0.00000000000E+00  0.00000000000E+00  0.71724378403E+03  0.16710134045E+04  0.15092538395E+04 0.  0.
        2    1    3    3  502    0  0.69996097355E+03  0.25382811925E+03  0.22262490090E+03  0.77713314504E+03  0.25500000920E-02 0.  1.
       -2    1    3    3    0  502 -0.69996097355E+03 -0.25382811925E+03  0.49461888313E+03  0.89388025942E+03  0.25500000920E-02 0. -1.
</event>
<event>
 5   0  0.5532881E-04  0.1591916E+04  0.7818609E-02  0.8825530E-01
       -1   -1    0    0    0  501  0.00000000000E+00  0.00000000000E+00  0.48847554942E+03  0.48847554945E+03  0.50400001928E-02 0.  1.
        1   -1    0    0  501    0  0.00000000000E+00  0.00000000000E+00 -0.12969922338E+04  0.12969922338E+04  0.50400001928E-02 0. -1.
    10030    2    1    2    0    0  0.00000000000E+00  0.00000000000E+00 -0.80851668441E+03  0.17854677833E+04  0.15919158194E+04 0.  0.
        4    1    3    3  502    0  0.43067971125E+03  0.16379865350E+03  0.32367697042E+03  0.56310159532E+03  0.12699999809E+01 0.  1.
       -4    1    3    3    0  502 -0.43067971125E+03 -0.16379865350E+03 -0.11321936548E+04  0.12223661880E+04  0.12699999809E+01 0. -1.
</event>
<event>
 5   0  0.1000121E-03  0.1473048E+04  0.7818609E-02  0.8902576E-01
       -2   -1    0    0    0  501  0.00000000000E+00  0.00000000000E+00  0.82286600453E+03  0.82286600453E+03  0.25500000920E-02 0. -1.
        2   -1    0    0  501    0  0.00000000000E+00  0.00000000000E+00 -0.65924204514E+03  0.65924204515E+03  0.25500000920E-02 0.  1.
    10030    2    1    2    0    0  0.00000000000E+00  0.00000000000E+00  0.16362395938E+03  0.14821080497E+04  0.14730483600E+04 0.  0.
        4    1    3    3  502    0 -0.63147978743E+03  0.11793092998E+03 -0.28067009654E+03  0.70103619177E+03  0.12699999809E+01 0.  1.
       -4    1    3    3    0  502  0.63147978743E+03 -0.11793092998E+03  0.44429405593E+03  0.78107185791E+03  0.12699999809E+01 0. -1.
</event>
<event>
 5   0  0.5288658E-04  0.1566520E+04  0.7818609E-02  0.8841384E-01
        1   -1    0    0  501    0  0.00000000000E+00  0.00000000000E+00  0.14858934040E+04  0.14858934040E+04  0.50400001928E-02 0.  1.
       -1   -1    0    0    0  501  0.00000000000E+00  0.00000000000E+00 -0.41288039229E+03  0.41288039232E+03  0.50400001928E-02 0. -1.
    10030    2    1    2    0    0  0.00000000000E+00  0.00000000000E+00  0.10730130117E+04  0.18987737963E+04  0.15665200306E+04 0.  0.
        1    1    3    3  502    0  0.48794663668E+03  0.60685490568E+03  0.63886557858E+03  0.10072308694E+04  0.50400001928E-02 0.  1.
       -1    1    3    3    0  502 -0.48794663668E+03 -0.60685490568E+03  0.43414743313E+03  0.89154292690E+03  0.50400001928E-02 0. -1.
</event>
<event>
 5   0  0.5623061E-04  0.1514616E+04  0.7818609E-02  0.8874791E-01
        1   -1    0    0  501    0  0.00000000000E+00  0.00000000000E+00  0.23829069838E+04  0.23829069838E+04  0.50400001928E-02 0.  1.
       -1   -1    0    0    0  501  0.00000000000E+00  0.00000000000E+00 -0.24067894025E+03  0.24067894031E+03  0.50400001928E-02 0. -1.
    10030    2    1    2    0    0  0.00000000000E+00  0.00000000000E+00  0.21422280435E+04  0.26235859241E+04  0.15146161595E+04 0.  0.
        3    1    3    3  502    0  0.43868245848E+03  0.42540331754E+03  0.18459716840E+04  0.19444849576E+04  0.10100000352E+00 0.  1.
       -3    1    3    3    0  502 -0.43868245848E+03 -0.42540331754E+03  0.29625635953E+03  0.67910096651E+03  0.10100000352E+00 0. -1.
</event>
<event>
 5   0  0.1057872E-03  0.1638290E+04  0.7818609E-02  0.8797364E-01
       -2   -1    0    0    0  501  0.00000000000E+00  0.00000000000E+00  0.57709480050E+03  0.57709480051E+03  0.25500000920E-02 0. -1.
        2   -1    0    0  501    0  0.00000000000E+00  0.00000000000E+00 -0.11627181349E+04  0.11627181349E+04  0.25500000920E-02 0.  1.
    10030    2    1    2    0    0  0.00000000000E+00  0.00000000000E+00 -0.58562333440E+03  0.17398129354E+04  0.16382900721E+04 0.  0.
        2    1    3    3  502    0  0.45729997608E+03  0.63411976126E+03 -0.55243523917E+03  0.95729610530E+03  0.25500000920E-02 0.  1.
       -2    1    3    3    0  502 -0.45729997608E+03 -0.63411976126E+03 -0.33188095233E+02  0.78251683012E+03  0.25500000920E-02 0. -1.
</event>
<event>
 5   0  0.1030027E-03  0.1574324E+04  0.7818609E-02  0.8836479E-01
        2   -1    0    0  501    0  0.00000000000E+00  0.00000000000E+00  0.54963902670E+03  0.54963902670E+03  0.25500000920E-02 0. -1.
       -2   -1    0    0    0  501  0.00000000000E+00  0.00000000000E+00 -0.11273290315E+04  0.11273290315E+04  0.25500000920E-02 0.  1.
    10030    2    1    2    0    0  0.00000000000E+00  0.00000000000E+00 -0.57769000484E+03  0.16769680582E+04  0.15743240221E+04 0.  0.
        1    1    3    3  502    0 -0.63953059296E+03 -0.11260091213E+03  0.18507352772E+03  0.67522629942E+03  0.50400001928E-02 0. -1.
       -1    1    3    3    0  502  0.63953059296E+03  0.11260091213E+03 -0.76276353256E+03  0.10017417588E+04  0.50400001928E-02 0.  1.
</event>
<event>
 5   0  0.1037321E-03  0.1592729E+04  0.7818609E-02  0.8825028E-01
       -2   -1    0    0    0  501  0.00000000000E+00  0.00000000000E+00  0.21894236556E+03  0.21894236557E+03  0.25500000920E-02 0. -1.
        2   -1    0    0  501    0  0.00000000000E+00  0.00000000000E+00 -0.28966353730E+04  0.28966353730E+04  0.25500000920E-02 0.  1.
    10030    2    1    2    0    0  0.00000000000E+00  0.00000000000E+00 -0.26776930074E+04  0.31155777385E+04  0.15927287286E+04 0.  0.
        5    1    3    3  502    0  0.41066473052E+03  0.25667038052E+03 -0.25754660091E+04  0.26206053612E+04  0.46999998093E+01 0.  1.
       -5    1    3    3    0  502 -0.41066473052E+03 -0.25667038052E+03 -0.10222699828E+03  0.49497237732E+03  0.46999998093E+01 0. -1.
</event>
<event>
 5   0  0.5532881E-04  0.1571802E+04  0.7818609E-02  0.8838061E-01
        1   -1    0    0  501    0  0.00000000000E+00  0.00000000000E+00  0.19174106996E+04  0.19174106996E+04  0.50400001928E-02 0.  1.
       -1   -1    0    0    0  501  0.00000000000E+00  0.00000000000E+00 -0.32212196022E+03  0.32212196026E+03  0.50400001928E-02 0. -1.
    10030    2    1    2    0    0  0.00000000000E+00  0.00000000000E+00  0.15952887394E+04  0.22395326599E+04  0.15718016327E+04 0.  0.
        4    1    3    3  502    0 -0.56552101832E+03  0.51023790975E+03  0.10734921536E+04  0.13162612823E+04  0.12699999809E+01 0.  1.
       -4    1    3    3    0  502  0.56552101832E+03 -0.51023790975E+03  0.52179658585E+03  0.92327137756E+03  0.12699999809E+01 0. -1.
</event>
<event>
 5   0  0.5288658E-04  0.1572232E+04  0.7818609E-02  0.8837791E-01
        1   -1    0    0  501    0  0.00000000000E+00  0.00000000000E+00  0.90574626279E+03  0.90574626280E+03  0.50400001928E-02 0. -1.
       -1   -1    0    0    0  501  0.00000000000E+00  0.00000000000E+00 -0.68228607366E+03  0.68228607367E+03  0.50400001928E-02 0.  1.
    10030    2    1    2    0    0  0.00000000000E+00  0.00000000000E+00  0.22346018913E+03  0.15880323365E+04  0.15722316132E+04 0.  0.
        1    1    3    3  502    0  0.45710910740E+03  0.16266954163E+03 -0.51300673087E+03  0.70610623973E+03  0.50400001928E-02 0.  1.
       -1    1    3    3    0  502 -0.45710910740E+03 -0.16266954163E+03  0.73646692000E+03  0.88192609675E+03  0.50400001928E-02 0. -1.
</event>
<event>
 5   0  0.5623061E-04  0.1502832E+04  0.7818609E-02  0.8882572E-01
        1   -1    0    0  501    0  0.00000000000E+00  0.00000000000E+00  0.75382149494E+03  0.75382149495E+03  0.50400001928E-02 0.  1.
       -1   -1    0    0    0  501  0.00000000000E+00  0.00000000000E+00 -0.74901837777E+03  0.74901837778E+03  0.50400001928E-02 0. -1.
    10030    2    1    2    0    0  0.00000000000E+00  0.00000000000E+00  0.48031171707E+01  0.15028398727E+04  0.15028321973E+04 0.  0.
        3    1    3    3  502    0  0.61704974530E+03 -0.35469135173E+03 -0.23857643437E+03  0.75064976414E+03  0.10100000352E+00 0. -1.
       -3    1    3    3    0  502 -0.61704974530E+03  0.35469135173E+03  0.24337955154E+03  0.75219010860E+03  0.10100000352E+00 0.  1.
</event>
<event>
 5   0  0.9844690E-04  0.1592204E+04  0.7818609E-02  0.8825352E-01
       -2   -1    0    0    0  501  0.00000000000E+00  0.00000000000E+00  0.38922614890E+03  0.38922614891E+03  0.25500000920E-02 0.  1.
        2   -1    0    0  501    0  0.00000000000E+00  0.00000000000E+00 -0.16283034784E+04  0.16283034784E+04  0.25500000920E-02 0. -1.
    10030    2    1    2    0    0  0.00000000000E+00  0.00000000000E+00 -0.12390773295E+04  0.20175296273E+04  0.15922038716E+04 0.  0.
        3    1    3    3  502    0  0.70453037346E+03  0.22628337445E+03 -0.99158990899E+03  0.12372622077E+04  0.10100000352E+00 0. -1.
       -3    1    3    3    0  502 -0.70453037346E+03 -0.22628337445E+03 -0.24748742054E+03  0.78026741967E+03  0.10100000352E+00 0.  1.
</event>
<event>
 5   0  0.1057872E-03  0.1592447E+04  0.7818609E-02  0.8825202E-01
        2   -1    0    0  501    0  0.00000000000E+00  0.00000000000E+00  0.12312350721E+04  0.12312350721E+04  0.25500000920E-02 0.  1.
       -2   -1    0    0    0  501  0.00000000000E+00  0.00000000000E+00 -0.51490722242E+03  0.51490722242E+03  0.25500000920E-02 0. -1.
    10030    2    1    2    0    0  0.00000000000E+00  0.00000000000E+00  0.71632784964E+03  0.17461422945E+04  0.15924469613E+04 0.  0.
        2    1    3    3  502    0 -0.42475023383E+03  0.46698159719E+03 -0.17394232707E+03  0.65478279330E+03  0.25500000920E-02 0. -1.
       -2    1    3    3    0  502  0.42475023383E+03 -0.46698159719E+03  0.89027017672E+03  0.10913595012E+04  0.25500000920E-02 0.  1.
</event>
<event>
 5   0  0.3832500E-04  0.1583089E+04  0.7818609E-02  0.8831005E-01
        4   -1    0    0  501    0  0.00000000000E+00  0.00000000000E+00  0.12412378683E+04  0.12412385180E+04  0.12699999809E+01 0. -1.
       -4   -1    0    0    0  501  0.00000000000E+00  0.00000000000E+00 -0.50477080705E+03  0.50477240470E+03  0.12699999809E+01 0.  1.
    10030    2    1    2    0    0  0.00000000000E+00  0.00000000000E+00  0.73646706124E+03  0.17460109227E+04  0.15830888825E+04 0.  0.
        3    1    3    3  502    0 -0.13304951068E+03  0.70146942519E+03  0.74513503762E+03  0.10319824423E+04  0.10100000352E+00 0.  1.
       -3    1    3    3    0  502  0.13304951068E+03 -0.70146942519E+03 -0.86679763776E+01  0.71402848038E+03  0.10100000352E+00 0. -1.
</event>
<event>
 5   0  0.5281116E-04  0.1599997E+04  0.7818609E-02  0.8820550E-01
        1   -1    0    0  501    0  0.00000000000E+00  0.00000000000E+00  0.17160714085E+04  0.17160714085E+04  0.50400001928E-02 0. -1.
       -1   -1    0    0    0  501  0.00000000000E+00  0.00000000000E+00 -0.37294325741E+03  0.37294325745E+03  0.50400001928E-02 0.  1.
    10030    2    1    2    0    0  0.00000000000E+00  0.00000000000E+00  0.13431281511E+04  0.20890146660E+04  0.15999965764E+04 0.  0.
        2    1    3    3  502    0  0.35825232750E+03  0.39542155562E+03 -0.10668133905E+03  0.54413586990E+03  0.25500000920E-02 0.  1.
       -2    1    3    3    0  502 -0.35825232750E+03 -0.39542155562E+03  0.14498094901E+04  0.15448787961E+04  0.25500000920E-02 0. -1.
</event>
<event>
 5   0  0.1000121E-03  0.1578720E+04  0.7818609E-02  0.8833729E-01
       -2   -1    0    0    0  501  0.00000000000E+00  0.00000000000E+00  0.63360765146E+03  0.63360765147E+03  0.25500000920E-02 0.  1.
        2   -1    0    0  501    0  0.00000000000E+00  0.00000000000E+00 -0.98339869449E+03  0.98339869449E+03  0.25500000920E-02 0. -1.
    10030    2    1    2    0    0  0.00000000000E+00  0.00000000000E+00 -0.34979104303E+03  0.16170063460E+04  0.15787196550E+04 0.  0.
        4    1    3    3  502    0 -0.30272587076E+03  0.70021841054E+03 -0.38264081504E+03  0.85344266446E+03  0.12699999809E+01 0. -1.
       -4    1    3    3    0  502  0.30272587076E+03 -0.70021841054E+03  0.32849772016E+02  0.76356368150E+03  0.12699999809E+01 0.  1.
</event>
<event>
 5   0  0.5623061E-04  0.1556549E+04  0.7818609E-02  0.8847696E-01
        1   -1    0    0  501    0  0.00000000000E+00  0.00000000000E+00  0.15802906543E+04  0.15802906544E+04  0.50400001928E-02 0.  1.
       -1   -1    0    0    0  501  0.00000000000E+00  0.00000000000E+00 -0.38329084061E+03  0.38329084065E+03  0.50400001928E-02 0. -1.
    10030    2    1    2    0    0  0.00000000000E+00  0.00000000000E+00  0.11969998137E+04  0.19635814950E+04  0.15565486608E+04 0.  0.
        3    1    3    3  502    0 -0.63455277500E+02 -0.19168262728E+03 -0.34967445194E+03  0.40378340033E+03  0.10100000352E+00 0. -1.
       -3    1    3    3    0  502  0.63455277500E+02  0.19168262728E+03  0.15466742657E+04  0.15597980947E+04  0.10100000352E+00 0.  1.
</event>
<event>
 5   0  0.1030027E-03  0.1627459E+04  0.7818609E-02  0.8803854E-01
       -2   -1    0    0    0  501  0.00000000000E+00  0.00000000000E+00  0.91362311632E+03  0.91362311633E+03  0.25500000920E-02 0. -1.
        2   -1    0    0  501    0  0.00000000000E+00  0.00000000000E+00 -0.72475828094E+03  0.72475828095E+03  0.25500000920E-02 0.  1.
    10030    2    1    2    0    0  0.00000000000E+00  0.00000000000E+00  0.18886483538E+03  0.16383813973E+04  0.16274592704E+04 0.  0.
        1    1    3    3  502    0  0.71954733337E+03 -0.14515196403E+03  0.44798510551E+03  0.85994657532E+03  0.50400001928E-02 0. -1.
       -1    1    3    3    0  502 -0.71954733337E+03  0.14515196403E+03 -0.25912027013E+03  0.77843482196E+03  0.50400001928E-02 0.  1.
</event>
<event>
 5   0  0.3832500E-04  0.1581363E+04  0.7818609E-02  0.8832080E-01
       -4   -1    0    0    0  501  0.00000000000E+00  0.00000000000E+00  0.85251538216E+03  0.85251632812E+03  0.12699999809E+01 0.  1.
        4   -1    0    0  501    0  0.00000000000E+00  0.00000000000E+00 -0.73333018316E+03  0.73333128287E+03  0.12699999809E+01 0. -1.
    10030    2    1    2    0    0  0.00000000000E+00  0.00000000000E+00  0.11918519900E+03  0.15858476110E+04  0.15813625560E+04 0.  0.
        5    1    3    3  502    0 -0.15990728921E+03  0.65289660268E+03  0.47707907561E+03  0.82430021795E+03  0.46999998093E+01 0.  1.
       -5    1    3    3    0  502  0.15990728921E+03 -0.65289660268E+03 -0.35789387661E+03  0.76154739304E+03  0.46999998093E+01 0. -1.
</event>
<event>
 5   0  0.5532881E-04  0.1423218E+04  0.7818609E-02  0.8937181E-01
        1   -1    0    0  501    0  0.00000000000E+00  0.00000000000E+00  0.73324302194E+03  0.73324302196E+03  0.50400001928E-02 0.  1.
       -1   -1    0    0    0  501  0.00000000000E+00  0.00000000000E+00 -0.69061366423E+03  0.69061366425E+03  0.50400001928E-02 0. -1.
    10030    2    1    2    0    0  0.00000000000E+00  0.00000000000E+00  0.42629357711E+02  0.14238566862E+04  0.14232183953E+04 0.  0.
        4    1    3    3  502    0 -0.13381607017E+03 -0.40098672973E+03 -0.55138326223E+03  0.69478213336E+03  0.12699999809E+01 0. -1.
       -4    1    3    3    0  502  0.13381607017E+03  0.40098672973E+03  0.59401261995E+03  0.72907455285E+03  0.12699999809E+01 0.  1.
</event>
<event>
 5   0  0.1000121E-03  0.1571074E+04  0.7818609E-02  0.8838518E-01
       -2   -1    0    0    0  501  0.00000000000E+00  0.00000000000E+00  0.60090802725E+03  0.60090802725E+03  0.25500000920E-02 0.  1.
        2   -1    0    0  501    0  0.00000000000E+00  0.00000000000E+00 -0.10268934972E+04  0.10268934972E+04  0.25500000920E-02 0. -1.
    10030    2    1    2    0    0  0.00000000000E+00  0.00000000000E+00 -0.42598546998E+03  0.16278015245E+04  0.15710742129E+04 0.  0.
        4    1    3    3  502    0 -0.17252228589E+03 -0.25647232300E+03  0.53524962637E+03  0.61809041978E+03  0.12699999809E+01 0.  1.
       -4    1    3    3    0  502  0.17252228589E+03  0.25647232300E+03 -0.96123509635E+03  0.10097111047E+04  0.12699999809E+01 0. -1.
</event>
<event>
 5   0  0.1057872E-03  0.1568930E+04  0.7818609E-02  0.8839866E-01
        2   -1    0    0  501    0  0.00000000000E+00  0.00000000000E+00  0.73565208734E+03  0.73565208735E+03  0.25500000920E-02 0.  1.
       -2   -1    0    0    0  501  0.00000000000E+00  0.00000000000E+00 -0.83651643293E+03  0.83651643293E+03  0.25500000920E-02 0. -1.
    10030    2    1    2    0    0  0.00000000000E+00  0.00000000000E+00 -0.10086434559E+03  0.15721685203E+04  0.15689296479E+04 0.  0.
        2    1    3    3  502    0  0.35809241952E+03  0.69455864961E+03  0.18580615427E+02  0.78165666244E+03  0.25500000920E-02 0.  1.
       -2    1    3    3    0  502 -0.35809241952E+03 -0.69455864961E+03 -0.11944496101E+03  0.79051185784E+03  0.25500000920E-02 0. -1.
</event>
<event>
 5   0  0.5425525E-04  0.1591266E+04  0.7818609E-02  0.8825932E-01
        1   -1    0    0  501    0  0.00000000000E+00  0.00000000000E+00  0.19759546452E+04  0.19759546452E+04  0.50400001928E-02 0.  1.
       -1   -1    0    0    0  501  0.00000000000E+00  0.00000000000E+00 -0.32036761336E+03  0.32036761340E+03  0.50400001928E-02 0. -1.
    10030    2    1    2    0    0  0.00000000000E+00  0.00000000000E+00  0.16555870319E+04  0.22963222586E+04  0.15912660040E+04 0.  0.
        5    1    3    3  502    0  0.50041673892E+03 -0.61433266298E+03  0.93173777729E+03  0.12231021662E+04  0.46999998093E+01 0.  1.
       -5    1    3    3    0  502 -0.50041673892E+03  0.61433266298E+03  0.72384925456E+03  0.10732200924E+04  0.46999998093E+01 0. -1.
</event>
<event>
 5   0  0.1037321E-03  0.1596267E+04  0.7818609E-02  0.8822845E-01
       -2   -1    0    0    0  501  0.00000000000E+00  0.00000000000E+00  0.50680567601E+03  0.50680567602E+03  0.25500000920E-02 0.  1.
        2   -1    0    0  501    0  0.00000000000E+00  0.00000000000E+00 -0.12569253583E+04  0.12569253583E+04  0.25500000920E-02 0. -1.
    10030    2    1    2    0    0  0.00000000000E+00  0.00000000000E+00 -0.75011968230E+03  0.17637310343E+04  0.15962667771E+04 0.  0.
        5    1    3    3  502    0 -0.57055041506E+03  0.48472200496E+03 -0.69433646435E+02  0.75188185207E+03  0.46999998093E+01 0. -1.
       -5    1    3    3    0  502  0.57055041506E+03 -0.48472200496E+03 -0.68068603587E+03  0.10118491823E+04  0.46999998093E+01 0.  1.
</event>
<event>
 5   0  0.1057872E-03  0.1609443E+04  0.7818609E-02  0.8814768E-01
       -2   -1    0    0    0  501  0.00000000000E+00  0.00000000000E+00  0.38869251146E+03  0.38869251147E+03  0.25500000920E-02 0. -1.
        2   -1    0    0  501    0  0.00000000000E+00  0.00000000000E+00 -0.16660380540E+04  0.16660380540E+04  0.25500000920E-02 0.  1.
    10030    2    1    2    0    0  0.00000000000E+00  0.00000000000E+00 -0.12773455425E+04  0.20547305655E+04  0.16094427798E+04 0.  0.
        2    1    3    3  502    0 -0.22049213784E+03  0.27258571931E+03  0.28606154902E+03  0.45249416245E+03  0.25500000920E-02 0. -1.
       -2    1    3    3    0  502  0.22049213784E+03 -0.27258571931E+03 -0.15634070915E+04  0.16022364030E+04  0.25500000920E-02 0.  1.
</event>
<event>
 5   0  0.1037321E-03  0.1572328E+04  0.7818609E-02  0.8837731E-01
       -2   -1    0    0    0  501  0.00000000000E+00  0.00000000000E+00  0.76230704716E+03  0.76230704716E+03  0.25500000920E-02 0. -1.
        2   -1    0    0  501    0  0.00000000000E+00  0.00000000000E+00 -0.81076765947E+03  0.81076765948E+03  0.25500000920E-02 0.  1.
    10030    2    1    2    0    0  0.00000000000E+00  0.00000000000E+00 -0.48460612316E+02  0.15730747066E+04  0.15723280834E+04 0.  0.
        5    1    3    3  502    0  0.28251391372E+03 -0.37158549544E+03 -0.65709840082E+03  0.80603367810E+03  0.46999998093E+01 0.  1.
       -5    1    3    3    0  502 -0.28251391372E+03  0.37158549544E+03  0.60863778851E+03  0.76704102854E+03  0.46999998093E+01 0. -1.
</event>
<event>
 5   0  0.5623061E-04  0.1631282E+04  0.7818609E-02  0.8801557E-01
       -1   -1    0    0    0  501  0.00000000000E+00  0.00000000000E+00  0.35553044496E+03  0.35553044500E+03  0.50400001928E-02 0.  1.
        1   -1    0    0  501    0  0.00000000000E+00  0.00000000000E+00 -0.18712047674E+04  0.18712047674E+04  0.50400001928E-02 0. -1.
    10030    2    1    2    0    0  0.00000000000E+00  0.00000000000E+00 -0.15156743225E+04  0.22267352124E+04  0.16312820279E+04 0.  0.
        3    1    3    3  502    0  0.58676673562E+03  0.55755782614E+03 -0.89504948279E+03  0.12067640691E+04  0.10100000352E+00 0. -1.
       -3    1    3    3    0  502 -0.58676673562E+03 -0.55755782614E+03 -0.62062483969E+03  0.10199711434E+04  0.10100000352E+00 0.  1.
</event>
<event>
 5   0  0.1030027E-03  0.1576378E+04  0.7818609E-02  0.8835193E-01
       -2   -1    0    0    0  501  0.00000000000E+00  0.00000000000E+00  0.48640334238E+03  0.48640334239E+03  0.25500000920E-02 0.  1.
        2   -1    0    0  501    0  0.00000000000E+00  0.00000000000E+00 -0.12772155939E+04  0.12772155939E+04  0.25500000920E-02 0. -1.
    10030    2    1    2    0    0  0.00000000000E+00  0.00000000000E+00 -0.79081225149E+03  0.17636189363E+04  0.15763780433E+04 0.  0.
        1    1    3    3  502    0 -0.18109646913E+03  0.10919949707E+03 -0.12448840942E+04  0.12627180482E+04  0.50400001928E-02 0. -1.
       -1    1    3    3    0  502  0.18109646913E+03 -0.10919949707E+03  0.45407184270E+03  0.50090088805E+03  0.50400001928E-02 0.  1.
</event>
<event>
 5   0  0.5623061E-04  0.1578494E+04  0.7818609E-02  0.8833870E-01
       -1   -1    0    0    0  501  0.00000000000E+00  0.00000000000E+00  0.36114562655E+03  0.36114562658E+03  0.50400001928E-02 0. -1.
        1   -1    0    0  501    0  0.00000000000E+00  0.00000000000E+00 -0.17248187862E+04  0.17248187862E+04  0.50400001928E-02 0.  1.
    10030    2    1    2    0    0  0.00000000000E+00  0.00000000000E+00 -0.13636731596E+04  0.20859644128E+04  0.15784939167E+04 0.  0.
        3    1    3    3  502    0  0.66179310620E+03  0.42909650782E+03 -0.64406824308E+03  0.10182916284E+04  0.10100000352E+00 0. -1.
       -3    1    3    3    0  502 -0.66179310620E+03 -0.42909650782E+03 -0.71960491655E+03  0.10676727844E+04  0.10100000352E+00 0.  1.
</event>
<event>
 5   0  0.1057872E-03  0.1600645E+04  0.7818609E-02  0.8820152E-01
       -2   -1    0    0    0  501  0.00000000000E+00  0.00000000000E+00  0.55416775191E+03  0.55416775192E+03  0.25500000920E-02 0.  1.
        2   -1    0    0  501    0  0.00000000000E+00  0.00000000000E+00 -0.11558163518E+04  0.11558163518E+04  0.25500000920E-02 0. -1.
    10030    2    1    2    0    0  0.00000000000E+00  0.00000000000E+00 -0.60164859984E+03  0.17099841037E+04  0.16006450566E+04 0.  0.
        2    1    3    3  502    0 -0.62695074537E+03  0.30885081627E+03  0.11576168069E+03  0.70841854193E+03  0.25500000920E-02 0.  1.
       -2    1    3    3    0  502  0.62695074537E+03 -0.30885081627E+03 -0.71741028053E+03  0.10015655617E+04  0.25500000920E-02 0. -1.
</event>
<event>
 5   0  0.9844690E-04  0.1581159E+04  0.7818609E-02  0.8832207E-01
       -2   -1    0    0    0  501  0.00000000000E+00  0.00000000000E+00  0.60330129807E+03  0.60330129808E+03  0.25500000920E-02 0. -1.
        2   -1    0    0  501    0  0.00000000000E+00  0.00000000000E+00 -0.10359925401E+04  0.10359925402E+04  0.25500000920E-02 0.  1.
    10030    2    1    2    0    0  0.00000000000E+00  0.00000000000E+00 -0.43269124208E+03  0.16392938382E+04  0.15811586186E+04 0.  0.
        3    1    3    3  502    0 -0.68570698395E+03  0.38514343996E+03 -0.13284819598E+03  0.79760779244E+03  0.10100000352E+00 0. -1.
       -3    1    3    3    0  502  0.68570698395E+03 -0.38514343996E+03 -0.29984304610E+03  0.84168604579E+03  0.10100000352E+00 0.  1.
</event>
<event>
 5   0  0.1030027E-03  0.1541623E+04  0.7818609E-02  0.8857236E-01
        2   -1    0    0  501    0  0.00000000000E+00  0.00000000000E+00  0.16989947717E+04  0.16989947717E+04  0.25500000920E-02 0.  1.
       -2   -1    0    0    0  501  0.00000000000E+00  0.00000000000E+00 -0.34970689950E+03  0.34970689951E+03  0.25500000920E-02 0. -1.
    10030    2    1    2    0    0  0.00000000000E+00  0.00000000000E+00  0.13492878722E+04  0.20487016712E+04  0.15416227734E+04 0.  0.
        1    1    3    3  502    0 -0.25402674868E+03  0.39425468962E+02 -0.29106178653E+03  0.38833094166E+03  0.50400001928E-02 0. -1.
       -1    1    3    3    0  502  0.25402674868E+03 -0.39425468962E+02  0.16403496587E+04  0.16603707295E+04  0.50400001928E-02 0.  1.
</event>
<event>
 5   0  0.1037321E-03  0.1605429E+04  0.7818609E-02  0.8817220E-01
       -2   -1    0    0    0  501  0.00000000000E+00  0.00000000000E+00  0.93776561054E+03  0.93776561054E+03  0.25500000920E-02 0.  1.
        2   -1    0    0  501    0  0.00000000000E+00  0.00000000000E+00 -0.68711258538E+03  0.68711258538E+03  0.25500000920E-02 0. -1.
    10030    2    1    2    0    0  0.00000000000E+00  0.00000000000E+00  0.25065302516E+03  0.16248781959E+04  0.16054289809E+04 0.  0.
        5    1    3    3  502    0 -0.20476714722E+02 -0.80243946674E+03  0.12559335188E+03  0.81248026048E+03  0.46999998093E+01 0. -1.
       -5    1    3    3    0  502  0.20476714722E+02  0.80243946674E+03  0.12505967328E+03  0.81239793544E+03  0.46999998093E+01 0.  1.
</event>
<event>
 5   0  0.5532881E-04  0.1793809E+04  0.7818609E-02  0.8709598E-01
       -1   -1    0    0    0  501  0.00000000000E+00  0.00000000000E+00  0.65748987098E+03  0.65748987100E+03  0.50400001928E-02 0.  1.
        1   -1    0    0  501    0  0.00000000000E+00  0.00000000000E+00 -0.12234988576E+04  0.12234988576E+04  0.50400001928E-02 0. -1.
    10030    2    1    2    0    0  0.00000000000E+00  0.00000000000E+00 -0.56600898664E+03  0.18809887286E+04  0.17938094727E+04 0.  0.
        4    1    3    3  502    0  0.18827538079E+03  0.87689393870E+03 -0.29010827985E+03  0.94263196725E+03  0.12699999809E+01 0.  1.
       -4    1    3    3    0  502 -0.18827538079E+03 -0.87689393870E+03 -0.27590070679E+03  0.93835676139E+03  0.12699999809E+01 0. -1.
</event>
<event>
 5   0  0.5425525E-04  0.1622121E+04  0.7818609E-02  0.8807073E-01
       -1   -1    0    0    0  501  0.00000000000E+00  0.00000000000E+00  0.43609984687E+03  0.43609984690E+03  0.50400001928E-02 0.  1.
        1   -1    0    0  501    0  0.00000000000E+00  0.00000000000E+00 -0.15084133056E+04  0.15084133056E+04  0.50400001928E-02 0. -1.
    10030    2    1    2    0    0  0.00000000000E+00  0.00000000000E+00 -0.10723134587E+04  0.19445131525E+04  0.16221206017E+04 0.  0.
        5    1    3    3  502    0  0.54375899653E+03  0.16200607913E+03  0.15857609181E+03  0.58914198872E+03  0.46999998093E+01 0.  1.
       -5    1    3    3    0  502 -0.54375899653E+03 -0.16200607913E+03 -0.12308895505E+04  0.13553711637E+04  0.46999998093E+01 0. -1.
</event>
<event>
 5   0  0.3832500E-04  0.1648483E+04  0.7818609E-02  0.8791304E-01
        3   -1    0    0  501    0  0.00000000000E+00  0.00000000000E+00  0.82576008602E+03  0.82576009220E+03  0.10100000352E+00 0.  1.
       -3   -1    0    0    0  501  0.00000000000E+00  0.00000000000E+00 -0.82272595690E+03  0.82272596310E+03  0.10100000352E+00 0. -1.
    10030    2    1    2    0    0  0.00000000000E+00  0.00000000000E+00  0.30341291204E+01  0.16484860553E+04  0.16484832631E+04 0.  0.
        5    1    3    3  502    0  0.31894732610E+03  0.73661765834E+03 -0.18561744419E+03  0.82389859631E+03  0.46999998093E+01 0. -1.
       -5    1    3    3    0  502 -0.31894732610E+03 -0.73661765834E+03  0.18865157331E+03  0.82458745899E+03  0.46999998093E+01 0.  1.
</event>
<event>
 5   0  0.1000121E-03  0.1625193E+04  0.7818609E-02  0.8805219E-01
        2   -1    0    0  501    0  0.00000000000E+00  0.00000000000E+00  0.10276960909E+04  0.10276960909E+04  0.25500000920E-02 0.  1.
       -2   -1    0    0    0  501  0.00000000000E+00  0.00000000000E+00 -0.64251763583E+03  0.64251763584E+03  0.25500000920E-02 0. -1.
    10030    2    1    2    0    0  0.00000000000E+00  0.00000000000E+00  0.38517845505E+03  0.16702137267E+04  0.16251927426E+04 0.  0.
        4    1    3    3  502    0 -0.77936149159E+03  0.31428029995E+02 -0.41580713079E+02  0.78110346577E+03  0.12699999809E+01 0. -1.
       -4    1    3    3    0  502  0.77936149159E+03 -0.31428029995E+02  0.42675916813E+03  0.88911026095E+03  0.12699999809E+01 0.  1.
</event>
<event>
 5   0  0.5532881E-04  0.1570598E+04  0.7818609E-02  0.8838817E-01
       -1   -1    0    0    0  501  0.00000000000E+00  0.00000000000E+00  0.33348073622E+03  0.33348073626E+03  0.50400001928E-02 0.  1.
        1   -1    0    0  501    0  0.00000000000E+00  0.00000000000E+00 -0.18492667573E+04  0.18492667573E+04  0.50400001928E-02 0. -1.
    10030    2    1    2    0    0  0.00000000000E+00  0.00000000000E+00 -0.15157860211E+04  0.21827474936E+04  0.15705984079E+04 0.  0.
        4    1    3    3  502    0 -0.20672597508E+03 -0.38167906878E+03  0.15160462920E+03  0.45978268433E+03  0.12699999809E+01 0.  1.
       -4    1    3    3    0  502  0.20672597508E+03  0.38167906878E+03 -0.16673906503E+04  0.17229648093E+04  0.12699999809E+01 0. -1.
</event>
<event>
 5   0  0.5288658E-04  0.1586573E+04  0.7818609E-02  0.8828839E-01
        1   -1    0    0  501    0  0.00000000000E+00  0.00000000000E+00  0.11095419455E+04  0.11095419455E+04  0.50400001928E-02 0.  1.
       -1   -1    0    0    0  501  0.00000000000E+00  0.00000000000E+00 -0.56717405479E+03  0.56717405481E+03  0.50400001928E-02 0. -1.
    10030    2    1    2    0    0  0.00000000000E+00  0.00000000000E+00  0.54236789072E+03  0.16767160003E+04  0.15865729157E+04 0.  0.
        1    1    3    3  502    0 -0.38634602987E+03 -0.21165918652E+03  0.96839480308E+03  0.10638850317E+04  0.50400001928E-02 0.  1.
       -1    1    3    3    0  502  0.38634602987E+03  0.21165918652E+03 -0.42602691235E+03  0.61283096863E+03  0.50400001928E-02 0. -1.
</event>
<event>
 5   0  0.1030027E-03  0.1288029E+04  0.7818609E-02  0.9039113E-01
       -2   -1    0    0    0  501  0.00000000000E+00  0.00000000000E+00  0.31226363334E+03  0.31226363335E+03  0.25500000920E-02 0.  1.
        2   -1    0    0  501    0  0.00000000000E+00  0.00000000000E+00 -0.13282194191E+04  0.13282194191E+04  0.25500000920E-02 0. -1.
    10030    2    1    2    0    0  0.00000000000E+00  0.00000000000E+00 -0.10159557857E+04  0.16404830524E+04  0.12880289153E+04 0.  0.
        1    1    3    3  502    0 -0.13764225406E+03  0.41082650998E+03 -0.11148379238E+04  0.11960716567E+04  0.50400001928E-02 0. -1.
       -1    1    3    3    0  502  0.13764225406E+03 -0.41082650998E+03  0.98882138115E+02  0.44441139575E+03  0.50400001928E-02 0.  1.
</event>
<event>
 5   0  0.5425525E-04  0.1592187E+04  0.7818609E-02  0.8825363E-01
        1   -1    0    0  501    0  0.00000000000E+00  0.00000000000E+00  0.54553423201E+03  0.54553423204E+03  0.50400001928E-02 0.  1.
       -1   -1    0    0    0  501  0.00000000000E+00  0.00000000000E+00 -0.11617318088E+04  0.11617318088E+04  0.50400001928E-02 0. -1.
    10030    2    1    2    0    0  0.00000000000E+00  0.00000000000E+00 -0.61619757676E+03  0.17072660408E+04  0.15921865093E+04 0.  0.
        5    1    3    3  502    0 -0.64947265652E+03 -0.88145607097E+02  0.17639751064E+03  0.67876546124E+03  0.46999998093E+01 0.  1.
       -5    1    3    3    0  502  0.64947265652E+03  0.88145607097E+02 -0.79259508739E+03  0.10285005796E+04  0.46999998093E+01 0. -1.
</event>
<event>
 5   0  0.1000121E-03  0.1571443E+04  0.7818609E-02  0.8838286E-01
        2   -1    0    0  501    0  0.00000000000E+00  0.00000000000E+00  0.12762100727E+04  0.12762100727E+04  0.25500000920E-02 0.  1.
       -2   -1    0    0    0  501  0.00000000000E+00  0.00000000000E+00 -0.48374343192E+03  0.48374343193E+03  0.25500000920E-02 0. -1.
    10030    2    1    2    0    0  0.00000000000E+00  0.00000000000E+00  0.79246664082E+03  0.17599535047E+04  0.15714429553E+04 0.  0.
        4    1    3    3  502    0  0.18559500386E+03  0.11102625161E+03  0.12422179655E+04  0.12609042076E+04  0.12699999809E+01 0.  1.
       -4    1    3    3    0  502 -0.18559500386E+03 -0.11102625161E+03 -0.44975132466E+03  0.49904929710E+03  0.12699999809E+01 0. -1.
</event>
<event>
 5   0  0.1030027E-03  0.1557695E+04  0.7818609E-02  0.8846968E-01
       -2   -1    0    0    0  501  0.00000000000E+00  0.00000000000E+00  0.53507613660E+03  0.53507613661E+03  0.25500000920E-02 0.  1.
        2   -1    0    0  501    0  0.00000000000E+00  0.00000000000E+00 -0.11336768713E+04  0.11336768713E+04  0.25500000920E-02 0. -1.
    10030    2    1    2    0    0  0.00000000000E+00  0.00000000000E+00 -0.59860073467E+03  0.16687530079E+04  0.15576950156E+04 0.  0.
        1    1    3    3  502    0 -0.70374434285E+03 -0.31167002587E+03 -0.17159961496E+03  0.78856878774E+03  0.50400001928E-02 0. -1.
       -1    1    3    3    0  502  0.70374434285E+03  0.31167002587E+03 -0.42700111970E+03  0.88018422013E+03  0.50400001928E-02 0.  1.
</event>
<event>
 5   0  0.9844690E-04  0.1617963E+04  0.7818609E-02  0.8809588E-01
       -2   -1    0    0    0  501  0.00000000000E+00  0.00000000000E+00  0.73969918060E+03  0.73969918061E+03  0.25500000920E-02 0.  1.
        2   -1    0    0  501    0  0.00000000000E+00  0.00000000000E+00 -0.88475316155E+03  0.88475316156E+03  0.25500000920E-02 0. -1.
    10030    2    1    2    0    0  0.00000000000E+00  0.00000000000E+00 -0.14505398095E+03  0.16244523422E+04  0.16179631499E+04 0.  0.
        3    1    3    3  502    0  0.17870374654E+03 -0.74342119392E+03  0.19280756605E+03  0.78853336539E+03  0.10100000352E+00 0.  1.
       -3    1    3    3    0  502 -0.17870374654E+03  0.74342119392E+03 -0.33786154700E+03  0.83591897678E+03  0.10100000352E+00 0. -1.
</event>
<event>
 5   0  0.1057872E-03  0.1549189E+04  0.7818609E-02  0.8852386E-01
       -2   -1    0    0    0  501  0.00000000000E+00  0.00000000000E+00  0.65824272049E+03  0.65824272049E+03  0.25500000920E-02 0.  1.
        2   -1    0    0  501    0  0.00000000000E+00  0.00000000000E+00 -0.91151266137E+03  0.91151266138E+03  0.25500000920E-02 0. -1.
    10030    2    1    2    0    0  0.00000000000E+00  0.00000000000E+00 -0.25326994089E+03  0.15697553819E+04  0.15491889155E+04 0.  0.
        2    1    3    3  502    0  0.63877045378E+03 -0.17400583856E+03  0.28081127589E+03  0.71913885805E+03  0.25500000920E-02 0.  1.
       -2    1    3    3    0  502 -0.63877045378E+03  0.17400583856E+03 -0.53408121678E+03  0.85061652382E+03  0.25500000920E-02 0. -1.
</event>
<event>
 5   0  0.1030027E-03  0.1578500E+04  0.7818609E-02  0.8833866E-01
       -2   -1    0    0    0  501  0.00000000000E+00  0.00000000000E+00  0.28189239083E+03  0.28189239084E+03  0.25500000920E-02 0. -1.
        2   -1    0    0  501    0  0.00000000000E+00  0.00000000000E+00 -0.22097629868E+04  0.22097629868E+04  0.25500000920E-02 0.  1.
    10030    2    1    2    0    0  0.00000000000E+00  0.00000000000E+00 -0.19278705960E+04  0.24916553777E+04  0.15784997580E+04 0.  0.
        1    1    3    3  502    0 -0.59910952261E+03  0.21790610530E+03 -0.22946796185E+03  0.67754766352E+03  0.50400001928E-02 0. -1.
       -1    1    3    3    0  502  0.59910952261E+03 -0.21790610530E+03 -0.16984026342E+04  0.18141077141E+04  0.50400001928E-02 0.  1.
</event>
<event>
 5   0  0.9844690E-04  0.1588422E+04  0.7818609E-02  0.8827693E-01
        2   -1    0    0  501    0  0.00000000000E+00  0.00000000000E+00  0.13639750251E+04  0.13639750251E+04  0.25500000920E-02 0. -1.
       -2   -1    0    0    0  501  0.00000000000E+00  0.00000000000E+00 -0.46245041964E+03  0.46245041964E+03  0.25500000920E-02 0.  1.
    10030    2    1    2    0    0  0.00000000000E+00  0.00000000000E+00  0.90152460550E+03  0.18264254448E+04  0.15884216352E+04 0.  0.
        3    1    3    3  502    0 -0.12301563970E+03 -0.70275858824E+03  0.85200148160E+03  0.11112646021E+04  0.10100000352E+00 0. -1.
       -3    1    3    3    0  502  0.12301563970E+03  0.70275858824E+03  0.49523123906E+02  0.71516084272E+03  0.10100000352E+00 0.  1.
</event>
<event>
 5   0  0.1057872E-03  0.1592950E+04  0.7818609E-02  0.8824891E-01
       -2   -1    0    0    0  501  0.00000000000E+00  0.00000000000E+00  0.35039112144E+03  0.35039112145E+03  0.25500000920E-02 0. -1.
        2   -1    0    0  501    0  0.00000000000E+00  0.00000000000E+00 -0.18104696169E+04  0.18104696169E+04  0.25500000920E-02 0.  1.
    10030    2    1    2    0    0  0.00000000000E+00  0.00000000000E+00 -0.14600784955E+04  0.21608607384E+04  0.15929500675E+04 0.  0.
        2    1    3    3  502    0  0.36843629773E+03  0.42715772839E+03 -0.14927861391E+04  0.15958131117E+04  0.25500000920E-02 0.  1.
       -2    1    3    3    0  502 -0.36843629773E+03 -0.42715772839E+03  0.32707643644E+02  0.56504762664E+03  0.25500000920E-02 0. -1.
</event>
<event>
 5   0  0.5623061E-04  0.1586358E+04  0.7818609E-02  0.8828973E-01
        1   -1    0    0  501    0  0.00000000000E+00  0.00000000000E+00  0.12611166575E+04  0.12611166575E+04  0.50400001928E-02 0.  1.
       -1   -1    0    0    0  501  0.00000000000E+00  0.00000000000E+00 -0.49886986114E+03  0.49886986117E+03  0.50400001928E-02 0. -1.
    10030    2    1    2    0    0  0.00000000000E+00  0.00000000000E+00  0.76224679636E+03  0.17599865187E+04  0.15863582090E+04 0.  0.
        3    1    3    3  502    0 -0.47776171992E+02  0.70164293006E+03  0.78807826683E+03  0.10562446349E+04  0.10100000352E+00 0.  1.
       -3    1    3    3    0  502  0.47776171992E+02 -0.70164293006E+03 -0.25831470469E+02  0.70374188378E+03  0.10100000352E+00 0. -1.
</event>
<event>
 5   0  0.5288658E-04  0.1278820E+04  0.7818609E-02  0.9046532E-01
       -1   -1    0    0    0  501  0.00000000000E+00  0.00000000000E+00  0.74622949296E+03  0.74622949297E+03  0.50400001928E-02 0.  1.
        1   -1    0    0  501    0  0.00000000000E+00  0.00000000000E+00 -0.54788095077E+03  0.54788095079E+03  0.50400001928E-02 0. -1.
    10030    2    1    2    0    0  0.00000000000E+00  0.00000000000E+00  0.19834854219E+03  0.12941104438E+04  0.12788196497E+04 0.  0.
        1    1    3    3  502    0 -0.11183379487E+03 -0.62955189646E+03  0.10078582205E+03  0.64730222459E+03  0.50400001928E-02 0. -1.
       -1    1    3    3    0  502  0.11183379487E+03  0.62955189646E+03  0.97562720135E+02  0.64680821918E+03  0.50400001928E-02 0.  1.
</event>
<event>
 5   0  0.1000121E-03  0.1619441E+04  0.7818609E-02  0.8808693E-01
        2   -1    0    0  501    0  0.00000000000E+00  0.00000000000E+00  0.11803870690E+04  0.11803870690E+04  0.25500000920E-02 0.  1.
       -2   -1    0    0    0  501  0.00000000000E+00  0.00000000000E+00 -0.55545126596E+03  0.55545126596E+03  0.25500000920E-02 0. -1.
    10030    2    1    2    0    0  0.00000000000E+00  0.00000000000E+00  0.62493580301E+03  0.17358383349E+04  0.16194412515E+04 0.  0.
        4    1    3    3  502    0 -0.39125955088E+03  0.40566213287E+03  0.93563207457E+03  0.10922704766E+04  0.12699999809E+01 0.  1.
       -4    1    3    3    0  502  0.39125955088E+03 -0.40566213287E+03 -0.31069627157E+03  0.64356785832E+03  0.12699999809E+01 0. -1.
</event>
<event>
 5   0  0.1037321E-03  0.1577365E+04  0.7818609E-02  0.8834575E-01
       -2   -1    0    0    0  501  0.00000000000E+00  0.00000000000E+00  0.58289005008E+03  0.58289005009E+03  0.25500000920E-02 0.  1.
        2   -1    0    0  501    0  0.00000000000E+00  0.00000000000E+00 -0.10671311256E+04  0.10671311256E+04  0.25500000920E-02 0. -1.
    10030    2    1    2    0    0  0.00000000000E+00  0.00000000000E+00 -0.48424107547E+03  0.16500211756E+04  0.15773650373E+04 0.  0.
        5    1    3    3  502    0  0.21954774181E+03  0.61519607173E+03 -0.70444029982E+03  0.96069019127E+03  0.46999998093E+01 0. -1.
       -5    1    3    3    0  502 -0.21954774181E+03 -0.61519607173E+03  0.22019922435E+03  0.68933098436E+03  0.46999998093E+01 0.  1.
</event>
<event>
 5   0  0.1037321E-03  0.1624571E+04  0.7818609E-02  0.8805594E-01
       -2   -1    0    0    0  501  0.00000000000E+00  0.00000000000E+00  0.81549892441E+03  0.81549892441E+03  0.25500000920E-02 0. -1.
        2   -1    0    0  501    0  0.00000000000E+00  0.00000000000E+00 -0.80908473788E+03  0.80908473789E+03  0.25500000920E-02 0.  1.
    10030    2    1    2    0    0  0.00000000000E+00  0.00000000000E+00  0.64141865262E+01  0.16245836623E+04  0.16245710000E+04 0.  0.
        5    1    3    3  502    0  0.28511950590E+02  0.52272588073E+03 -0.61786969649E+03  0.80983969374E+03  0.46999998093E+01 0.  1.
       -5    1    3    3    0  502 -0.28511950590E+02 -0.52272588073E+03  0.62428388302E+03  0.81474396856E+03  0.46999998093E+01 0. -1.
</event>
<event>
 5   0  0.5532881E-04  0.1602344E+04  0.7818609E-02  0.8819109E-01
        1   -1    0    0  501    0  0.00000000000E+00  0.00000000000E+00  0.21307447108E+04  0.21307447108E+04  0.50400001928E-02 0. -1.
       -1   -1    0    0    0  501  0.00000000000E+00  0.00000000000E+00 -0.30124536356E+03  0.30124536360E+03  0.50400001928E-02 0.  1.
    10030    2    1    2    0    0  0.00000000000E+00  0.00000000000E+00  0.18294993472E+04  0.24319900744E+04  0.16023444887E+04 0.  0.
        4    1    3    3  502    0 -0.25724375561E+03 -0.74521301306E+03  0.11313103087E+04  0.13789058750E+04  0.12699999809E+01 0.  1.
       -4    1    3    3    0  502  0.25724375561E+03  0.74521301306E+03  0.69818903857E+03  0.10530841994E+04  0.12699999809E+01 0. -1.
</event>
<event>
 5   0  0.5425525E-04  0.1308148E+04  0.7818609E-02  0.9023128E-01
        1   -1    0    0  501    0  0.00000000000E+00  0.00000000000E+00  0.14485176922E+04  0.14485176922E+04  0.50400001928E-02 0.  1.
       -1   -1    0    0    0  501  0.00000000000E+00  0.00000000000E+00 -0.29534545690E+03  0.29534545694E+03  0.50400001928E-02 0. -1.
    10030    2    1    2    0    0  0.00000000000E+00  0.00000000000E+00  0.11531722353E+04  0.17438631492E+04  0.13081484926E+04 0.  0.
        5    1    3    3  502    0 -0.13021685313E+03 -0.21244463215E+03 -0.22956962352E+03  0.33884133840E+03  0.46999998093E+01 0. -1.
       -5    1    3    3    0  502  0.13021685313E+03  0.21244463215E+03  0.13827418588E+04  0.14050218108E+04  0.46999998093E+01 0.  1.
</event>
<event>
 5   0  0.1030027E-03  0.1596260E+04  0.7818609E-02  0.8822849E-01
       -2   -1    0    0    0  501  0.00000000000E+00  0.00000000000E+00  0.53876555864E+03  0.53876555865E+03  0.25500000920E-02 0.  1.
        2   -1    0    0  501    0  0.00000000000E+00  0.00000000000E+00 -0.11823531972E+04  0.11823531972E+04  0.25500000920E-02 0. -1.
    10030    2    1    2    0    0  0.00000000000E+00  0.00000000000E+00 -0.64358763851E+03  0.17211187558E+04  0.15962596039E+04 0.  0.
        1    1    3    3  502    0 -0.49961049427E+03 -0.62140872764E+03 -0.35994098668E+03  0.87482396326E+03  0.50400001928E-02 0.  1.
       -1    1    3    3    0  502  0.49961049427E+03  0.62140872764E+03 -0.28364665183E+03  0.84629479255E+03  0.50400001928E-02 0. -1.
</event>
<event>
 5   0  0.1000121E-03  0.1605301E+04  0.7818609E-02  0.8817298E-01
        2   -1    0    0  501    0  0.00000000000E+00  0.00000000000E+00  0.53890899387E+03  0.53890899388E+03  0.25500000920E-02 0. -1.
       -2   -1    0    0    0  501  0.00000000000E+00  0.00000000000E+00 -0.11954666628E+04  0.11954666628E+04  0.25500000920E-02 0.  1.
    10030    2    1    2    0    0  0.00000000000E+00  0.00000000000E+00 -0.65655766889E+03  0.17343756566E+04  0.16053008895E+04 0.  0.
        4    1    3    3  502    0 -0.23095625732E+03 -0.25707617214E+03 -0.11109705579E+04  0.11634801866E+04  0.12699999809E+01 0.  1.
       -4    1    3    3    0  502  0.23095625732E+03  0.25707617214E+03  0.45441288906E+03  0.57089547005E+03  0.12699999809E+01 0. -1.
</event>
<event>
 5   0  0.1057872E-03  0.1599534E+04  0.7818609E-02  0.8820834E-01
        2   -1    0    0  501    0  0.00000000000E+00  0.00000000000E+00  0.12165715985E+04  0.12165715985E+04  0.25500000920E-02 0. -1.
       -2   -1    0    0    0  501  0.00000000000E+00  0.00000000000E+00 -0.52576242851E+03  0.52576242851E+03  0.25500000920E-02 0.  1.
    10030    2    1    2    0    0  0.00000000000E+00  0.00000000000E+00  0.69080916998E+03  0.17423340270E+04  0.15995344799E+04 0.  0.
        2    1    3    3  502    0 -0.38783528040E+03 -0.49354638551E+03 -0.19444488613E+03  0.65712483831E+03  0.25500000920E-02 0.  1.
       -2    1    3    3    0  502  0.38783528040E+03  0.49354638551E+03  0.88525405610E+03  0.10852091887E+04  0.25500000920E-02 0. -1.
</event>
<event>
 5   0  0.1057872E-03  0.1572298E+04  0.7818609E-02  0.8837750E-01
       -2   -1    0    0    0  501  0.00000000000E+00  0.00000000000E+00  0.43880879989E+03  0.43880879990E+03  0.25500000920E-02 0.  1.
        2   -1    0    0  501    0  0.00000000000E+00  0.00000000000E+00 -0.14084263993E+04  0.14084263993E+04  0.25500000920E-02 0. -1.
    10030    2    1    2    0    0  0.00000000000E+00  0.00000000000E+00 -0.96961759936E+03  0.18472351992E+04  0.15722975520E+04 0.  0.
        2    1    3    3  502    0  0.69079052828E+03 -0.11793168888E+03 -0.66236595018E+02  0.70390817848E+03  0.25500000920E-02 0.  1.
       -2    1    3    3    0  502 -0.69079052828E+03  0.11793168888E+03 -0.90338100434E+03  0.11433270207E+04  0.25500000920E-02 0. -1.
</event>
<event>
 5   0  0.3832500E-04  0.1448431E+04  0.7818609E-02  0.8919489E-01
       -4   -1    0    0    0  501  0.00000000000E+00  0.00000000000E+00  0.12843538624E+04  0.12843544903E+04  0.12699999809E+01 0. -1.
        4   -1    0    0  501    0  0.00000000000E+00  0.00000000000E+00 -0.40836564421E+03  0.40836761903E+03  0.12699999809E+01 0.  1.
    10030    2    1    2    0    0  0.00000000000E+00  0.00000000000E+00  0.87598821816E+03  0.16927221093E+04  0.14484311447E+04 0.  0.
        1    1    3    3  502    0 -0.16349218411E+03 -0.61234443074E+03  0.28474915077E+02  0.63443377664E+03  0.50400001928E-02 0.  1.
       -1    1    3    3    0  502  0.16349218411E+03  0.61234443074E+03  0.84751330309E+03  0.10582883327E+04  0.50400001928E-02 0. -1.
</event>
<event>
 5   0  0.5288658E-04  0.1584584E+04  0.7818609E-02  0.8830075E-01
       -1   -1    0    0    0  501  0.00000000000E+00  0.00000000000E+00  0.84893297550E+03  0.84893297552E+03  0.50400001928E-02 0. -1.
        1   -1    0    0  501    0  0.00000000000E+00  0.00000000000E+00 -0.73943030518E+03  0.73943030520E+03  0.50400001928E-02 0.  1.
    10030    2    1    2    0    0  0.00000000000E+00  0.00000000000E+00  0.10950267032E+03  0.15883632807E+04  0.15845841968E+04 0.  0.
        1    1    3    3  502    0  0.40486698513E+03  0.19053736526E+03 -0.60064667809E+03  0.74899812759E+03  0.50400001928E-02 0.  1.
       -1    1    3    3    0  502 -0.40486698513E+03 -0.19053736526E+03  0.71014934841E+03  0.83936515313E+03  0.50400001928E-02 0. -1.
</event>
<event>
 5   0  0.1037321E-03  0.1578064E+04  0.7818609E-02  0.8834139E-01
        2   -1    0    0  501    0  0.00000000000E+00  0.00000000000E+00  0.19827718740E+04  0.19827718740E+04  0.25500000920E-02 0.  1.
       -2   -1    0    0    0  501  0.00000000000E+00  0.00000000000E+00 -0.31399042407E+03  0.31399042408E+03  0.25500000920E-02 0. -1.
    10030    2    1    2    0    0  0.00000000000E+00  0.00000000000E+00  0.16687814500E+04  0.22967622981E+04  0.15780638537E+04 0.  0.
        5    1    3    3  502    0 -0.63299533104E+03  0.12991503014E+03  0.17543535448E+03  0.66959738483E+03  0.46999998093E+01 0. -1.
       -5    1    3    3    0  502  0.63299533104E+03 -0.12991503014E+03  0.14933460955E+04  0.16271649133E+04  0.46999998093E+01 0.  1.
</event>
<event>
 5   0  0.1030027E-03  0.1629943E+04  0.7818609E-02  0.8802361E-01
        2   -1    0    0  501    0  0.00000000000E+00  0.00000000000E+00  0.57726591315E+03  0.57726591316E+03  0.25500000920E-02 0.  1.
       -2   -1    0    0    0  501  0.00000000000E+00  0.00000000000E+00 -0.11505587774E+04  0.11505587774E+04  0.25500000920E-02 0. -1.
    10030    2    1    2    0    0  0.00000000000E+00  0.00000000000E+00 -0.57329286424E+03  0.17278246906E+04  0.16299427760E+04 0.  0.
        1    1    3    3  502    0 -0.76093714236E+03 -0.29086637008E+03 -0.26179089668E+03  0.85566526953E+03  0.50400001928E-02 0.  1.
       -1    1    3    3    0  502  0.76093714236E+03  0.29086637008E+03 -0.31150196756E+03  0.87215942103E+03  0.50400001928E-02 0. -1.
</event>
<event>
 5   0  0.5532881E-04  0.1598417E+04  0.7818609E-02  0.8821521E-01
        1   -1    0    0  501    0  0.00000000000E+00  0.00000000000E+00  0.85140356176E+03  0.85140356177E+03  0.50400001928E-02 0.  1.
       -1   -1    0    0    0  501  0.00000000000E+00  0.00000000000E+00 -0.75021327565E+03  0.75021327567E+03  0.50400001928E-02 0. -1.
    10030    2    1    2    0    0  0.00000000000E+00  0.00000000000E+00  0.10119028611E+03  0.16016168374E+04  0.15984170357E+04 0.  0.
        4    1    3    3  502    0  0.11978133668E+03  0.30451055559E+03 -0.68001359859E+03  0.75464849715E+03  0.12699999809E+01 0. -1.
       -4    1    3    3    0  502 -0.11978133668E+03 -0.30451055559E+03  0.78120388470E+03  0.84696834029E+03  0.12699999809E+01 0.  1.
</event>
<event>
 5   0  0.5623061E-04  0.1600611E+04  0.7818609E-02  0.8820172E-01
        1   -1    0    0  501    0  0.00000000000E+00  0.00000000000E+00  0.71334624585E+03  0.71334624587E+03  0.50400001928E-02 0.  1.
       -1   -1    0    0    0  501  0.00000000000E+00  0.00000000000E+00 -0.89786588874E+03  0.89786588875E+03  0.50400001928E-02 0. -1.
    10030    2    1    2    0    0  0.00000000000E+00  0.00000000000E+00 -0.18451964289E+03  0.16112121346E+04  0.16006114595E+04 0.  0.
        3    1    3    3  502    0  0.60472668965E+03 -0.29923009602E+03  0.34100478682E+03  0.75598762845E+03  0.10100000352E+00 0.  1.
       -3    1    3    3    0  502 -0.60472668965E+03  0.29923009602E+03 -0.52552442971E+03  0.85522450617E+03  0.10100000352E+00 0. -1.
</event>
<event>
 5   0  0.1037321E-03  0.1603198E+04  0.7818609E-02  0.8818586E-01
       -2   -1    0    0    0  501  0.00000000000E+00  0.00000000000E+00  0.51621621402E+03  0.51621621403E+03  0.25500000920E-02 0. -1.
        2   -1    0    0  501    0  0.00000000000E+00  0.00000000000E+00 -0.12447521438E+04  0.12447521438E+04  0.25500000920E-02 0.  1.
    10030    2    1    2    0    0  0.00000000000E+00  0.00000000000E+00 -0.72853592975E+03  0.17609683578E+04  0.16031983521E+04 0.  0.
        5    1    3    3  502    0  0.68095930554E+03  0.42192920344E+03 -0.39551613396E+03  0.89341196026E+03  0.46999998093E+01 0.  1.
       -5    1    3    3    0  502 -0.68095930554E+03 -0.42192920344E+03 -0.33301979579E+03  0.86755639753E+03  0.46999998093E+01 0. -1.
</event>
<event>
 5   0  0.1037321E-03  0.1588146E+04  0.7818609E-02  0.8827863E-01
        2   -1    0    0  501    0  0.00000000000E+00  0.00000000000E+00  0.12139265150E+04  0.12139265150E+04  0.25500000920E-02 0.  1.
       -2   -1    0    0    0  501  0.00000000000E+00  0.00000000000E+00 -0.51943186005E+03  0.51943186005E+03  0.25500000920E-02 0. -1.
    10030    2    1    2    0    0  0.00000000000E+00  0.00000000000E+00  0.69449465492E+03  0.17333583750E+04  0.15881462246E+04 0.  0.
        5    1    3    3  502    0 -0.55791821137E+02 -0.11000691195E+03  0.12033914892E+04  0.12097055073E+04  0.46999998093E+01 0.  1.
       -5    1    3    3    0  502  0.55791821137E+02  0.11000691195E+03 -0.50889683429E+03  0.52365286777E+03  0.46999998093E+01 0. -1.
</event>
<event>
 5   0  0.1057872E-03  0.1548108E+04  0.7818609E-02  0.8853077E-01
       -2   -1    0    0    0  501  0.00000000000E+00  0.00000000000E+00  0.50926614856E+03  0.50926614856E+03  0.25500000920E-02 0.  1.
        2   -1    0    0  501    0  0.00000000000E+00  0.00000000000E+00 -0.11765156976E+04  0.11765156976E+04  0.25500000920E-02 0. -1.
    10030    2    1    2    0    0  0.00000000000E+00  0.00000000000E+00 -0.66724954904E+03  0.16857818462E+04  0.15481080299E+04 0.  0.
        2    1    3    3  502    0  0.60088881882E+03  0.47826688596E+03 -0.43893639657E+03  0.88457433098E+03  0.25500000920E-02 0. -1.
       -2    1    3    3    0  502 -0.60088881882E+03 -0.47826688596E+03 -0.22831315247E+03  0.80120751518E+03  0.25500000920E-02 0.  1.
</event>
<event>
 5   0  0.1000121E-03  0.1500729E+04  0.7818609E-02  0.8883968E-01
       -2   -1    0    0    0  501  0.00000000000E+00  0.00000000000E+00  0.60672803318E+03  0.60672803319E+03  0.25500000920E-02 0. -1.
        2   -1    0    0  501    0  0.00000000000E+00  0.00000000000E+00 -0.92800589724E+03  0.92800589725E+03  0.25500000920E-02 0.  1.
    10030    2    1    2    0    0  0.00000000000E+00  0.00000000000E+00 -0.32127786406E+03  0.15347339304E+04  0.15007294131E+04 0.  0.
        4    1    3    3  502    0 -0.24647188437E+03  0.61955722429E+03  0.19131916891E+03  0.69368882162E+03  0.12699999809E+01 0.  1.
       -4    1    3    3    0  502  0.24647188437E+03 -0.61955722429E+03 -0.51259703297E+03  0.84104510881E+03  0.12699999809E+01 0. -1.
</event>
<event>
 5   0  0.5288658E-04  0.1521014E+04  0.7818609E-02  0.8870598E-01
        1   -1    0    0  501    0  0.00000000000E+00  0.00000000000E+00  0.60698821210E+03  0.60698821212E+03  0.50400001928E-02 0.  1.
       -1   -1    0    0    0  501  0.00000000000E+00  0.00000000000E+00 -0.95285323837E+03  0.95285323838E+03  0.50400001928E-02 0. -1.
    10030    2    1    2    0    0  0.00000000000E+00  0.00000000000E+00 -0.34586502627E+03  0.15598414505E+04  0.15210137193E+04 0.  0.
        1    1    3    3  502    0  0.47632882811E+03 -0.21976383316E+03  0.39174625602E+03  0.65471400167E+03  0.50400001928E-02 0.  1.
       -1    1    3    3    0  502 -0.47632882811E+03  0.21976383316E+03 -0.73761128229E+03  0.90512744884E+03  0.50400001928E-02 0. -1.
</event>
<event>
 5   0  0.5288658E-04  0.1610558E+04  0.7818609E-02  0.8814088E-01
        1   -1    0    0  501    0  0.00000000000E+00  0.00000000000E+00  0.42599723544E+03  0.42599723547E+03  0.50400001928E-02 0.  1.
       -1   -1    0    0    0  501  0.00000000000E+00  0.00000000000E+00 -0.15222505573E+04  0.15222505573E+04  0.50400001928E-02 0. -1.
    10030    2    1    2    0    0  0.00000000000E+00  0.00000000000E+00 -0.10962533219E+04  0.19482477928E+04  0.16105583244E+04 0.  0.
        1    1    3    3  502    0  0.30240925421E+03  0.19113571532E+03 -0.14208449161E+04  0.14651909413E+04  0.50400001928E-02 0. -1.
       -1    1    3    3    0  502 -0.30240925421E+03 -0.19113571532E+03  0.32459159426E+03  0.48305685151E+03  0.50400001928E-02 0.  1.
</event>
<event>
 5   0  0.5623061E-04  0.1533858E+04  0.7818609E-02  0.8862245E-01
       -1   -1    0    0    0  501  0.00000000000E+00  0.00000000000E+00  0.33575105341E+03  0.33575105345E+03  0.50400001928E-02 0. -1.
        1   -1    0    0  501    0  0.00000000000E+00  0.00000000000E+00 -0.17518337811E+04  0.17518337811E+04  0.50400001928E-02 0.  1.
    10030    2    1    2    0    0  0.00000000000E+00  0.00000000000E+00 -0.14160827277E+04  0.20875848346E+04  0.15338579301E+04 0.  0.
        3    1    3    3  502    0 -0.18689511856E+03  0.13073347310E+03 -0.17046067480E+04  0.17197980120E+04  0.10100000352E+00 0.  1.
       -3    1    3    3    0  502  0.18689511856E+03 -0.13073347310E+03  0.28852402036E+03  0.36778682257E+03  0.10100000352E+00 0. -1.
</event>
<event>
 5   0  0.1030027E-03  0.1589137E+04  0.7818609E-02  0.8827249E-01
       -2   -1    0    0    0  501  0.00000000000E+00  0.00000000000E+00  0.12589485787E+04  0.12589485787E+04  0.25500000920E-02 0.  1.
        2   -1    0    0  501    0  0.00000000000E+00  0.00000000000E+00 -0.50148151739E+03  0.50148151740E+03  0.25500000920E-02 0. -1.
    10030    2    1    2    0    0  0.00000000000E+00  0.00000000000E+00  0.75746706126E+03  0.17604300961E+04  0.15891374309E+04 0.  0.
        1    1    3    3  502    0  0.55300106126E+03 -0.75718849396E+02  0.10051941716E+04  0.11497646892E+04  0.50400001928E-02 0.  1.
       -1    1    3    3    0  502 -0.55300106126E+03  0.75718849396E+02 -0.24772711033E+03  0.61066540685E+03  0.50400001928E-02 0. -1.
</event>
<event>
 5   0  0.3832500E-04  0.1593531E+04  0.7818609E-02  0.8824532E-01
       -3   -1    0    0    0  501  0.00000000000E+00  0.00000000000E+00  0.10630388086E+04  0.10630388134E+04  0.10100000352E+00 0. -1.
        3   -1    0    0  501    0  0.00000000000E+00  0.00000000000E+00 -0.59718929801E+03  0.59718930655E+03  0.10100000352E+00 0.  1.
    10030    2    1    2    0    0  0.00000000000E+00  0.00000000000E+00  0.46584951055E+03  0.16602281199E+04  0.15935311869E+04 0.  0.
        1    1    3    3  502    0 -0.45049894972E+03 -0.11342670875E+03  0.90733603842E+03  0.10193496008E+04  0.50400001928E-02 0. -1.
       -1    1    3    3    0  502  0.45049894972E+03  0.11342670875E+03 -0.44148652787E+03  0.64087851912E+03  0.50400001928E-02 0.  1.
</event>
<event>
 5   0  0.1000121E-03  0.1590968E+04  0.7818609E-02  0.8826116E-01
       -2   -1    0    0    0  501  0.00000000000E+00  0.00000000000E+00  0.11456680581E+04  0.11456680581E+04  0.25500000920E-02 0.  1.
        2   -1    0    0  501    0  0.00000000000E+00  0.00000000000E+00 -0.55233671934E+03  0.55233671935E+03  0.25500000920E-02 0. -1.
    10030    2    1    2    0    0  0.00000000000E+00  0.00000000000E+00  0.59333133874E+03  0.16980047774E+04  0.15909676762E+04 0.  0.
        4    1    3    3  502    0  0.46733519237E+03  0.24691707414E+03 -0.33782431647E+03  0.62729347616E+03  0.12699999809E+01 0. -1.
       -4    1    3    3    0  502 -0.46733519237E+03 -0.24691707414E+03  0.93115565522E+03  0.10707113013E+04  0.12699999809E+01 0.  1.
</event>
<event>
 5   0  0.5532881E-04  0.1562592E+04  0.7818609E-02  0.8843864E-01
        1   -1    0    0  501    0  0.00000000000E+00  0.00000000000E+00  0.13210187221E+04  0.13210187221E+04  0.50400001928E-02 0.  1.
       -1   -1    0    0    0  501  0.00000000000E+00  0.00000000000E+00 -0.46208550263E+03  0.46208550266E+03  0.50400001928E-02 0. -1.
    10030    2    1    2    0    0  0.00000000000E+00  0.00000000000E+00  0.85893321943E+03  0.17831042247E+04  0.15625922055E+04 0.  0.
        4    1    3    3  502    0 -0.61107593765E+03  0.41107129778E+03  0.72709664691E+03  0.10349224900E+04  0.12699999809E+01 0. -1.
       -4    1    3    3    0  502  0.61107593765E+03 -0.41107129778E+03  0.13183657252E+03  0.74818173473E+03  0.12699999809E+01 0.  1.
</event>
<event>
 5   0  0.5425525E-04  0.1580258E+04  0.7818609E-02  0.8832769E-01
       -1   -1    0    0    0  501  0.00000000000E+00  0.00000000000E+00  0.80577616430E+03  0.80577616431E+03  0.50400001928E-02 0. -1.
        1   -1    0    0  501    0  0.00000000000E+00  0.00000000000E+00 -0.77478552136E+03  0.77478552137E+03  0.50400001928E-02 0.  1.
    10030    2    1    2    0    0  0.00000000000E+00  0.00000000000E+00  0.30990642941E+02  0.15805616857E+04  0.15802578341E+04 0.  0.
        5    1    3    3  502    0  0.52118569392E+02 -0.65775337311E+03  0.45023481893E+03  0.79880493694E+03  0.46999998093E+01 0. -1.
       -5    1    3    3    0  502 -0.52118569392E+02  0.65775337311E+03 -0.41924417599E+03  0.78175674874E+03  0.46999998093E+01 0.  1.
</event>
<event>
 5   0  0.1030027E-03  0.1581976E+04  0.7818609E-02  0.8831698E-01
        2   -1    0    0  501    0  0.00000000000E+00  0.00000000000E+00  0.72836415564E+03  0.72836415564E+03  0.25500000920E-02 0.  1.
       -2   -1    0    0    0  501  0.00000000000E+00  0.00000000000E+00 -0.85899585064E+03  0.85899585064E+03  0.25500000920E-02 0. -1.
    10030    2    1    2    0    0  0.00000000000E+00  0.00000000000E+00 -0.13063169500E+03  0.15873600063E+04  0.15819757109E+04 0.  0.
        1    1    3    3  502    0  0.62591812594E+03 -0.44723706743E+03 -0.24997288447E+03  0.80887634275E+03  0.50400001928E-02 0. -1.
       -1    1    3    3    0  502 -0.62591812594E+03  0.44723706743E+03  0.11934118947E+03  0.77848366354E+03  0.50400001928E-02 0.  1.
</event>
<event>
 5   0  0.5623061E-04  0.1546554E+04  0.7818609E-02  0.8854072E-01
       -1   -1    0    0    0  501  0.00000000000E+00  0.00000000000E+00  0.55503095584E+03  0.55503095586E+03  0.50400001928E-02 0. -1.
        1   -1    0    0  501    0  0.00000000000E+00  0.00000000000E+00 -0.10773405813E+04  0.10773405813E+04  0.50400001928E-02 0.  1.
    10030    2    1    2    0    0  0.00000000000E+00  0.00000000000E+00 -0.52230962543E+03  0.16323715371E+04  0.15465540697E+04 0.  0.
        3    1    3    3  502    0  0.23136160716E+03  0.60837493402E+02  0.51499100607E+03  0.56784253134E+03  0.10100000352E+00 0. -1.
       -3    1    3    3    0  502 -0.23136160716E+03 -0.60837493402E+02 -0.10373006315E+04  0.10645290058E+04  0.10100000352E+00 0.  1.
</event>
<event>
 5   0  0.1057872E-03  0.1745708E+04  0.7818609E-02  0.8735717E-01
       -2   -1    0    0    0  501  0.00000000000E+00  0.00000000000E+00  0.13894775606E+04  0.13894775606E+04  0.25500000920E-02 0.  1.
        2   -1    0    0  501    0  0.00000000000E+00  0.00000000000E+00 -0.54831678679E+03  0.54831678680E+03  0.25500000920E-02 0. -1.
    10030    2    1    2    0    0  0.00000000000E+00  0.00000000000E+00  0.84116077384E+03  0.19377943474E+04  0.17457077320E+04 0.  0.
        2    1    3    3  502    0  0.35193764808E+03 -0.48289189838E+02 -0.46444571221E+03  0.58472367285E+03  0.25500000920E-02 0. -1.
       -2    1    3    3    0  502 -0.35193764808E+03  0.48289189838E+02  0.13056064861E+04  0.13530706746E+04  0.25500000920E-02 0.  1.
</event>
<event>
 5   0  0.1057872E-03  0.1598415E+04  0.7818609E-02  0.8821522E-01
        2   -1    0    0  501    0  0.00000000000E+00  0.00000000000E+00  0.15152341902E+04  0.15152341902E+04  0.25500000920E-02 0. -1.
       -2   -1    0    0    0  501  0.00000000000E+00  0.00000000000E+00 -0.42154075929E+03  0.42154075930E+03  0.25500000920E-02 0.  1.
    10030    2    1    2    0    0  0.00000000000E+00  0.00000000000E+00  0.10936934309E+04  0.19367749495E+04  0.15984154292E+04 0.  0.
        2    1    3    3  502    0  0.66045903176E+03 -0.40561400809E+02  0.37719945265E+01  0.66171412847E+03  0.25500000920E-02 0.  1.
       -2    1    3    3    0  502 -0.66045903176E+03  0.40561400809E+02  0.10899214364E+04  0.12750608211E+04  0.25500000920E-02 0. -1.
</event>
<event>
 5   0  0.1000121E-03  0.1608004E+04  0.7818609E-02  0.8815646E-01
        2   -1    0    0  501    0  0.00000000000E+00  0.00000000000E+00  0.21694855674E+04  0.21694855674E+04  0.25500000920E-02 0. -1.
       -2   -1    0    0    0  501  0.00000000000E+00  0.00000000000E+00 -0.29795951124E+03  0.29795951125E+03  0.25500000920E-02 0.  1.
    10030    2    1    2    0    0  0.00000000000E+00  0.00000000000E+00  0.18715260562E+04  0.24674450786E+04  0.16080035564E+04 0.  0.
        4    1    3    3  502    0  0.58453543101E+03  0.51534496740E+03  0.63212589283E+03  0.10034175914E+04  0.12699999809E+01 0.  1.
       -4    1    3    3    0  502 -0.58453543101E+03 -0.51534496740E+03  0.12394001633E+04  0.14640274872E+04  0.12699999809E+01 0. -1.
</event>
<event>
 5   0  0.9844690E-04  0.1681982E+04  0.7818609E-02  0.8771708E-01
        2   -1    0    0  501    0  0.00000000000E+00  0.00000000000E+00  0.77419900095E+03  0.77419900095E+03  0.25500000920E-02 0.  1.
       -2   -1    0    0    0  501  0.00000000000E+00  0.00000000000E+00 -0.91354529794E+03  0.91354529794E+03  0.25500000920E-02 0. -1.
    10030    2    1    2    0    0  0.00000000000E+00  0.00000000000E+00 -0.13934629699E+03  0.16877442989E+04  0.16819819939E+04 0.  0.
        3    1    3    3  502    0 -0.33804991623E+03  0.13066666537E+03  0.69181692667E+03  0.78100076411E+03  0.10100000352E+00 0.  1.
       -3    1    3    3    0  502  0.33804991623E+03 -0.13066666537E+03 -0.83116322366E+03  0.90674353478E+03  0.10100000352E+00 0. -1.
</event>
<event>
 5   0  0.1030027E-03  0.1511291E+04  0.7818609E-02  0.8876979E-01
        2   -1    0    0  501    0  0.00000000000E+00  0.00000000000E+00  0.13198683087E+04  0.13198683087E+04  0.25500000920E-02 0. -1.
       -2   -1    0    0    0  501  0.00000000000E+00  0.00000000000E+00 -0.43261883716E+03  0.43261883717E+03  0.25500000920E-02 0.  1.
    10030    2    1    2    0    0  0.00000000000E+00  0.00000000000E+00  0.88724947156E+03  0.17524871459E+04  0.15112906973E+04 0.  0.
        1    1    3    3  502    0  0.28886908276E+03  0.15485256266E+03  0.12331516572E+04  0.12759653886E+04  0.50400001928E-02 0. -1.
       -1    1    3    3    0  502 -0.28886908276E+03 -0.15485256266E+03 -0.34590218565E+03  0.47652175732E+03  0.50400001928E-02 0.  1.
</event>
<event>
 5   0  0.1037321E-03  0.1572643E+04  0.7818609E-02  0.8837533E-01
        2   -1    0    0  501    0  0.00000000000E+00  0.00000000000E+00  0.11874578203E+04  0.11874578203E+04  0.25500000920E-02 0. -1.
       -2   -1    0    0    0  501  0.00000000000E+00  0.00000000000E+00 -0.52069344938E+03  0.52069344938E+03  0.25500000920E-02 0.  1.
    10030    2    1    2    0    0  0.00000000000E+00  0.00000000000E+00  0.66676437095E+03  0.17081512697E+04  0.15726430090E+04 0.  0.
        5    1    3    3  502    0  0.58181953042E+03 -0.22510662501E+03  0.85326035025E+03  0.10570062790E+04  0.46999998093E+01 0. -1.
       -5    1    3    3    0  502 -0.58181953042E+03  0.22510662501E+03 -0.18649597930E+03  0.65114499068E+03  0.46999998093E+01 0.  1.
</event>
<event>
 5   0  0.5532881E-04  0.1309957E+04  0.7818609E-02  0.9021706E-01
        1   -1    0    0  501    0  0.00000000000E+00  0.00000000000E+00  0.16886363912E+04  0.16886363912E+04  0.50400001928E-02 0. -1.
       -1   -1    0    0    0  501  0.00000000000E+00  0.00000000000E+00 -0.25404920750E+03  0.25404920755E+03  0.50400001928E-02 0.  1.
    10030    2    1    2    0    0  0.00000000000E+00  0.00000000000E+00  0.14345871837E+04  0.19426855988E+04  0.13099568497E+04 0.  0.
        4    1    3    3  502    0 -0.10524623685E+03 -0.15161167393E+03  0.16492741068E+04  0.16595690894E+04  0.12699999809E+01 0. -1.
       -4    1    3    3    0  502  0.10524623685E+03  0.15161167393E+03 -0.21468692311E+03  0.28311650940E+03  0.12699999809E+01 0.  1.
</event>
<event>
 5   0  0.5425525E-04  0.1601298E+04  0.7818609E-02  0.8819751E-01
        1   -1    0    0  501    0  0.00000000000E+00  0.00000000000E+00  0.46847447548E+03  0.46847447551E+03  0.50400001928E-02 0. -1.
       -1   -1    0    0    0  501  0.00000000000E+00  0.00000000000E+00 -0.13683540726E+04  0.13683540726E+04  0.50400001928E-02 0.  1.
    10030    2    1    2    0    0  0.00000000000E+00  0.00000000000E+00 -0.89987959713E+03  0.18368285481E+04  0.16012981690E+04 0.  0.
        5    1    3    3  502    0 -0.21578367705E+03 -0.62163492592E+03  0.73242977379E+02  0.66210210703E+03  0.46999998093E+01 0. -1.
       -5    1    3    3    0  502  0.21578367705E+03  0.62163492592E+03 -0.97312257451E+03  0.11747264411E+04  0.46999998093E+01 0.  1.
</event>
<event>
 5   0  0.1000121E-03  0.1660055E+04  0.7818609E-02  0.8784480E-01
        2   -1    0    0  501    0  0.00000000000E+00  0.00000000000E+00  0.10328418167E+04  0.10328418167E+04  0.25500000920E-02 0. -1.
       -2   -1    0    0    0  501  0.00000000000E+00  0.00000000000E+00 -0.66703858541E+03  0.66703858542E+03  0.25500000920E-02 0.  1.
    10030    2    1    2    0    0  0.00000000000E+00  0.00000000000E+00  0.36580323125E+03  0.16998804021E+04  0.16600546308E+04 0.  0.
        4    1    3    3  502    0 -0.19473030657E+03 -0.79961988866E+03  0.29334019436E+03  0.87370586650E+03  0.12699999809E+01 0. -1.
       -4    1    3    3    0  502  0.19473030657E+03  0.79961988866E+03  0.72463036888E+02  0.82617453558E+03  0.12699999809E+01 0.  1.
</event>
<event>
 5   0  0.1057872E-03  0.1581239E+04  0.7818609E-02  0.8832157E-01
        2   -1    0    0  501    0  0.00000000000E+00  0.00000000000E+00  0.13911304544E+04  0.13911304544E+04  0.25500000920E-02 0.  1.
       -2   -1    0    0    0  501  0.00000000000E+00  0.00000000000E+00 -0.44933163254E+03  0.44933163254E+03  0.25500000920E-02 0. -1.
    10030    2    1    2    0    0  0.00000000000E+00  0.00000000000E+00  0.94179882182E+03  0.18404620869E+04  0.15812386514E+04 0.  0.
        2    1    3    3  502    0 -0.10019556248E+00  0.59629095406E+03 -0.13335765167E+03  0.61102141959E+03  0.25500000920E-02 0. -1.
       -2    1    3    3    0  502  0.10019556248E+00 -0.59629095406E+03  0.10751564735E+04  0.12294406673E+04  0.25500000920E-02 0.  1.
</event>
<event>
 5   0  0.5425525E-04  0.1588529E+04  0.7818609E-02  0.8827626E-01
       -1   -1    0    0    0  501  0.00000000000E+00  0.00000000000E+00  0.11089487860E+04  0.11089487860E+04  0.50400001928E-02 0. -1.
        1   -1    0    0  501    0  0.00000000000E+00  0.00000000000E+00 -0.56887792853E+03  0.56887792855E+03  0.50400001928E-02 0.  1.
    10030    2    1    2    0    0  0.00000000000E+00  0.00000000000E+00  0.54007085744E+03  0.16778267145E+04  0.15885294939E+04 0.  0.
        5    1    3    3  502    0 -0.62938086950E+03 -0.19631771131E+03  0.73784808332E+03  0.98949623886E+03  0.46999998093E+01 0. -1.
       -5    1    3    3    0  502  0.62938086950E+03  0.19631771131E+03 -0.19777722588E+03  0.68833047567E+03  0.46999998093E+01 0.  1.
</event>
<event>
 5   0  0.5281116E-04  0.1630324E+04  0.7818609E-02  0.8802132E-01
        1   -1    0    0  501    0  0.00000000000E+00  0.00000000000E+00  0.13928658735E+04  0.13928658735E+04  0.50400001928E-02 0. -1.
       -1   -1    0    0    0  501  0.00000000000E+00  0.00000000000E+00 -0.47706638581E+03  0.47706638583E+03  0.50400001928E-02 0.  1.
    10030    2    1    2    0    0  0.00000000000E+00  0.00000000000E+00  0.91579948766E+03  0.18699322593E+04  0.16303244931E+04 0.  0.
        2    1    3    3  502    0  0.12399395920E+03  0.53393365157E+03  0.11499224020E+04  0.12738842871E+04  0.25500000920E-02 0. -1.
       -2    1    3    3    0  502 -0.12399395920E+03 -0.53393365157E+03 -0.23412291434E+03  0.59604797225E+03  0.25500000920E-02 0.  1.
</event>
<event>
 5   0  0.1037321E-03  0.1665307E+04  0.7818609E-02  0.8781402E-01
        2   -1    0    0  501    0  0.00000000000E+00  0.00000000000E+00  0.10145065298E+04  0.10145065298E+04  0.25500000920E-02 0.  1.
       -2   -1    0    0    0  501  0.00000000000E+00  0.00000000000E+00 -0.68339817501E+03  0.68339817501E+03  0.25500000920E-02 0. -1.
    10030    2    1    2    0    0  0.00000000000E+00  0.00000000000E+00  0.33110835480E+03  0.16979047048E+04  0.16653070720E+04 0.  0.
        5    1    3    3  502    0 -0.17863000332E+03 -0.48825624776E+03  0.82865945565E+03  0.97826449644E+03  0.46999998093E+01 0.  1.
       -5    1    3    3    0  502  0.17863000332E+03  0.48825624776E+03 -0.49755110085E+03  0.71964020838E+03  0.46999998093E+01 0. -1.
</event>
<event>
 5   0  0.5281116E-04  0.1598032E+04  0.7818609E-02  0.8821758E-01
        1   -1    0    0  501    0  0.00000000000E+00  0.00000000000E+00  0.56257225267E+03  0.56257225269E+03  0.50400001928E-02 0. -1.
       -1   -1    0    0    0  501  0.00000000000E+00  0.00000000000E+00 -0.11348353187E+04  0.11348353187E+04  0.50400001928E-02 0.  1.
    10030    2    1    2    0    0  0.00000000000E+00  0.00000000000E+00 -0.57226306599E+03  0.16974075714E+04  0.15980323672E+04 0.  0.
        2    1    3    3  502    0  0.34496392504E+03 -0.66421147995E+03  0.10995628201E+02  0.74853049605E+03  0.25500000920E-02 0. -1.
       -2    1    3    3    0  502 -0.34496392504E+03  0.66421147995E+03 -0.58325869419E+03  0.94887707530E+03  0.25500000920E-02 0.  1.
</event>
<event>
 5   0  0.5623061E-04  0.1622508E+04  0.7818609E-02  0.8806839E-01
       -1   -1    0    0    0  501  0.00000000000E+00  0.00000000000E+00  0.53627949803E+03  0.53627949805E+03  0.50400001928E-02 0.  1.
        1   -1    0    0  501    0  0.00000000000E+00  0.00000000000E+00 -0.12272197616E+04  0.12272197616E+04  0.50400001928E-02 0. -1.
    10030    2    1    2    0    0  0.00000000000E+00  0.00000000000E+00 -0.69094026356E+03  0.17634992597E+04  0.16225076860E+04 0.  0.
        3    1    3    3  502    0 -0.24395955527E+03 -0.67864336448E+03 -0.74932190328E+03  0.10399790410E+04  0.10100000352E+00 0. -1.
       -3    1    3    3    0  502  0.24395955527E+03  0.67864336448E+03  0.58381639717E+02  0.72352021867E+03  0.10100000352E+00 0.  1.
</event>
<event>
 5   0  0.5288658E-04  0.1470410E+04  0.7818609E-02  0.8904372E-01
       -1   -1    0    0    0  501  0.00000000000E+00  0.00000000000E+00  0.10596120242E+04  0.10596120242E+04  0.50400001928E-02 0.  1.
        1   -1    0    0  501    0  0.00000000000E+00  0.00000000000E+00 -0.51011746853E+03  0.51011746855E+03  0.50400001928E-02 0. -1.
    10030    2    1    2    0    0  0.00000000000E+00  0.00000000000E+00  0.54949455570E+03  0.15697294928E+04  0.14704102876E+04 0.  0.
        1    1    3    3  502    0 -0.69161813885E+03  0.24686534345E+03  0.23702717718E+03  0.77166056691E+03  0.50400001928E-02 0.  1.
       -1    1    3    3    0  502  0.69161813885E+03 -0.24686534345E+03  0.31246737852E+03  0.79806892588E+03  0.50400001928E-02 0. -1.
</event>
<event>
 5   0  0.1030027E-03  0.1635680E+04  0.7818609E-02  0.8798923E-01
       -2   -1    0    0    0  501  0.00000000000E+00  0.00000000000E+00  0.12859722599E+04  0.12859722599E+04  0.25500000920E-02 0.  1.
        2   -1    0    0  501    0  0.00000000000E+00  0.00000000000E+00 -0.52012200677E+03  0.52012200677E+03  0.25500000920E-02 0. -1.
    10030    2    1    2    0    0  0.00000000000E+00  0.00000000000E+00  0.76585025312E+03  0.18060942667E+04  0.16356802529E+04 0.  0.
        1    1    3    3  502    0  0.74906059608E+03 -0.10514896009E+03  0.39535195585E+02  0.75743720011E+03  0.50400001928E-02 0. -1.
       -1    1    3    3    0  502 -0.74906059608E+03  0.10514896009E+03  0.72631505754E+03  0.10486570666E+04  0.50400001928E-02 0.  1.
</event>
<event>
 5   0  0.3832500E-04  0.1499284E+04  0.7818609E-02  0.8884929E-01
       -3   -1    0    0    0  501  0.00000000000E+00  0.00000000000E+00  0.35180822243E+03  0.35180823692E+03  0.10100000352E+00 0.  1.
        3   -1    0    0  501    0  0.00000000000E+00  0.00000000000E+00 -0.15973558605E+04  0.15973558637E+04  0.10100000352E+00 0. -1.
    10030    2    1    2    0    0  0.00000000000E+00  0.00000000000E+00 -0.12455476381E+04  0.19491641006E+04  0.14992837531E+04 0.  0.
        3    1    3    3  502    0  0.34782159833E+03  0.56093934194E+03 -0.16069290652E+03  0.67930481377E+03  0.10100000352E+00 0.  1.
       -3    1    3    3    0  502 -0.34782159833E+03 -0.56093934194E+03 -0.10848547315E+04  0.12698592868E+04  0.10100000352E+00 0. -1.
</event>
<event>
 5   0  0.9844690E-04  0.1649971E+04  0.7818609E-02  0.8790423E-01
        2   -1    0    0  501    0  0.00000000000E+00  0.00000000000E+00  0.70368898435E+03  0.70368898436E+03  0.25500000920E-02 0. -1.
       -2   -1    0    0    0  501  0.00000000000E+00  0.00000000000E+00 -0.96719074902E+03  0.96719074903E+03  0.25500000920E-02 0.  1.
    10030    2    1    2    0    0  0.00000000000E+00  0.00000000000E+00 -0.26350176467E+03  0.16708797334E+04  0.16499714856E+04 0.  0.
        3    1    3    3  502    0 -0.17188443327E+03  0.56777695366E+03 -0.71232772745E+03  0.92699823571E+03  0.10100000352E+00 0. -1.
       -3    1    3    3    0  502  0.17188443327E+03 -0.56777695366E+03  0.44882596278E+03  0.74388149767E+03  0.10100000352E+00 0.  1.
</event>
<event>
 5   0  0.1037321E-03  0.1493336E+04  0.7818609E-02  0.8888896E-01
        2   -1    0    0  501    0  0.00000000000E+00  0.00000000000E+00  0.81229052850E+03  0.81229052851E+03  0.25500000920E-02 0. -1.
       -2   -1    0    0    0  501  0.00000000000E+00  0.00000000000E+00 -0.68634724870E+03  0.68634724870E+03  0.25500000920E-02 0.  1.
    10030    2    1    2    0    0  0.00000000000E+00  0.00000000000E+00  0.12594327980E+03  0.14986377772E+04  0.14933363578E+04 0.  0.
        5    1    3    3  502    0  0.45258148084E+03  0.58558372564E+03 -0.36136144529E+02  0.74099001847E+03  0.46999998093E+01 0. -1.
       -5    1    3    3    0  502 -0.45258148084E+03 -0.58558372564E+03  0.16207942433E+03  0.75764775874E+03  0.46999998093E+01 0.  1.
</event>
<event>
 5   0  0.1000121E-03  0.1584798E+04  0.7818609E-02  0.8829942E-01
       -2   -1    0    0    0  501  0.00000000000E+00  0.00000000000E+00  0.93779306596E+03  0.93779306596E+03  0.25500000920E-02 0.  1.
        2   -1    0    0  501    0  0.00000000000E+00  0.00000000000E+00 -0.66954688280E+03  0.66954688280E+03  0.25500000920E-02 0. -1.
    10030    2    1    2    0    0  0.00000000000E+00  0.00000000000E+00  0.26824618316E+03  0.16073399488E+04  0.15847983140E+04 0.  0.
        4    1    3    3  502    0 -0.42840704700E+03 -0.41486918083E+03 -0.39507017959E+03  0.71535382492E+03  0.12699999809E+01 0. -1.
       -4    1    3    3    0  502  0.42840704700E+03  0.41486918083E+03  0.66331636276E+03  0.89198612384E+03  0.12699999809E+01 0.  1.
</event>
<event>
 5   0  0.1030027E-03  0.1701815E+04  0.7818609E-02  0.8760330E-01
       -2   -1    0    0    0  501  0.00000000000E+00  0.00000000000E+00  0.65038848329E+03  0.65038848329E+03  0.25500000920E-02 0. -1.
        2   -1    0    0  501    0  0.00000000000E+00  0.00000000000E+00 -0.11132481608E+04  0.11132481608E+04  0.25500000920E-02 0.  1.
    10030    2    1    2    0    0  0.00000000000E+00  0.00000000000E+00 -0.46285967754E+03  0.17636366441E+04  0.17018152460E+04 0.  0.
        1    1    3    3  502    0 -0.40673325125E+03 -0.58778815415E+03  0.24698614459E+03  0.75625988091E+03  0.50400001928E-02 0. -1.
       -1    1    3    3    0  502  0.40673325125E+03  0.58778815415E+03 -0.70984582213E+03  0.10073767632E+04  0.50400001928E-02 0.  1.
</event>
<event>
 5   0  0.5281116E-04  0.1603083E+04  0.7818609E-02  0.8818656E-01
       -1   -1    0    0    0  501  0.00000000000E+00  0.00000000000E+00  0.15647721881E+04  0.15647721882E+04  0.50400001928E-02 0. -1.
        1   -1    0    0  501    0  0.00000000000E+00  0.00000000000E+00 -0.41058310460E+03  0.41058310463E+03  0.50400001928E-02 0.  1.
    10030    2    1    2    0    0  0.00000000000E+00  0.00000000000E+00  0.11541890835E+04  0.19753552928E+04  0.16030833079E+04 0.  0.
        2    1    3    3  502    0  0.17972218283E+03  0.32046410207E+03  0.14548934789E+04  0.15005706710E+04  0.25500000920E-02 0. -1.
       -2    1    3    3    0  502 -0.17972218283E+03 -0.32046410207E+03 -0.30070439534E+03  0.47478462180E+03  0.25500000920E-02 0.  1.
</event>
<event>
 5   0  0.5623061E-04  0.1579333E+04  0.7818609E-02  0.8833346E-01
       -1   -1    0    0    0  501  0.00000000000E+00  0.00000000000E+00  0.96165654297E+03  0.96165654298E+03  0.50400001928E-02 0.  1.
        1   -1    0    0  501    0  0.00000000000E+00  0.00000000000E+00 -0.64843620573E+03  0.64843620575E+03  0.50400001928E-02 0. -1.
    10030    2    1    2    0    0  0.00000000000E+00  0.00000000000E+00  0.31322033723E+03  0.16100927487E+04  0.15793326692E+04 0.  0.
        3    1    3    3  502    0 -0.41343767544E+03 -0.28263527753E+03  0.77904177035E+03  0.92613147108E+03  0.10100000352E+00 0.  1.
       -3    1    3    3    0  502  0.41343767544E+03  0.28263527753E+03 -0.46582143312E+03  0.68396127765E+03  0.10100000352E+00 0. -1.
</event>
<event>
 5   0  0.9844690E-04  0.1621131E+04  0.7818609E-02  0.8807671E-01
       -2   -1    0    0    0  501  0.00000000000E+00  0.00000000000E+00  0.47757184961E+03  0.47757184962E+03  0.25500000920E-02 0. -1.
        2   -1    0    0  501    0  0.00000000000E+00  0.00000000000E+00 -0.13757438182E+04  0.13757438182E+04  0.25500000920E-02 0.  1.
    10030    2    1    2    0    0  0.00000000000E+00  0.00000000000E+00 -0.89817196855E+03  0.18533156678E+04  0.16211311111E+04 0.  0.
        3    1    3    3  502    0  0.93414241822E+02  0.58722674918E+03 -0.10788508532E+04  0.12318606452E+04  0.10100000352E+00 0.  1.
       -3    1    3    3    0  502 -0.93414241822E+02 -0.58722674918E+03  0.18067888467E+03  0.62145502258E+03  0.10100000352E+00 0. -1.
</event>
<event>
 5   0  0.9844690E-04  0.1591564E+04  0.7818609E-02  0.8825747E-01
       -2   -1    0    0    0  501  0.00000000000E+00  0.00000000000E+00  0.31822004060E+03  0.31822004061E+03  0.25500000920E-02 0. -1.
        2   -1    0    0  501    0  0.00000000000E+00  0.00000000000E+00 -0.19900355395E+04  0.19900355395E+04  0.25500000920E-02 0.  1.
    10030    2    1    2    0    0  0.00000000000E+00  0.00000000000E+00 -0.16718154989E+04  0.23082555801E+04  0.15915642496E+04 0.  0.
        3    1    3    3  502    0 -0.44393360116E+03  0.53316092628E+03 -0.14012139170E+04  0.15635658179E+04  0.10100000352E+00 0.  1.
       -3    1    3    3    0  502  0.44393360116E+03 -0.53316092628E+03 -0.27060158184E+03  0.74468976215E+03  0.10100000352E+00 0. -1.
</event>
<event>
 5   0  0.5281116E-04  0.1726877E+04  0.7818609E-02  0.8746182E-01
        1   -1    0    0  501    0  0.00000000000E+00  0.00000000000E+00  0.12418806013E+04  0.12418806013E+04  0.50400001928E-02 0.  1.
       -1   -1    0    0    0  501  0.00000000000E+00  0.00000000000E+00 -0.60032025630E+03  0.60032025632E+03  0.50400001928E-02 0. -1.
    10030    2    1    2    0    0  0.00000000000E+00  0.00000000000E+00  0.64156034500E+03  0.18422008576E+04  0.17268770436E+04 0.  0.
        2    1    3    3  502    0 -0.37397750055E+03 -0.20151611863E+03 -0.48112338644E+03  0.64183146540E+03  0.25500000920E-02 0. -1.
       -2    1    3    3    0  502  0.37397750055E+03  0.20151611863E+03  0.11226837314E+04  0.12003693922E+04  0.25500000920E-02 0.  1.
</event>
<event>
 5   0  0.5288658E-04  0.1661531E+04  0.7818609E-02  0.8783614E-01
       -1   -1    0    0    0  501  0.00000000000E+00  0.00000000000E+00  0.46911927347E+03  0.46911927349E+03  0.50400001928E-02 0.  1.
        1   -1    0    0  501    0  0.00000000000E+00  0.00000000000E+00 -0.14712068947E+04  0.14712068947E+04  0.50400001928E-02 0. -1.
    10030    2    1    2    0    0  0.00000000000E+00  0.00000000000E+00 -0.10020876212E+04  0.19403261682E+04  0.16615312330E+04 0.  0.
        1    1    3    3  502    0 -0.79738974498E+03 -0.63864272402E+02 -0.76285493558E+03  0.11053762723E+04  0.50400001928E-02 0. -1.
       -1    1    3    3    0  502  0.79738974498E+03  0.63864272402E+02 -0.23923268566E+03  0.83494989587E+03  0.50400001928E-02 0.  1.
</event>
<event>
 5   0  0.1037321E-03  0.1593184E+04  0.7818609E-02  0.8824746E-01
        2   -1    0    0  501    0  0.00000000000E+00  0.00000000000E+00  0.52104868422E+03  0.52104868423E+03  0.25500000920E-02 0.  1.
       -2   -1    0    0    0  501  0.00000000000E+00  0.00000000000E+00 -0.12178500971E+04  0.12178500971E+04  0.25500000920E-02 0. -1.
    10030    2    1    2    0    0  0.00000000000E+00  0.00000000000E+00 -0.69680141288E+03  0.17388987813E+04  0.15931844723E+04 0.  0.
        5    1    3    3  502    0  0.35427385264E+03  0.67518716266E+03 -0.96773522277E+02  0.76861880793E+03  0.46999998093E+01 0.  1.
       -5    1    3    3    0  502 -0.35427385264E+03 -0.67518716266E+03 -0.60002789061E+03  0.97027997341E+03  0.46999998093E+01 0. -1.
</event>
<event>
 5   0  0.5532881E-04  0.1596550E+04  0.7818609E-02  0.8822670E-01
       -1   -1    0    0    0  501  0.00000000000E+00  0.00000000000E+00  0.87199919105E+03  0.87199919107E+03  0.50400001928E-02 0.  1.
        1   -1    0    0  501    0  0.00000000000E+00  0.00000000000E+00 -0.73078372058E+03  0.73078372059E+03  0.50400001928E-02 0. -1.
    10030    2    1    2    0    0  0.00000000000E+00  0.00000000000E+00  0.14121547048E+03  0.16027829117E+04  0.15965497965E+04 0.  0.
        4    1    3    3  502    0 -0.14729986357E+02  0.79812212840E+03  0.65558590907E+02  0.80094659378E+03  0.12699999809E+01 0.  1.
       -4    1    3    3    0  502  0.14729986357E+02 -0.79812212840E+03  0.75656879571E+02  0.80183631788E+03  0.12699999809E+01 0. -1.
</event>
<event>
 5   0  0.5288658E-04  0.1569141E+04  0.7818609E-02  0.8839733E-01
        1   -1    0    0  501    0  0.00000000000E+00  0.00000000000E+00  0.75620918658E+03  0.75620918660E+03  0.50400001928E-02 0.  1.
       -1   -1    0    0    0  501  0.00000000000E+00  0.00000000000E+00 -0.81399593947E+03  0.81399593948E+03  0.50400001928E-02 0. -1.
    10030    2    1    2    0    0  0.00000000000E+00  0.00000000000E+00 -0.57786752889E+02  0.15702051261E+04  0.15691414306E+04 0.  0.
        1    1    3    3  502    0  0.25353693093E+03 -0.52084971617E+03 -0.55838891884E+03  0.80458907952E+03  0.50400001928E-02 0. -1.
       -1    1    3    3    0  502 -0.25353693093E+03  0.52084971617E+03  0.50060216595E+03  0.76561604656E+03  0.50400001928E-02 0.  1.
</event>
<event>
 5   0  0.1000121E-03  0.1611818E+04  0.7818609E-02  0.8813321E-01
        2   -1    0    0  501    0  0.00000000000E+00  0.00000000000E+00  0.21598654690E+04  0.21598654690E+04  0.25500000920E-02 0. -1.
       -2   -1    0    0    0  501  0.00000000000E+00  0.00000000000E+00 -0.30070810769E+03  0.30070810770E+03  0.25500000920E-02 0.  1.
    10030    2    1    2    0    0  0.00000000000E+00  0.00000000000E+00  0.18591573613E+04  0.24605735767E+04  0.16118176796E+04 0.  0.
        4    1    3    3  502    0 -0.11310927452E+03  0.40063728242E+03  0.19830133678E+04  0.20262397612E+04  0.12699999809E+01 0. -1.
       -4    1    3    3    0  502  0.11310927452E+03 -0.40063728242E+03 -0.12385600649E+03  0.43433381551E+03  0.12699999809E+01 0.  1.
</event>
<event>
 5   0  0.5288658E-04  0.1663126E+04  0.7818609E-02  0.8782679E-01
        1   -1    0    0  501    0  0.00000000000E+00  0.00000000000E+00  0.12989100120E+04  0.12989100120E+04  0.50400001928E-02 0.  1.
       -1   -1    0    0    0  501  0.00000000000E+00  0.00000000000E+00 -0.53236727833E+03  0.53236727836E+03  0.50400001928E-02 0. -1.
    10030    2    1    2    0    0  0.00000000000E+00  0.00000000000E+00  0.76654273367E+03  0.18312772904E+04  0.16631261984E+04 0.  0.
        1    1    3    3  502    0 -0.22858110399E+03  0.59170378581E+03  0.97534927957E+03  0.11634727794E+04  0.50400001928E-02 0.  1.
       -1    1    3    3    0  502  0.22858110399E+03 -0.59170378581E+03 -0.20880654589E+03  0.66780451097E+03  0.50400001928E-02 0. -1.
</event>
<event>
 5   0  0.5288658E-04  0.1560475E+04  0.7818609E-02  0.8845204E-01
       -1   -1    0    0    0  501  0.00000000000E+00  0.00000000000E+00  0.38845053128E+03  0.38845053131E+03  0.50400001928E-02 0.  1.
        1   -1    0    0  501    0  0.00000000000E+00  0.00000000000E+00 -0.15671771853E+04  0.15671771853E+04  0.50400001928E-02 0. -1.
    10030    2    1    2    0    0  0.00000000000E+00  0.00000000000E+00 -0.11787266540E+04  0.19556277166E+04  0.15604753254E+04 0.  0.
        1    1    3    3  502    0 -0.69151625326E+03 -0.14571247592E+03 -0.17495672154E+03  0.72803620006E+03  0.50400001928E-02 0. -1.
       -1    1    3    3    0  502  0.69151625326E+03  0.14571247592E+03 -0.10037699325E+04  0.12275915166E+04  0.50400001928E-02 0.  1.
</event>
<event>
 5   0  0.5288658E-04  0.1368871E+04  0.7818609E-02  0.8976665E-01
       -1   -1    0    0    0  501  0.00000000000E+00  0.00000000000E+00  0.82423613525E+03  0.82423613527E+03  0.50400001928E-02 0. -1.
        1   -1    0    0  501    0  0.00000000000E+00  0.00000000000E+00 -0.56834686383E+03  0.56834686385E+03  0.50400001928E-02 0.  1.
    10030    2    1    2    0    0  0.00000000000E+00  0.00000000000E+00  0.25588927142E+03  0.13925829991E+04  0.13688711007E+04 0.  0.
        1    1    3    3  502    0  0.19613078119E+03 -0.23516109912E+03  0.75066218650E+03  0.81071680884E+03  0.50400001928E-02 0. -1.
       -1    1    3    3    0  502 -0.19613078119E+03  0.23516109912E+03 -0.49477291508E+03  0.58186619028E+03  0.50400001928E-02 0.  1.
</event>
<event>
 5   0  0.5425525E-04  0.1445887E+04  0.7818609E-02  0.8921257E-01
       -1   -1    0    0    0  501  0.00000000000E+00  0.00000000000E+00  0.14098988701E+04  0.14098988701E+04  0.50400001928E-02 0.  1.
        1   -1    0    0  501    0  0.00000000000E+00  0.00000000000E+00 -0.37069821675E+03  0.37069821678E+03  0.50400001928E-02 0. -1.
    10030    2    1    2    0    0  0.00000000000E+00  0.00000000000E+00  0.10392006534E+04  0.17805970869E+04  0.14458865751E+04 0.  0.
        5    1    3    3  502    0  0.24172432704E+03  0.10839570492E+03 -0.30875019701E+03  0.40685261862E+03  0.46999998093E+01 0. -1.
       -5    1    3    3    0  502 -0.24172432704E+03 -0.10839570492E+03  0.13479508504E+04  0.13737444683E+04  0.46999998093E+01 0.  1.
</event>
<event>
 5   0  0.5425525E-04  0.1588654E+04  0.7818609E-02  0.8827549E-01
        1   -1    0    0  501    0  0.00000000000E+00  0.00000000000E+00  0.23059075896E+04  0.23059075896E+04  0.50400001928E-02 0.  1.
       -1   -1    0    0    0  501  0.00000000000E+00  0.00000000000E+00 -0.27362562292E+03  0.27362562296E+03  0.50400001928E-02 0. -1.
    10030    2    1    2    0    0  0.00000000000E+00  0.00000000000E+00  0.20322819667E+04  0.25795332126E+04  0.15886540223E+04 0.  0.
        5    1    3    3  502    0 -0.25179271750E+03 -0.60072349556E+03  0.27798986096E+03  0.70821518163E+03  0.46999998093E+01 0. -1.
       -5    1    3    3    0  502  0.25179271750E+03  0.60072349556E+03  0.17542921058E+04  0.18713180310E+04  0.46999998093E+01 0.  1.
</event>
<event>
 5   0  0.5281116E-04  0.1582335E+04  0.7818609E-02  0.8831475E-01
       -1   -1    0    0    0  501  0.00000000000E+00  0.00000000000E+00  0.76643596491E+03  0.76643596493E+03  0.50400001928E-02 0. -1.
        1   -1    0    0  501    0  0.00000000000E+00  0.00000000000E+00 -0.81669678340E+03  0.81669678342E+03  0.50400001928E-02 0.  1.
    10030    2    1    2    0    0  0.00000000000E+00  0.00000000000E+00 -0.50260818486E+02  0.15831327483E+04  0.15823347146E+04 0.  0.
        2    1    3    3  502    0  0.21804061381E+03  0.33187580497E+03  0.65951181385E+03  0.76983056046E+03  0.25500000920E-02 0. -1.
       -2    1    3    3    0  502 -0.21804061381E+03 -0.33187580497E+03 -0.70977263234E+03  0.81330218789E+03  0.25500000920E-02 0.  1.
</event>
<event>
 5   0  0.5281116E-04  0.1564284E+04  0.7818609E-02  0.8842795E-01
       -1   -1    0    0    0  501  0.00000000000E+00  0.00000000000E+00  0.64368583600E+03  0.64368583601E+03  0.50400001928E-02 0.  1.
        1   -1    0    0  501    0  0.00000000000E+00  0.00000000000E+00 -0.95038031406E+03  0.95038031408E+03  0.50400001928E-02 0. -1.
    10030    2    1    2    0    0  0.00000000000E+00  0.00000000000E+00 -0.30669447807E+03  0.15940661501E+04  0.15642843054E+04 0.  0.
        2    1    3    3  502    0 -0.49520190262E+03 -0.28291495115E+02  0.46291507341E+03  0.67846569423E+03  0.25500000920E-02 0.  1.
       -2    1    3    3    0  502  0.49520190262E+03  0.28291495115E+02 -0.76960955147E+03  0.91560045586E+03  0.25500000920E-02 0. -1.
</event>
<event>
 5   0  0.5281116E-04  0.1539848E+04  0.7818609E-02  0.8858379E-01
        1   -1    0    0  501    0  0.00000000000E+00  0.00000000000E+00  0.16606321765E+04  0.16606321765E+04  0.50400001928E-02 0. -1.
       -1   -1    0    0    0  501  0.00000000000E+00  0.00000000000E+00 -0.35696200675E+03  0.35696200678E+03  0.50400001928E-02 0.  1.
    10030    2    1    2    0    0  0.00000000000E+00  0.00000000000E+00  0.13036701697E+04  0.20175941833E+04  0.15398475174E+04 0.  0.
        2    1    3    3  502    0  0.37079152178E+02 -0.76335609422E+03  0.52965624675E+03  0.92985113316E+03  0.25500000920E-02 0.  1.
       -2    1    3    3    0  502 -0.37079152178E+02  0.76335609422E+03  0.77401392298E+03  0.10877430501E+04  0.25500000920E-02 0. -1.
</event>
<event>
 5   0  0.1037321E-03  0.1603065E+04  0.7818609E-02  0.8818667E-01
        2   -1    0    0  501    0  0.00000000000E+00  0.00000000000E+00  0.16207597285E+04  0.16207597285E+04  0.25500000920E-02 0. -1.
       -2   -1    0    0    0  501  0.00000000000E+00  0.00000000000E+00 -0.39639097673E+03  0.39639097673E+03  0.25500000920E-02 0.  1.
    10030    2    1    2    0    0  0.00000000000E+00  0.00000000000E+00  0.12243687518E+04  0.20171507053E+04  0.16030652287E+04 0.  0.
        5    1    3    3  502    0  0.68767053174E+03  0.13472306850E+03  0.11017802182E+04  0.13057499012E+04  0.46999998093E+01 0. -1.
       -5    1    3    3    0  502 -0.68767053174E+03 -0.13472306850E+03  0.12258853363E+03  0.71140080404E+03  0.46999998093E+01 0.  1.
</event>
<event>
 5   0  0.5288658E-04  0.1645168E+04  0.7818609E-02  0.8793270E-01
        1   -1    0    0  501    0  0.00000000000E+00  0.00000000000E+00  0.17092070446E+04  0.17092070446E+04  0.50400001928E-02 0.  1.
       -1   -1    0    0    0  501  0.00000000000E+00  0.00000000000E+00 -0.39588194882E+03  0.39588194885E+03  0.50400001928E-02 0. -1.
    10030    2    1    2    0    0  0.00000000000E+00  0.00000000000E+00  0.13133250957E+04  0.21050889934E+04  0.16451677310E+04 0.  0.
        1    1    3    3  502    0 -0.11165581826E+01 -0.46553556609E+03  0.15244257699E+04  0.15939255121E+04  0.50400001928E-02 0.  1.
       -1    1    3    3    0  502  0.11165581826E+01  0.46553556609E+03 -0.21110067419E+03  0.51116348134E+03  0.50400001928E-02 0. -1.
</event>
<event>
 5   0  0.5425525E-04  0.1617870E+04  0.7818609E-02  0.8809644E-01
       -1   -1    0    0    0  501  0.00000000000E+00  0.00000000000E+00  0.46112221262E+03  0.46112221265E+03  0.50400001928E-02 0.  1.
        1   -1    0    0  501    0  0.00000000000E+00  0.00000000000E+00 -0.14190950028E+04  0.14190950028E+04  0.50400001928E-02 0. -1.
    10030    2    1    2    0    0  0.00000000000E+00  0.00000000000E+00 -0.95797279014E+03  0.18802172154E+04  0.16178704863E+04 0.  0.
        5    1    3    3  502    0  0.61546948163E+03  0.35246119980E+03 -0.26905547506E+02  0.70977290641E+03  0.46999998093E+01 0.  1.
       -5    1    3    3    0  502 -0.61546948163E+03 -0.35246119980E+03 -0.93106724263E+03  0.11704443090E+04  0.46999998093E+01 0. -1.
</event>
<event>
 5   0  0.9844690E-04  0.1572576E+04  0.7818609E-02  0.8837575E-01
       -2   -1    0    0    0  501  0.00000000000E+00  0.00000000000E+00  0.10577889822E+04  0.10577889822E+04  0.25500000920E-02 0.  1.
        2   -1    0    0  501    0  0.00000000000E+00  0.00000000000E+00 -0.58447244616E+03  0.58447244616E+03  0.25500000920E-02 0. -1.
    10030    2    1    2    0    0  0.00000000000E+00  0.00000000000E+00  0.47331653600E+03  0.16422614283E+04  0.15725756121E+04 0.  0.
        3    1    3    3  502    0  0.23475099824E+03  0.65349872385E+03  0.62189503727E+03  0.93215989017E+03  0.10100000352E+00 0.  1.
       -3    1    3    3    0  502 -0.23475099824E+03 -0.65349872385E+03 -0.14857850127E+03  0.71010153816E+03  0.10100000352E+00 0. -1.
</event>
<event>
 5   0  0.5532881E-04  0.1461190E+04  0.7818609E-02  0.8910679E-01
       -1   -1    0    0    0  501  0.00000000000E+00  0.00000000000E+00  0.83097427253E+03  0.83097427254E+03  0.50400001928E-02 0.  1.
        1   -1    0    0  501    0  0.00000000000E+00  0.00000000000E+00 -0.64234104823E+03  0.64234104825E+03  0.50400001928E-02 0. -1.
    10030    2    1    2    0    0  0.00000000000E+00  0.00000000000E+00  0.18863322429E+03  0.14733153208E+04  0.14611897691E+04 0.  0.
        4    1    3    3  502    0 -0.33540393835E+03  0.89608186846E+02 -0.55385682234E+03  0.65366996379E+03  0.12699999809E+01 0. -1.
       -4    1    3    3    0  502  0.33540393835E+03 -0.89608186846E+02  0.74249004663E+03  0.81964535701E+03  0.12699999809E+01 0.  1.
</event>
<event>
 5   0  0.1000121E-03  0.1605334E+04  0.7818609E-02  0.8817278E-01
       -2   -1    0    0    0  501  0.00000000000E+00  0.00000000000E+00  0.26798355770E+03  0.26798355772E+03  0.25500000920E-02 0.  1.
        2   -1    0    0  501    0  0.00000000000E+00  0.00000000000E+00 -0.24041570436E+04  0.24041570436E+04  0.25500000920E-02 0. -1.
    10030    2    1    2    0    0  0.00000000000E+00  0.00000000000E+00 -0.21361734859E+04  0.26721406013E+04  0.16053343052E+04 0.  0.
        4    1    3    3  502    0 -0.77127714680E+03 -0.21456343481E+03 -0.11646735859E+04  0.14132841467E+04  0.12699999809E+01 0. -1.
       -4    1    3    3    0  502  0.77127714680E+03  0.21456343481E+03 -0.97149990000E+03  0.12588564546E+04  0.12699999809E+01 0.  1.
</event>
<event>
 5   0  0.1030027E-03  0.1617326E+04  0.7818609E-02  0.8809974E-01
       -2   -1    0    0    0  501  0.00000000000E+00  0.00000000000E+00  0.42316968412E+03  0.42316968412E+03  0.25500000920E-02 0. -1.
        2   -1    0    0  501    0  0.00000000000E+00  0.00000000000E+00 -0.15453280364E+04  0.15453280364E+04  0.25500000920E-02 0.  1.
    10030    2    1    2    0    0  0.00000000000E+00  0.00000000000E+00 -0.11221583523E+04  0.19684977205E+04  0.16173261601E+04 0.  0.
        1    1    3    3  502    0 -0.21242511330E+03  0.31812712969E+03  0.30608428130E+03  0.48991518316E+03  0.50400001928E-02 0. -1.
       -1    1    3    3    0  502  0.21242511330E+03 -0.31812712969E+03 -0.14282426336E+04  0.14785825374E+04  0.50400001928E-02 0.  1.
</event>
<event>
 5   0  0.5623061E-04  0.1570948E+04  0.7818609E-02  0.8838597E-01
       -1   -1    0    0    0  501  0.00000000000E+00  0.00000000000E+00  0.75855220756E+03  0.75855220758E+03  0.50400001928E-02 0.  1.
        1   -1    0    0  501    0  0.00000000000E+00  0.00000000000E+00 -0.81335165255E+03  0.81335165256E+03  0.50400001928E-02 0. -1.
    10030    2    1    2    0    0  0.00000000000E+00  0.00000000000E+00 -0.54799444987E+02  0.15719038601E+04  0.15709483653E+04 0.  0.
        3    1    3    3  502    0 -0.43117175306E+03 -0.41400096374E+03 -0.53728183480E+03  0.80372735354E+03  0.10100000352E+00 0. -1.
       -3    1    3    3    0  502  0.43117175306E+03  0.41400096374E+03  0.48248238982E+03  0.76817650660E+03  0.10100000352E+00 0.  1.
</event>
<event>
 5   0  0.9844690E-04  0.1164101E+04  0.7818609E-02  0.9144872E-01
       -2   -1    0    0    0  501  0.00000000000E+00  0.00000000000E+00  0.46693544273E+03  0.46693544274E+03  0.25500000920E-02 0.  1.
        2   -1    0    0  501    0  0.00000000000E+00  0.00000000000E+00 -0.72554518054E+03  0.72554518055E+03  0.25500000920E-02 0. -1.
    10030    2    1    2    0    0  0.00000000000E+00  0.00000000000E+00 -0.25860973781E+03  0.11924806233E+04  0.11641009580E+04 0.  0.
        3    1    3    3  502    0  0.45316377167E+03 -0.23493971246E+03 -0.41581743760E+03  0.65837544308E+03  0.10100000352E+00 0. -1.
       -3    1    3    3    0  502 -0.45316377167E+03  0.23493971246E+03  0.15720769979E+03  0.53410518020E+03  0.10100000352E+00 0.  1.
</event>
<event>
 5   0  0.5532881E-04  0.1596768E+04  0.7818609E-02  0.8822536E-01
        1   -1    0    0  501    0  0.00000000000E+00  0.00000000000E+00  0.10488635188E+04  0.10488635188E+04  0.50400001928E-02 0.  1.
       -1   -1    0    0    0  501  0.00000000000E+00  0.00000000000E+00 -0.60772193793E+03  0.60772193795E+03  0.50400001928E-02 0. -1.
    10030    2    1    2    0    0  0.00000000000E+00  0.00000000000E+00  0.44114158085E+03  0.16565854567E+04  0.15967684494E+04 0.  0.
        4    1    3    3  502    0  0.18732858762E+02  0.76540207580E+01  0.10485963625E+04  0.10487923762E+04  0.12699999809E+01 0.  1.
       -4    1    3    3    0  502 -0.18732858762E+02 -0.76540207580E+01 -0.60745478168E+03  0.60779308051E+03  0.12699999809E+01 0. -1.
</event>
<event>
 5   0  0.1057872E-03  0.1575390E+04  0.7818609E-02  0.8835811E-01
       -2   -1    0    0    0  501  0.00000000000E+00  0.00000000000E+00  0.35957277272E+03  0.35957277273E+03  0.25500000920E-02 0. -1.
        2   -1    0    0  501    0  0.00000000000E+00  0.00000000000E+00 -0.17255574819E+04  0.17255574819E+04  0.25500000920E-02 0.  1.
    10030    2    1    2    0    0  0.00000000000E+00  0.00000000000E+00 -0.13659847091E+04  0.20851302546E+04  0.15753900955E+04 0.  0.
        2    1    3    3  502    0 -0.62109423918E+03 -0.45511369908E+03 -0.90278757081E+03  0.11865546473E+04  0.25500000920E-02 0. -1.
       -2    1    3    3    0  502  0.62109423918E+03  0.45511369908E+03 -0.46319713834E+03  0.89857560729E+03  0.25500000920E-02 0.  1.
</event>
<event>
 5   0  0.5532881E-04  0.1230517E+04  0.7818609E-02  0.9086557E-01
        1   -1    0    0  501    0  0.00000000000E+00  0.00000000000E+00  0.70572953460E+03  0.70572953462E+03  0.50400001928E-02 0.  1.
       -1   -1    0    0    0  501  0.00000000000E+00  0.00000000000E+00 -0.53638517078E+03  0.53638517080E+03  0.50400001928E-02 0. -1.
    10030    2    1    2    0    0  0.00000000000E+00  0.00000000000E+00  0.16934436382E+03  0.12421147054E+04  0.12305167321E+04 0.  0.
        4    1    3    3  502    0 -0.47761360750E+03  0.27252709771E+03 -0.19389164673E+03  0.58307920613E+03  0.12699999809E+01 0. -1.
       -4    1    3    3    0  502  0.47761360750E+03 -0.27252709771E+03  0.36323601055E+03  0.65903549928E+03  0.12699999809E+01 0.  1.
</event>
<event>
 5   0  0.5532881E-04  0.1591556E+04  0.7818609E-02  0.8825752E-01
       -1   -1    0    0    0  501  0.00000000000E+00  0.00000000000E+00  0.58113556483E+03  0.58113556485E+03  0.50400001928E-02 0. -1.
        1   -1    0    0  501    0  0.00000000000E+00  0.00000000000E+00 -0.10896982940E+04  0.10896982940E+04  0.50400001928E-02 0.  1.
    10030    2    1    2    0    0  0.00000000000E+00  0.00000000000E+00 -0.50856272915E+03  0.16708338588E+04  0.15915557591E+04 0.  0.
        4    1    3    3  502    0  0.30300200403E+03 -0.67775284673E+03  0.46525293161E+02  0.74385842167E+03  0.12699999809E+01 0. -1.
       -4    1    3    3    0  502 -0.30300200403E+03  0.67775284673E+03 -0.55508802231E+03  0.92697543716E+03  0.12699999809E+01 0.  1.
</event>
<event>
 5   0  0.5281116E-04  0.1184979E+04  0.7818609E-02  0.9126107E-01
        1   -1    0    0  501    0  0.00000000000E+00  0.00000000000E+00  0.33962750444E+03  0.33962750448E+03  0.50400001928E-02 0. -1.
       -1   -1    0    0    0  501  0.00000000000E+00  0.00000000000E+00 -0.10336148517E+04  0.10336148517E+04  0.50400001928E-02 0.  1.
    10030    2    1    2    0    0  0.00000000000E+00  0.00000000000E+00 -0.69398734723E+03  0.13732423562E+04  0.11849793798E+04 0.  0.
        2    1    3    3  502    0  0.30575635838E+03  0.33454079006E+03  0.95264684286E+02  0.46311969401E+03  0.25500000920E-02 0. -1.
       -2    1    3    3    0  502 -0.30575635838E+03 -0.33454079006E+03 -0.78925203152E+03  0.91012266215E+03  0.25500000920E-02 0.  1.
</event>
<event>
 5   0  0.1057872E-03  0.1615539E+04  0.7818609E-02  0.8811058E-01
        2   -1    0    0  501    0  0.00000000000E+00  0.00000000000E+00  0.14249345961E+04  0.14249345961E+04  0.25500000920E-02 0.  1.
       -2   -1    0    0    0  501  0.00000000000E+00  0.00000000000E+00 -0.45791008086E+03  0.45791008086E+03  0.25500000920E-02 0. -1.
    10030    2    1    2    0    0  0.00000000000E+00  0.00000000000E+00  0.96702451528E+03  0.18828446770E+04  0.16155394345E+04 0.  0.
        2    1    3    3  502    0 -0.15660017290E+03  0.78862944998E+03  0.39299659565E+03  0.89493371136E+03  0.25500000920E-02 0.  1.
       -2    1    3    3    0  502  0.15660017290E+03 -0.78862944998E+03  0.57402791963E+03  0.98791096565E+03  0.25500000920E-02 0. -1.
</event>
<event>
 5   0  0.1030027E-03  0.1566328E+04  0.7818609E-02  0.8841505E-01
       -2   -1    0    0    0  501  0.00000000000E+00  0.00000000000E+00  0.51310730609E+03  0.51310730610E+03  0.25500000920E-02 0.  1.
        2   -1    0    0  501    0  0.00000000000E+00  0.00000000000E+00 -0.11953564220E+04  0.11953564220E+04  0.25500000920E-02 0. -1.
    10030    2    1    2    0    0  0.00000000000E+00  0.00000000000E+00 -0.68224911587E+03  0.17084637281E+04  0.15663283353E+04 0.  0.
        1    1    3    3  502    0 -0.24718895343E+03  0.42479811446E+03  0.32395252588E+03  0.58864340291E+03  0.50400001928E-02 0.  1.
       -1    1    3    3    0  502  0.24718895343E+03 -0.42479811446E+03 -0.10062016418E+04  0.11198203252E+04  0.50400001928E-02 0. -1.
</event>
<event>
 5   0  0.1037321E-03  0.1596950E+04  0.7818609E-02  0.8822424E-01
       -2   -1    0    0    0  501  0.00000000000E+00  0.00000000000E+00  0.62318918886E+03  0.62318918886E+03  0.25500000920E-02 0. -1.
        2   -1    0    0  501    0  0.00000000000E+00  0.00000000000E+00 -0.10230639149E+04  0.10230639149E+04  0.25500000920E-02 0.  1.
    10030    2    1    2    0    0  0.00000000000E+00  0.00000000000E+00 -0.39987472602E+03  0.16462531037E+04  0.15969500572E+04 0.  0.
        5    1    3    3  502    0 -0.77466331027E+03 -0.18225853090E+03 -0.13297926908E+03  0.80686243708E+03  0.46999998093E+01 0. -1.
       -5    1    3    3    0  502  0.77466331027E+03  0.18225853090E+03 -0.26689545693E+03  0.83939066667E+03  0.46999998093E+01 0.  1.
</event>
<event>
 5   0  0.1030027E-03  0.1581936E+04  0.7818609E-02  0.8831723E-01
        2   -1    0    0  501    0  0.00000000000E+00  0.00000000000E+00  0.10780551987E+04  0.10780551987E+04  0.25500000920E-02 0. -1.
       -2   -1    0    0    0  501  0.00000000000E+00  0.00000000000E+00 -0.58033228593E+03  0.58033228593E+03  0.25500000920E-02 0.  1.
    10030    2    1    2    0    0  0.00000000000E+00  0.00000000000E+00  0.49772291273E+03  0.16583874846E+04  0.15819358240E+04 0.  0.
        1    1    3    3  502    0 -0.17816893735E+03 -0.63091251008E+03  0.71278117278E+03  0.96842747065E+03  0.50400001928E-02 0.  1.
       -1    1    3    3    0  502  0.17816893735E+03  0.63091251008E+03 -0.21505826004E+03  0.68996001395E+03  0.50400001928E-02 0. -1.
</event>
<event>
 5   0  0.5288658E-04  0.1641323E+04  0.7818609E-02  0.8795556E-01
        1   -1    0    0  501    0  0.00000000000E+00  0.00000000000E+00  0.60657998985E+03  0.60657998987E+03  0.50400001928E-02 0.  1.
       -1   -1    0    0    0  501  0.00000000000E+00  0.00000000000E+00 -0.11102989611E+04  0.11102989611E+04  0.50400001928E-02 0. -1.
    10030    2    1    2    0    0  0.00000000000E+00  0.00000000000E+00 -0.50371897120E+03  0.17168789509E+04  0.16413227989E+04 0.  0.
        1    1    3    3  502    0  0.39550201464E+03  0.30264361274E+03  0.43044812161E+03  0.65825571425E+03  0.50400001928E-02 0.  1.
       -1    1    3    3    0  502 -0.39550201464E+03 -0.30264361274E+03 -0.93416709282E+03  0.10586232367E+04  0.50400001928E-02 0. -1.
</event>
<event>
 5   0  0.1037321E-03  0.1574647E+04  0.7818609E-02  0.8836276E-01
       -2   -1    0    0    0  501  0.00000000000E+00  0.00000000000E+00  0.19027840181E+04  0.19027840181E+04  0.25500000920E-02 0.  1.
        2   -1    0    0  501    0  0.00000000000E+00  0.00000000000E+00 -0.32577457642E+03  0.32577457643E+03  0.25500000920E-02 0. -1.
    10030    2    1    2    0    0  0.00000000000E+00  0.00000000000E+00  0.15770094417E+04  0.22285585945E+04  0.15746474622E+04 0.  0.
        5    1    3    3  502    0 -0.21490705079E+03  0.13528570731E+03 -0.26620186029E+03  0.36793040579E+03  0.46999998093E+01 0. -1.
       -5    1    3    3    0  502  0.21490705079E+03 -0.13528570731E+03  0.18432113020E+04  0.18606281888E+04  0.46999998093E+01 0.  1.
</event>
<event>
 5   0  0.3832500E-04  0.1624813E+04  0.7818609E-02  0.8805448E-01
        3   -1    0    0  501    0  0.00000000000E+00  0.00000000000E+00  0.11587136879E+04  0.11587136923E+04  0.10100000352E+00 0. -1.
       -3   -1    0    0    0  501  0.00000000000E+00  0.00000000000E+00 -0.56960069936E+03  0.56960070831E+03  0.10100000352E+00 0.  1.
    10030    2    1    2    0    0  0.00000000000E+00  0.00000000000E+00  0.58911298858E+03  0.17283144007E+04  0.16248127751E+04 0.  0.
        4    1    3    3  502    0 -0.66312770743E+03 -0.53156069915E+02 -0.20145043835E+03  0.69508835132E+03  0.12699999809E+01 0.  1.
       -4    1    3    3    0  502  0.66312770743E+03  0.53156069915E+02  0.79056342693E+03  0.10332260493E+04  0.12699999809E+01 0. -1.
</event>
<event>
 5   0  0.1000121E-03  0.1382312E+04  0.7818609E-02  0.8966723E-01
       -2   -1    0    0    0  501  0.00000000000E+00  0.00000000000E+00  0.57166984548E+03  0.57166984549E+03  0.25500000920E-02 0.  1.
        2   -1    0    0  501    0  0.00000000000E+00  0.00000000000E+00 -0.83561574123E+03  0.83561574124E+03  0.25500000920E-02 0. -1.
    10030    2    1    2    0    0  0.00000000000E+00  0.00000000000E+00 -0.26394589575E+03  0.14072855867E+04  0.13823115737E+04 0.  0.
        4    1    3    3  502    0  0.51261887569E+03 -0.11873936241E+03 -0.58819590940E+03  0.78921048437E+03  0.12699999809E+01 0.  1.
       -4    1    3    3    0  502 -0.51261887569E+03  0.11873936241E+03  0.32425001365E+03  0.61807510236E+03  0.12699999809E+01 0. -1.
</event>
<event>
 5   0  0.1000121E-03  0.1676604E+04  0.7818609E-02  0.8774821E-01
        2   -1    0    0  501    0  0.00000000000E+00  0.00000000000E+00  0.84251810971E+03  0.84251810971E+03  0.25500000920E-02 0. -1.
       -2   -1    0    0    0  501  0.00000000000E+00  0.00000000000E+00 -0.83410715740E+03  0.83410715740E+03  0.25500000920E-02 0.  1.
    10030    2    1    2    0    0  0.00000000000E+00  0.00000000000E+00  0.84109523044E+01  0.16766252671E+04  0.16766041698E+04 0.  0.
        4    1    3    3  502    0 -0.38318837068E+03 -0.36193366212E+03 -0.64766119990E+03  0.83504248153E+03  0.12699999809E+01 0.  1.
       -4    1    3    3    0  502  0.38318837068E+03  0.36193366212E+03  0.65607215220E+03  0.84158278559E+03  0.12699999809E+01 0. -1.
</event>
<event>
 5   0  0.5281116E-04  0.1647248E+04  0.7818609E-02  0.8792036E-01
        1   -1    0    0  501    0  0.00000000000E+00  0.00000000000E+00  0.63794261318E+03  0.63794261320E+03  0.50400001928E-02 0.  1.
       -1   -1    0    0    0  501  0.00000000000E+00  0.00000000000E+00 -0.10633504176E+04  0.10633504177E+04  0.50400001928E-02 0. -1.
    10030    2    1    2    0    0  0.00000000000E+00  0.00000000000E+00 -0.42540780447E+03  0.17012930309E+04  0.16472480617E+04 0.  0.
        2    1    3    3  502    0 -0.48661436760E+03 -0.14619884294E+03 -0.88219129855E+03  0.10180516351E+04  0.25500000920E-02 0. -1.
       -2    1    3    3    0  502  0.48661436760E+03  0.14619884294E+03  0.45678349408E+03  0.68324139578E+03  0.25500000920E-02 0.  1.
</event>
<event>
 5   0  0.5288658E-04  0.1604843E+04  0.7818609E-02  0.8817579E-01
       -1   -1    0    0    0  501  0.00000000000E+00  0.00000000000E+00  0.12766641279E+04  0.12766641279E+04  0.50400001928E-02 0. -1.
        1   -1    0    0  501    0  0.00000000000E+00  0.00000000000E+00 -0.50434558032E+03  0.50434558035E+03  0.50400001928E-02 0.  1.
    10030    2    1    2    0    0  0.00000000000E+00  0.00000000000E+00  0.77231854753E+03  0.17810097082E+04  0.16048425598E+04 0.  0.
        1    1    3    3  502    0  0.22600188838E+03 -0.76249784150E+03  0.26766751176E+03  0.83912198679E+03  0.50400001928E-02 0.  1.
       -1    1    3    3    0  502 -0.22600188838E+03  0.76249784150E+03  0.50465103577E+03  0.94188772143E+03  0.50400001928E-02 0. -1.
</event>
<event>
 5   0  0.5425525E-04  0.1609130E+04  0.7818609E-02  0.8814959E-01
        1   -1    0    0  501    0  0.00000000000E+00  0.00000000000E+00  0.20502979014E+04  0.20502979014E+04  0.50400001928E-02 0.  1.
       -1   -1    0    0    0  501  0.00000000000E+00  0.00000000000E+00 -0.31572214546E+03  0.31572214550E+03  0.50400001928E-02 0. -1.
    10030    2    1    2    0    0  0.00000000000E+00  0.00000000000E+00  0.17345757559E+04  0.23660200469E+04  0.16091295191E+04 0.  0.
        5    1    3    3  502    0 -0.76171337192E+02  0.39972075163E+03 -0.15324355174E+03  0.43483839302E+03  0.46999998093E+01 0. -1.
       -5    1    3    3    0  502  0.76171337192E+02 -0.39972075163E+03  0.18878193076E+04  0.19311816539E+04  0.46999998093E+01 0.  1.
</event>
<event>
 5   0  0.1000121E-03  0.1584659E+04  0.7818609E-02  0.8830029E-01
        2   -1    0    0  501    0  0.00000000000E+00  0.00000000000E+00  0.15380917609E+04  0.15380917609E+04  0.25500000920E-02 0. -1.
       -2   -1    0    0    0  501  0.00000000000E+00  0.00000000000E+00 -0.40815888904E+03  0.40815888905E+03  0.25500000920E-02 0.  1.
    10030    2    1    2    0    0  0.00000000000E+00  0.00000000000E+00  0.11299328719E+04  0.19462506499E+04  0.15846587322E+04 0.  0.
        4    1    3    3  502    0 -0.78081966549E+03  0.13439557188E+03  0.57299124794E+03  0.97778428238E+03  0.12699999809E+01 0. -1.
       -4    1    3    3    0  502  0.78081966549E+03 -0.13439557188E+03  0.55694162392E+03  0.96846636756E+03  0.12699999809E+01 0.  1.
</event>
<event>
 5   0  0.1037321E-03  0.1596926E+04  0.7818609E-02  0.8822439E-01
        2   -1    0    0  501    0  0.00000000000E+00  0.00000000000E+00  0.12766753871E+04  0.12766753871E+04  0.25500000920E-02 0.  1.
       -2   -1    0    0    0  501  0.00000000000E+00  0.00000000000E+00 -0.49937748648E+03  0.49937748649E+03  0.25500000920E-02 0. -1.
    10030    2    1    2    0    0  0.00000000000E+00  0.00000000000E+00  0.77729790059E+03  0.17760528736E+04  0.15969257288E+04 0.  0.
        5    1    3    3  502    0  0.32776005805E+03  0.26534084134E+03  0.11427038443E+04  0.12180421107E+04  0.46999998093E+01 0.  1.
       -5    1    3    3    0  502 -0.32776005805E+03 -0.26534084134E+03 -0.36540594371E+03  0.55801076283E+03  0.46999998093E+01 0. -1.
</event>
<event>
 5   0  0.1030027E-03  0.1595836E+04  0.7818609E-02  0.8823110E-01
        2   -1    0    0  501    0  0.00000000000E+00  0.00000000000E+00  0.14959652529E+04  0.14959652529E+04  0.25500000920E-02 0. -1.
       -2   -1    0    0    0  501  0.00000000000E+00  0.00000000000E+00 -0.42559340323E+03  0.42559340323E+03  0.25500000920E-02 0.  1.
    10030    2    1    2    0    0  0.00000000000E+00  0.00000000000E+00  0.10703718497E+04  0.19215586562E+04  0.15958357599E+04 0.  0.
        1    1    3    3  502    0 -0.54326355210E+03  0.28825654534E+03  0.11473251503E+04  0.13017611622E+04  0.50400001928E-02 0. -1.
       -1    1    3    3    0  502  0.54326355210E+03 -0.28825654534E+03 -0.76953300599E+02  0.61979749392E+03  0.50400001928E-02 0.  1.
</event>
<event>
 5   0  0.1030027E-03  0.1569514E+04  0.7818609E-02  0.8839499E-01
       -2   -1    0    0    0  501  0.00000000000E+00  0.00000000000E+00  0.11156750144E+04  0.11156750144E+04  0.25500000920E-02 0.  1.
        2   -1    0    0  501    0  0.00000000000E+00  0.00000000000E+00 -0.55199196728E+03  0.55199196728E+03  0.25500000920E-02 0. -1.
    10030    2    1    2    0    0  0.00000000000E+00  0.00000000000E+00  0.56368304709E+03  0.16676669817E+04  0.15695141236E+04 0.  0.
        1    1    3    3  502    0 -0.68191779380E+02  0.77508870409E+03  0.17332205506E+03  0.79715315516E+03  0.50400001928E-02 0.  1.
       -1    1    3    3    0  502  0.68191779380E+02 -0.77508870409E+03  0.39036099203E+03  0.87051382649E+03  0.50400001928E-02 0. -1.
</event>
<event>
 5   0  0.5425525E-04  0.1604162E+04  0.7818609E-02  0.8817995E-01
       -1   -1    0    0    0  501  0.00000000000E+00  0.00000000000E+00  0.32308744555E+03  0.32308744559E+03  0.50400001928E-02 0.  1.
        1   -1    0    0  501    0  0.00000000000E+00  0.00000000000E+00 -0.19912063835E+04  0.19912063835E+04  0.50400001928E-02 0. -1.
    10030    2    1    2    0    0  0.00000000000E+00  0.00000000000E+00 -0.16681189380E+04  0.23142938291E+04  0.16041618174E+04 0.  0.
        5    1    3    3  502    0  0.31219538123E+03  0.28230981599E+03  0.15093031305E+03  0.44717651734E+03  0.46999998093E+01 0.  1.
       -5    1    3    3    0  502 -0.31219538123E+03 -0.28230981599E+03 -0.18190492510E+04  0.18671173118E+04  0.46999998093E+01 0. -1.
</event>
<event>
 5   0  0.5425525E-04  0.1584652E+04  0.7818609E-02  0.8830033E-01
       -1   -1    0    0    0  501  0.00000000000E+00  0.00000000000E+00  0.34547176586E+03  0.34547176589E+03  0.50400001928E-02 0.  1.
        1   -1    0    0  501    0  0.00000000000E+00  0.00000000000E+00 -0.18171684163E+04  0.18171684163E+04  0.50400001928E-02 0. -1.
    10030    2    1    2    0    0  0.00000000000E+00  0.00000000000E+00 -0.14716966504E+04  0.21626401822E+04  0.15846518629E+04 0.  0.
        5    1    3    3  502    0 -0.17671602735E+03  0.24446216288E+03 -0.17357187124E+04  0.17617411393E+04  0.46999998093E+01 0. -1.
       -5    1    3    3    0  502  0.17671602735E+03 -0.24446216288E+03  0.26402206194E+03  0.40089904289E+03  0.46999998093E+01 0.  1.
</event>
<event>
 5   0  0.1000121E-03  0.1592029E+04  0.7818609E-02  0.8825460E-01
       -2   -1    0    0    0  501  0.00000000000E+00  0.00000000000E+00  0.74040147790E+03  0.74040147791E+03  0.25500000920E-02 0. -1.
        2   -1    0    0  501    0  0.00000000000E+00  0.00000000000E+00 -0.85580516761E+03  0.85580516761E+03  0.25500000920E-02 0.  1.
    10030    2    1    2    0    0  0.00000000000E+00  0.00000000000E+00 -0.11540368971E+03  0.15962066455E+04  0.15920294104E+04 0.  0.
        4    1    3    3  502    0  0.30689821527E+03  0.69735937649E+03  0.17342672886E+03  0.78139302383E+03  0.12699999809E+01 0.  1.
       -4    1    3    3    0  502 -0.30689821527E+03 -0.69735937649E+03 -0.28883041856E+03  0.81481362169E+03  0.12699999809E+01 0. -1.
</event>
<event>
 5   0  0.5532881E-04  0.1618275E+04  0.7818609E-02  0.8809399E-01
       -1   -1    0    0    0  501  0.00000000000E+00  0.00000000000E+00  0.41441748471E+03  0.41441748474E+03  0.50400001928E-02 0.  1.
        1   -1    0    0  501    0  0.00000000000E+00  0.00000000000E+00 -0.15798168365E+04  0.15798168365E+04  0.50400001928E-02 0. -1.
    10030    2    1    2    0    0  0.00000000000E+00  0.00000000000E+00 -0.11653993518E+04  0.19942343213E+04  0.16182752791E+04 0.  0.
        4    1    3    3  502    0  0.45615466819E+03  0.59900110782E+03 -0.21750269818E+03  0.78370175775E+03  0.12699999809E+01 0.  1.
       -4    1    3    3    0  502 -0.45615466819E+03 -0.59900110782E+03 -0.94789665362E+03  0.12105325635E+04  0.12699999809E+01 0. -1.
</event>
<event>
 5   0  0.1000121E-03  0.1608498E+04  0.7818609E-02  0.8815344E-01
        2   -1    0    0  501    0  0.00000000000E+00  0.00000000000E+00  0.12570591125E+04  0.12570591125E+04  0.25500000920E-02 0. -1.
       -2   -1    0    0    0  501  0.00000000000E+00  0.00000000000E+00 -0.51454756151E+03  0.51454756152E+03  0.25500000920E-02 0.  1.
    10030    2    1    2    0    0  0.00000000000E+00  0.00000000000E+00  0.74251155097E+03  0.17716066740E+04  0.16084983071E+04 0.  0.
        4    1    3    3  502    0 -0.63631967143E+03 -0.61275729612E+02  0.90875639185E+03  0.11110793095E+04  0.12699999809E+01 0. -1.
       -4    1    3    3    0  502  0.63631967143E+03  0.61275729612E+02 -0.16624484088E+03  0.66052736454E+03  0.12699999809E+01 0.  1.
</event>
<event>
 5   0  0.5623061E-04  0.1562402E+04  0.7818609E-02  0.8843985E-01
        1   -1    0    0  501    0  0.00000000000E+00  0.00000000000E+00  0.15462505296E+04  0.15462505296E+04  0.50400001928E-02 0.  1.
       -1   -1    0    0    0  501  0.00000000000E+00  0.00000000000E+00 -0.39468056330E+03  0.39468056333E+03  0.50400001928E-02 0. -1.
    10030    2    1    2    0    0  0.00000000000E+00  0.00000000000E+00  0.11515699663E+04  0.19409310930E+04  0.15624020354E+04 0.  0.
        3    1    3    3  502    0 -0.54684616246E+03 -0.10606886121E+03  0.12561878637E+04  0.13741540262E+04  0.10100000352E+00 0.  1.
       -3    1    3    3    0  502  0.54684616246E+03  0.10606886121E+03 -0.10461789738E+03  0.56677706672E+03  0.10100000352E+00 0. -1.
</event>
<event>
 5   0  0.5532881E-04  0.1663959E+04  0.7818609E-02  0.8782191E-01
        1   -1    0    0  501    0  0.00000000000E+00  0.00000000000E+00  0.88074152240E+03  0.88074152241E+03  0.50400001928E-02 0. -1.
       -1   -1    0    0    0  501  0.00000000000E+00  0.00000000000E+00 -0.78591705729E+03  0.78591705730E+03  0.50400001928E-02 0.  1.
    10030    2    1    2    0    0  0.00000000000E+00  0.00000000000E+00  0.94824465110E+02  0.16666585797E+04  0.16639588763E+04 0.  0.
        4    1    3    3  502    0  0.80460662295E+02  0.11940879606E+02  0.87674816992E+03  0.88051432080E+03  0.12699999809E+01 0. -1.
       -4    1    3    3    0  502 -0.80460662295E+02 -0.11940879606E+02 -0.78192370481E+03  0.78614425891E+03  0.12699999809E+01 0.  1.
</event>
<event>
 5   0  0.5281116E-04  0.1585732E+04  0.7818609E-02  0.8829361E-01
        1   -1    0    0  501    0  0.00000000000E+00  0.00000000000E+00  0.83389989553E+03  0.83389989554E+03  0.50400001928E-02 0. -1.
       -1   -1    0    0    0  501  0.00000000000E+00  0.00000000000E+00 -0.75385157456E+03  0.75385157457E+03  0.50400001928E-02 0.  1.
    10030    2    1    2    0    0  0.00000000000E+00  0.00000000000E+00  0.80048320971E+02  0.15877514701E+04  0.15857323220E+04 0.  0.
        2    1    3    3  502    0  0.28265997848E+03  0.72735069677E+03  0.18056331255E+03  0.80096117844E+03  0.25500000920E-02 0. -1.
       -2    1    3    3    0  502 -0.28265997848E+03 -0.72735069677E+03 -0.10051499158E+03  0.78679029167E+03  0.25500000920E-02 0.  1.
</event>
<event>
 5   0  0.1030027E-03  0.1617342E+04  0.7818609E-02  0.8809965E-01
        2   -1    0    0  501    0  0.00000000000E+00  0.00000000000E+00  0.13298200722E+04  0.13298200722E+04  0.25500000920E-02 0. -1.
       -2   -1    0    0    0  501  0.00000000000E+00  0.00000000000E+00 -0.49175727705E+03  0.49175727706E+03  0.25500000920E-02 0.  1.
    10030    2    1    2    0    0  0.00000000000E+00  0.00000000000E+00  0.83806279516E+03  0.18215773493E+04  0.16173418905E+04 0.  0.
        1    1    3    3  502    0  0.47582061041E+02  0.33489542501E+03  0.12463131787E+04  0.12914006109E+04  0.50400001928E-02 0. -1.
       -1    1    3    3    0  502 -0.47582061041E+02 -0.33489542501E+03 -0.40825038358E+03  0.53017673840E+03  0.50400001928E-02 0.  1.
</event>
<event>
 5   0  0.5288658E-04  0.1595713E+04  0.7818609E-02  0.8823186E-01
       -1   -1    0    0    0  501  0.00000000000E+00  0.00000000000E+00  0.45343605579E+03  0.45343605582E+03  0.50400001928E-02 0.  1.
        1   -1    0    0  501    0  0.00000000000E+00  0.00000000000E+00 -0.14038909471E+04  0.14038909471E+04  0.50400001928E-02 0. -1.
    10030    2    1    2    0    0  0.00000000000E+00  0.00000000000E+00 -0.95045489134E+03  0.18573270030E+04  0.15957127234E+04 0.  0.
        1    1    3    3  502    0 -0.40767526347E+03 -0.52814784587E+03  0.34038821805E+02  0.66805531879E+03  0.50400001928E-02 0.  1.
       -1    1    3    3    0  502  0.40767526347E+03  0.52814784587E+03 -0.98449371314E+03  0.11892716842E+04  0.50400001928E-02 0. -1.
</event>
<event>
 5   0  0.1030027E-03  0.1608497E+04  0.7818609E-02  0.8815345E-01
        2   -1    0    0  501    0  0.00000000000E+00  0.00000000000E+00  0.86337483202E+03  0.86337483202E+03  0.25500000920E-02 0. -1.
       -2   -1    0    0    0  501  0.00000000000E+00  0.00000000000E+00 -0.74917112672E+03  0.74917112672E+03  0.25500000920E-02 0.  1.
    10030    2    1    2    0    0  0.00000000000E+00  0.00000000000E+00  0.11420370530E+03  0.16125459587E+04  0.16084968084E+04 0.  0.
        1    1    3    3  502    0 -0.58413385346E+03  0.40808270501E+03  0.43096373655E+03  0.83275062001E+03  0.50400001928E-02 0. -1.
       -1    1    3    3    0  502  0.58413385346E+03 -0.40808270501E+03 -0.31676003125E+03  0.77979533873E+03  0.50400001928E-02 0.  1.
</event>
<event>
 5   0  0.1057872E-03  0.1559896E+04  0.7818609E-02  0.8845571E-01
        2   -1    0    0  501    0  0.00000000000E+00  0.00000000000E+00  0.99423860827E+03  0.99423860827E+03  0.25500000920E-02 0.  1.
       -2   -1    0    0    0  501  0.00000000000E+00  0.00000000000E+00 -0.61184427770E+03  0.61184427770E+03  0.25500000920E-02 0. -1.
    10030    2    1    2    0    0  0.00000000000E+00  0.00000000000E+00  0.38239433057E+03  0.16060828860E+04  0.15598964108E+04 0.  0.
        2    1    3    3  502    0 -0.75065340128E+03 -0.17183217225E+03  0.63790095223E+02  0.77270693056E+03  0.25500000920E-02 0. -1.
       -2    1    3    3    0  502  0.75065340128E+03  0.17183217225E+03  0.31860423535E+03  0.83337595542E+03  0.25500000920E-02 0.  1.
</event>
<event>
 5   0  0.1000121E-03  0.1459538E+04  0.7818609E-02  0.8911815E-01
       -2   -1    0    0    0  501  0.00000000000E+00  0.00000000000E+00  0.37678171366E+03  0.37678171367E+03  0.25500000920E-02 0.  1.
        2   -1    0    0  501    0  0.00000000000E+00  0.00000000000E+00 -0.14134516278E+04  0.14134516278E+04  0.25500000920E-02 0. -1.
    10030    2    1    2    0    0  0.00000000000E+00  0.00000000000E+00 -0.10366699141E+04  0.17902333415E+04  0.14595379084E+04 0.  0.
        4    1    3    3  502    0  0.64321148621E+03 -0.34471815758E+03 -0.51455649687E+03  0.89292867886E+03  0.12699999809E+01 0. -1.
       -4    1    3    3    0  502 -0.64321148621E+03  0.34471815758E+03 -0.52211341727E+03  0.89730466262E+03  0.12699999809E+01 0.  1.
</event>
<event>
 5   0  0.5281116E-04  0.1611046E+04  0.7818609E-02  0.8813790E-01
       -1   -1    0    0    0  501  0.00000000000E+00  0.00000000000E+00  0.20709366572E+04  0.20709366572E+04  0.50400001928E-02 0. -1.
        1   -1    0    0  501    0  0.00000000000E+00  0.00000000000E+00 -0.31332081783E+03  0.31332081787E+03  0.50400001928E-02 0.  1.
    10030    2    1    2    0    0  0.00000000000E+00  0.00000000000E+00  0.17576158393E+04  0.23842574750E+04  0.16110463273E+04 0.  0.
        2    1    3    3  502    0  0.66538245461E+03 -0.43775215523E+03  0.10570585350E+04  0.13235306973E+04  0.25500000920E-02 0. -1.
       -2    1    3    3    0  502 -0.66538245461E+03  0.43775215523E+03  0.70055730432E+03  0.10607267777E+04  0.25500000920E-02 0.  1.
</event>
<event>
 5   0  0.5288658E-04  0.1565203E+04  0.7818609E-02  0.8842215E-01
       -1   -1    0    0    0  501  0.00000000000E+00  0.00000000000E+00  0.69725688259E+03  0.69725688261E+03  0.50400001928E-02 0.  1.
        1   -1    0    0  501    0  0.00000000000E+00  0.00000000000E+00 -0.87839231596E+03  0.87839231598E+03  0.50400001928E-02 0. -1.
    10030    2    1    2    0    0  0.00000000000E+00  0.00000000000E+00 -0.18113543337E+03  0.15756491986E+04  0.15652029746E+04 0.  0.
        1    1    3    3  502    0  0.29437746220E+02  0.35325801642E+03  0.61180462409E+03  0.70708040925E+03  0.50400001928E-02 0.  1.
       -1    1    3    3    0  502 -0.29437746220E+02 -0.35325801642E+03 -0.79294005745E+03  0.86856878934E+03  0.50400001928E-02 0. -1.
</event>
<event>
 5   0  0.1000121E-03  0.1652784E+04  0.7818609E-02  0.8788761E-01
       -2   -1    0    0    0  501  0.00000000000E+00  0.00000000000E+00  0.90142182586E+03  0.90142182586E+03  0.25500000920E-02 0. -1.
        2   -1    0    0  501    0  0.00000000000E+00  0.00000000000E+00 -0.75760700725E+03  0.75760700725E+03  0.25500000920E-02 0.  1.
    10030    2    1    2    0    0  0.00000000000E+00  0.00000000000E+00  0.14381481861E+03  0.16590288331E+04  0.16527837024E+04 0.  0.
        4    1    3    3  502    0  0.69128615313E+02  0.69362476711E+03 -0.37364793946E+03  0.79089093975E+03  0.12699999809E+01 0.  1.
       -4    1    3    3    0  502 -0.69128615313E+02 -0.69362476711E+03  0.51746275807E+03  0.86813789337E+03  0.12699999809E+01 0. -1.
</event>
<event>
 5   0  0.9844690E-04  0.1595112E+04  0.7818609E-02  0.8823556E-01
        2   -1    0    0  501    0  0.00000000000E+00  0.00000000000E+00  0.17827420623E+04  0.17827420623E+04  0.25500000920E-02 0.  1.
       -2   -1    0    0    0  501  0.00000000000E+00  0.00000000000E+00 -0.35680758835E+03  0.35680758836E+03  0.25500000920E-02 0. -1.
    10030    2    1    2    0    0  0.00000000000E+00  0.00000000000E+00  0.14259344739E+04  0.21395496506E+04  0.15951124047E+04 0.  0.
        3    1    3    3  502    0 -0.79328769666E+03  0.66800313723E+02  0.64824635873E+03  0.10266406398E+04  0.10100000352E+00 0.  1.
       -3    1    3    3    0  502  0.79328769666E+03 -0.66800313723E+02  0.77768811519E+03  0.11129090108E+04  0.10100000352E+00 0. -1.
</event>
<event>
 5   0  0.5281116E-04  0.1597284E+04  0.7818609E-02  0.8822218E-01
       -1   -1    0    0    0  501  0.00000000000E+00  0.00000000000E+00  0.50027206200E+03  0.50027206203E+03  0.50400001928E-02 0.  1.
        1   -1    0    0  501    0  0.00000000000E+00  0.00000000000E+00 -0.12749644671E+04  0.12749644671E+04  0.50400001928E-02 0. -1.
    10030    2    1    2    0    0  0.00000000000E+00  0.00000000000E+00 -0.77469240513E+03  0.17752365292E+04  0.15972840737E+04 0.  0.
        2    1    3    3  502    0  0.17950157097E+03  0.14917307904E+03  0.46152300586E+03  0.51718169577E+03  0.25500000920E-02 0.  1.
       -2    1    3    3    0  502 -0.17950157097E+03 -0.14917307904E+03 -0.12362154110E+04  0.12580548334E+04  0.25500000920E-02 0. -1.
</event>
<event>
 5   0  0.3832500E-04  0.1605330E+04  0.7818609E-02  0.8817280E-01
        3   -1    0    0  501    0  0.00000000000E+00  0.00000000000E+00  0.47739666158E+03  0.47739667226E+03  0.10100000352E+00 0.  1.
       -3   -1    0    0    0  501  0.00000000000E+00  0.00000000000E+00 -0.13495516457E+04  0.13495516495E+04  0.10100000352E+00 0. -1.
    10030    2    1    2    0    0  0.00000000000E+00  0.00000000000E+00 -0.87215498412E+03  0.18269483217E+04  0.16053304501E+04 0.  0.
        3    1    3    3  502    0 -0.10450347331E+02  0.57199730860E+03 -0.10768127988E+04  0.12193506242E+04  0.10100000352E+00 0. -1.
       -3    1    3    3    0  502  0.10450347331E+02 -0.57199730860E+03  0.20465781467E+03  0.60759769758E+03  0.10100000352E+00 0.  1.
</event>
<event>
 5   0  0.5623061E-04  0.1568736E+04  0.7818609E-02  0.8839988E-01
       -1   -1    0    0    0  501  0.00000000000E+00  0.00000000000E+00  0.47675741060E+03  0.47675741063E+03  0.50400001928E-02 0.  1.
        1   -1    0    0  501    0  0.00000000000E+00  0.00000000000E+00 -0.12904527132E+04  0.12904527132E+04  0.50400001928E-02 0. -1.
    10030    2    1    2    0    0  0.00000000000E+00  0.00000000000E+00 -0.81369530259E+03  0.17672101238E+04  0.15687356617E+04 0.  0.
        3    1    3    3  502    0  0.36015714999E+02  0.36375577523E+03 -0.11886366335E+04  0.12435724556E+04  0.10100000352E+00 0. -1.
       -3    1    3    3    0  502 -0.36015714999E+02 -0.36375577523E+03  0.37494133089E+03  0.52363766820E+03  0.10100000352E+00 0.  1.
</event>
<event>
 5   0  0.1057872E-03  0.1590234E+04  0.7818609E-02  0.8826570E-01
        2   -1    0    0  501    0  0.00000000000E+00  0.00000000000E+00  0.15498656616E+04  0.15498656616E+04  0.25500000920E-02 0.  1.
       -2   -1    0    0    0  501  0.00000000000E+00  0.00000000000E+00 -0.40791368298E+03  0.40791368299E+03  0.25500000920E-02 0. -1.
    10030    2    1    2    0    0  0.00000000000E+00  0.00000000000E+00  0.11419519786E+04  0.19577793446E+04  0.15902344609E+04 0.  0.
        2    1    3    3  502    0 -0.27096630385E+01 -0.22922439138E+02 -0.40750112854E+03  0.40815432162E+03  0.25500000920E-02 0. -1.
       -2    1    3    3    0  502  0.27096630385E+01  0.22922439138E+02  0.15494531072E+04  0.15496250230E+04  0.25500000920E-02 0.  1.
</event>
<event>
 5   0  0.1000121E-03  0.1654710E+04  0.7818609E-02  0.8787625E-01
        2   -1    0    0  501    0  0.00000000000E+00  0.00000000000E+00  0.15410157185E+04  0.15410157185E+04  0.25500000920E-02 0.  1.
       -2   -1    0    0    0  501  0.00000000000E+00  0.00000000000E+00 -0.44419834173E+03  0.44419834174E+03  0.25500000920E-02 0. -1.
    10030    2    1    2    0    0  0.00000000000E+00  0.00000000000E+00  0.10968173767E+04  0.19852140602E+04  0.16547103997E+04 0.  0.
        4    1    3    3  502    0 -0.61349399826E+03  0.49334908349E+03  0.85368600335E+03  0.11612706873E+04  0.12699999809E+01 0.  1.
       -4    1    3    3    0  502  0.61349399826E+03 -0.49334908349E+03  0.24313137339E+03  0.82394337287E+03  0.12699999809E+01 0. -1.
</event>
<event>
 5   0  0.5288658E-04  0.1604908E+04  0.7818609E-02  0.8817538E-01
        1   -1    0    0  501    0  0.00000000000E+00  0.00000000000E+00  0.59089545546E+03  0.59089545549E+03  0.50400001928E-02 0.  1.
       -1   -1    0    0    0  501  0.00000000000E+00  0.00000000000E+00 -0.10897569772E+04  0.10897569772E+04  0.50400001928E-02 0. -1.
    10030    2    1    2    0    0  0.00000000000E+00  0.00000000000E+00 -0.49886152172E+03  0.16806524327E+04  0.16049080290E+04 0.  0.
        1    1    3    3  502    0 -0.42929986341E+03  0.66137330012E+03 -0.40552764022E+03  0.88665984563E+03  0.50400001928E-02 0.  1.
       -1    1    3    3    0  502  0.42929986341E+03 -0.66137330012E+03 -0.93333881506E+02  0.79399258706E+03  0.50400001928E-02 0. -1.
</event>
<event>
 5   0  0.5288658E-04  0.1624309E+04  0.7818609E-02  0.8805752E-01
       -1   -1    0    0    0  501  0.00000000000E+00  0.00000000000E+00  0.14078988641E+04  0.14078988641E+04  0.50400001928E-02 0.  1.
        1   -1    0    0  501    0  0.00000000000E+00  0.00000000000E+00 -0.46849607791E+03  0.46849607794E+03  0.50400001928E-02 0. -1.
    10030    2    1    2    0    0  0.00000000000E+00  0.00000000000E+00  0.93940278622E+03  0.18763949421E+04  0.16243092021E+04 0.  0.
        1    1    3    3  502    0 -0.33176518157E+03 -0.40798414422E+03 -0.24528530693E+03  0.58024484440E+03  0.50400001928E-02 0. -1.
       -1    1    3    3    0  502  0.33176518157E+03  0.40798414422E+03  0.11846880931E+04  0.12961500977E+04  0.50400001928E-02 0.  1.
</event>
<event>
 5   0  0.9844690E-04  0.1556130E+04  0.7818609E-02  0.8847962E-01
        2   -1    0    0  501    0  0.00000000000E+00  0.00000000000E+00  0.27614736286E+03  0.27614736288E+03  0.25500000920E-02 0. -1.
       -2   -1    0    0    0  501  0.00000000000E+00  0.00000000000E+00 -0.21922547680E+04  0.21922547680E+04  0.25500000920E-02 0.  1.
    10030    2    1    2    0    0  0.00000000000E+00  0.00000000000E+00 -0.19161074052E+04  0.24684021309E+04  0.15561302940E+04 0.  0.
        3    1    3    3  502    0 -0.12754726446E+03 -0.25927499866E+03  0.18788374817E+03  0.34466236033E+03  0.10100000352E+00 0. -1.
       -3    1    3    3    0  502  0.12754726446E+03  0.25927499866E+03 -0.21039911534E+04  0.21237397706E+04  0.10100000352E+00 0.  1.
</event>
<event>
 5   0  0.5532881E-04  0.1628607E+04  0.7818609E-02  0.8803164E-01
       -1   -1    0    0    0  501  0.00000000000E+00  0.00000000000E+00  0.25639383569E+03  0.25639383574E+03  0.50400001928E-02 0.  1.
        1   -1    0    0  501    0  0.00000000000E+00  0.00000000000E+00 -0.25862181586E+04  0.25862181586E+04  0.50400001928E-02 0. -1.
    10030    2    1    2    0    0  0.00000000000E+00  0.00000000000E+00 -0.23298243229E+04  0.28426119944E+04  0.16286072500E+04 0.  0.
        4    1    3    3  502    0  0.76710283017E+03 -0.24963998573E+03 -0.97116284853E+03  0.12625077290E+04  0.12699999809E+01 0. -1.
       -4    1    3    3    0  502 -0.76710283017E+03  0.24963998573E+03 -0.13586614744E+04  0.15801042654E+04  0.12699999809E+01 0.  1.
</event>
<event>
 5   0  0.5288658E-04  0.1616698E+04  0.7818609E-02  0.8810355E-01
        1   -1    0    0  501    0  0.00000000000E+00  0.00000000000E+00  0.73550180914E+03  0.73550180916E+03  0.50400001928E-02 0.  1.
       -1   -1    0    0    0  501  0.00000000000E+00  0.00000000000E+00 -0.88841142345E+03  0.88841142347E+03  0.50400001928E-02 0. -1.
    10030    2    1    2    0    0  0.00000000000E+00  0.00000000000E+00 -0.15290961431E+03  0.16239132326E+04  0.16166981280E+04 0.  0.
        1    1    3    3  502    0 -0.51097199572E+03  0.33168096824E+03  0.45725778479E+03  0.76170159963E+03  0.50400001928E-02 0.  1.
       -1    1    3    3    0  502  0.51097199572E+03 -0.33168096824E+03 -0.61016739911E+03  0.86221163299E+03  0.50400001928E-02 0. -1.
</event>
<event>
 5   0  0.3832500E-04  0.1602621E+04  0.7818609E-02  0.8818939E-01
       -3   -1    0    0    0  501  0.00000000000E+00  0.00000000000E+00  0.43167958666E+03  0.43167959848E+03  0.10100000352E+00 0.  1.
        3   -1    0    0  501    0  0.00000000000E+00  0.00000000000E+00 -0.14874423201E+04  0.14874423235E+04  0.10100000352E+00 0. -1.
    10030    2    1    2    0    0  0.00000000000E+00  0.00000000000E+00 -0.10557627334E+04  0.19191219220E+04  0.16026209789E+04 0.  0.
        5    1    3    3  502    0  0.50174964800E+03 -0.61782639666E+03 -0.63902391476E+03  0.10207035903E+04  0.46999998093E+01 0. -1.
       -5    1    3    3    0  502 -0.50174964800E+03  0.61782639666E+03 -0.41673881865E+03  0.89841833165E+03  0.46999998093E+01 0.  1.
</event>
<event>
 5   0  0.5288658E-04  0.1601235E+04  0.7818609E-02  0.8819790E-01
        1   -1    0    0  501    0  0.00000000000E+00  0.00000000000E+00  0.91587686198E+03  0.91587686199E+03  0.50400001928E-02 0.  1.
       -1   -1    0    0    0  501  0.00000000000E+00  0.00000000000E+00 -0.69986271251E+03  0.69986271252E+03  0.50400001928E-02 0. -1.
    10030    2    1    2    0    0  0.00000000000E+00  0.00000000000E+00  0.21601414947E+03  0.16157395745E+04  0.16012346049E+04 0.  0.
        1    1    3    3  502    0 -0.59312227757E+03 -0.52204172832E+03  0.23827518478E+03  0.82528580865E+03  0.50400001928E-02 0.  1.
       -1    1    3    3    0  502  0.59312227757E+03  0.52204172832E+03 -0.22261035310E+02  0.79045376587E+03  0.50400001928E-02 0. -1.
</event>
<event>
 5   0  0.5623061E-04  0.1595583E+04  0.7818609E-02  0.8823266E-01
        1   -1    0    0  501    0  0.00000000000E+00  0.00000000000E+00  0.68789981080E+03  0.68789981082E+03  0.50400001928E-02 0. -1.
       -1   -1    0    0    0  501  0.00000000000E+00  0.00000000000E+00 -0.92523787552E+03  0.92523787553E+03  0.50400001928E-02 0.  1.
    10030    2    1    2    0    0  0.00000000000E+00  0.00000000000E+00 -0.23733806471E+03  0.16131376864E+04  0.15955826015E+04 0.  0.
        3    1    3    3  502    0 -0.55482969620E+03  0.12438433802E+03  0.44709809518E+03  0.72332853687E+03  0.10100000352E+00 0. -1.
       -3    1    3    3    0  502  0.55482969620E+03 -0.12438433802E+03 -0.68443615990E+03  0.88980914948E+03  0.10100000352E+00 0.  1.
</event>
<event>
 5   0  0.1037321E-03  0.1589848E+04  0.7818609E-02  0.8826809E-01
       -2   -1    0    0    0  501  0.00000000000E+00  0.00000000000E+00  0.19140275687E+04  0.19140275687E+04  0.25500000920E-02 0. -1.
        2   -1    0    0  501    0  0.00000000000E+00  0.00000000000E+00 -0.33014380099E+03  0.33014380100E+03  0.25500000920E-02 0.  1.
    10030    2    1    2    0    0  0.00000000000E+00  0.00000000000E+00  0.15838837677E+04  0.22441713697E+04  0.15898482151E+04 0.  0.
        5    1    3    3  502    0 -0.32934818455E+03 -0.32381299807E+03  0.17051667805E+04  0.17666184998E+04  0.46999998093E+01 0. -1.
       -5    1    3    3    0  502  0.32934818455E+03  0.32381299807E+03 -0.12128301280E+03  0.47755286993E+03  0.46999998093E+01 0.  1.
</event>
<event>
 5   0  0.5532881E-04  0.1587871E+04  0.7818609E-02  0.8828034E-01
        1   -1    0    0  501    0  0.00000000000E+00  0.00000000000E+00  0.14368608796E+04  0.14368608797E+04  0.50400001928E-02 0. -1.
       -1   -1    0    0    0  501  0.00000000000E+00  0.00000000000E+00 -0.43868785670E+03  0.43868785673E+03  0.50400001928E-02 0.  1.
    10030    2    1    2    0    0  0.00000000000E+00  0.00000000000E+00  0.99817302294E+03  0.18755487364E+04  0.15878708004E+04 0.  0.
        4    1    3    3  502    0  0.49920232910E+03 -0.61193685162E+03  0.40267702322E+03  0.88646493088E+03  0.12699999809E+01 0.  1.
       -4    1    3    3    0  502 -0.49920232910E+03  0.61193685162E+03  0.59549599973E+03  0.98908380551E+03  0.12699999809E+01 0. -1.
</event>
<event>
 5   0  0.5288658E-04  0.1549563E+04  0.7818609E-02  0.8852147E-01
        1   -1    0    0  501    0  0.00000000000E+00  0.00000000000E+00  0.53380030083E+03  0.53380030085E+03  0.50400001928E-02 0.  1.
       -1   -1    0    0    0  501  0.00000000000E+00  0.00000000000E+00 -0.11245528639E+04  0.11245528639E+04  0.50400001928E-02 0. -1.
    10030    2    1    2    0    0  0.00000000000E+00  0.00000000000E+00 -0.59075256308E+03  0.16583531648E+04  0.15495633670E+04 0.  0.
        1    1    3    3  502    0 -0.30796487552E+03  0.58115279789E+03 -0.73364615493E+03  0.98530077627E+03  0.50400001928E-02 0. -1.
       -1    1    3    3    0  502  0.30796487552E+03 -0.58115279789E+03  0.14289359185E+03  0.67305238850E+03  0.50400001928E-02 0.  1.
</event>
<event>
 5   0  0.5288658E-04  0.1604620E+04  0.7818609E-02  0.8817715E-01
        1   -1    0    0  501    0  0.00000000000E+00  0.00000000000E+00  0.13419363890E+04  0.13419363890E+04  0.50400001928E-02 0. -1.
       -1   -1    0    0    0  501  0.00000000000E+00  0.00000000000E+00 -0.47968070968E+03  0.47968070971E+03  0.50400001928E-02 0.  1.
    10030    2    1    2    0    0  0.00000000000E+00  0.00000000000E+00  0.86225567931E+03  0.18216170987E+04  0.16046195804E+04 0.  0.
        1    1    3    3  502    0 -0.25373957856E+03  0.75542181526E+03  0.53674177385E+03  0.96080051234E+03  0.50400001928E-02 0. -1.
       -1    1    3    3    0  502  0.25373957856E+03 -0.75542181526E+03  0.32551390546E+03  0.86081658637E+03  0.50400001928E-02 0.  1.
</event>
<event>
 5   0  0.1037321E-03  0.1597457E+04  0.7818609E-02  0.8822112E-01
        2   -1    0    0  501    0  0.00000000000E+00  0.00000000000E+00  0.13058283947E+04  0.13058283947E+04  0.25500000920E-02 0. -1.
       -2   -1    0    0    0  501  0.00000000000E+00  0.00000000000E+00 -0.48855368142E+03  0.48855368143E+03  0.25500000920E-02 0.  1.
    10030    2    1    2    0    0  0.00000000000E+00  0.00000000000E+00  0.81727471323E+03  0.17943820761E+04  0.15974570661E+04 0.  0.
        5    1    3    3  502    0  0.47872546521E+03 -0.20689920465E+02  0.11264253296E+04  0.12241169295E+04  0.46999998093E+01 0. -1.
       -5    1    3    3    0  502 -0.47872546521E+03  0.20689920465E+02 -0.30915061637E+03  0.57026514662E+03  0.46999998093E+01 0.  1.
</event>
<event>
 5   0  0.1000121E-03  0.1600801E+04  0.7818609E-02  0.8820056E-01
        2   -1    0    0  501    0  0.00000000000E+00  0.00000000000E+00  0.11904493466E+04  0.11904493466E+04  0.25500000920E-02 0. -1.
       -2   -1    0    0    0  501  0.00000000000E+00  0.00000000000E+00 -0.53815051344E+03  0.53815051345E+03  0.25500000920E-02 0.  1.
    10030    2    1    2    0    0  0.00000000000E+00  0.00000000000E+00  0.65229883318E+03  0.17285998601E+04  0.16008009584E+04 0.  0.
        4    1    3    3  502    0  0.21070404582E+02 -0.76810481674E+03  0.84183758777E+02  0.77299255468E+03  0.12699999809E+01 0.  1.
       -4    1    3    3    0  502 -0.21070404582E+02  0.76810481674E+03  0.56811507440E+03  0.95560730539E+03  0.12699999809E+01 0. -1.
</event>
<event>
 5   0  0.5425525E-04  0.1617405E+04  0.7818609E-02  0.8809926E-01
       -1   -1    0    0    0  501  0.00000000000E+00  0.00000000000E+00  0.82685461582E+03  0.82685461583E+03  0.50400001928E-02 0.  1.
        1   -1    0    0  501    0  0.00000000000E+00  0.00000000000E+00 -0.79094852559E+03  0.79094852561E+03  0.50400001928E-02 0. -1.
    10030    2    1    2    0    0  0.00000000000E+00  0.00000000000E+00  0.35906090227E+02  0.16178031414E+04  0.16174046362E+04 0.  0.
        5    1    3    3  502    0 -0.19180905512E+03  0.33248317515E+03 -0.69400991956E+03  0.79310001502E+03  0.46999998093E+01 0. -1.
       -5    1    3    3    0  502  0.19180905512E+03 -0.33248317515E+03  0.72991600979E+03  0.82470312642E+03  0.46999998093E+01 0.  1.
</event>
<event>
 5   0  0.1000121E-03  0.1571234E+04  0.7818609E-02  0.8838418E-01
        2   -1    0    0  501    0  0.00000000000E+00  0.00000000000E+00  0.18374386860E+04  0.18374386860E+04  0.25500000920E-02 0.  1.
       -2   -1    0    0    0  501  0.00000000000E+00  0.00000000000E+00 -0.33589906247E+03  0.33589906248E+03  0.25500000920E-02 0. -1.
    10030    2    1    2    0    0  0.00000000000E+00  0.00000000000E+00  0.15015396235E+04  0.21733377485E+04  0.15712338235E+04 0.  0.
        4    1    3    3  502    0 -0.33150322899E+03  0.47173090682E+02 -0.23225237554E+03  0.40750763202E+03  0.12699999809E+01 0. -1.
       -4    1    3    3    0  502  0.33150322899E+03 -0.47173090682E+02  0.17337919991E+04  0.17658301165E+04  0.12699999809E+01 0.  1.
</event>
<event>
 5   0  0.5623061E-04  0.1254455E+04  0.7818609E-02  0.9066483E-01
        1   -1    0    0  501    0  0.00000000000E+00  0.00000000000E+00  0.22950193789E+04  0.22950193789E+04  0.50400001928E-02 0.  1.
       -1   -1    0    0    0  501  0.00000000000E+00  0.00000000000E+00 -0.17142098109E+03  0.17142098117E+03  0.50400001928E-02 0. -1.
    10030    2    1    2    0    0  0.00000000000E+00  0.00000000000E+00  0.21235983978E+04  0.24664403600E+04  0.12544552182E+04 0.  0.
        3    1    3    3  502    0  0.22889039340E+02 -0.61380522865E+03  0.13115359163E+04  0.14482428100E+04  0.10100000352E+00 0.  1.
       -3    1    3    3    0  502 -0.22889039340E+02  0.61380522865E+03  0.81206248148E+03  0.10181975500E+04  0.10100000352E+00 0. -1.
</event>
<event>
 5   0  0.1057872E-03  0.1597170E+04  0.7818609E-02  0.8822289E-01
        2   -1    0    0  501    0  0.00000000000E+00  0.00000000000E+00  0.93223137383E+03  0.93223137383E+03  0.25500000920E-02 0.  1.
       -2   -1    0    0    0  501  0.00000000000E+00  0.00000000000E+00 -0.68409805141E+03  0.68409805142E+03  0.25500000920E-02 0. -1.
    10030    2    1    2    0    0  0.00000000000E+00  0.00000000000E+00  0.24813332242E+03  0.16163294253E+04  0.15971695794E+04 0.  0.
        2    1    3    3  502    0 -0.21502845455E+03 -0.52382033382E+02  0.90057607724E+03  0.92737176181E+03  0.25500000920E-02 0.  1.
       -2    1    3    3    0  502  0.21502845455E+03  0.52382033382E+02 -0.65244275482E+03  0.68895766344E+03  0.25500000920E-02 0. -1.
</event>
<event>
 5   0  0.1030027E-03  0.1584757E+04  0.7818609E-02  0.8829967E-01
        2   -1    0    0  501    0  0.00000000000E+00  0.00000000000E+00  0.76355036701E+03  0.76355036702E+03  0.25500000920E-02 0. -1.
       -2   -1    0    0    0  501  0.00000000000E+00  0.00000000000E+00 -0.82229524051E+03  0.82229524052E+03  0.25500000920E-02 0.  1.
    10030    2    1    2    0    0  0.00000000000E+00  0.00000000000E+00 -0.58744873501E+02  0.15858456075E+04  0.15847571835E+04 0.  0.
        1    1    3    3  502    0  0.50694056033E+03  0.45228765640E+03 -0.43746495410E+03  0.80803987645E+03  0.50400001928E-02 0.  1.
       -1    1    3    3    0  502 -0.50694056033E+03 -0.45228765640E+03  0.37872008060E+03  0.77780573109E+03  0.50400001928E-02 0. -1.
</event>
<event>
 5   0  0.5532881E-04  0.1561041E+04  0.7818609E-02  0.8844846E-01
       -1   -1    0    0    0  501  0.00000000000E+00  0.00000000000E+00  0.81929009657E+03  0.81929009659E+03  0.50400001928E-02 0.  1.
        1   -1    0    0  501    0  0.00000000000E+00  0.00000000000E+00 -0.74358591667E+03  0.74358591669E+03  0.50400001928E-02 0. -1.
    10030    2    1    2    0    0  0.00000000000E+00  0.00000000000E+00  0.75704179904E+02  0.15628760133E+04  0.15610414184E+04 0.  0.
        4    1    3    3  502    0 -0.48993103741E+03  0.55786568605E+03  0.27889304814E+03  0.79311379404E+03  0.12699999809E+01 0. -1.
       -4    1    3    3    0  502  0.48993103741E+03 -0.55786568605E+03 -0.20318886823E+03  0.76976221924E+03  0.12699999809E+01 0.  1.
</event>
<event>
 5   0  0.1030027E-03  0.1602499E+04  0.7818609E-02  0.8819014E-01
        2   -1    0    0  501    0  0.00000000000E+00  0.00000000000E+00  0.76662491841E+03  0.76662491842E+03  0.25500000920E-02 0.  1.
       -2   -1    0    0    0  501  0.00000000000E+00  0.00000000000E+00 -0.83743754487E+03  0.83743754488E+03  0.25500000920E-02 0. -1.
    10030    2    1    2    0    0  0.00000000000E+00  0.00000000000E+00 -0.70812626463E+02  0.16040624633E+04  0.16024986609E+04 0.  0.
        1    1    3    3  502    0 -0.73859873756E+03 -0.29916202309E+03  0.48188525569E+02  0.79834087031E+03  0.50400001928E-02 0.  1.
       -1    1    3    3    0  502  0.73859873756E+03  0.29916202309E+03 -0.11900115203E+03  0.80572159298E+03  0.50400001928E-02 0. -1.
</event>
<event>
 5   0  0.3832500E-04  0.1591108E+04  0.7818609E-02  0.8826030E-01
        4   -1    0    0  501    0  0.00000000000E+00  0.00000000000E+00  0.88586506359E+03  0.88586597394E+03  0.12699999809E+01 0. -1.
       -4   -1    0    0    0  501  0.00000000000E+00  0.00000000000E+00 -0.71444759586E+03  0.71444872463E+03  0.12699999809E+01 0.  1.
    10030    2    1    2    0    0  0.00000000000E+00  0.00000000000E+00  0.17141746773E+03  0.16003146986E+04  0.15911075345E+04 0.  0.
        3    1    3    3  502    0 -0.75011844705E+03 -0.21284114445E+03 -0.73086945641E+02  0.78314797401E+03  0.10100000352E+00 0.  1.
       -3    1    3    3    0  502  0.75011844705E+03  0.21284114445E+03  0.24450441337E+03  0.81716672456E+03  0.10100000352E+00 0. -1.
</event>
<event>
 5   0  0.1000121E-03  0.1313468E+04  0.7818609E-02  0.9018952E-01
       -2   -1    0    0    0  501  0.00000000000E+00  0.00000000000E+00  0.72581773305E+03  0.72581773306E+03  0.25500000920E-02 0. -1.
        2   -1    0    0  501    0  0.00000000000E+00  0.00000000000E+00 -0.59422609783E+03  0.59422609783E+03  0.25500000920E-02 0.  1.
    10030    2    1    2    0    0  0.00000000000E+00  0.00000000000E+00  0.13159163523E+03  0.13200438309E+04  0.13134684454E+04 0.  0.
        4    1    3    3  502    0  0.36892952663E+03 -0.35238156355E+02  0.61067924082E+03  0.71433988504E+03  0.12699999809E+01 0. -1.
       -4    1    3    3    0  502 -0.36892952663E+03  0.35238156355E+02 -0.47908760559E+03  0.60570394585E+03  0.12699999809E+01 0.  1.
</event>
<event>
 5   0  0.9844690E-04  0.1616569E+04  0.7818609E-02  0.8810433E-01
        2   -1    0    0  501    0  0.00000000000E+00  0.00000000000E+00  0.14171258237E+04  0.14171258237E+04  0.25500000920E-02 0. -1.
       -2   -1    0    0    0  501  0.00000000000E+00  0.00000000000E+00 -0.46102017283E+03  0.46102017284E+03  0.25500000920E-02 0.  1.
    10030    2    1    2    0    0  0.00000000000E+00  0.00000000000E+00  0.95610565090E+03  0.18781459966E+04  0.16165687021E+04 0.  0.
        3    1    3    3  502    0  0.76991906462E+03  0.19383867951E+03  0.30195220562E+03  0.84942565561E+03  0.10100000352E+00 0.  1.
       -3    1    3    3    0  502 -0.76991906462E+03 -0.19383867951E+03  0.65415344528E+03  0.10287203410E+04  0.10100000352E+00 0. -1.
</event>
<event>
 5   0  0.5281116E-04  0.1585253E+04  0.7818609E-02  0.8829659E-01
        1   -1    0    0  501    0  0.00000000000E+00  0.00000000000E+00  0.96989113743E+03  0.96989113745E+03  0.50400001928E-02 0. -1.
       -1   -1    0    0    0  501  0.00000000000E+00  0.00000000000E+00 -0.64776008391E+03  0.64776008393E+03  0.50400001928E-02 0.  1.
    10030    2    1    2    0    0  0.00000000000E+00  0.00000000000E+00  0.32213105352E+03  0.16176512214E+04  0.15852529951E+04 0.  0.
        2    1    3    3  502    0 -0.48676930438E+03 -0.48554311945E+03 -0.24140647794E+03  0.72867932874E+03  0.25500000920E-02 0.  1.
       -2    1    3    3    0  502  0.48676930438E+03  0.48554311945E+03  0.56353753146E+03  0.88897189264E+03  0.25500000920E-02 0. -1.
</event>
<event>
 5   0  0.5532881E-04  0.1618888E+04  0.7818609E-02  0.8809028E-01
        1   -1    0    0  501    0  0.00000000000E+00  0.00000000000E+00  0.11557222043E+04  0.11557222043E+04  0.50400001928E-02 0.  1.
       -1   -1    0    0    0  501  0.00000000000E+00  0.00000000000E+00 -0.56691802641E+03  0.56691802643E+03  0.50400001928E-02 0. -1.
    10030    2    1    2    0    0  0.00000000000E+00  0.00000000000E+00  0.58880417789E+03  0.17226402307E+04  0.16188882002E+04 0.  0.
        4    1    3    3  502    0  0.28240007634E+03 -0.63430542988E+03 -0.14832131395E+03  0.70999577926E+03  0.12699999809E+01 0. -1.
       -4    1    3    3    0  502 -0.28240007634E+03  0.63430542988E+03  0.73712549184E+03  0.10126444515E+04  0.12699999809E+01 0.  1.
</event>
<event>
 5   0  0.5623061E-04  0.1574097E+04  0.7818609E-02  0.8836621E-01
       -1   -1    0    0    0  501  0.00000000000E+00  0.00000000000E+00  0.35932472294E+03  0.35932472297E+03  0.50400001928E-02 0.  1.
        1   -1    0    0  501    0  0.00000000000E+00  0.00000000000E+00 -0.17239152161E+04  0.17239152161E+04  0.50400001928E-02 0. -1.
    10030    2    1    2    0    0  0.00000000000E+00  0.00000000000E+00 -0.13645904932E+04  0.20832399391E+04  0.15740970204E+04 0.  0.
        3    1    3    3  502    0 -0.52115827954E+03  0.29885606469E+03 -0.93827314651E+01  0.60084019970E+03  0.10100000352E+00 0.  1.
       -3    1    3    3    0  502  0.52115827954E+03 -0.29885606469E+03 -0.13552077617E+04  0.14823997394E+04  0.10100000352E+00 0. -1.
</event>
<event>
 5   0  0.5623061E-04  0.1740884E+04  0.7818609E-02  0.8738384E-01
       -1   -1    0    0    0  501  0.00000000000E+00  0.00000000000E+00  0.11955924135E+04  0.11955924135E+04  0.50400001928E-02 0. -1.
        1   -1    0    0  501    0  0.00000000000E+00  0.00000000000E+00 -0.63371867609E+03  0.63371867611E+03  0.50400001928E-02 0.  1.
    10030    2    1    2    0    0  0.00000000000E+00  0.00000000000E+00  0.56187373740E+03  0.18293110896E+04  0.17408839610E+04 0.  0.
        3    1    3    3  502    0  0.85042986609E+03  0.18205151641E+03  0.24311528416E+03  0.90303862783E+03  0.10100000352E+00 0. -1.
       -3    1    3    3    0  502 -0.85042986609E+03 -0.18205151641E+03  0.31875845324E+03  0.92627246179E+03  0.10100000352E+00 0.  1.
</event>
<event>
 5   0  0.1030027E-03  0.1646934E+04  0.7818609E-02  0.8792223E-01
       -2   -1    0    0    0  501  0.00000000000E+00  0.00000000000E+00  0.36278738169E+03  0.36278738170E+03  0.25500000920E-02 0. -1.
        2   -1    0    0  501    0  0.00000000000E+00  0.00000000000E+00 -0.18691321296E+04  0.18691321296E+04  0.25500000920E-02 0.  1.
    10030    2    1    2    0    0  0.00000000000E+00  0.00000000000E+00 -0.15063447479E+04  0.22319195113E+04  0.16469335765E+04 0.  0.
        1    1    3    3  502    0 -0.47289765377E+03  0.52758896333E+03 -0.13218955442E+04  0.14997966979E+04  0.50400001928E-02 0. -1.
       -1    1    3    3    0  502  0.47289765377E+03 -0.52758896333E+03 -0.18444920372E+03  0.73212281343E+03  0.50400001928E-02 0.  1.
</event>
<event>
 5   0  0.1037321E-03  0.1608777E+04  0.7818609E-02  0.8815174E-01
        2   -1    0    0  501    0  0.00000000000E+00  0.00000000000E+00  0.75446125558E+03  0.75446125558E+03  0.25500000920E-02 0.  1.
       -2   -1    0    0    0  501  0.00000000000E+00  0.00000000000E+00 -0.85761997697E+03  0.85761997697E+03  0.25500000920E-02 0. -1.
    10030    2    1    2    0    0  0.00000000000E+00  0.00000000000E+00 -0.10315872139E+03  0.16120812326E+04  0.16087772309E+04 0.  0.
        5    1    3    3  502    0 -0.14136830261E+02 -0.33791234085E+03 -0.78289624173E+03  0.85283832898E+03  0.46999998093E+01 0. -1.
       -5    1    3    3    0  502  0.14136830261E+02  0.33791234085E+03  0.67973752034E+03  0.75924290357E+03  0.46999998093E+01 0.  1.
</event>
<event>
 5   0  0.1057872E-03  0.1622681E+04  0.7818609E-02  0.8806734E-01
       -2   -1    0    0    0  501  0.00000000000E+00  0.00000000000E+00  0.30206527335E+03  0.30206527337E+03  0.25500000920E-02 0.  1.
        2   -1    0    0  501    0  0.00000000000E+00  0.00000000000E+00 -0.21792415710E+04  0.21792415710E+04  0.25500000920E-02 0. -1.
    10030    2    1    2    0    0  0.00000000000E+00  0.00000000000E+00 -0.18771762976E+04  0.24813068443E+04  0.16226807460E+04 0.  0.
        2    1    3    3  502    0  0.29243894256E+03 -0.41913624628E+03 -0.19021620202E+04  0.19696233343E+04  0.25500000920E-02 0.  1.
       -2    1    3    3    0  502 -0.29243894256E+03  0.41913624628E+03  0.24985722573E+02  0.51168351001E+03  0.25500000920E-02 0. -1.
</event>
<event>
 5   0  0.5288658E-04  0.1612611E+04  0.7818609E-02  0.8812838E-01
       -1   -1    0    0    0  501  0.00000000000E+00  0.00000000000E+00  0.58308761947E+03  0.58308761949E+03  0.50400001928E-02 0.  1.
        1   -1    0    0  501    0  0.00000000000E+00  0.00000000000E+00 -0.11149763104E+04  0.11149763104E+04  0.50400001928E-02 0. -1.
    10030    2    1    2    0    0  0.00000000000E+00  0.00000000000E+00 -0.53188869090E+03  0.16980639299E+04  0.16126114009E+04 0.  0.
        1    1    3    3  502    0 -0.73098930045E+03  0.84740388282E+02  0.81067584640E+02  0.74033657487E+03  0.50400001928E-02 0.  1.
       -1    1    3    3    0  502  0.73098930045E+03 -0.84740388282E+02 -0.61295627554E+03  0.95772735501E+03  0.50400001928E-02 0. -1.
</event>
<event>
 5   0  0.1057872E-03  0.1478252E+04  0.7818609E-02  0.8899045E-01
       -2   -1    0    0    0  501  0.00000000000E+00  0.00000000000E+00  0.62243175035E+03  0.62243175036E+03  0.25500000920E-02 0.  1.
        2   -1    0    0  501    0  0.00000000000E+00  0.00000000000E+00 -0.87769800224E+03  0.87769800224E+03  0.25500000920E-02 0. -1.
    10030    2    1    2    0    0  0.00000000000E+00  0.00000000000E+00 -0.25526625189E+03  0.15001297526E+04  0.14782518105E+04 0.  0.
        2    1    3    3  502    0  0.62584693162E+03  0.11197195924E+03  0.25488720642E+03  0.68497415242E+03  0.25500000920E-02 0. -1.
       -2    1    3    3    0  502 -0.62584693162E+03 -0.11197195924E+03 -0.51015345830E+03  0.81515560018E+03  0.25500000920E-02 0.  1.
</event>
<event>
 5   0  0.5288658E-04  0.1579002E+04  0.7818609E-02  0.8833553E-01
        1   -1    0    0  501    0  0.00000000000E+00  0.00000000000E+00  0.70656598915E+03  0.70656598917E+03  0.50400001928E-02 0.  1.
       -1   -1    0    0    0  501  0.00000000000E+00  0.00000000000E+00 -0.88217063313E+03  0.88217063314E+03  0.50400001928E-02 0. -1.
    10030    2    1    2    0    0  0.00000000000E+00  0.00000000000E+00 -0.17560464398E+03  0.15887366223E+04  0.15790019202E+04 0.  0.
        1    1    3    3  502    0  0.78558704556E+03 -0.51097054239E+02 -0.27820611018E+02  0.78773847280E+03  0.50400001928E-02 0. -1.
       -1    1    3    3    0  502 -0.78558704556E+03  0.51097054239E+02 -0.14778403296E+03  0.80099814952E+03  0.50400001928E-02 0.  1.
</event>
<event>
 5   0  0.5425525E-04  0.1607079E+04  0.7818609E-02  0.8816211E-01
       -1   -1    0    0    0  501  0.00000000000E+00  0.00000000000E+00  0.45888585605E+03  0.45888585608E+03  0.50400001928E-02 0.  1.
        1   -1    0    0  501    0  0.00000000000E+00  0.00000000000E+00 -0.14070501307E+04  0.14070501307E+04  0.50400001928E-02 0. -1.
    10030    2    1    2    0    0  0.00000000000E+00  0.00000000000E+00 -0.94816427460E+03  0.18659359867E+04  0.16070785964E+04 0.  0.
        5    1    3    3  502    0  0.21105839851E+03  0.34687088331E+03 -0.12791575238E+04  0.13420622631E+04  0.46999998093E+01 0.  1.
       -5    1    3    3    0  502 -0.21105839851E+03 -0.34687088331E+03  0.33099324924E+03  0.52387372363E+03  0.46999998093E+01 0. -1.
</event>
<event>
 5   0  0.1000121E-03  0.1575895E+04  0.7818609E-02  0.8835495E-01
       -2   -1    0    0    0  501  0.00000000000E+00  0.00000000000E+00  0.42007061692E+03  0.42007061693E+03  0.25500000920E-02 0. -1.
        2   -1    0    0  501    0  0.00000000000E+00  0.00000000000E+00 -0.14779918044E+04  0.14779918044E+04  0.25500000920E-02 0.  1.
    10030    2    1    2    0    0  0.00000000000E+00  0.00000000000E+00 -0.10579211875E+04  0.18980624213E+04  0.15758945765E+04 0.  0.
        4    1    3    3  502    0  0.10644584748E+03  0.77428966036E+03 -0.40849229763E+03  0.88188591479E+03  0.12699999809E+01 0. -1.
       -4    1    3    3    0  502 -0.10644584748E+03 -0.77428966036E+03 -0.64942888986E+03  0.10161765066E+04  0.12699999809E+01 0.  1.
</event>
<event>
 5   0  0.5288658E-04  0.1600348E+04  0.7818609E-02  0.8820334E-01
        1   -1    0    0  501    0  0.00000000000E+00  0.00000000000E+00  0.18219547574E+04  0.18219547574E+04  0.50400001928E-02 0. -1.
       -1   -1    0    0    0  501  0.00000000000E+00  0.00000000000E+00 -0.35142390694E+03  0.35142390697E+03  0.50400001928E-02 0.  1.
    10030    2    1    2    0    0  0.00000000000E+00  0.00000000000E+00  0.14705308505E+04  0.21733786644E+04  0.16003480361E+04 0.  0.
        1    1    3    3  502    0 -0.70034365423E+03 -0.38228870430E+03  0.81734220953E+03  0.11422233472E+04  0.50400001928E-02 0.  1.
       -1    1    3    3    0  502  0.70034365423E+03  0.38228870430E+03  0.65318864098E+03  0.10311553172E+04  0.50400001928E-02 0. -1.
</event>
<event>
 5   0  0.3832500E-04  0.1628801E+04  0.7818609E-02  0.8803047E-01
       -3   -1    0    0    0  501  0.00000000000E+00  0.00000000000E+00  0.76422136243E+03  0.76422136910E+03  0.10100000352E+00 0.  1.
        3   -1    0    0  501    0  0.00000000000E+00  0.00000000000E+00 -0.86787411092E+03  0.86787411680E+03  0.10100000352E+00 0. -1.
    10030    2    1    2    0    0  0.00000000000E+00  0.00000000000E+00 -0.10365274850E+03  0.16320954859E+04  0.16288007192E+04 0.  0.
        2    1    3    3  502    0 -0.19697100685E+03 -0.44747254673E+03 -0.70446460324E+03  0.85749614275E+03  0.25500000920E-02 0. -1.
       -2    1    3    3    0  502  0.19697100685E+03  0.44747254673E+03  0.60081185474E+03  0.77459934315E+03  0.25500000920E-02 0.  1.
</event>
<event>
 5   0  0.5288658E-04  0.1608614E+04  0.7818609E-02  0.8815274E-01
        1   -1    0    0  501    0  0.00000000000E+00  0.00000000000E+00  0.69753722967E+03  0.69753722969E+03  0.50400001928E-02 0. -1.
       -1   -1    0    0    0  501  0.00000000000E+00  0.00000000000E+00 -0.92741937803E+03  0.92741937804E+03  0.50400001928E-02 0.  1.
    10030    2    1    2    0    0  0.00000000000E+00  0.00000000000E+00 -0.22988214836E+03  0.16249566077E+04  0.16086137432E+04 0.  0.
        1    1    3    3  502    0 -0.68735729651E+03 -0.37101104928E+03 -0.30872405207E+03  0.83989272654E+03  0.50400001928E-02 0. -1.
       -1    1    3    3    0  502  0.68735729651E+03  0.37101104928E+03  0.78841903710E+02  0.78506388119E+03  0.50400001928E-02 0.  1.
</event>
<event>
 5   0  0.5281116E-04  0.1639707E+04  0.7818609E-02  0.8796519E-01
       -1   -1    0    0    0  501  0.00000000000E+00  0.00000000000E+00  0.37825899625E+03  0.37825899628E+03  0.50400001928E-02 0.  1.
        1   -1    0    0  501    0  0.00000000000E+00  0.00000000000E+00 -0.17769836201E+04  0.17769836201E+04  0.50400001928E-02 0. -1.
    10030    2    1    2    0    0  0.00000000000E+00  0.00000000000E+00 -0.13987246238E+04  0.21552426164E+04  0.16397073404E+04 0.  0.
        2    1    3    3  502    0  0.43164854062E+03 -0.34028859324E+03  0.10020691139E+03  0.55871120841E+03  0.25500000920E-02 0.  1.
       -2    1    3    3    0  502 -0.43164854062E+03  0.34028859324E+03 -0.14989315352E+04  0.15965314080E+04  0.25500000920E-02 0. -1.
</event>
<event>
 5   0  0.5281116E-04  0.1611155E+04  0.7818609E-02  0.8813724E-01
        1   -1    0    0  501    0  0.00000000000E+00  0.00000000000E+00  0.74933647308E+03  0.74933647310E+03  0.50400001928E-02 0. -1.
       -1   -1    0    0    0  501  0.00000000000E+00  0.00000000000E+00 -0.86603936444E+03  0.86603936446E+03  0.50400001928E-02 0.  1.
    10030    2    1    2    0    0  0.00000000000E+00  0.00000000000E+00 -0.11670289136E+03  0.16153758376E+04  0.16111547200E+04 0.  0.
        2    1    3    3  502    0 -0.80068840256E+03  0.61024876853E+02 -0.12277653945E+03  0.81234231223E+03  0.25500000920E-02 0.  1.
       -2    1    3    3    0  502  0.80068840256E+03 -0.61024876853E+02  0.60736480855E+01  0.80303352533E+03  0.25500000920E-02 0. -1.
</event>
<event>
 5   0  0.5425525E-04  0.1606782E+04  0.7818609E-02  0.8816393E-01
       -1   -1    0    0    0  501  0.00000000000E+00  0.00000000000E+00  0.48158775108E+03  0.48158775111E+03  0.50400001928E-02 0.  1.
        1   -1    0    0  501    0  0.00000000000E+00  0.00000000000E+00 -0.13402267288E+04  0.13402267288E+04  0.50400001928E-02 0. -1.
    10030    2    1    2    0    0  0.00000000000E+00  0.00000000000E+00 -0.85863897769E+03  0.18218144799E+04  0.16067815985E+04 0.  0.
        5    1    3    3  502    0 -0.62903021272E+03  0.34009407667E+03 -0.14159154480E+02  0.71523811501E+03  0.46999998093E+01 0. -1.
       -5    1    3    3    0  502  0.62903021272E+03 -0.34009407667E+03 -0.84447982321E+03  0.11065763649E+04  0.46999998093E+01 0.  1.
</event>
<event>
 5   0  0.1030027E-03  0.1581983E+04  0.7818609E-02  0.8831694E-01
       -2   -1    0    0    0  501  0.00000000000E+00  0.00000000000E+00  0.34451501732E+03  0.34451501733E+03  0.25500000920E-02 0.  1.
        2   -1    0    0  501    0  0.00000000000E+00  0.00000000000E+00 -0.18160822809E+04  0.18160822809E+04  0.25500000920E-02 0. -1.
    10030    2    1    2    0    0  0.00000000000E+00  0.00000000000E+00 -0.14715672635E+04  0.21605972982E+04  0.15819830827E+04 0.  0.
        1    1    3    3  502    0 -0.11782573338E+01 -0.18775276315E+03  0.31363974166E+03  0.36554394529E+03  0.50400001928E-02 0.  1.
       -1    1    3    3    0  502  0.11782573338E+01  0.18775276315E+03 -0.17852070052E+04  0.17950533529E+04  0.50400001928E-02 0. -1.
</event>
<event>
 5   0  0.5281116E-04  0.1585523E+04  0.7818609E-02  0.8829491E-01
       -1   -1    0    0    0  501  0.00000000000E+00  0.00000000000E+00  0.65807394634E+03  0.65807394636E+03  0.50400001928E-02 0.  1.
        1   -1    0    0  501    0  0.00000000000E+00  0.00000000000E+00 -0.95501604683E+03  0.95501604684E+03  0.50400001928E-02 0. -1.
    10030    2    1    2    0    0  0.00000000000E+00  0.00000000000E+00 -0.29694210049E+03  0.16130899932E+04  0.15855234830E+04 0.  0.
        2    1    3    3  502    0  0.27082675118E+03 -0.30837753465E+03  0.54157447292E+03  0.67951949403E+03  0.25500000920E-02 0.  1.
       -2    1    3    3    0  502 -0.27082675118E+03  0.30837753465E+03 -0.83851657341E+03  0.93357049918E+03  0.25500000920E-02 0. -1.
</event>
<event>
 5   0  0.9844690E-04  0.1633269E+04  0.7818609E-02  0.8800366E-01
        2   -1    0    0  501    0  0.00000000000E+00  0.00000000000E+00  0.78608517504E+03  0.78608517504E+03  0.25500000920E-02 0. -1.
       -2   -1    0    0    0  501  0.00000000000E+00  0.00000000000E+00 -0.84837124169E+03  0.84837124169E+03  0.25500000920E-02 0.  1.
    10030    2    1    2    0    0  0.00000000000E+00  0.00000000000E+00 -0.62286066653E+02  0.16344564167E+04  0.16332691830E+04 0.  0.
        3    1    3    3  502    0 -0.31510874509E+03 -0.74345468347E+03  0.90903226722E+02  0.81257725444E+03  0.10100000352E+00 0. -1.
       -3    1    3    3    0  502  0.31510874509E+03  0.74345468347E+03 -0.15318929338E+03  0.82187916229E+03  0.10100000352E+00 0.  1.
</event>
<event>
 5   0  0.5532881E-04  0.1558042E+04  0.7818609E-02  0.8846747E-01
        1   -1    0    0  501    0  0.00000000000E+00  0.00000000000E+00  0.68110394340E+03  0.68110394342E+03  0.50400001928E-02 0.  1.
       -1   -1    0    0    0  501  0.00000000000E+00  0.00000000000E+00 -0.89101527980E+03  0.89101527982E+03  0.50400001928E-02 0. -1.
    10030    2    1    2    0    0  0.00000000000E+00  0.00000000000E+00 -0.20991133640E+03  0.15721192232E+04  0.15580423880E+04 0.  0.
        4    1    3    3  502    0  0.40755172769E+03  0.11270219579E+03  0.55522792593E+03  0.69791106762E+03  0.12699999809E+01 0.  1.
       -4    1    3    3    0  502 -0.40755172769E+03 -0.11270219579E+03 -0.76513926233E+03  0.87420815561E+03  0.12699999809E+01 0. -1.
</event>
<event>
 5   0  0.1030027E-03  0.1615782E+04  0.7818609E-02  0.8810911E-01
        2   -1    0    0  501    0  0.00000000000E+00  0.00000000000E+00  0.13733267113E+04  0.13733267113E+04  0.25500000920E-02 0.  1.
       -2   -1    0    0    0  501  0.00000000000E+00  0.00000000000E+00 -0.47526044306E+03  0.47526044306E+03  0.25500000920E-02 0. -1.
    10030    2    1    2    0    0  0.00000000000E+00  0.00000000000E+00  0.89806626828E+03  0.18485871544E+04  0.16157819918E+04 0.  0.
        1    1    3    3  502    0 -0.51515312044E+03  0.40880989312E+03 -0.87807896726E+02  0.66348963290E+03  0.50400001928E-02 0. -1.
       -1    1    3    3    0  502  0.51515312044E+03 -0.40880989312E+03  0.98587416500E+03  0.11850975215E+04  0.50400001928E-02 0.  1.
</event>
<event>
 5   0  0.5623061E-04  0.1548030E+04  0.7818609E-02  0.8853127E-01
        1   -1    0    0  501    0  0.00000000000E+00  0.00000000000E+00  0.15848956608E+04  0.15848956608E+04  0.50400001928E-02 0. -1.
       -1   -1    0    0    0  501  0.00000000000E+00  0.00000000000E+00 -0.37800555783E+03  0.37800555786E+03  0.50400001928E-02 0.  1.
    10030    2    1    2    0    0  0.00000000000E+00  0.00000000000E+00  0.12068901029E+04  0.19629012186E+04  0.15480301914E+04 0.  0.
        3    1    3    3  502    0 -0.74718601030E+03  0.15494982404E+03  0.43907899911E+03  0.88039011785E+03  0.10100000352E+00 0.  1.
       -3    1    3    3    0  502  0.74718601030E+03 -0.15494982404E+03  0.76781110384E+03  0.10825111008E+04  0.10100000352E+00 0. -1.
</event>
<event>
 5   0  0.1000121E-03  0.1628021E+04  0.7818609E-02  0.8803516E-01
       -2   -1    0    0    0  501  0.00000000000E+00  0.00000000000E+00  0.64881688180E+03  0.64881688180E+03  0.25500000920E-02 0.  1.
        2   -1    0    0  501    0  0.00000000000E+00  0.00000000000E+00 -0.10212638378E+04  0.10212638378E+04  0.25500000920E-02 0. -1.
    10030    2    1    2    0    0  0.00000000000E+00  0.00000000000E+00 -0.37244695598E+03  0.16700807196E+04  0.16280211531E+04 0.  0.
        4    1    3    3  502    0 -0.42213721345E+03  0.37746669887E+03 -0.78607870501E+03  0.96881488381E+03  0.12699999809E+01 0. -1.
       -4    1    3    3    0  502  0.42213721345E+03 -0.37746669887E+03  0.41363174902E+03  0.70126583578E+03  0.12699999809E+01 0.  1.
</event>
<event>
 5   0  0.3832500E-04  0.1585823E+04  0.7818609E-02  0.8829305E-01
       -3   -1    0    0    0  501  0.00000000000E+00  0.00000000000E+00  0.12286464547E+04  0.12286464588E+04  0.10100000352E+00 0.  1.
        3   -1    0    0  501    0  0.00000000000E+00  0.00000000000E+00 -0.51170830873E+03  0.51170831869E+03  0.10100000352E+00 0. -1.
    10030    2    1    2    0    0  0.00000000000E+00  0.00000000000E+00  0.71693814597E+03  0.17403547775E+04  0.15858229556E+04 0.  0.
        3    1    3    3  502    0 -0.74258524551E+03  0.27377462737E+03  0.41136559722E+03  0.89196808139E+03  0.10100000352E+00 0. -1.
       -3    1    3    3    0  502  0.74258524551E+03 -0.27377462737E+03  0.30557254875E+03  0.84838669615E+03  0.10100000352E+00 0.  1.
</event>
<event>
 5   0  0.1000121E-03  0.1690663E+04  0.7818609E-02  0.8766708E-01
        2   -1    0    0  501    0  0.00000000000E+00  0.00000000000E+00  0.11329976442E+04  0.11329976442E+04  0.25500000920E-02 0. -1.
       -2   -1    0    0    0  501  0.00000000000E+00  0.00000000000E+00 -0.63070309336E+03  0.63070309337E+03  0.25500000920E-02 0.  1.
    10030    2    1    2    0    0  0.00000000000E+00  0.00000000000E+00  0.50229455088E+03  0.17637007376E+04  0.16906627328E+04 0.  0.
        4    1    3    3  502    0  0.47997950214E+03 -0.39997966872E+03  0.84514864743E+03  0.10510194608E+04  0.12699999809E+01 0. -1.
       -4    1    3    3    0  502 -0.47997950214E+03  0.39997966872E+03 -0.34285409655E+03  0.71268127679E+03  0.12699999809E+01 0.  1.
</event>
<event>
 5   0  0.1037321E-03  0.1640439E+04  0.7818609E-02  0.8796083E-01
       -2   -1    0    0    0  501  0.00000000000E+00  0.00000000000E+00  0.65747368142E+03  0.65747368143E+03  0.25500000920E-02 0. -1.
        2   -1    0    0  501    0  0.00000000000E+00  0.00000000000E+00 -0.10232500341E+04  0.10232500341E+04  0.25500000920E-02 0.  1.
    10030    2    1    2    0    0  0.00000000000E+00  0.00000000000E+00 -0.36577635266E+03  0.16807237155E+04  0.16404389253E+04 0.  0.
        5    1    3    3  502    0  0.15472372160E+03 -0.15365836301E+03 -0.99299338432E+03  0.10166652713E+04  0.46999998093E+01 0.  1.
       -5    1    3    3    0  502 -0.15472372160E+03  0.15365836301E+03  0.62721703166E+03  0.66405844423E+03  0.46999998093E+01 0. -1.
</event>
<event>
 5   0  0.1057872E-03  0.1618025E+04  0.7818609E-02  0.8809550E-01
        2   -1    0    0  501    0  0.00000000000E+00  0.00000000000E+00  0.88289028976E+03  0.88289028977E+03  0.25500000920E-02 0.  1.
       -2   -1    0    0    0  501  0.00000000000E+00  0.00000000000E+00 -0.74131656847E+03  0.74131656847E+03  0.25500000920E-02 0. -1.
    10030    2    1    2    0    0  0.00000000000E+00  0.00000000000E+00  0.14157372130E+03  0.16242068582E+04  0.16180249688E+04 0.  0.
        2    1    3    3  502    0  0.42291666094E+01  0.43339971773E+03  0.75651318922E+03  0.87187465077E+03  0.25500000920E-02 0.  1.
       -2    1    3    3    0  502 -0.42291666094E+01 -0.43339971773E+03 -0.61493946793E+03  0.75233220747E+03  0.25500000920E-02 0. -1.
</event>
<event>
 5   0  0.9844690E-04  0.1584123E+04  0.7818609E-02  0.8830362E-01
        2   -1    0    0  501    0  0.00000000000E+00  0.00000000000E+00  0.18262135294E+04  0.18262135294E+04  0.25500000920E-02 0. -1.
       -2   -1    0    0    0  501  0.00000000000E+00  0.00000000000E+00 -0.34353115506E+03  0.34353115507E+03  0.25500000920E-02 0.  1.
    10030    2    1    2    0    0  0.00000000000E+00  0.00000000000E+00  0.14826823743E+04  0.21697446845E+04  0.15841227770E+04 0.  0.
        3    1    3    3  502    0  0.59399077328E+03  0.49930918675E+03  0.95888591097E+03  0.12335302603E+04  0.10100000352E+00 0. -1.
       -3    1    3    3    0  502 -0.59399077328E+03 -0.49930918675E+03  0.52379646335E+03  0.93621442412E+03  0.10100000352E+00 0.  1.
</event>
<event>
 5   0  0.9844690E-04  0.1408501E+04  0.7818609E-02  0.8947688E-01
       -2   -1    0    0    0  501  0.00000000000E+00  0.00000000000E+00  0.64654062130E+03  0.64654062130E+03  0.25500000920E-02 0. -1.
        2   -1    0    0  501    0  0.00000000000E+00  0.00000000000E+00 -0.76711185734E+03  0.76711185735E+03  0.25500000920E-02 0.  1.
    10030    2    1    2    0    0  0.00000000000E+00  0.00000000000E+00 -0.12057123605E+03  0.14136524786E+04  0.14085012983E+04 0.  0.
        3    1    3    3  502    0  0.23437375119E+03  0.65731845752E+03 -0.15534396690E+03  0.71493382078E+03  0.10100000352E+00 0. -1.
       -3    1    3    3    0  502 -0.23437375119E+03 -0.65731845752E+03  0.34772730856E+02  0.69871865787E+03  0.10100000352E+00 0.  1.
</event>
<event>
 5   0  0.1057872E-03  0.1610250E+04  0.7818609E-02  0.8814276E-01
       -2   -1    0    0    0  501  0.00000000000E+00  0.00000000000E+00  0.60429846465E+03  0.60429846466E+03  0.25500000920E-02 0. -1.
        2   -1    0    0  501    0  0.00000000000E+00  0.00000000000E+00 -0.10726922894E+04  0.10726922894E+04  0.25500000920E-02 0.  1.
    10030    2    1    2    0    0  0.00000000000E+00  0.00000000000E+00 -0.46839382473E+03  0.16769907540E+04  0.16102500471E+04 0.  0.
        2    1    3    3  502    0 -0.51307715717E+03  0.16439297435E+03  0.38889254354E+03  0.66446266235E+03  0.25500000920E-02 0. -1.
       -2    1    3    3    0  502  0.51307715717E+03 -0.16439297435E+03 -0.85728636827E+03  0.10125280917E+04  0.25500000920E-02 0.  1.
</event>
<event>
 5   0  0.3832500E-04  0.1577109E+04  0.7818609E-02  0.8834736E-01
        3   -1    0    0  501    0  0.00000000000E+00  0.00000000000E+00  0.25487099492E+03  0.25487101493E+03  0.10100000352E+00 0. -1.
       -3   -1    0    0    0  501  0.00000000000E+00  0.00000000000E+00 -0.24397355900E+04  0.24397355921E+04  0.10100000352E+00 0.  1.
    10030    2    1    2    0    0  0.00000000000E+00  0.00000000000E+00 -0.21848645951E+04  0.26946066070E+04  0.15771085783E+04 0.  0.
        4    1    3    3  502    0  0.28063363077E+03 -0.24545943761E+03 -0.22796277167E+04  0.23099155201E+04  0.12699999809E+01 0.  1.
       -4    1    3    3    0  502 -0.28063363077E+03  0.24545943761E+03  0.94763121652E+02  0.38469108692E+03  0.12699999809E+01 0. -1.
</event>
<event>
 5   0  0.1037321E-03  0.1073119E+04  0.7818609E-02  0.9231795E-01
        2   -1    0    0  501    0  0.00000000000E+00  0.00000000000E+00  0.17896725755E+04  0.17896725755E+04  0.25500000920E-02 0.  1.
       -2   -1    0    0    0  501  0.00000000000E+00  0.00000000000E+00 -0.16086538249E+03  0.16086538251E+03  0.25500000920E-02 0. -1.
    10030    2    1    2    0    0  0.00000000000E+00  0.00000000000E+00  0.16288071930E+04  0.19505379580E+04  0.10731194965E+04 0.  0.
        5    1    3    3  502    0  0.62056666297E+01  0.35523901519E+03  0.83631270802E+02  0.36503362539E+03  0.46999998093E+01 0. -1.
       -5    1    3    3    0  502 -0.62056666297E+01 -0.35523901519E+03  0.15451759222E+04  0.15855043326E+04  0.46999998093E+01 0.  1.
</event>
<event>
 5   0  0.9844690E-04  0.1625810E+04  0.7818609E-02  0.8804847E-01
       -2   -1    0    0    0  501  0.00000000000E+00  0.00000000000E+00  0.87536091298E+03  0.87536091299E+03  0.25500000920E-02 0.  1.
        2   -1    0    0  501    0  0.00000000000E+00  0.00000000000E+00 -0.75490567121E+03  0.75490567121E+03  0.25500000920E-02 0. -1.
    10030    2    1    2    0    0  0.00000000000E+00  0.00000000000E+00  0.12045524178E+03  0.16302665842E+04  0.16258104657E+04 0.  0.
        3    1    3    3  502    0  0.74020288356E+02  0.80926423909E+03  0.39499834180E+02  0.81360178150E+03  0.10100000352E+00 0. -1.
       -3    1    3    3    0  502 -0.74020288356E+02 -0.80926423909E+03  0.80955407597E+02  0.81666480270E+03  0.10100000352E+00 0.  1.
</event>
<event>
 5   0  0.5532881E-04  0.1592014E+04  0.7818609E-02  0.8825469E-01
       -1   -1    0    0    0  501  0.00000000000E+00  0.00000000000E+00  0.11036708856E+04  0.11036708856E+04  0.50400001928E-02 0.  1.
        1   -1    0    0  501    0  0.00000000000E+00  0.00000000000E+00 -0.57410900336E+03  0.57410900339E+03  0.50400001928E-02 0. -1.
    10030    2    1    2    0    0  0.00000000000E+00  0.00000000000E+00  0.52956188220E+03  0.16777798890E+04  0.15920143117E+04 0.  0.
        4    1    3    3  502    0  0.31146218197E+03 -0.66555760072E+03 -0.57728400433E+02  0.73709551063E+03  0.12699999809E+01 0. -1.
       -4    1    3    3    0  502 -0.31146218197E+03  0.66555760072E+03  0.58729028264E+03  0.94068437834E+03  0.12699999809E+01 0.  1.
</event>
<event>
 5   0  0.1030027E-03  0.1889373E+04  0.7818609E-02  0.8660164E-01
       -2   -1    0    0    0  501  0.00000000000E+00  0.00000000000E+00  0.98726686144E+03  0.98726686145E+03  0.25500000920E-02 0.  1.
        2   -1    0    0  501    0  0.00000000000E+00  0.00000000000E+00 -0.90394226959E+03  0.90394226960E+03  0.25500000920E-02 0. -1.
    10030    2    1    2    0    0  0.00000000000E+00  0.00000000000E+00  0.83324591850E+02  0.18912091310E+04  0.18893726445E+04 0.  0.
        1    1    3    3  502    0  0.83116314627E+03 -0.38691034099E+03  0.26970045975E+03  0.95565167592E+03  0.50400001928E-02 0.  1.
       -1    1    3    3    0  502 -0.83116314627E+03  0.38691034099E+03 -0.18637586790E+03  0.93555745512E+03  0.50400001928E-02 0. -1.
</event>
<event>
 5   0  0.1057872E-03  0.1566958E+04  0.7818609E-02  0.8841108E-01
        2   -1    0    0  501    0  0.00000000000E+00  0.00000000000E+00  0.11820835991E+04  0.11820835991E+04  0.25500000920E-02 0.  1.
       -2   -1    0    0    0  501  0.00000000000E+00  0.00000000000E+00 -0.51928617884E+03  0.51928617884E+03  0.25500000920E-02 0. -1.
    10030    2    1    2    0    0  0.00000000000E+00  0.00000000000E+00  0.66279742025E+03  0.17013697779E+04  0.15669584235E+04 0.  0.
        2    1    3    3  502    0  0.34440643733E+03  0.48734725148E+03 -0.21980532053E+03  0.63595402077E+03  0.25500000920E-02 0. -1.
       -2    1    3    3    0  502 -0.34440643733E+03 -0.48734725148E+03  0.88260274078E+03  0.10654157572E+04  0.25500000920E-02 0.  1.
</event>
<event>
 5   0  0.5281116E-04  0.1595545E+04  0.7818609E-02  0.8823290E-01
        1   -1    0    0  501    0  0.00000000000E+00  0.00000000000E+00  0.74959066590E+03  0.74959066592E+03  0.50400001928E-02 0. -1.
       -1   -1    0    0    0  501  0.00000000000E+00  0.00000000000E+00 -0.84905117700E+03  0.84905117702E+03  0.50400001928E-02 0.  1.
    10030    2    1    2    0    0  0.00000000000E+00  0.00000000000E+00 -0.99460511107E+02  0.15986418429E+04  0.15955448438E+04 0.  0.
        2    1    3    3  502    0  0.78581865065E+03  0.79025280750E+02 -0.16257608732E+03  0.80634169610E+03  0.25500000920E-02 0.  1.
       -2    1    3    3    0  502 -0.78581865065E+03 -0.79025280750E+02  0.63115576217E+02  0.79230014683E+03  0.25500000920E-02 0. -1.
</event>
<event>
 5   0  0.1037321E-03  0.1606632E+04  0.7818609E-02  0.8816484E-01
       -2   -1    0    0    0  501  0.00000000000E+00  0.00000000000E+00  0.48027293139E+03  0.48027293140E+03  0.25500000920E-02 0. -1.
        2   -1    0    0  501    0  0.00000000000E+00  0.00000000000E+00 -0.13436463669E+04  0.13436463669E+04  0.25500000920E-02 0.  1.
    10030    2    1    2    0    0  0.00000000000E+00  0.00000000000E+00 -0.86337343552E+03  0.18239192983E+04  0.16066324774E+04 0.  0.
        5    1    3    3  502    0 -0.99532328949E+02 -0.63289578956E+02 -0.13337466506E+04  0.13389602209E+04  0.46999998093E+01 0.  1.
       -5    1    3    3    0  502  0.99532328949E+02  0.63289578956E+02  0.47037321505E+03  0.48495907739E+03  0.46999998093E+01 0. -1.
</event>
<event>
 5   0  0.5623061E-04  0.1672743E+04  0.7818609E-02  0.8777065E-01
       -1   -1    0    0    0  501  0.00000000000E+00  0.00000000000E+00  0.93244750895E+03  0.93244750896E+03  0.50400001928E-02 0.  1.
        1   -1    0    0  501    0  0.00000000000E+00  0.00000000000E+00 -0.75019480756E+03  0.75019480758E+03  0.50400001928E-02 0. -1.
    10030    2    1    2    0    0  0.00000000000E+00  0.00000000000E+00  0.18225270139E+03  0.16826423165E+04  0.16727429923E+04 0.  0.
        3    1    3    3  502    0 -0.43107138171E+02 -0.69400498689E+03  0.55865224578E+03  0.89196047508E+03  0.10100000352E+00 0.  1.
       -3    1    3    3    0  502  0.43107138171E+02  0.69400498689E+03 -0.37639954440E+03  0.79068184146E+03  0.10100000352E+00 0. -1.
</event>
<event>
 5   0  0.5623061E-04  0.1625650E+04  0.7818609E-02  0.8804943E-01
        1   -1    0    0  501    0  0.00000000000E+00  0.00000000000E+00  0.61900028244E+03  0.61900028246E+03  0.50400001928E-02 0. -1.
       -1   -1    0    0    0  501  0.00000000000E+00  0.00000000000E+00 -0.10673409026E+04  0.10673409026E+04  0.50400001928E-02 0.  1.
    10030    2    1    2    0    0  0.00000000000E+00  0.00000000000E+00 -0.44834062016E+03  0.16863411851E+04  0.16256498026E+04 0.  0.
        3    1    3    3  502    0  0.70083473799E+03 -0.13190010175E+03 -0.62875348390E+03  0.95073546296E+03  0.10100000352E+00 0.  1.
       -3    1    3    3    0  502 -0.70083473799E+03  0.13190010175E+03  0.18041286374E+03  0.73560572212E+03  0.10100000352E+00 0. -1.
</event>
<event>
 5   0  0.5532881E-04  0.1249717E+04  0.7818609E-02  0.9070419E-01
        1   -1    0    0  501    0  0.00000000000E+00  0.00000000000E+00  0.45362125631E+03  0.45362125634E+03  0.50400001928E-02 0.  1.
       -1   -1    0    0    0  501  0.00000000000E+00  0.00000000000E+00 -0.86073646632E+03  0.86073646633E+03  0.50400001928E-02 0. -1.
    10030    2    1    2    0    0  0.00000000000E+00  0.00000000000E+00 -0.40711521001E+03  0.13143577227E+04  0.12497173396E+04 0.  0.
        4    1    3    3  502    0 -0.43665633469E+03 -0.34561467017E+03 -0.50164017765E+03  0.74950832923E+03  0.12699999809E+01 0. -1.
       -4    1    3    3    0  502  0.43665633469E+03  0.34561467017E+03  0.94524967643E+02  0.56484939344E+03  0.12699999809E+01 0.  1.
</event>
<event>
 5   0  0.1000121E-03  0.1630838E+04  0.7818609E-02  0.8801824E-01
       -2   -1    0    0    0  501  0.00000000000E+00  0.00000000000E+00  0.56912224522E+03  0.56912224522E+03  0.25500000920E-02 0.  1.
        2   -1    0    0  501    0  0.00000000000E+00  0.00000000000E+00 -0.11683053048E+04  0.11683053048E+04  0.25500000920E-02 0. -1.
    10030    2    1    2    0    0  0.00000000000E+00  0.00000000000E+00 -0.59918305961E+03  0.17374275501E+04  0.16308384815E+04 0.  0.
        4    1    3    3  502    0 -0.22562607905E+03  0.60299319016E+03  0.23351261269E+03  0.68486324774E+03  0.12699999809E+01 0.  1.
       -4    1    3    3    0  502  0.22562607905E+03 -0.60299319016E+03 -0.83269567230E+03  0.10525643023E+04  0.12699999809E+01 0. -1.
</event>
<event>
 5   0  0.1057872E-03  0.1668956E+04  0.7818609E-02  0.8779270E-01
        2   -1    0    0  501    0  0.00000000000E+00  0.00000000000E+00  0.94975471039E+03  0.94975471040E+03  0.25500000920E-02 0. -1.
       -2   -1    0    0    0  501  0.00000000000E+00  0.00000000000E+00 -0.73319337343E+03  0.73319337343E+03  0.25500000920E-02 0.  1.
    10030    2    1    2    0    0  0.00000000000E+00  0.00000000000E+00  0.21656133696E+03  0.16829480838E+04  0.16689563925E+04 0.  0.
        2    1    3    3  502    0 -0.11446335074E+03 -0.34737002810E+03  0.86462614685E+03  0.93880038821E+03  0.25500000920E-02 0. -1.
       -2    1    3    3    0  502  0.11446335074E+03  0.34737002810E+03 -0.64806480988E+03  0.74414769562E+03  0.25500000920E-02 0.  1.
</event>
<event>
 5   0  0.1000121E-03  0.1631414E+04  0.7818609E-02  0.8801478E-01
       -2   -1    0    0    0  501  0.00000000000E+00  0.00000000000E+00  0.49975063675E+03  0.49975063675E+03  0.25500000920E-02 0. -1.
        2   -1    0    0  501    0  0.00000000000E+00  0.00000000000E+00 -0.13314198277E+04  0.13314198277E+04  0.25500000920E-02 0.  1.
    10030    2    1    2    0    0  0.00000000000E+00  0.00000000000E+00 -0.83166919094E+03  0.18311704644E+04  0.16314139961E+04 0.  0.
        4    1    3    3  502    0  0.26803036450E+02 -0.31668768018E+03 -0.12590631823E+04  0.12985573532E+04  0.12699999809E+01 0.  1.
       -4    1    3    3    0  502 -0.26803036450E+02  0.31668768018E+03  0.42739399136E+03  0.53261311127E+03  0.12699999809E+01 0. -1.
</event>
<event>
 5   0  0.1030027E-03  0.1632754E+04  0.7818609E-02  0.8800675E-01
       -2   -1    0    0    0  501  0.00000000000E+00  0.00000000000E+00  0.16675248550E+04  0.16675248550E+04  0.25500000920E-02 0.  1.
        2   -1    0    0  501    0  0.00000000000E+00  0.00000000000E+00 -0.39967712912E+03  0.39967712912E+03  0.25500000920E-02 0. -1.
    10030    2    1    2    0    0  0.00000000000E+00  0.00000000000E+00  0.12678477259E+04  0.20672019841E+04  0.16327541723E+04 0.  0.
        1    1    3    3  502    0 -0.64987612720E+03 -0.42858386715E+03  0.32264140918E+03  0.84268653177E+03  0.50400001928E-02 0. -1.
       -1    1    3    3    0  502  0.64987612720E+03  0.42858386715E+03  0.94520631670E+03  0.12245154523E+04  0.50400001928E-02 0.  1.
</event>
<event>
 5   0  0.9844690E-04  0.1660888E+04  0.7818609E-02  0.8783991E-01
        2   -1    0    0  501    0  0.00000000000E+00  0.00000000000E+00  0.14515008785E+04  0.14515008785E+04  0.25500000920E-02 0. -1.
       -2   -1    0    0    0  501  0.00000000000E+00  0.00000000000E+00 -0.47512024869E+03  0.47512024870E+03  0.25500000920E-02 0.  1.
    10030    2    1    2    0    0  0.00000000000E+00  0.00000000000E+00  0.97638062976E+03  0.19266211272E+04  0.16608882664E+04 0.  0.
        3    1    3    3  502    0 -0.53250260555E+03  0.63678117085E+03  0.51632259963E+03  0.97756755345E+03  0.10100000352E+00 0.  1.
       -3    1    3    3    0  502  0.53250260555E+03 -0.63678117085E+03  0.46005803013E+03  0.94905357371E+03  0.10100000352E+00 0. -1.
</event>
<event>
 5   0  0.5288658E-04  0.1596146E+04  0.7818609E-02  0.8822919E-01
        1   -1    0    0  501    0  0.00000000000E+00  0.00000000000E+00  0.78830694008E+03  0.78830694010E+03  0.50400001928E-02 0. -1.
       -1   -1    0    0    0  501  0.00000000000E+00  0.00000000000E+00 -0.80796008364E+03  0.80796008366E+03  0.50400001928E-02 0.  1.
    10030    2    1    2    0    0  0.00000000000E+00  0.00000000000E+00 -0.19653143560E+02  0.15962670238E+04  0.15961460350E+04 0.  0.
        1    1    3    3  502    0  0.71519361389E+03  0.34291659223E+03 -0.98302745206E+02  0.79922282520E+03  0.50400001928E-02 0. -1.
       -1    1    3    3    0  502 -0.71519361389E+03 -0.34291659223E+03  0.78649601646E+02  0.79704419855E+03  0.50400001928E-02 0.  1.
</event>
<event>
 5   0  0.1057872E-03  0.1648224E+04  0.7818609E-02  0.8791458E-01
        2   -1    0    0  501    0  0.00000000000E+00  0.00000000000E+00  0.12692331385E+04  0.12692331385E+04  0.25500000920E-02 0.  1.
       -2   -1    0    0    0  501  0.00000000000E+00  0.00000000000E+00 -0.53509528250E+03  0.53509528250E+03  0.25500000920E-02 0. -1.
    10030    2    1    2    0    0  0.00000000000E+00  0.00000000000E+00  0.73413785599E+03  0.18043284210E+04  0.16482240925E+04 0.  0.
        2    1    3    3  502    0  0.65769554929E+03 -0.40717771115E+03  0.67825097107E+03  0.10287767026E+04  0.25500000920E-02 0.  1.
       -2    1    3    3    0  502 -0.65769554929E+03  0.40717771115E+03  0.55886884918E+02  0.77555171841E+03  0.25500000920E-02 0. -1.
</event>
<event>
 5   0  0.5281116E-04  0.1671179E+04  0.7818609E-02  0.8777975E-01
       -1   -1    0    0    0  501  0.00000000000E+00  0.00000000000E+00  0.55418524689E+03  0.55418524692E+03  0.50400001928E-02 0.  1.
        1   -1    0    0  501    0  0.00000000000E+00  0.00000000000E+00 -0.12598846162E+04  0.12598846162E+04  0.50400001928E-02 0. -1.
    10030    2    1    2    0    0  0.00000000000E+00  0.00000000000E+00 -0.70569936932E+03  0.18140698631E+04  0.16711785867E+04 0.  0.
        2    1    3    3  502    0  0.80785948481E+03 -0.16709963928E+03 -0.20863604538E+03  0.85093374365E+03  0.25500000920E-02 0.  1.
       -2    1    3    3    0  502 -0.80785948481E+03  0.16709963928E+03 -0.49706332394E+03  0.96313611949E+03  0.25500000920E-02 0. -1.
</event>
<event>
 5   0  0.1000121E-03  0.1584871E+04  0.7818609E-02  0.8829897E-01
       -2   -1    0    0    0  501  0.00000000000E+00  0.00000000000E+00  0.79155277773E+03  0.79155277773E+03  0.25500000920E-02 0. -1.
        2   -1    0    0  501    0  0.00000000000E+00  0.00000000000E+00 -0.79331912141E+03  0.79331912141E+03  0.25500000920E-02 0.  1.
    10030    2    1    2    0    0  0.00000000000E+00  0.00000000000E+00 -0.17663436802E+01  0.15848718991E+04  0.15848709148E+04 0.  0.
        4    1    3    3  502    0  0.15547824828E+03  0.71610120827E+03 -0.30250881417E+03  0.79277211210E+03  0.12699999809E+01 0.  1.
       -4    1    3    3    0  502 -0.15547824828E+03 -0.71610120827E+03  0.30074247049E+03  0.79209978704E+03  0.12699999809E+01 0. -1.
</event>
<event>
 5   0  0.1000121E-03  0.1563751E+04  0.7818609E-02  0.8843132E-01
        2   -1    0    0  501    0  0.00000000000E+00  0.00000000000E+00  0.21701357422E+04  0.21701357422E+04  0.25500000920E-02 0.  1.
       -2   -1    0    0    0  501  0.00000000000E+00  0.00000000000E+00 -0.28170102718E+03  0.28170102720E+03  0.25500000920E-02 0. -1.
    10030    2    1    2    0    0  0.00000000000E+00  0.00000000000E+00  0.18884347150E+04  0.24518367694E+04  0.15637512177E+04 0.  0.
        4    1    3    3  502    0  0.73989685014E+03  0.25271755850E+03  0.95015511800E+03  0.12304917206E+04  0.12699999809E+01 0.  1.
       -4    1    3    3    0  502 -0.73989685014E+03 -0.25271755850E+03  0.93827959703E+03  0.12213450488E+04  0.12699999809E+01 0. -1.
</event>
<event>
 5   0  0.5288658E-04  0.1622717E+04  0.7818609E-02  0.8806712E-01
       -1   -1    0    0    0  501  0.00000000000E+00  0.00000000000E+00  0.73010421907E+03  0.73010421908E+03  0.50400001928E-02 0. -1.
        1   -1    0    0  501    0  0.00000000000E+00  0.00000000000E+00 -0.90165551531E+03  0.90165551532E+03  0.50400001928E-02 0.  1.
    10030    2    1    2    0    0  0.00000000000E+00  0.00000000000E+00 -0.17155129624E+03  0.16317597344E+04  0.16227168526E+04 0.  0.
        1    1    3    3  502    0  0.74445112752E+03 -0.84077677024E+02 -0.39900138334E+03  0.84881013246E+03  0.50400001928E-02 0. -1.
       -1    1    3    3    0  502 -0.74445112752E+03  0.84077677024E+02  0.22745008710E+03  0.78294960194E+03  0.50400001928E-02 0.  1.
</event>
<event>
 5   0  0.5623061E-04  0.1668377E+04  0.7818609E-02  0.8779609E-01
        1   -1    0    0  501    0  0.00000000000E+00  0.00000000000E+00  0.65931105657E+03  0.65931105659E+03  0.50400001928E-02 0. -1.
       -1   -1    0    0    0  501  0.00000000000E+00  0.00000000000E+00 -0.10554503887E+04  0.10554503887E+04  0.50400001928E-02 0.  1.
    10030    2    1    2    0    0  0.00000000000E+00  0.00000000000E+00 -0.39613933210E+03  0.17147614453E+04  0.16683765893E+04 0.  0.
        3    1    3    3  502    0  0.43470708145E+03  0.66895011372E+03  0.52439323002E+02  0.79950884554E+03  0.10100000352E+00 0. -1.
       -3    1    3    3    0  502 -0.43470708145E+03 -0.66895011372E+03 -0.44857865510E+03  0.91525259973E+03  0.10100000352E+00 0.  1.
</event>
<event>
 5   0  0.9844690E-04  0.1629834E+04  0.7818609E-02  0.8802426E-01
        2   -1    0    0  501    0  0.00000000000E+00  0.00000000000E+00  0.49301828074E+03  0.49301828075E+03  0.25500000920E-02 0.  1.
       -2   -1    0    0    0  501  0.00000000000E+00  0.00000000000E+00 -0.13469888296E+04  0.13469888296E+04  0.25500000920E-02 0. -1.
    10030    2    1    2    0    0  0.00000000000E+00  0.00000000000E+00 -0.85397054886E+03  0.18400071104E+04  0.16298344909E+04 0.  0.
        3    1    3    3  502    0  0.21801357673E+03  0.23632886129E+03  0.41838058572E+03  0.52765857808E+03  0.10100000352E+00 0.  1.
       -3    1    3    3    0  502 -0.21801357673E+03 -0.23632886129E+03 -0.12723511346E+04  0.13123485323E+04  0.10100000352E+00 0. -1.
</event>
<event>
 5   0  0.5425525E-04  0.1578968E+04  0.7818609E-02  0.8833574E-01
       -1   -1    0    0    0  501  0.00000000000E+00  0.00000000000E+00  0.12879820208E+04  0.12879820208E+04  0.50400001928E-02 0. -1.
        1   -1    0    0  501    0  0.00000000000E+00  0.00000000000E+00 -0.48392384412E+03  0.48392384415E+03  0.50400001928E-02 0.  1.
    10030    2    1    2    0    0  0.00000000000E+00  0.00000000000E+00  0.80405817666E+03  0.17719058649E+04  0.15789682843E+04 0.  0.
        5    1    3    3  502    0 -0.62641485642E+03 -0.46454958775E+03  0.53974922436E+03  0.94844778824E+03  0.46999998093E+01 0. -1.
       -5    1    3    3    0  502  0.62641485642E+03  0.46454958775E+03  0.26430895230E+03  0.82345807671E+03  0.46999998093E+01 0.  1.
</event>
<event>
 5   0  0.5532881E-04  0.1587832E+04  0.7818609E-02  0.8828058E-01
       -1   -1    0    0    0  501  0.00000000000E+00  0.00000000000E+00  0.46309532124E+03  0.46309532127E+03  0.50400001928E-02 0. -1.
        1   -1    0    0  501    0  0.00000000000E+00  0.00000000000E+00 -0.13610645043E+04  0.13610645043E+04  0.50400001928E-02 0.  1.
    10030    2    1    2    0    0  0.00000000000E+00  0.00000000000E+00 -0.89796918309E+03  0.18241598256E+04  0.15878319859E+04 0.  0.
        4    1    3    3  502    0 -0.46678876495E+03 -0.43035603494E+03 -0.99658693468E+03  0.11816451240E+04  0.12699999809E+01 0.  1.
       -4    1    3    3    0  502  0.46678876495E+03  0.43035603494E+03  0.98617751587E+02  0.64251470157E+03  0.12699999809E+01 0. -1.
</event>
<event>
 5   0  0.1000121E-03  0.1597428E+04  0.7818609E-02  0.8822129E-01
       -2   -1    0    0    0  501  0.00000000000E+00  0.00000000000E+00  0.26651184089E+03  0.26651184090E+03  0.25500000920E-02 0. -1.
        2   -1    0    0  501    0  0.00000000000E+00  0.00000000000E+00 -0.23936806575E+04  0.23936806575E+04  0.25500000920E-02 0.  1.
    10030    2    1    2    0    0  0.00000000000E+00  0.00000000000E+00 -0.21271688166E+04  0.26601924984E+04  0.15974282313E+04 0.  0.
        4    1    3    3  502    0  0.74967327515E+03 -0.92409781035E+02 -0.14958983366E+04  0.16757872876E+04  0.12699999809E+01 0. -1.
       -4    1    3    3    0  502 -0.74967327515E+03  0.92409781035E+02 -0.63127047999E+03  0.98440521073E+03  0.12699999809E+01 0.  1.
</event>
<event>
 5   0  0.1030027E-03  0.1614169E+04  0.7818609E-02  0.8811890E-01
        2   -1    0    0  501    0  0.00000000000E+00  0.00000000000E+00  0.21109837480E+04  0.21109837480E+04  0.25500000920E-02 0.  1.
       -2   -1    0    0    0  501  0.00000000000E+00  0.00000000000E+00 -0.30856961438E+03  0.30856961439E+03  0.25500000920E-02 0. -1.
    10030    2    1    2    0    0  0.00000000000E+00  0.00000000000E+00  0.18024141336E+04  0.24195533624E+04  0.16141690631E+04 0.  0.
        1    1    3    3  502    0 -0.18227026761E+03 -0.55431590752E+03  0.17369916518E+04  0.18323833044E+04  0.50400001928E-02 0.  1.
       -1    1    3    3    0  502  0.18227026761E+03  0.55431590752E+03  0.65422481759E+02  0.58717005793E+03  0.50400001928E-02 0. -1.
</event>
<event>
 5   0  0.5281116E-04  0.1372416E+04  0.7818609E-02  0.8974031E-01
        1   -1    0    0  501    0  0.00000000000E+00  0.00000000000E+00  0.11568847503E+04  0.11568847503E+04  0.50400001928E-02 0.  1.
       -1   -1    0    0    0  501  0.00000000000E+00  0.00000000000E+00 -0.40702537198E+03  0.40702537201E+03  0.50400001928E-02 0. -1.
    10030    2    1    2    0    0  0.00000000000E+00  0.00000000000E+00  0.74985937835E+03  0.15639101224E+04  0.13724160388E+04 0.  0.
        2    1    3    3  502    0 -0.39335123386E+03  0.83674082236E+02  0.10085280914E+04  0.10857511024E+04  0.25500000920E-02 0.  1.
       -2    1    3    3    0  502  0.39335123386E+03 -0.83674082236E+02 -0.25866871308E+03  0.47815901993E+03  0.25500000920E-02 0. -1.
</event>
<event>
 5   0  0.1057872E-03  0.1490430E+04  0.7818609E-02  0.8890842E-01
       -2   -1    0    0    0  501  0.00000000000E+00  0.00000000000E+00  0.99788203969E+03  0.99788203970E+03  0.25500000920E-02 0.  1.
        2   -1    0    0  501    0  0.00000000000E+00  0.00000000000E+00 -0.55652434107E+03  0.55652434107E+03  0.25500000920E-02 0. -1.
    10030    2    1    2    0    0  0.00000000000E+00  0.00000000000E+00  0.44135769863E+03  0.15544063808E+04  0.14904303333E+04 0.  0.
        2    1    3    3  502    0  0.19472876258E+03  0.36061906926E+01 -0.52951189938E+03  0.56419424596E+03  0.25500000920E-02 0. -1.
       -2    1    3    3    0  502 -0.19472876258E+03 -0.36061906926E+01  0.97086959801E+03  0.99021213481E+03  0.25500000920E-02 0.  1.
</event>
<event>
 5   0  0.1030027E-03  0.1595996E+04  0.7818609E-02  0.8823012E-01
        2   -1    0    0  501    0  0.00000000000E+00  0.00000000000E+00  0.11508676861E+04  0.11508676861E+04  0.25500000920E-02 0.  1.
       -2   -1    0    0    0  501  0.00000000000E+00  0.00000000000E+00 -0.55332230130E+03  0.55332230131E+03  0.25500000920E-02 0. -1.
    10030    2    1    2    0    0  0.00000000000E+00  0.00000000000E+00  0.59754538477E+03  0.17041899874E+04  0.15959959355E+04 0.  0.
        1    1    3    3  502    0  0.74551431820E+03 -0.55314430761E+02  0.65152288984E+00  0.74756384972E+03  0.50400001928E-02 0.  1.
       -1    1    3    3    0  502 -0.74551431820E+03  0.55314430761E+02  0.59689386188E+03  0.95662613767E+03  0.50400001928E-02 0. -1.
</event>
<event>
 5   0  0.9844690E-04  0.1730372E+04  0.7818609E-02  0.8744229E-01
       -2   -1    0    0    0  501  0.00000000000E+00  0.00000000000E+00  0.61411819630E+03  0.61411819631E+03  0.25500000920E-02 0. -1.
        2   -1    0    0  501    0  0.00000000000E+00  0.00000000000E+00 -0.12188964259E+04  0.12188964260E+04  0.25500000920E-02 0.  1.
    10030    2    1    2    0    0  0.00000000000E+00  0.00000000000E+00 -0.60477822965E+03  0.18330146223E+04  0.17303716070E+04 0.  0.
        3    1    3    3  502    0 -0.18387920391E+03 -0.72878084641E+03 -0.75630848152E+03  0.10662718289E+04  0.10100000352E+00 0.  1.
       -3    1    3    3    0  502  0.18387920391E+03  0.72878084641E+03  0.15153025187E+03  0.76674279335E+03  0.10100000352E+00 0. -1.
</event>
<event>
 5   0  0.1057872E-03  0.1576509E+04  0.7818609E-02  0.8835111E-01
        2   -1    0    0  501    0  0.00000000000E+00  0.00000000000E+00  0.14072718872E+04  0.14072718872E+04  0.25500000920E-02 0.  1.
       -2   -1    0    0    0  501  0.00000000000E+00  0.00000000000E+00 -0.44152432448E+03  0.44152432449E+03  0.25500000920E-02 0. -1.
    10030    2    1    2    0    0  0.00000000000E+00  0.00000000000E+00  0.96574756275E+03  0.18487962117E+04  0.15765085085E+04 0.  0.
        2    1    3    3  502    0 -0.60347388906E+02 -0.77392158223E+03  0.64344740583E+03  0.10082762453E+04  0.25500000920E-02 0. -1.
       -2    1    3    3    0  502  0.60347388906E+02  0.77392158223E+03  0.32230015693E+03  0.84051996642E+03  0.25500000920E-02 0.  1.
</event>
<event>
 5   0  0.5425525E-04  0.1523645E+04  0.7818609E-02  0.8868880E-01
        1   -1    0    0  501    0  0.00000000000E+00  0.00000000000E+00  0.59169742600E+03  0.59169742603E+03  0.50400001928E-02 0. -1.
       -1   -1    0    0    0  501  0.00000000000E+00  0.00000000000E+00 -0.98086145009E+03  0.98086145010E+03  0.50400001928E-02 0.  1.
    10030    2    1    2    0    0  0.00000000000E+00  0.00000000000E+00 -0.38916402409E+03  0.15725588761E+04  0.15236445718E+04 0.  0.
        5    1    3    3  502    0 -0.58043426135E+03 -0.49045277213E+03 -0.25019363931E+03  0.80004174928E+03  0.46999998093E+01 0. -1.
       -5    1    3    3    0  502  0.58043426135E+03  0.49045277213E+03 -0.13897038477E+03  0.77251712685E+03  0.46999998093E+01 0.  1.
</event>
<event>
 5   0  0.1000121E-03  0.1586529E+04  0.7818609E-02  0.8828867E-01
        2   -1    0    0  501    0  0.00000000000E+00  0.00000000000E+00  0.57833915576E+03  0.57833915577E+03  0.25500000920E-02 0.  1.
       -2   -1    0    0    0  501  0.00000000000E+00  0.00000000000E+00 -0.10880610663E+04  0.10880610663E+04  0.25500000920E-02 0. -1.
    10030    2    1    2    0    0  0.00000000000E+00  0.00000000000E+00 -0.50972191049E+03  0.16664002220E+04  0.15865286868E+04 0.  0.
        4    1    3    3  502    0 -0.76886294724E+03 -0.15993599851E+02 -0.50486984365E+02  0.77068578251E+03  0.12699999809E+01 0.  1.
       -4    1    3    3    0  502  0.76886294724E+03  0.15993599851E+02 -0.45923492613E+03  0.89571443951E+03  0.12699999809E+01 0. -1.
</event>
<event>
 5   0  0.5623061E-04  0.1665534E+04  0.7818609E-02  0.8781269E-01
       -1   -1    0    0    0  501  0.00000000000E+00  0.00000000000E+00  0.61050642646E+03  0.61050642649E+03  0.50400001928E-02 0. -1.
        1   -1    0    0  501    0  0.00000000000E+00  0.00000000000E+00 -0.11359442772E+04  0.11359442772E+04  0.50400001928E-02 0.  1.
    10030    2    1    2    0    0  0.00000000000E+00  0.00000000000E+00 -0.52543785074E+03  0.17464507037E+04  0.16655344864E+04 0.  0.
        3    1    3    3  502    0  0.77929616861E+03 -0.21014799322E+03 -0.47729867169E+02  0.80854365861E+03  0.10100000352E+00 0.  1.
       -3    1    3    3    0  502 -0.77929616861E+03  0.21014799322E+03 -0.47770798357E+03  0.93790704509E+03  0.10100000352E+00 0. -1.
</event>
<event>
 5   0  0.5288658E-04  0.1620079E+04  0.7818609E-02  0.8808307E-01
        1   -1    0    0  501    0  0.00000000000E+00  0.00000000000E+00  0.44041735711E+03  0.44041735714E+03  0.50400001928E-02 0.  1.
       -1   -1    0    0    0  501  0.00000000000E+00  0.00000000000E+00 -0.14898686486E+04  0.14898686486E+04  0.50400001928E-02 0. -1.
    10030    2    1    2    0    0  0.00000000000E+00  0.00000000000E+00 -0.10494512914E+04  0.19302860057E+04  0.16200790261E+04 0.  0.
        1    1    3    3  502    0  0.91665793390E+02 -0.47522931403E+03 -0.12986521923E+04  0.13859087398E+04  0.50400001928E-02 0. -1.
       -1    1    3    3    0  502 -0.91665793390E+02  0.47522931403E+03  0.24920090084E+03  0.54437726587E+03  0.50400001928E-02 0.  1.
</event>
<event>
 5   0  0.9844690E-04  0.1598333E+04  0.7818609E-02  0.8821573E-01
        2   -1    0    0  501    0  0.00000000000E+00  0.00000000000E+00  0.68515243826E+03  0.68515243826E+03  0.25500000920E-02 0.  1.
       -2   -1    0    0    0  501  0.00000000000E+00  0.00000000000E+00 -0.93215286128E+03  0.93215286128E+03  0.25500000920E-02 0. -1.
    10030    2    1    2    0    0  0.00000000000E+00  0.00000000000E+00 -0.24700042302E+03  0.16173052995E+04  0.15983326384E+04 0.  0.
        3    1    3    3  502    0 -0.22821594397E+03 -0.57075517339E+03 -0.64027060798E+03  0.88757560054E+03  0.10100000352E+00 0. -1.
       -3    1    3    3    0  502  0.22821594397E+03  0.57075517339E+03  0.39327018496E+03  0.72972969900E+03  0.10100000352E+00 0.  1.
</event>
<event>
 5   0  0.3832500E-04  0.1621037E+04  0.7818609E-02  0.8807728E-01
       -3   -1    0    0    0  501  0.00000000000E+00  0.00000000000E+00  0.56682045944E+03  0.56682046844E+03  0.10100000352E+00 0.  1.
        3   -1    0    0  501    0  0.00000000000E+00  0.00000000000E+00 -0.11589912241E+04  0.11589912285E+04  0.10100000352E+00 0. -1.
    10030    2    1    2    0    0  0.00000000000E+00  0.00000000000E+00 -0.59217076467E+03  0.17258116970E+04  0.16210366433E+04 0.  0.
        2    1    3    3  502    0 -0.39709620568E+03 -0.11494681607E+03  0.44614269422E+03  0.60822814034E+03  0.25500000920E-02 0.  1.
       -2    1    3    3    0  502  0.39709620568E+03  0.11494681607E+03 -0.10383134589E+04  0.11175835566E+04  0.25500000920E-02 0. -1.
</event>
<event>
 5   0  0.5623061E-04  0.1581402E+04  0.7818609E-02  0.8832056E-01
       -1   -1    0    0    0  501  0.00000000000E+00  0.00000000000E+00  0.85410740598E+03  0.85410740600E+03  0.50400001928E-02 0.  1.
        1   -1    0    0  501    0  0.00000000000E+00  0.00000000000E+00 -0.73200134417E+03  0.73200134419E+03  0.50400001928E-02 0. -1.
    10030    2    1    2    0    0  0.00000000000E+00  0.00000000000E+00  0.12210606181E+03  0.15861087502E+04  0.15814016179E+04 0.  0.
        3    1    3    3  502    0  0.20291856622E+03 -0.72603027434E+03 -0.17821912023E+03  0.77463408703E+03  0.10100000352E+00 0. -1.
       -3    1    3    3    0  502 -0.20291856622E+03  0.72603027434E+03  0.30032518204E+03  0.81147466316E+03  0.10100000352E+00 0.  1.
</event>
<event>
 5   0  0.5532881E-04  0.1364414E+04  0.7818609E-02  0.8979988E-01
        1   -1    0    0  501    0  0.00000000000E+00  0.00000000000E+00  0.63273027404E+03  0.63273027406E+03  0.50400001928E-02 0. -1.
       -1   -1    0    0    0  501  0.00000000000E+00  0.00000000000E+00 -0.73555205796E+03  0.73555205797E+03  0.50400001928E-02 0.  1.
    10030    2    1    2    0    0  0.00000000000E+00  0.00000000000E+00 -0.10282178392E+03  0.13682823320E+04  0.13644135080E+04 0.  0.
        4    1    3    3  502    0 -0.50650213547E+03  0.39442221016E+03  0.18009244301E+03  0.66674447432E+03  0.12699999809E+01 0. -1.
       -4    1    3    3    0  502  0.50650213547E+03 -0.39442221016E+03 -0.28291422693E+03  0.70153785771E+03  0.12699999809E+01 0.  1.
</event>
<event>
 5   0  0.5425525E-04  0.1554753E+04  0.7818609E-02  0.8848837E-01
        1   -1    0    0  501    0  0.00000000000E+00  0.00000000000E+00  0.12452527830E+04  0.12452527831E+04  0.50400001928E-02 0. -1.
       -1   -1    0    0    0  501  0.00000000000E+00  0.00000000000E+00 -0.48529442815E+03  0.48529442817E+03  0.50400001928E-02 0.  1.
    10030    2    1    2    0    0  0.00000000000E+00  0.00000000000E+00  0.75995835490E+03  0.17305472112E+04  0.15547530187E+04 0.  0.
        5    1    3    3  502    0  0.16198850454E+03 -0.44399494572E+03  0.10669513354E+04  0.11669528824E+04  0.46999998093E+01 0. -1.
       -5    1    3    3    0  502 -0.16198850454E+03  0.44399494572E+03 -0.30699298055E+03  0.56359432887E+03  0.46999998093E+01 0.  1.
</event>
<event>
 5   0  0.5532881E-04  0.1600614E+04  0.7818609E-02  0.8820171E-01
        1   -1    0    0  501    0  0.00000000000E+00  0.00000000000E+00  0.13319095570E+04  0.13319095571E+04  0.50400001928E-02 0. -1.
       -1   -1    0    0    0  501  0.00000000000E+00  0.00000000000E+00 -0.48088216883E+03  0.48088216885E+03  0.50400001928E-02 0.  1.
    10030    2    1    2    0    0  0.00000000000E+00  0.00000000000E+00  0.85102738822E+03  0.18127917259E+04  0.16006143277E+04 0.  0.
        4    1    3    3  502    0  0.12367960748E+03 -0.77736840480E+03  0.26181406306E+03  0.82954595931E+03  0.12699999809E+01 0.  1.
       -4    1    3    3    0  502 -0.12367960748E+03  0.77736840480E+03  0.58921332516E+03  0.98324576660E+03  0.12699999809E+01 0. -1.
</event>
<event>
 5   0  0.9844690E-04  0.1603351E+04  0.7818609E-02  0.8818492E-01
        2   -1    0    0  501    0  0.00000000000E+00  0.00000000000E+00  0.62224398051E+03  0.62224398051E+03  0.25500000920E-02 0.  1.
       -2   -1    0    0    0  501  0.00000000000E+00  0.00000000000E+00 -0.10328485953E+04  0.10328485953E+04  0.25500000920E-02 0. -1.
    10030    2    1    2    0    0  0.00000000000E+00  0.00000000000E+00 -0.41060461478E+03  0.16550925758E+04  0.16033512668E+04 0.  0.
        3    1    3    3  502    0  0.63662192684E+03  0.14825046256E+01  0.29765208389E+03  0.70277055203E+03  0.10100000352E+00 0.  1.
       -3    1    3    3    0  502 -0.63662192684E+03 -0.14825046256E+01 -0.70825669867E+03  0.95232202378E+03  0.10100000352E+00 0. -1.
</event>
<event>
 5   0  0.5532881E-04  0.1489375E+04  0.7818609E-02  0.8891549E-01
        1   -1    0    0  501    0  0.00000000000E+00  0.00000000000E+00  0.15669569398E+04  0.15669569398E+04  0.50400001928E-02 0. -1.
       -1   -1    0    0    0  501  0.00000000000E+00  0.00000000000E+00 -0.35390870503E+03  0.35390870507E+03  0.50400001928E-02 0.  1.
    10030    2    1    2    0    0  0.00000000000E+00  0.00000000000E+00  0.12130482348E+04  0.19208656449E+04  0.14893753072E+04 0.  0.
        4    1    3    3  502    0 -0.15822790478E+03  0.51782658124E+03 -0.52842665457E+02  0.54403529140E+03  0.12699999809E+01 0.  1.
       -4    1    3    3    0  502  0.15822790478E+03 -0.51782658124E+03  0.12658909002E+04  0.13768303535E+04  0.12699999809E+01 0. -1.
</event>
<event>
 5   0  0.9844690E-04  0.1212285E+04  0.7818609E-02  0.9102171E-01
       -2   -1    0    0    0  501  0.00000000000E+00  0.00000000000E+00  0.23929257088E+03  0.23929257089E+03  0.25500000920E-02 0. -1.
        2   -1    0    0  501    0  0.00000000000E+00  0.00000000000E+00 -0.15353945860E+04  0.15353945860E+04  0.25500000920E-02 0.  1.
    10030    2    1    2    0    0  0.00000000000E+00  0.00000000000E+00 -0.12961020151E+04  0.17746871569E+04  0.12122846494E+04 0.  0.
        3    1    3    3  502    0 -0.44701927832E+03 -0.34296470886E+03 -0.97525414997E+03  0.11263088803E+04  0.10100000352E+00 0.  1.
       -3    1    3    3    0  502  0.44701927832E+03  0.34296470886E+03 -0.32084786513E+03  0.64837827653E+03  0.10100000352E+00 0. -1.
</event>
<event>
 5   0  0.1000121E-03  0.1658658E+04  0.7818609E-02  0.8785301E-01
        2   -1    0    0  501    0  0.00000000000E+00  0.00000000000E+00  0.85926144099E+03  0.85926144100E+03  0.25500000920E-02 0.  1.
       -2   -1    0    0    0  501  0.00000000000E+00  0.00000000000E+00 -0.80043969560E+03  0.80043969560E+03  0.25500000920E-02 0. -1.
    10030    2    1    2    0    0  0.00000000000E+00  0.00000000000E+00  0.58821745396E+02  0.16597011366E+04  0.16586584534E+04 0.  0.
        4    1    3    3  502    0 -0.19785625985E+03  0.65171396576E+03  0.50289662628E+03  0.84663145603E+03  0.12699999809E+01 0.  1.
       -4    1    3    3    0  502  0.19785625985E+03 -0.65171396576E+03 -0.44407488088E+03  0.81306968056E+03  0.12699999809E+01 0. -1.
</event>
<event>
 5   0  0.5532881E-04  0.1668767E+04  0.7818609E-02  0.8779381E-01
       -1   -1    0    0    0  501  0.00000000000E+00  0.00000000000E+00  0.68631660438E+03  0.68631660439E+03  0.50400001928E-02 0.  1.
        1   -1    0    0  501    0  0.00000000000E+00  0.00000000000E+00 -0.10143939606E+04  0.10143939606E+04  0.50400001928E-02 0. -1.
    10030    2    1    2    0    0  0.00000000000E+00  0.00000000000E+00 -0.32807735624E+03  0.17007105650E+04  0.16687665128E+04 0.  0.
        4    1    3    3  502    0 -0.65209530623E+03 -0.45364517401E+03 -0.42421270351E+03  0.90054442590E+03  0.12699999809E+01 0. -1.
       -4    1    3    3    0  502  0.65209530623E+03  0.45364517401E+03  0.96135347266E+02  0.80016613912E+03  0.12699999809E+01 0.  1.
</event>
<event>
 5   0  0.5288658E-04  0.1545826E+04  0.7818609E-02  0.8854539E-01
       -1   -1    0    0    0  501  0.00000000000E+00  0.00000000000E+00  0.72812882720E+03  0.72812882722E+03  0.50400001928E-02 0. -1.
        1   -1    0    0  501    0  0.00000000000E+00  0.00000000000E+00 -0.82045123477E+03  0.82045123478E+03  0.50400001928E-02 0.  1.
    10030    2    1    2    0    0  0.00000000000E+00  0.00000000000E+00 -0.92322407566E+02  0.15485800620E+04  0.15458255987E+04 0.  0.
        1    1    3    3  502    0  0.61371646948E+03  0.41154260234E+03 -0.27323441126E+03  0.78782755852E+03  0.50400001928E-02 0.  1.
       -1    1    3    3    0  502 -0.61371646948E+03 -0.41154260234E+03  0.18091200369E+03  0.76075250348E+03  0.50400001928E-02 0. -1.
</event>
<event>
 5   0  0.1057872E-03  0.1515021E+04  0.7818609E-02  0.8874525E-01
       -2   -1    0    0    0  501  0.00000000000E+00  0.00000000000E+00  0.43840062909E+03  0.43840062909E+03  0.25500000920E-02 0. -1.
        2   -1    0    0  501    0  0.00000000000E+00  0.00000000000E+00 -0.13088983115E+04  0.13088983115E+04  0.25500000920E-02 0.  1.
    10030    2    1    2    0    0  0.00000000000E+00  0.00000000000E+00 -0.87049768238E+03  0.17472989406E+04  0.15150205849E+04 0.  0.
        2    1    3    3  502    0  0.32047292563E+03 -0.18373662451E+03  0.32747638602E+03  0.49366266484E+03  0.25500000920E-02 0. -1.
       -2    1    3    3    0  502 -0.32047292563E+03  0.18373662451E+03 -0.11979740684E+04  0.12536362757E+04  0.25500000920E-02 0.  1.
</event>
<event>
 5   0  0.9844690E-04  0.1611788E+04  0.7818609E-02  0.8813339E-01
       -2   -1    0    0    0  501  0.00000000000E+00  0.00000000000E+00  0.42902694197E+03  0.42902694198E+03  0.25500000920E-02 0.  1.
        2   -1    0    0  501    0  0.00000000000E+00  0.00000000000E+00 -0.15138090491E+04  0.15138090491E+04  0.25500000920E-02 0. -1.
    10030    2    1    2    0    0  0.00000000000E+00  0.00000000000E+00 -0.10847821071E+04  0.19428359911E+04  0.16117876623E+04 0.  0.
        3    1    3    3  502    0 -0.25496497174E+01  0.51302528731E+03 -0.12915433215E+04  0.13897070223E+04  0.10100000352E+00 0. -1.
       -3    1    3    3    0  502  0.25496497174E+01 -0.51302528731E+03  0.20676121443E+03  0.55312896880E+03  0.10100000352E+00 0.  1.
</event>
<event>
 5   0  0.5532881E-04  0.1614413E+04  0.7818609E-02  0.8811742E-01
        1   -1    0    0  501    0  0.00000000000E+00  0.00000000000E+00  0.90577485738E+03  0.90577485739E+03  0.50400001928E-02 0. -1.
       -1   -1    0    0    0  501  0.00000000000E+00  0.00000000000E+00 -0.71936491518E+03  0.71936491520E+03  0.50400001928E-02 0.  1.
    10030    2    1    2    0    0  0.00000000000E+00  0.00000000000E+00  0.18640994220E+03  0.16251397726E+04  0.16144133962E+04 0.  0.
        4    1    3    3  502    0  0.29325903371E+03 -0.27580411360E+02  0.84974307682E+03  0.89934779115E+03  0.12699999809E+01 0. -1.
       -4    1    3    3    0  502 -0.29325903371E+03  0.27580411360E+02 -0.66333313462E+03  0.72579198145E+03  0.12699999809E+01 0.  1.
</event>
<event>
 5   0  0.5281116E-04  0.1531013E+04  0.7818609E-02  0.8864088E-01
       -1   -1    0    0    0  501  0.00000000000E+00  0.00000000000E+00  0.65146610518E+03  0.65146610520E+03  0.50400001928E-02 0.  1.
        1   -1    0    0  501    0  0.00000000000E+00  0.00000000000E+00 -0.89950982247E+03  0.89950982249E+03  0.50400001928E-02 0. -1.
    10030    2    1    2    0    0  0.00000000000E+00  0.00000000000E+00 -0.24804371729E+03  0.15509759277E+04  0.15310129466E+04 0.  0.
        2    1    3    3  502    0  0.54493657244E+03  0.24338754422E+03  0.36161051232E+03  0.69782198826E+03  0.25500000920E-02 0.  1.
       -2    1    3    3    0  502 -0.54493657244E+03 -0.24338754422E+03 -0.60965422962E+03  0.85315393943E+03  0.25500000920E-02 0. -1.
</event>
<event>
 5   0  0.5288658E-04  0.1574104E+04  0.7818609E-02  0.8836617E-01
        1   -1    0    0  501    0  0.00000000000E+00  0.00000000000E+00  0.13861753460E+04  0.13861753460E+04  0.50400001928E-02 0.  1.
       -1   -1    0    0    0  501  0.00000000000E+00  0.00000000000E+00 -0.44687760538E+03  0.44687760541E+03  0.50400001928E-02 0. -1.
    10030    2    1    2    0    0  0.00000000000E+00  0.00000000000E+00  0.93929774064E+03  0.18330529514E+04  0.15741038330E+04 0.  0.
        1    1    3    3  502    0  0.14175867605E+03 -0.39363223407E+03  0.12459549532E+04  0.13143232492E+04  0.50400001928E-02 0.  1.
       -1    1    3    3    0  502 -0.14175867605E+03  0.39363223407E+03 -0.30665721257E+03  0.51872970223E+03  0.50400001928E-02 0. -1.
</event>
<event>
 5   0  0.1057872E-03  0.1489430E+04  0.7818609E-02  0.8891513E-01
       -2   -1    0    0    0  501  0.00000000000E+00  0.00000000000E+00  0.55685873568E+03  0.55685873568E+03  0.25500000920E-02 0. -1.
        2   -1    0    0  501    0  0.00000000000E+00  0.00000000000E+00 -0.99594391663E+03  0.99594391663E+03  0.25500000920E-02 0.  1.
    10030    2    1    2    0    0  0.00000000000E+00  0.00000000000E+00 -0.43908518095E+03  0.15528026523E+04  0.14894295153E+04 0.  0.
        2    1    3    3  502    0 -0.17853752830E+03  0.72211607434E+03 -0.18234834300E+03  0.76588392856E+03  0.25500000920E-02 0. -1.
       -2    1    3    3    0  502  0.17853752830E+03 -0.72211607434E+03 -0.25673683795E+03  0.78691872376E+03  0.25500000920E-02 0.  1.
</event>
<event>
 5   0  0.5425525E-04  0.1662435E+04  0.7818609E-02  0.8783084E-01
       -1   -1    0    0    0  501  0.00000000000E+00  0.00000000000E+00  0.17256741307E+04  0.17256741307E+04  0.50400001928E-02 0. -1.
        1   -1    0    0  501    0  0.00000000000E+00  0.00000000000E+00 -0.40037819632E+03  0.40037819635E+03  0.50400001928E-02 0.  1.
    10030    2    1    2    0    0  0.00000000000E+00  0.00000000000E+00  0.13252959343E+04  0.21260523270E+04  0.16624347156E+04 0.  0.
        5    1    3    3  502    0 -0.48776859065E+03  0.54650465802E+03  0.11650286737E+04  0.13761901903E+04  0.46999998093E+01 0.  1.
       -5    1    3    3    0  502  0.48776859065E+03 -0.54650465802E+03  0.16026726061E+03  0.74986213672E+03  0.46999998093E+01 0. -1.
</event>
<event>
 5   0  0.5623061E-04  0.1076988E+04  0.7818609E-02  0.9227916E-01
       -1   -1    0    0    0  501  0.00000000000E+00  0.00000000000E+00  0.52105642671E+03  0.52105642674E+03  0.50400001928E-02 0.  1.
        1   -1    0    0  501    0  0.00000000000E+00  0.00000000000E+00 -0.55651512250E+03  0.55651512252E+03  0.50400001928E-02 0. -1.
    10030    2    1    2    0    0  0.00000000000E+00  0.00000000000E+00 -0.35458695787E+02  0.10775715493E+04  0.10769879872E+04 0.  0.
        3    1    3    3  502    0 -0.84993821059E+02 -0.44044337018E+03 -0.31581939338E+03  0.54859476063E+03  0.10100000352E+00 0. -1.
       -3    1    3    3    0  502  0.84993821059E+02  0.44044337018E+03  0.28036069759E+03  0.52897678863E+03  0.10100000352E+00 0.  1.
</event>
<event>
 5   0  0.9844690E-04  0.1590946E+04  0.7818609E-02  0.8826130E-01
        2   -1    0    0  501    0  0.00000000000E+00  0.00000000000E+00  0.16916627313E+04  0.16916627313E+04  0.25500000920E-02 0. -1.
       -2   -1    0    0    0  501  0.00000000000E+00  0.00000000000E+00 -0.37405619973E+03  0.37405619974E+03  0.25500000920E-02 0.  1.
    10030    2    1    2    0    0  0.00000000000E+00  0.00000000000E+00  0.13176065316E+04  0.20657189311E+04  0.15909455459E+04 0.  0.
        3    1    3    3  502    0  0.73150805879E+03 -0.21328624802E+03  0.95540636628E+03  0.12220459887E+04  0.10100000352E+00 0. -1.
       -3    1    3    3    0  502 -0.73150805879E+03  0.21328624802E+03  0.36220016533E+03  0.84367294234E+03  0.10100000352E+00 0.  1.
</event>
<event>
 5   0  0.9844690E-04  0.1614371E+04  0.7818609E-02  0.8811768E-01
       -2   -1    0    0    0  501  0.00000000000E+00  0.00000000000E+00  0.59202117807E+03  0.59202117808E+03  0.25500000920E-02 0. -1.
        2   -1    0    0  501    0  0.00000000000E+00  0.00000000000E+00 -0.11005489548E+04  0.11005489548E+04  0.25500000920E-02 0.  1.
    10030    2    1    2    0    0  0.00000000000E+00  0.00000000000E+00 -0.50852777670E+03  0.16925701329E+04  0.16143708232E+04 0.  0.
        3    1    3    3  502    0  0.45383490842E+03  0.24664510632E+03  0.39606306469E+03  0.65089622366E+03  0.10100000352E+00 0. -1.
       -3    1    3    3    0  502 -0.45383490842E+03 -0.24664510632E+03 -0.90459084138E+03  0.10416739092E+04  0.10100000352E+00 0.  1.
</event>
<event>
 5   0  0.5288658E-04  0.1573254E+04  0.7818609E-02  0.8837149E-01
       -1   -1    0    0    0  501  0.00000000000E+00  0.00000000000E+00  0.70419741207E+03  0.70419741208E+03  0.50400001928E-02 0. -1.
        1   -1    0    0  501    0  0.00000000000E+00  0.00000000000E+00 -0.87870570549E+03  0.87870570550E+03  0.50400001928E-02 0.  1.
    10030    2    1    2    0    0  0.00000000000E+00  0.00000000000E+00 -0.17450829342E+03  0.15829031176E+04  0.15732543136E+04 0.  0.
        1    1    3    3  502    0 -0.60623357549E+03  0.31350032745E+03 -0.48078038791E+03  0.83483614248E+03  0.50400001928E-02 0.  1.
       -1    1    3    3    0  502  0.60623357549E+03 -0.31350032745E+03  0.30627209448E+03  0.74806697511E+03  0.50400001928E-02 0. -1.
</event>
<event>
 5   0  0.1030027E-03  0.1581731E+04  0.7818609E-02  0.8831850E-01
       -2   -1    0    0    0  501  0.00000000000E+00  0.00000000000E+00  0.27526095841E+03  0.27526095842E+03  0.25500000920E-02 0.  1.
        2   -1    0    0  501    0  0.00000000000E+00  0.00000000000E+00 -0.22722746556E+04  0.22722746556E+04  0.25500000920E-02 0. -1.
    10030    2    1    2    0    0  0.00000000000E+00  0.00000000000E+00 -0.19970136972E+04  0.25475356141E+04  0.15817313293E+04 0.  0.
        1    1    3    3  502    0 -0.29021449011E+03 -0.73415901248E+03 -0.10749822352E+04  0.13337168785E+04  0.50400001928E-02 0. -1.
       -1    1    3    3    0  502  0.29021449011E+03  0.73415901248E+03 -0.92203146201E+03  0.12138187356E+04  0.50400001928E-02 0.  1.
</event>
<event>
 5   0  0.5281116E-04  0.1599138E+04  0.7818609E-02  0.8821078E-01
       -1   -1    0    0    0  501  0.00000000000E+00  0.00000000000E+00  0.29572327210E+03  0.29572327214E+03  0.50400001928E-02 0. -1.
        1   -1    0    0  501    0  0.00000000000E+00  0.00000000000E+00 -0.21618535812E+04  0.21618535812E+04  0.50400001928E-02 0.  1.
    10030    2    1    2    0    0  0.00000000000E+00  0.00000000000E+00 -0.18661303091E+04  0.24575768534E+04  0.15991377863E+04 0.  0.
        2    1    3    3  502    0  0.46565193378E+02 -0.39179129071E+03 -0.20018322735E+04  0.20403433985E+04  0.25500000920E-02 0.  1.
       -2    1    3    3    0  502 -0.46565193378E+02  0.39179129071E+03  0.13570196436E+03  0.41723345485E+03  0.25500000920E-02 0. -1.
</event>
<event>
 5   0  0.5288658E-04  0.1629796E+04  0.7818609E-02  0.8802449E-01
       -1   -1    0    0    0  501  0.00000000000E+00  0.00000000000E+00  0.36393404858E+03  0.36393404862E+03  0.50400001928E-02 0. -1.
        1   -1    0    0  501    0  0.00000000000E+00  0.00000000000E+00 -0.18246685534E+04  0.18246685534E+04  0.50400001928E-02 0.  1.
    10030    2    1    2    0    0  0.00000000000E+00  0.00000000000E+00 -0.14607345048E+04  0.21886026020E+04  0.16297963235E+04 0.  0.
        1    1    3    3  502    0  0.54227762873E+03  0.50885061357E+03 -0.28283713538E+03  0.79560720128E+03  0.50400001928E-02 0. -1.
       -1    1    3    3    0  502 -0.54227762873E+03 -0.50885061357E+03 -0.11778973694E+04  0.13929954008E+04  0.50400001928E-02 0.  1.
</event>
<event>
 5   0  0.1037321E-03  0.1776603E+04  0.7818609E-02  0.8718842E-01
        2   -1    0    0  501    0  0.00000000000E+00  0.00000000000E+00  0.13379954903E+04  0.13379954903E+04  0.25500000920E-02 0.  1.
       -2   -1    0    0    0  501  0.00000000000E+00  0.00000000000E+00 -0.58974732353E+03  0.58974732354E+03  0.25500000920E-02 0. -1.
    10030    2    1    2    0    0  0.00000000000E+00  0.00000000000E+00  0.74824816680E+03  0.19277428139E+04  0.17766026673E+04 0.  0.
        5    1    3    3  502    0 -0.37834124481E+03  0.53104733529E+03  0.10286880261E+04  0.12179386335E+04  0.46999998093E+01 0.  1.
       -5    1    3    3    0  502  0.37834124481E+03 -0.53104733529E+03 -0.28043985930E+03  0.70980418041E+03  0.46999998093E+01 0. -1.
</event>
<event>
 5   0  0.1030027E-03  0.1609443E+04  0.7818609E-02  0.8814768E-01
       -2   -1    0    0    0  501  0.00000000000E+00  0.00000000000E+00  0.45617623051E+03  0.45617623052E+03  0.25500000920E-02 0.  1.
        2   -1    0    0  501    0  0.00000000000E+00  0.00000000000E+00 -0.14195750487E+04  0.14195750487E+04  0.25500000920E-02 0. -1.
    10030    2    1    2    0    0  0.00000000000E+00  0.00000000000E+00 -0.96339881820E+03  0.18757512792E+04  0.16094426298E+04 0.  0.
        1    1    3    3  502    0  0.12047504783E+03 -0.69060986255E+03 -0.21199799963E+02  0.70135985838E+03  0.50400001928E-02 0.  1.
       -1    1    3    3    0  502 -0.12047504783E+03  0.69060986255E+03 -0.94219901824E+03  0.11743914209E+04  0.50400001928E-02 0. -1.
</event>
<event>
 5   0  0.5281116E-04  0.1581085E+04  0.7818609E-02  0.8832253E-01
        1   -1    0    0  501    0  0.00000000000E+00  0.00000000000E+00  0.40872728353E+03  0.40872728356E+03  0.50400001928E-02 0. -1.
       -1   -1    0    0    0  501  0.00000000000E+00  0.00000000000E+00 -0.15290319156E+04  0.15290319157E+04  0.50400001928E-02 0.  1.
    10030    2    1    2    0    0  0.00000000000E+00  0.00000000000E+00 -0.11203046321E+04  0.19377591992E+04  0.15810845156E+04 0.  0.
        2    1    3    3  502    0  0.53627082748E+02 -0.23707062719E+03  0.36179563029E+03  0.43586055612E+03  0.25500000920E-02 0. -1.
       -2    1    3    3    0  502 -0.53627082748E+02  0.23707062719E+03 -0.14821002624E+04  0.15018986431E+04  0.25500000920E-02 0.  1.
</event>
<event>
 5   0  0.5281116E-04  0.1546873E+04  0.7818609E-02  0.8853868E-01
       -1   -1    0    0    0  501  0.00000000000E+00  0.00000000000E+00  0.76353577945E+03  0.76353577947E+03  0.50400001928E-02 0. -1.
        1   -1    0    0  501    0  0.00000000000E+00  0.00000000000E+00 -0.78346567518E+03  0.78346567520E+03  0.50400001928E-02 0.  1.
    10030    2    1    2    0    0  0.00000000000E+00  0.00000000000E+00 -0.19929895729E+02  0.15470014547E+04  0.15468730717E+04 0.  0.
        2    1    3    3  502    0 -0.26963190393E+03 -0.44003499705E+03 -0.58609601155E+03  0.78092297764E+03  0.25500000920E-02 0.  1.
       -2    1    3    3    0  502  0.26963190393E+03  0.44003499705E+03  0.56616611582E+03  0.76607847702E+03  0.25500000920E-02 0. -1.
</event>
<event>
 5   0  0.1057872E-03  0.1580821E+04  0.7818609E-02  0.8832417E-01
        2   -1    0    0  501    0  0.00000000000E+00  0.00000000000E+00  0.13869208629E+04  0.13869208629E+04  0.25500000920E-02 0.  1.
       -2   -1    0    0    0  501  0.00000000000E+00  0.00000000000E+00 -0.45045766202E+03  0.45045766203E+03  0.25500000920E-02 0. -1.
    10030    2    1    2    0    0  0.00000000000E+00  0.00000000000E+00  0.93646320092E+03  0.18373785250E+04  0.15808214692E+04 0.  0.
        2    1    3    3  502    0 -0.30499346538E+03 -0.54658672263E+03  0.10292366985E+04  0.12046187118E+04  0.25500000920E-02 0. -1.
       -2    1    3    3    0  502  0.30499346538E+03  0.54658672263E+03 -0.92773497602E+02  0.63275981316E+03  0.25500000920E-02 0.  1.
</event>
<event>
 5   0  0.3832500E-04  0.1514307E+04  0.7818609E-02  0.8874994E-01
       -3   -1    0    0    0  501  0.00000000000E+00  0.00000000000E+00  0.19956485261E+04  0.19956485287E+04  0.10100000352E+00 0.  1.
        3   -1    0    0  501    0  0.00000000000E+00  0.00000000000E+00 -0.28726581895E+03  0.28726583671E+03  0.10100000352E+00 0. -1.
    10030    2    1    2    0    0  0.00000000000E+00  0.00000000000E+00  0.17083827072E+04  0.22829143654E+04  0.15143072758E+04 0.  0.
        3    1    3    3  502    0 -0.73655061315E+03 -0.13534909989E+03  0.68594134703E+03  0.10155499625E+04  0.10100000352E+00 0. -1.
       -3    1    3    3    0  502  0.73655061315E+03  0.13534909989E+03  0.10224413601E+04  0.12673644029E+04  0.10100000352E+00 0.  1.
</event>
<event>
 5   0  0.5623061E-04  0.1633211E+04  0.7818609E-02  0.8800401E-01
        1   -1    0    0  501    0  0.00000000000E+00  0.00000000000E+00  0.10482639213E+04  0.10482639213E+04  0.50400001928E-02 0. -1.
       -1   -1    0    0    0  501  0.00000000000E+00  0.00000000000E+00 -0.63614158140E+03  0.63614158142E+03  0.50400001928E-02 0.  1.
    10030    2    1    2    0    0  0.00000000000E+00  0.00000000000E+00  0.41212233992E+03  0.16844055027E+04  0.16332106645E+04 0.  0.
        3    1    3    3  502    0 -0.56313433177E+03  0.30015002854E+03 -0.31945390539E+03  0.71362533806E+03  0.10100000352E+00 0.  1.
       -3    1    3    3    0  502  0.56313433177E+03 -0.30015002854E+03  0.73157624532E+03  0.97078016469E+03  0.10100000352E+00 0. -1.
</event>
<event>
 5   0  0.1037321E-03  0.1598364E+04  0.7818609E-02  0.8821553E-01
        2   -1    0    0  501    0  0.00000000000E+00  0.00000000000E+00  0.83219411814E+03  0.83219411814E+03  0.25500000920E-02 0.  1.
       -2   -1    0    0    0  501  0.00000000000E+00  0.00000000000E+00 -0.76747983134E+03  0.76747983135E+03  0.25500000920E-02 0. -1.
    10030    2    1    2    0    0  0.00000000000E+00  0.00000000000E+00  0.64714286796E+02  0.15996739495E+04  0.15983644158E+04 0.  0.
        5    1    3    3  502    0 -0.40106634272E+03 -0.61429755316E+03  0.34956226254E+03  0.81266940417E+03  0.46999998093E+01 0. -1.
       -5    1    3    3    0  502  0.40106634272E+03  0.61429755316E+03 -0.28484797574E+03  0.78700454532E+03  0.46999998093E+01 0.  1.
</event>
<event>
 5   0  0.5623061E-04  0.1566623E+04  0.7818609E-02  0.8841319E-01
        1   -1    0    0  501    0  0.00000000000E+00  0.00000000000E+00  0.67333159870E+03  0.67333159871E+03  0.50400001928E-02 0. -1.
       -1   -1    0    0    0  501  0.00000000000E+00  0.00000000000E+00 -0.91125554810E+03  0.91125554812E+03  0.50400001928E-02 0.  1.
    10030    2    1    2    0    0  0.00000000000E+00  0.00000000000E+00 -0.23792394941E+03  0.15845871468E+04  0.15666233179E+04 0.  0.
        3    1    3    3  502    0  0.47852189527E+03  0.61818152240E+03 -0.68942461877E+02  0.78478320072E+03  0.10100000352E+00 0. -1.
       -3    1    3    3    0  502 -0.47852189527E+03 -0.61818152240E+03 -0.16898148753E+03  0.79980394611E+03  0.10100000352E+00 0.  1.
</event>
<event>
 5   0  0.1057872E-03  0.1660886E+04  0.7818609E-02  0.8783992E-01
        2   -1    0    0  501    0  0.00000000000E+00  0.00000000000E+00  0.13071930464E+04  0.13071930464E+04  0.25500000920E-02 0. -1.
       -2   -1    0    0    0  501  0.00000000000E+00  0.00000000000E+00 -0.52756988076E+03  0.52756988076E+03  0.25500000920E-02 0.  1.
    10030    2    1    2    0    0  0.00000000000E+00  0.00000000000E+00  0.77962316566E+03  0.18347629272E+04  0.16608861245E+04 0.  0.
        2    1    3    3  502    0  0.47138421437E+02  0.67681495064E+03 -0.13921248618E+03  0.69258979526E+03  0.25500000920E-02 0.  1.
       -2    1    3    3    0  502 -0.47138421437E+02 -0.67681495064E+03  0.91883565185E+03  0.11421731319E+04  0.25500000920E-02 0. -1.
</event>
<event>
 5   0  0.1057872E-03  0.1373462E+04  0.7818609E-02  0.8973256E-01
        2   -1    0    0  501    0  0.00000000000E+00  0.00000000000E+00  0.27414930930E+03  0.27414930932E+03  0.25500000920E-02 0.  1.
       -2   -1    0    0    0  501  0.00000000000E+00  0.00000000000E+00 -0.17202276966E+04  0.17202276966E+04  0.25500000920E-02 0. -1.
    10030    2    1    2    0    0  0.00000000000E+00  0.00000000000E+00 -0.14460783872E+04  0.19943770059E+04  0.13734616629E+04 0.  0.
        2    1    3    3  502    0  0.44909760803E+03 -0.50925081596E+03 -0.87235784598E+03  0.11054561351E+04  0.25500000920E-02 0. -1.
       -2    1    3    3    0  502 -0.44909760803E+03  0.50925081596E+03 -0.57372054127E+03  0.88892087081E+03  0.25500000920E-02 0.  1.
</event>
<event>
 5   0  0.5288658E-04  0.1619142E+04  0.7818609E-02  0.8808874E-01
        1   -1    0    0  501    0  0.00000000000E+00  0.00000000000E+00  0.61884776081E+03  0.61884776083E+03  0.50400001928E-02 0. -1.
       -1   -1    0    0    0  501  0.00000000000E+00  0.00000000000E+00 -0.10590740302E+04  0.10590740302E+04  0.50400001928E-02 0.  1.
    10030    2    1    2    0    0  0.00000000000E+00  0.00000000000E+00 -0.44022626937E+03  0.16779217910E+04  0.16191424794E+04 0.  0.
        1    1    3    3  502    0 -0.75178915729E+03  0.69561123103E+02 -0.52291913828E+03  0.91840628922E+03  0.50400001928E-02 0.  1.
       -1    1    3    3    0  502  0.75178915729E+03 -0.69561123103E+02  0.82692868912E+02  0.75951550179E+03  0.50400001928E-02 0. -1.
</event>
<event>
 5   0  0.9844690E-04  0.1617545E+04  0.7818609E-02  0.8809841E-01
        2   -1    0    0  501    0  0.00000000000E+00  0.00000000000E+00  0.12119006008E+04  0.12119006008E+04  0.25500000920E-02 0.  1.
       -2   -1    0    0    0  501  0.00000000000E+00  0.00000000000E+00 -0.53974153771E+03  0.53974153772E+03  0.25500000920E-02 0. -1.
    10030    2    1    2    0    0  0.00000000000E+00  0.00000000000E+00  0.67215906305E+03  0.17516421385E+04  0.16175451695E+04 0.  0.
        3    1    3    3  502    0 -0.30135087534E+03  0.57628698331E+03 -0.18460813452E+03  0.67601716748E+03  0.10100000352E+00 0. -1.
       -3    1    3    3    0  502  0.30135087534E+03 -0.57628698331E+03  0.85676719757E+03  0.10756249710E+04  0.10100000352E+00 0.  1.
</event>
<event>
 5   0  0.1057872E-03  0.1679486E+04  0.7818609E-02  0.8773151E-01
        2   -1    0    0  501    0  0.00000000000E+00  0.00000000000E+00  0.12541102871E+04  0.12541102871E+04  0.25500000920E-02 0. -1.
       -2   -1    0    0    0  501  0.00000000000E+00  0.00000000000E+00 -0.56228583323E+03  0.56228583324E+03  0.25500000920E-02 0.  1.
    10030    2    1    2    0    0  0.00000000000E+00  0.00000000000E+00  0.69182445386E+03  0.18163961203E+04  0.16794861687E+04 0.  0.
        2    1    3    3  502    0  0.83545975758E+03  0.37581975354E+02  0.26380907818E+03  0.87692681629E+03  0.25500000920E-02 0.  1.
       -2    1    3    3    0  502 -0.83545975758E+03 -0.37581975354E+02  0.42801537568E+03  0.93946930404E+03  0.25500000920E-02 0. -1.
</event>
<event>
 5   0  0.5623061E-04  0.1561124E+04  0.7818609E-02  0.8844793E-01
       -1   -1    0    0    0  501  0.00000000000E+00  0.00000000000E+00  0.78764064996E+03  0.78764064998E+03  0.50400001928E-02 0. -1.
        1   -1    0    0  501    0  0.00000000000E+00  0.00000000000E+00 -0.77354739044E+03  0.77354739046E+03  0.50400001928E-02 0.  1.
    10030    2    1    2    0    0  0.00000000000E+00  0.00000000000E+00  0.14093259522E+02  0.15611880404E+04  0.15611244273E+04 0.  0.
        3    1    3    3  502    0  0.38354529481E+03  0.67462205019E+03 -0.76953551475E+02  0.77983572825E+03  0.10100000352E+00 0.  1.
       -3    1    3    3    0  502 -0.38354529481E+03 -0.67462205019E+03  0.91046810997E+02  0.78135231219E+03  0.10100000352E+00 0. -1.
</event>
<event>
 5   0  0.5623061E-04  0.1544726E+04  0.7818609E-02  0.8855243E-01
        1   -1    0    0  501    0  0.00000000000E+00  0.00000000000E+00  0.10814235946E+04  0.10814235946E+04  0.50400001928E-02 0. -1.
       -1   -1    0    0    0  501  0.00000000000E+00  0.00000000000E+00 -0.55162931375E+03  0.55162931378E+03  0.50400001928E-02 0.  1.
    10030    2    1    2    0    0  0.00000000000E+00  0.00000000000E+00  0.52979428085E+03  0.16330529084E+04  0.15447264553E+04 0.  0.
        3    1    3    3  502    0 -0.33971541096E+03 -0.32318645379E+03 -0.38394654581E+03  0.60602888099E+03  0.10100000352E+00 0.  1.
       -3    1    3    3    0  502  0.33971541096E+03  0.32318645379E+03  0.91374082666E+03  0.10270240274E+04  0.10100000352E+00 0. -1.
</event>
<event>
 5   0  0.5532881E-04  0.1593666E+04  0.7818609E-02  0.8824449E-01
        1   -1    0    0  501    0  0.00000000000E+00  0.00000000000E+00  0.13539838276E+04  0.13539838276E+04  0.50400001928E-02 0. -1.
       -1   -1    0    0    0  501  0.00000000000E+00  0.00000000000E+00 -0.46894407171E+03  0.46894407174E+03  0.50400001928E-02 0.  1.
    10030    2    1    2    0    0  0.00000000000E+00  0.00000000000E+00  0.88503975591E+03  0.18229278994E+04  0.15936658234E+04 0.  0.
        4    1    3    3  502    0 -0.44715150026E+03 -0.65952516056E+03  0.44802642276E+03  0.91413740214E+03  0.12699999809E+01 0.  1.
       -4    1    3    3    0  502  0.44715150026E+03  0.65952516056E+03  0.43701333315E+03  0.90879049723E+03  0.12699999809E+01 0. -1.
</event>
<event>
 5   0  0.9844690E-04  0.1641180E+04  0.7818609E-02  0.8795641E-01
       -2   -1    0    0    0  501  0.00000000000E+00  0.00000000000E+00  0.11338848841E+04  0.11338848841E+04  0.25500000920E-02 0.  1.
        2   -1    0    0  501    0  0.00000000000E+00  0.00000000000E+00 -0.59385953660E+03  0.59385953661E+03  0.25500000920E-02 0. -1.
    10030    2    1    2    0    0  0.00000000000E+00  0.00000000000E+00  0.54002534751E+03  0.17277444207E+04  0.16411804920E+04 0.  0.
        3    1    3    3  502    0 -0.51240619479E+03  0.40659993786E+01 -0.40472348386E+03  0.65297607108E+03  0.10100000352E+00 0. -1.
       -3    1    3    3    0  502  0.51240619479E+03 -0.40659993786E+01  0.94474883137E+03  0.10747683496E+04  0.10100000352E+00 0.  1.
</event>
<event>
 5   0  0.1057872E-03  0.1578916E+04  0.7818609E-02  0.8833606E-01
        2   -1    0    0  501    0  0.00000000000E+00  0.00000000000E+00  0.14997948012E+04  0.14997948012E+04  0.25500000920E-02 0. -1.
       -2   -1    0    0    0  501  0.00000000000E+00  0.00000000000E+00 -0.41555304713E+03  0.41555304714E+03  0.25500000920E-02 0.  1.
    10030    2    1    2    0    0  0.00000000000E+00  0.00000000000E+00  0.10842417541E+04  0.19153478483E+04  0.15789164635E+04 0.  0.
        2    1    3    3  502    0  0.76368378368E+03 -0.99086771108E+02  0.33126447281E+03  0.83831214987E+03  0.25500000920E-02 0.  1.
       -2    1    3    3    0  502 -0.76368378368E+03  0.99086771108E+02  0.75297728125E+03  0.10770356985E+04  0.25500000920E-02 0. -1.
</event>
<event>
 5   0  0.1000121E-03  0.1613751E+04  0.7818609E-02  0.8812145E-01
        2   -1    0    0  501    0  0.00000000000E+00  0.00000000000E+00  0.82404935868E+03  0.82404935868E+03  0.25500000920E-02 0. -1.
       -2   -1    0    0    0  501  0.00000000000E+00  0.00000000000E+00 -0.79005935367E+03  0.79005935367E+03  0.25500000920E-02 0.  1.
    10030    2    1    2    0    0  0.00000000000E+00  0.00000000000E+00  0.33990005009E+02  0.16141087124E+04  0.16137507908E+04 0.  0.
        4    1    3    3  502    0 -0.71336898355E+03  0.83691585400E+02  0.38469958363E+03  0.81479750288E+03  0.12699999809E+01 0. -1.
       -4    1    3    3    0  502  0.71336898355E+03 -0.83691585400E+02 -0.35070957862E+03  0.79931120948E+03  0.12699999809E+01 0.  1.
</event>
<event>
 5   0  0.5281116E-04  0.1617906E+04  0.7818609E-02  0.8809623E-01
        1   -1    0    0  501    0  0.00000000000E+00  0.00000000000E+00  0.63408527186E+03  0.63408527188E+03  0.50400001928E-02 0.  1.
       -1   -1    0    0    0  501  0.00000000000E+00  0.00000000000E+00 -0.10320454168E+04  0.10320454169E+04  0.50400001928E-02 0. -1.
    10030    2    1    2    0    0  0.00000000000E+00  0.00000000000E+00 -0.39796014498E+03  0.16661306887E+04  0.16179058053E+04 0.  0.
        2    1    3    3  502    0 -0.27152392347E+03 -0.53430583281E+03  0.36053485625E+03  0.69942358165E+03  0.25500000920E-02 0.  1.
       -2    1    3    3    0  502  0.27152392347E+03  0.53430583281E+03 -0.75849500123E+03  0.96670710709E+03  0.25500000920E-02 0. -1.
</event>
<event>
 5   0  0.3832500E-04  0.1565020E+04  0.7818609E-02  0.8842331E-01
        3   -1    0    0  501    0  0.00000000000E+00  0.00000000000E+00  0.69402347325E+03  0.69402348060E+03  0.10100000352E+00 0. -1.
       -3   -1    0    0    0  501  0.00000000000E+00  0.00000000000E+00 -0.88227821046E+03  0.88227821624E+03  0.10100000352E+00 0.  1.
    10030    2    1    2    0    0  0.00000000000E+00  0.00000000000E+00 -0.18825473721E+03  0.15763016968E+04  0.15650198700E+04 0.  0.
        4    1    3    3  502    0  0.69413889028E+02  0.13670529649E+03  0.67874608127E+03  0.69584803069E+03  0.12699999809E+01 0. -1.
       -4    1    3    3    0  502 -0.69413889028E+02 -0.13670529649E+03 -0.86700081849E+03  0.88045366615E+03  0.12699999809E+01 0.  1.
</event>
<event>
 5   0  0.1030027E-03  0.1583512E+04  0.7818609E-02  0.8830741E-01
        2   -1    0    0  501    0  0.00000000000E+00  0.00000000000E+00  0.16475731840E+04  0.16475731840E+04  0.25500000920E-02 0. -1.
       -2   -1    0    0    0  501  0.00000000000E+00  0.00000000000E+00 -0.38048558313E+03  0.38048558314E+03  0.25500000920E-02 0.  1.
    10030    2    1    2    0    0  0.00000000000E+00  0.00000000000E+00  0.12670876009E+04  0.20280587672E+04  0.15835123538E+04 0.  0.
        1    1    3    3  502    0 -0.55501984374E+03  0.66974287490E+01  0.13566609697E+04  0.14658174747E+04  0.50400001928E-02 0. -1.
       -1    1    3    3    0  502  0.55501984374E+03 -0.66974287490E+01 -0.89573368807E+02  0.56224129243E+03  0.50400001928E-02 0.  1.
</event>
<event>
 5   0  0.1057872E-03  0.1643277E+04  0.7818609E-02  0.8794394E-01
       -2   -1    0    0    0  501  0.00000000000E+00  0.00000000000E+00  0.34259820261E+03  0.34259820262E+03  0.25500000920E-02 0.  1.
        2   -1    0    0  501    0  0.00000000000E+00  0.00000000000E+00 -0.19705003584E+04  0.19705003584E+04  0.25500000920E-02 0. -1.
    10030    2    1    2    0    0  0.00000000000E+00  0.00000000000E+00 -0.16279021558E+04  0.23130985610E+04  0.16432770686E+04 0.  0.
        2    1    3    3  502    0 -0.76777375336E+03 -0.25994791668E+02 -0.40371544915E+03  0.86783548523E+03  0.25500000920E-02 0.  1.
       -2    1    3    3    0  502  0.76777375336E+03  0.25994791668E+02 -0.12241867066E+04  0.14452630758E+04  0.25500000920E-02 0. -1.
</event>
<event>
 5   0  0.5288658E-04  0.1304144E+04  0.7818609E-02  0.9026286E-01
       -1   -1    0    0    0  501  0.00000000000E+00  0.00000000000E+00  0.35829530824E+03  0.35829530827E+03  0.50400001928E-02 0.  1.
        1   -1    0    0  501    0  0.00000000000E+00  0.00000000000E+00 -0.11867240034E+04  0.11867240034E+04  0.50400001928E-02 0. -1.
    10030    2    1    2    0    0  0.00000000000E+00  0.00000000000E+00 -0.82842869512E+03  0.15450193116E+04  0.13041436157E+04 0.  0.
        1    1    3    3  502    0 -0.60150619546E+03  0.17200193641E+03 -0.19639930430E+03  0.65571873243E+03  0.50400001928E-02 0.  1.
       -1    1    3    3    0  502  0.60150619546E+03 -0.17200193641E+03 -0.63202939082E+03  0.88930057922E+03  0.50400001928E-02 0. -1.
</event>
<event>
 5   0  0.5623061E-04  0.1518520E+04  0.7818609E-02  0.8872230E-01
        1   -1    0    0  501    0  0.00000000000E+00  0.00000000000E+00  0.93430761720E+03  0.93430761721E+03  0.50400001928E-02 0.  1.
       -1   -1    0    0    0  501  0.00000000000E+00  0.00000000000E+00 -0.61700863818E+03  0.61700863820E+03  0.50400001928E-02 0. -1.
    10030    2    1    2    0    0  0.00000000000E+00  0.00000000000E+00  0.31729897902E+03  0.15513162554E+04  0.15185201619E+04 0.  0.
        3    1    3    3  502    0  0.62339896550E+03  0.12199620163E+03 -0.26622514179E+03  0.68875625566E+03  0.10100000352E+00 0. -1.
       -3    1    3    3    0  502 -0.62339896550E+03 -0.12199620163E+03  0.58352412081E+03  0.86255999975E+03  0.10100000352E+00 0.  1.
</event>
<event>
 5   0  0.5532881E-04  0.1629810E+04  0.7818609E-02  0.8802441E-01
        1   -1    0    0  501    0  0.00000000000E+00  0.00000000000E+00  0.29530048403E+04  0.29530048403E+04  0.50400001928E-02 0.  1.
       -1   -1    0    0    0  501  0.00000000000E+00  0.00000000000E+00 -0.22487950288E+03  0.22487950294E+03  0.50400001928E-02 0. -1.
    10030    2    1    2    0    0  0.00000000000E+00  0.00000000000E+00  0.27281253375E+04  0.31778843433E+04  0.16298101246E+04 0.  0.
        4    1    3    3  502    0  0.34825266350E+03  0.24774106015E+02 -0.71660832941E+02  0.35641347034E+03  0.12699999809E+01 0. -1.
       -4    1    3    3    0  502 -0.34825266350E+03 -0.24774106015E+02  0.27997861704E+04  0.28214708729E+04  0.12699999809E+01 0.  1.
</event>
<event>
 5   0  0.3832500E-04  0.1567161E+04  0.7818609E-02  0.8840980E-01
        3   -1    0    0  501    0  0.00000000000E+00  0.00000000000E+00  0.74918457577E+03  0.74918458258E+03  0.10100000352E+00 0.  1.
       -3   -1    0    0    0  501  0.00000000000E+00  0.00000000000E+00 -0.81955605373E+03  0.81955605995E+03  0.10100000352E+00 0. -1.
    10030    2    1    2    0    0  0.00000000000E+00  0.00000000000E+00 -0.70371477957E+02  0.15687406425E+04  0.15671614654E+04 0.  0.
        3    1    3    3  502    0 -0.27373909473E+03 -0.32008606730E+03  0.62624523368E+03  0.75469946692E+03  0.10100000352E+00 0.  1.
       -3    1    3    3    0  502  0.27373909473E+03  0.32008606730E+03 -0.69661671163E+03  0.81404117561E+03  0.10100000352E+00 0. -1.
</event>
<event>
 5   0  0.5288658E-04  0.1586988E+04  0.7818609E-02  0.8828582E-01
        1   -1    0    0  501    0  0.00000000000E+00  0.00000000000E+00  0.63498778640E+03  0.63498778642E+03  0.50400001928E-02 0. -1.
       -1   -1    0    0    0  501  0.00000000000E+00  0.00000000000E+00 -0.99156665143E+03  0.99156665145E+03  0.50400001928E-02 0.  1.
    10030    2    1    2    0    0  0.00000000000E+00  0.00000000000E+00 -0.35657886504E+03  0.16265544379E+04  0.15869879812E+04 0.  0.
        1    1    3    3  502    0 -0.72105551185E+03  0.10462505960E+02 -0.51760563417E+03  0.88766328512E+03  0.50400001928E-02 0. -1.
       -1    1    3    3    0  502  0.72105551185E+03 -0.10462505960E+02  0.16102676913E+03  0.73889115274E+03  0.50400001928E-02 0.  1.
</event>
<event>
 5   0  0.9844690E-04  0.1607187E+04  0.7818609E-02  0.8816145E-01
        2   -1    0    0  501    0  0.00000000000E+00  0.00000000000E+00  0.79899340866E+03  0.79899340866E+03  0.25500000920E-02 0.  1.
       -2   -1    0    0    0  501  0.00000000000E+00  0.00000000000E+00 -0.80821972554E+03  0.80821972555E+03  0.25500000920E-02 0. -1.
    10030    2    1    2    0    0  0.00000000000E+00  0.00000000000E+00 -0.92263168857E+01  0.16072131342E+04  0.16071866518E+04 0.  0.
        3    1    3    3  502    0  0.34242543335E+03 -0.96080918474E+02  0.71600644703E+03  0.79946980099E+03  0.10100000352E+00 0.  1.
       -3    1    3    3    0  502 -0.34242543335E+03  0.96080918474E+02 -0.72523276392E+03  0.80774333322E+03  0.10100000352E+00 0. -1.
</event>
<event>
 5   0  0.5281116E-04  0.1537590E+04  0.7818609E-02  0.8859834E-01
        1   -1    0    0  501    0  0.00000000000E+00  0.00000000000E+00  0.76431083866E+03  0.76431083868E+03  0.50400001928E-02 0. -1.
       -1   -1    0    0    0  501  0.00000000000E+00  0.00000000000E+00 -0.77330522743E+03  0.77330522745E+03  0.50400001928E-02 0.  1.
    10030    2    1    2    0    0  0.00000000000E+00  0.00000000000E+00 -0.89943887714E+01  0.15376160661E+04  0.15375897593E+04 0.  0.
        2    1    3    3  502    0  0.62718928249E+03  0.43761938254E+03  0.74043610112E+02  0.76834860334E+03  0.25500000920E-02 0.  1.
       -2    1    3    3    0  502 -0.62718928249E+03 -0.43761938254E+03 -0.83037998883E+02  0.76926746279E+03  0.25500000920E-02 0. -1.
</event>
<event>
 5   0  0.1030027E-03  0.1601474E+04  0.7818609E-02  0.8819643E-01
        2   -1    0    0  501    0  0.00000000000E+00  0.00000000000E+00  0.54532157047E+03  0.54532157048E+03  0.25500000920E-02 0. -1.
       -2   -1    0    0    0  501  0.00000000000E+00  0.00000000000E+00 -0.11757833084E+04  0.11757833084E+04  0.25500000920E-02 0.  1.
    10030    2    1    2    0    0  0.00000000000E+00  0.00000000000E+00 -0.63046173789E+03  0.17211048788E+04  0.16014743211E+04 0.  0.
        1    1    3    3  502    0 -0.23980854556E+02  0.56622102968E+03  0.29271013901E+03  0.63785622310E+03  0.50400001928E-02 0. -1.
       -1    1    3    3    0  502  0.23980854556E+02 -0.56622102968E+03 -0.92317187691E+03  0.10832486557E+04  0.50400001928E-02 0.  1.
</event>
<event>
 5   0  0.5281116E-04  0.1605199E+04  0.7818609E-02  0.8817360E-01
       -1   -1    0    0    0  501  0.00000000000E+00  0.00000000000E+00  0.48446030349E+03  0.48446030351E+03  0.50400001928E-02 0. -1.
        1   -1    0    0  501    0  0.00000000000E+00  0.00000000000E+00 -0.13296568518E+04  0.13296568519E+04  0.50400001928E-02 0.  1.
    10030    2    1    2    0    0  0.00000000000E+00  0.00000000000E+00 -0.84519654836E+03  0.18141171554E+04  0.16051990057E+04 0.  0.
        2    1    3    3  502    0  0.16518114874E+03  0.10821815497E+03 -0.13017728828E+04  0.13166657204E+04  0.25500000920E-02 0.  1.
       -2    1    3    3    0  502 -0.16518114874E+03 -0.10821815497E+03  0.45657633443E+03  0.49745143495E+03  0.25500000920E-02 0. -1.
</event>
<event>
 5   0  0.5623061E-04  0.1547646E+04  0.7818609E-02  0.8853373E-01
       -1   -1    0    0    0  501  0.00000000000E+00  0.00000000000E+00  0.62610734342E+03  0.62610734344E+03  0.50400001928E-02 0. -1.
        1   -1    0    0  501    0  0.00000000000E+00  0.00000000000E+00 -0.95638909174E+03  0.95638909176E+03  0.50400001928E-02 0.  1.
    10030    2    1    2    0    0  0.00000000000E+00  0.00000000000E+00 -0.33028174832E+03  0.15824964352E+04  0.15476462561E+04 0.  0.
        3    1    3    3  502    0 -0.34173369210E+03  0.52240387779E+03 -0.63272860617E+03  0.88883813325E+03  0.10100000352E+00 0.  1.
       -3    1    3    3    0  502  0.34173369210E+03 -0.52240387779E+03  0.30244685785E+03  0.69365830195E+03  0.10100000352E+00 0. -1.
</event>
<event>
 5   0  0.1000121E-03  0.1640428E+04  0.7818609E-02  0.8796089E-01
        2   -1    0    0  501    0  0.00000000000E+00  0.00000000000E+00  0.16060813558E+04  0.16060813558E+04  0.25500000920E-02 0.  1.
       -2   -1    0    0    0  501  0.00000000000E+00  0.00000000000E+00 -0.41887726113E+03  0.41887726113E+03  0.25500000920E-02 0. -1.
    10030    2    1    2    0    0  0.00000000000E+00  0.00000000000E+00  0.11872040947E+04  0.20249586169E+04  0.16404279435E+04 0.  0.
        4    1    3    3  502    0 -0.43514297527E+03  0.51434199748E+03  0.11710787910E+04  0.13510456124E+04  0.12699999809E+01 0.  1.
       -4    1    3    3    0  502  0.43514297527E+03 -0.51434199748E+03  0.16125303690E+02  0.67391300449E+03  0.12699999809E+01 0. -1.
</event>
<event>
 5   0  0.5532881E-04  0.1605037E+04  0.7818609E-02  0.8817460E-01
        1   -1    0    0  501    0  0.00000000000E+00  0.00000000000E+00  0.91122286607E+03  0.91122286608E+03  0.50400001928E-02 0.  1.
       -1   -1    0    0    0  501  0.00000000000E+00  0.00000000000E+00 -0.70678175629E+03  0.70678175631E+03  0.50400001928E-02 0. -1.
    10030    2    1    2    0    0  0.00000000000E+00  0.00000000000E+00  0.20444110978E+03  0.16180046224E+04  0.16050366945E+04 0.  0.
        4    1    3    3  502    0 -0.95641228706E+02  0.47226763751E+02  0.90404403583E+03  0.91031579326E+03  0.12699999809E+01 0.  1.
       -4    1    3    3    0  502  0.95641228706E+02 -0.47226763751E+02 -0.69960292605E+03  0.70768882913E+03  0.12699999809E+01 0. -1.
</event>
<event>
 5   0  0.1057872E-03  0.1604658E+04  0.7818609E-02  0.8817692E-01
        2   -1    0    0  501    0  0.00000000000E+00  0.00000000000E+00  0.10796852254E+04  0.10796852254E+04  0.25500000920E-02 0. -1.
       -2   -1    0    0    0  501  0.00000000000E+00  0.00000000000E+00 -0.59622150089E+03  0.59622150090E+03  0.25500000920E-02 0.  1.
    10030    2    1    2    0    0  0.00000000000E+00  0.00000000000E+00  0.48346372452E+03  0.16759067263E+04  0.16046576527E+04 0.  0.
        2    1    3    3  502    0  0.57111936950E+03 -0.43682029775E+03 -0.13008419357E+03  0.73069227734E+03  0.25500000920E-02 0.  1.
       -2    1    3    3    0  502 -0.57111936950E+03  0.43682029775E+03  0.61354791809E+03  0.94521444897E+03  0.25500000920E-02 0. -1.
</event>
<event>
 5   0  0.5623061E-04  0.1641797E+04  0.7818609E-02  0.8795274E-01
       -1   -1    0    0    0  501  0.00000000000E+00  0.00000000000E+00  0.79092631994E+03  0.79092631996E+03  0.50400001928E-02 0. -1.
        1   -1    0    0  501    0  0.00000000000E+00  0.00000000000E+00 -0.85200619890E+03  0.85200619891E+03  0.50400001928E-02 0.  1.
    10030    2    1    2    0    0  0.00000000000E+00  0.00000000000E+00 -0.61079878955E+02  0.16429325189E+04  0.16417967322E+04 0.  0.
        3    1    3    3  502    0  0.52826965303E+03  0.38148720062E+03  0.46907773170E+03  0.80289179790E+03  0.10100000352E+00 0. -1.
       -3    1    3    3    0  502 -0.52826965303E+03 -0.38148720062E+03 -0.53015761066E+03  0.84004072097E+03  0.10100000352E+00 0.  1.
</event>
<event>
 5   0  0.9844690E-04  0.1626537E+04  0.7818609E-02  0.8804409E-01
       -2   -1    0    0    0  501  0.00000000000E+00  0.00000000000E+00  0.61890776882E+03  0.61890776882E+03  0.25500000920E-02 0. -1.
        2   -1    0    0  501    0  0.00000000000E+00  0.00000000000E+00 -0.10686662624E+04  0.10686662624E+04  0.25500000920E-02 0.  1.
    10030    2    1    2    0    0  0.00000000000E+00  0.00000000000E+00 -0.44975849356E+03  0.16875740312E+04  0.16265372447E+04 0.  0.
        3    1    3    3  502    0  0.11342148043E+03  0.36852755383E+03  0.51804186435E+03  0.64578972861E+03  0.10100000352E+00 0. -1.
       -3    1    3    3    0  502 -0.11342148043E+03 -0.36852755383E+03 -0.96780035792E+03  0.10417843026E+04  0.10100000352E+00 0.  1.
</event>
<event>
 5   0  0.5281116E-04  0.1446705E+04  0.7818609E-02  0.8920688E-01
       -1   -1    0    0    0  501  0.00000000000E+00  0.00000000000E+00  0.35150034888E+03  0.35150034892E+03  0.50400001928E-02 0. -1.
        1   -1    0    0  501    0  0.00000000000E+00  0.00000000000E+00 -0.14885866885E+04  0.14885866885E+04  0.50400001928E-02 0.  1.
    10030    2    1    2    0    0  0.00000000000E+00  0.00000000000E+00 -0.11370863396E+04  0.18400870374E+04  0.14467048633E+04 0.  0.
        2    1    3    3  502    0 -0.22367145877E+03  0.38226600158E+03  0.15887993969E+03  0.47053060758E+03  0.25500000920E-02 0. -1.
       -2    1    3    3    0  502  0.22367145877E+03 -0.38226600158E+03 -0.12959662793E+04  0.13695564298E+04  0.25500000920E-02 0.  1.
</event>
<event>
 5   0  0.1057872E-03  0.1602194E+04  0.7818609E-02  0.8819201E-01
        2   -1    0    0  501    0  0.00000000000E+00  0.00000000000E+00  0.15846567324E+04  0.15846567324E+04  0.25500000920E-02 0.  1.
       -2   -1    0    0    0  501  0.00000000000E+00  0.00000000000E+00 -0.40498117427E+03  0.40498117428E+03  0.25500000920E-02 0. -1.
    10030    2    1    2    0    0  0.00000000000E+00  0.00000000000E+00  0.11796755582E+04  0.19896379067E+04  0.16021936766E+04 0.  0.
        2    1    3    3  502    0 -0.38943830543E+03 -0.44937518457E+03 -0.76773698250E+02  0.59957856115E+03  0.25500000920E-02 0. -1.
       -2    1    3    3    0  502  0.38943830543E+03  0.44937518457E+03  0.12564492564E+04  0.13900593456E+04  0.25500000920E-02 0.  1.
</event>
<event>
 5   0  0.1030027E-03  0.1582049E+04  0.7818609E-02  0.8831652E-01
       -2   -1    0    0    0  501  0.00000000000E+00  0.00000000000E+00  0.71152104950E+03  0.71152104950E+03  0.25500000920E-02 0.  1.
        2   -1    0    0  501    0  0.00000000000E+00  0.00000000000E+00 -0.87941147170E+03  0.87941147170E+03  0.25500000920E-02 0. -1.
    10030    2    1    2    0    0  0.00000000000E+00  0.00000000000E+00 -0.16789042220E+03  0.15909325212E+04  0.15820490173E+04 0.  0.
        1    1    3    3  502    0 -0.35986821536E+01 -0.53218313811E+03 -0.67245604175E+03  0.85757155452E+03  0.50400001928E-02 0. -1.
       -1    1    3    3    0  502  0.35986821536E+01  0.53218313811E+03  0.50456561955E+03  0.73336096669E+03  0.50400001928E-02 0.  1.
</event>
<event>
 5   0  0.5288658E-04  0.1544603E+04  0.7818609E-02  0.8855322E-01
       -1   -1    0    0    0  501  0.00000000000E+00  0.00000000000E+00  0.69429879405E+03  0.69429879407E+03  0.50400001928E-02 0. -1.
        1   -1    0    0  501    0  0.00000000000E+00  0.00000000000E+00 -0.85906804013E+03  0.85906804014E+03  0.50400001928E-02 0.  1.
    10030    2    1    2    0    0  0.00000000000E+00  0.00000000000E+00 -0.16476924608E+03  0.15533668342E+04  0.15446033851E+04 0.  0.
        1    1    3    3  502    0 -0.17784780053E+03  0.38238211037E+02  0.67244553217E+03  0.69661682057E+03  0.50400001928E-02 0. -1.
       -1    1    3    3    0  502  0.17784780053E+03 -0.38238211037E+02 -0.83721477825E+03  0.85675001364E+03  0.50400001928E-02 0.  1.
</event>
<event>
 5   0  0.5281116E-04  0.1094030E+04  0.7818609E-02  0.9211030E-01
       -1   -1    0    0    0  501  0.00000000000E+00  0.00000000000E+00  0.22418117416E+03  0.22418117422E+03  0.50400001928E-02 0. -1.
        1   -1    0    0  501    0  0.00000000000E+00  0.00000000000E+00 -0.13347491935E+04  0.13347491935E+04  0.50400001928E-02 0.  1.
    10030    2    1    2    0    0  0.00000000000E+00  0.00000000000E+00 -0.11105680194E+04  0.15589303677E+04  0.10940304227E+04 0.  0.
        2    1    3    3  502    0 -0.28188468867E+03  0.24747659534E+03 -0.11226222895E+04  0.11836318887E+04  0.25500000920E-02 0.  1.
       -2    1    3    3    0  502  0.28188468867E+03 -0.24747659534E+03  0.12054270172E+02  0.37529847906E+03  0.25500000920E-02 0. -1.
</event>
<event>
 5   0  0.1057872E-03  0.1599794E+04  0.7818609E-02  0.8820675E-01
       -2   -1    0    0    0  501  0.00000000000E+00  0.00000000000E+00  0.53543168682E+03  0.53543168683E+03  0.25500000920E-02 0. -1.
        2   -1    0    0  501    0  0.00000000000E+00  0.00000000000E+00 -0.11949893845E+04  0.11949893845E+04  0.25500000920E-02 0.  1.
    10030    2    1    2    0    0  0.00000000000E+00  0.00000000000E+00 -0.65955769767E+03  0.17304210713E+04  0.15997939641E+04 0.  0.
        2    1    3    3  502    0  0.44339064060E+03  0.17058838416E+03  0.36630423780E+03  0.59989536722E+03  0.25500000920E-02 0. -1.
       -2    1    3    3    0  502 -0.44339064060E+03 -0.17058838416E+03 -0.10258619355E+04  0.11305257041E+04  0.25500000920E-02 0.  1.
</event>
<event>
 5   0  0.1000121E-03  0.1594108E+04  0.7818609E-02  0.8824176E-01
        2   -1    0    0  501    0  0.00000000000E+00  0.00000000000E+00  0.18377086881E+04  0.18377086881E+04  0.25500000920E-02 0. -1.
       -2   -1    0    0    0  501  0.00000000000E+00  0.00000000000E+00 -0.34569965651E+03  0.34569965652E+03  0.25500000920E-02 0.  1.
    10030    2    1    2    0    0  0.00000000000E+00  0.00000000000E+00  0.14920090316E+04  0.21834083446E+04  0.15941082300E+04 0.  0.
        4    1    3    3  502    0  0.20920081078E+03 -0.65252437567E+03  0.18839313728E+03  0.71066632617E+03  0.12699999809E+01 0.  1.
       -4    1    3    3    0  502 -0.20920081078E+03  0.65252437567E+03  0.13036158943E+04  0.14727420184E+04  0.12699999809E+01 0. -1.
</event>
<event>
 5   0  0.9844690E-04  0.1624574E+04  0.7818609E-02  0.8805592E-01
       -2   -1    0    0    0  501  0.00000000000E+00  0.00000000000E+00  0.39907186006E+03  0.39907186007E+03  0.25500000920E-02 0. -1.
        2   -1    0    0  501    0  0.00000000000E+00  0.00000000000E+00 -0.16533614406E+04  0.16533614406E+04  0.25500000920E-02 0.  1.
    10030    2    1    2    0    0  0.00000000000E+00  0.00000000000E+00 -0.12542895806E+04  0.20524333007E+04  0.16245738216E+04 0.  0.
        3    1    3    3  502    0 -0.42567435318E+03 -0.53808513702E+03 -0.77796834721E+02  0.69049737678E+03  0.10100000352E+00 0.  1.
       -3    1    3    3    0  502  0.42567435318E+03  0.53808513702E+03 -0.11764927458E+04  0.13619359239E+04  0.10100000352E+00 0. -1.
</event>
<event>
 5   0  0.1037321E-03  0.1597922E+04  0.7818609E-02  0.8821825E-01
        2   -1    0    0  501    0  0.00000000000E+00  0.00000000000E+00  0.72272735277E+03  0.72272735277E+03  0.25500000920E-02 0.  1.
       -2   -1    0    0    0  501  0.00000000000E+00  0.00000000000E+00 -0.88323611734E+03  0.88323611734E+03  0.25500000920E-02 0. -1.
    10030    2    1    2    0    0  0.00000000000E+00  0.00000000000E+00 -0.16050876457E+03  0.16059634701E+04  0.15979222772E+04 0.  0.
        5    1    3    3  502    0  0.51560361110E+03  0.10844023920E+03  0.52335970672E+03  0.74265324471E+03  0.46999998093E+01 0.  1.
       -5    1    3    3    0  502 -0.51560361110E+03 -0.10844023920E+03 -0.68386847129E+03  0.86331022540E+03  0.46999998093E+01 0. -1.
</event>
<event>
 5   0  0.5532881E-04  0.1569916E+04  0.7818609E-02  0.8839246E-01
        1   -1    0    0  501    0  0.00000000000E+00  0.00000000000E+00  0.18614857726E+04  0.18614857726E+04  0.50400001928E-02 0. -1.
       -1   -1    0    0    0  501  0.00000000000E+00  0.00000000000E+00 -0.33100401774E+03  0.33100401778E+03  0.50400001928E-02 0.  1.
    10030    2    1    2    0    0  0.00000000000E+00  0.00000000000E+00  0.15304817548E+04  0.21924897903E+04  0.15699162649E+04 0.  0.
        4    1    3    3  502    0  0.25076673220E+03 -0.50377931443E+03  0.97392756449E+00  0.56274338118E+03  0.12699999809E+01 0.  1.
       -4    1    3    3    0  502 -0.25076673220E+03  0.50377931443E+03  0.15295078273E+04  0.16297464092E+04  0.12699999809E+01 0. -1.
</event>
<event>
 5   0  0.5623061E-04  0.1605560E+04  0.7818609E-02  0.8817140E-01
        1   -1    0    0  501    0  0.00000000000E+00  0.00000000000E+00  0.14274722610E+04  0.14274722610E+04  0.50400001928E-02 0. -1.
       -1   -1    0    0    0  501  0.00000000000E+00  0.00000000000E+00 -0.45146609864E+03  0.45146609867E+03  0.50400001928E-02 0.  1.
    10030    2    1    2    0    0  0.00000000000E+00  0.00000000000E+00  0.97600616239E+03  0.18789383597E+04  0.16055595070E+04 0.  0.
        3    1    3    3  502    0  0.70636820774E+03 -0.37981538079E+03  0.44680102791E+03  0.91806695678E+03  0.10100000352E+00 0. -1.
       -3    1    3    3    0  502 -0.70636820774E+03  0.37981538079E+03  0.52920513448E+03  0.96087140293E+03  0.10100000352E+00 0.  1.
</event>
<event>
 5   0  0.5288658E-04  0.1591759E+04  0.7818609E-02  0.8825627E-01
        1   -1    0    0  501    0  0.00000000000E+00  0.00000000000E+00  0.35274251209E+03  0.35274251212E+03  0.50400001928E-02 0.  1.
       -1   -1    0    0    0  501  0.00000000000E+00  0.00000000000E+00 -0.17957119797E+04  0.17957119797E+04  0.50400001928E-02 0. -1.
    10030    2    1    2    0    0  0.00000000000E+00  0.00000000000E+00 -0.14429694677E+04  0.21484544919E+04  0.15917587189E+04 0.  0.
        1    1    3    3  502    0  0.25606754754E+03 -0.18610562601E+03 -0.17070862152E+04  0.17361881347E+04  0.50400001928E-02 0. -1.
       -1    1    3    3    0  502 -0.25606754754E+03  0.18610562601E+03  0.26411674751E+03  0.41226635720E+03  0.50400001928E-02 0.  1.
</event>
<event>
 5   0  0.1000121E-03  0.1593888E+04  0.7818609E-02  0.8824312E-01
        2   -1    0    0  501    0  0.00000000000E+00  0.00000000000E+00  0.68864126321E+03  0.68864126322E+03  0.25500000920E-02 0.  1.
       -2   -1    0    0    0  501  0.00000000000E+00  0.00000000000E+00 -0.92227918103E+03  0.92227918103E+03  0.25500000920E-02 0. -1.
    10030    2    1    2    0    0  0.00000000000E+00  0.00000000000E+00 -0.23363791782E+03  0.16109204442E+04  0.15938877003E+04 0.  0.
        4    1    3    3  502    0 -0.84193995734E+02  0.72744043485E+03  0.20096059931E+03  0.75937144439E+03  0.12699999809E+01 0.  1.
       -4    1    3    3    0  502  0.84193995734E+02 -0.72744043485E+03 -0.43459851713E+03  0.85154899986E+03  0.12699999809E+01 0. -1.
</event>
<event>
 5   0  0.1000121E-03  0.1588600E+04  0.7818609E-02  0.8827582E-01
       -2   -1    0    0    0  501  0.00000000000E+00  0.00000000000E+00  0.31706577996E+03  0.31706577997E+03  0.25500000920E-02 0. -1.
        2   -1    0    0  501    0  0.00000000000E+00  0.00000000000E+00 -0.19898477250E+04  0.19898477250E+04  0.25500000920E-02 0.  1.
    10030    2    1    2    0    0  0.00000000000E+00  0.00000000000E+00 -0.16727819451E+04  0.23069135050E+04  0.15886001649E+04 0.  0.
        4    1    3    3  502    0  0.45832227733E+03 -0.16258923926E+03 -0.17483896556E+04  0.18147624008E+04  0.12699999809E+01 0.  1.
       -4    1    3    3    0  502 -0.45832227733E+03  0.16258923926E+03  0.75607710496E+02  0.49215110424E+03  0.12699999809E+01 0. -1.
</event>
<event>
 5   0  0.5425525E-04  0.1554080E+04  0.7818609E-02  0.8849266E-01
       -1   -1    0    0    0  501  0.00000000000E+00  0.00000000000E+00  0.63832123233E+03  0.63832123235E+03  0.50400001928E-02 0.  1.
        1   -1    0    0  501    0  0.00000000000E+00  0.00000000000E+00 -0.94590463866E+03  0.94590463867E+03  0.50400001928E-02 0. -1.
    10030    2    1    2    0    0  0.00000000000E+00  0.00000000000E+00 -0.30758340633E+03  0.15842258710E+04  0.15540798109E+04 0.  0.
        5    1    3    3  502    0 -0.68564259013E+02 -0.36968108512E+03  0.53940176565E+03  0.65752681854E+03  0.46999998093E+01 0.  1.
       -5    1    3    3    0  502  0.68564259013E+02  0.36968108512E+03 -0.84698517198E+03  0.92669905248E+03  0.46999998093E+01 0. -1.
</event>
<event>
 5   0  0.1057872E-03  0.1605692E+04  0.7818609E-02  0.8817059E-01
       -2   -1    0    0    0  501  0.00000000000E+00  0.00000000000E+00  0.34670473327E+03  0.34670473328E+03  0.25500000920E-02 0.  1.
        2   -1    0    0  501    0  0.00000000000E+00  0.00000000000E+00 -0.18591083357E+04  0.18591083357E+04  0.25500000920E-02 0. -1.
    10030    2    1    2    0    0  0.00000000000E+00  0.00000000000E+00 -0.15124036025E+04  0.22058130690E+04  0.16056919501E+04 0.  0.
        2    1    3    3  502    0  0.15215498247E+03 -0.77705035520E+03 -0.93846672860E+03  0.12278754798E+04  0.25500000920E-02 0. -1.
       -2    1    3    3    0  502 -0.15215498247E+03  0.77705035520E+03 -0.57393687387E+03  0.97793758921E+03  0.25500000920E-02 0.  1.
</event>
<event>
 5   0  0.5281116E-04  0.1803856E+04  0.7818609E-02  0.8704252E-01
       -1   -1    0    0    0  501  0.00000000000E+00  0.00000000000E+00  0.86611015248E+03  0.86611015249E+03  0.50400001928E-02 0. -1.
        1   -1    0    0  501    0  0.00000000000E+00  0.00000000000E+00 -0.93922689849E+03  0.93922689850E+03  0.50400001928E-02 0.  1.
    10030    2    1    2    0    0  0.00000000000E+00  0.00000000000E+00 -0.73116746007E+02  0.18053370510E+04  0.18038558172E+04 0.  0.
        2    1    3    3  502    0 -0.45612669435E+03  0.45578312902E+03 -0.66769822599E+03  0.92822989771E+03  0.25500000920E-02 0.  1.
       -2    1    3    3    0  502  0.45612669435E+03 -0.45578312902E+03  0.59458147999E+03  0.87710715329E+03  0.25500000920E-02 0. -1.
</event>
<event>
 5   0  0.5623061E-04  0.1579040E+04  0.7818609E-02  0.8833529E-01
       -1   -1    0    0    0  501  0.00000000000E+00  0.00000000000E+00  0.85861767878E+03  0.85861767880E+03  0.50400001928E-02 0. -1.
        1   -1    0    0  501    0  0.00000000000E+00  0.00000000000E+00 -0.72598302186E+03  0.72598302188E+03  0.50400001928E-02 0.  1.
    10030    2    1    2    0    0  0.00000000000E+00  0.00000000000E+00  0.13263465693E+03  0.15846007007E+04  0.15790400338E+04 0.  0.
        3    1    3    3  502    0 -0.28905873627E+03  0.85521094402E+02  0.79859452969E+03  0.85359360568E+03  0.10100000352E+00 0. -1.
       -3    1    3    3    0  502  0.28905873627E+03 -0.85521094402E+02 -0.66595987277E+03  0.73100709500E+03  0.10100000352E+00 0.  1.
</event>
<event>
 5   0  0.1037321E-03  0.1574145E+04  0.7818609E-02  0.8836591E-01
        2   -1    0    0  501    0  0.00000000000E+00  0.00000000000E+00  0.92616935611E+03  0.92616935611E+03  0.25500000920E-02 0. -1.
       -2   -1    0    0    0  501  0.00000000000E+00  0.00000000000E+00 -0.66886624806E+03  0.66886624807E+03  0.25500000920E-02 0.  1.
    10030    2    1    2    0    0  0.00000000000E+00  0.00000000000E+00  0.25730310805E+03  0.15950356042E+04  0.15741453838E+04 0.  0.
        5    1    3    3  502    0 -0.62044196937E+03  0.41951208999E+03  0.37377662008E+03  0.83706014283E+03  0.46999998093E+01 0. -1.
       -5    1    3    3    0  502  0.62044196937E+03 -0.41951208999E+03 -0.11647351203E+03  0.75797546135E+03  0.46999998093E+01 0.  1.
</event>
<event>
 5   0  0.1030027E-03  0.1571628E+04  0.7818609E-02  0.8838170E-01
        2   -1    0    0  501    0  0.00000000000E+00  0.00000000000E+00  0.37633677137E+03  0.37633677138E+03  0.25500000920E-02 0.  1.
       -2   -1    0    0    0  501  0.00000000000E+00  0.00000000000E+00 -0.16408263147E+04  0.16408263147E+04  0.25500000920E-02 0. -1.
    10030    2    1    2    0    0  0.00000000000E+00  0.00000000000E+00 -0.12644895433E+04  0.20171630861E+04  0.15716275356E+04 0.  0.
        1    1    3    3  502    0 -0.20583397058E+03 -0.31202946924E+03  0.25491594808E+03  0.45245127222E+03  0.50400001928E-02 0.  1.
       -1    1    3    3    0  502  0.20583397058E+03  0.31202946924E+03 -0.15194054914E+04  0.15647118139E+04  0.50400001928E-02 0. -1.
</event>
<event>
 5   0  0.5532881E-04  0.1637573E+04  0.7818609E-02  0.8797792E-01
        1   -1    0    0  501    0  0.00000000000E+00  0.00000000000E+00  0.14794984555E+04  0.14794984555E+04  0.50400001928E-02 0. -1.
       -1   -1    0    0    0  501  0.00000000000E+00  0.00000000000E+00 -0.45313439781E+03  0.45313439784E+03  0.50400001928E-02 0.  1.
    10030    2    1    2    0    0  0.00000000000E+00  0.00000000000E+00  0.10263640577E+04  0.19326328533E+04  0.16375733776E+04 0.  0.
        4    1    3    3  502    0 -0.23534591647E+03 -0.75524819482E+03  0.76248387923E+03  0.10987132543E+04  0.12699999809E+01 0. -1.
       -4    1    3    3    0  502  0.23534591647E+03  0.75524819482E+03  0.26388017844E+03  0.83391959903E+03  0.12699999809E+01 0.  1.
</event>
<event>
 5   0  0.5532881E-04  0.1559062E+04  0.7818609E-02  0.8846100E-01
       -1   -1    0    0    0  501  0.00000000000E+00  0.00000000000E+00  0.55925909042E+03  0.55925909044E+03  0.50400001928E-02 0.  1.
        1   -1    0    0  501    0  0.00000000000E+00  0.00000000000E+00 -0.10865594149E+04  0.10865594149E+04  0.50400001928E-02 0. -1.
    10030    2    1    2    0    0  0.00000000000E+00  0.00000000000E+00 -0.52730032452E+03  0.16458185054E+04  0.15590615512E+04 0.  0.
        4    1    3    3  502    0 -0.75169493288E+03 -0.19367916495E+03 -0.33911028245E+03  0.84708576167E+03  0.12699999809E+01 0.  1.
       -4    1    3    3    0  502  0.75169493288E+03  0.19367916495E+03 -0.18819004206E+03  0.79873274372E+03  0.12699999809E+01 0. -1.
</event>
<event>
 5   0  0.5623061E-04  0.1597225E+04  0.7818609E-02  0.8822254E-01
        1   -1    0    0  501    0  0.00000000000E+00  0.00000000000E+00  0.81736915626E+03  0.81736915627E+03  0.50400001928E-02 0. -1.
       -1   -1    0    0    0  501  0.00000000000E+00  0.00000000000E+00 -0.78028653271E+03  0.78028653273E+03  0.50400001928E-02 0.  1.
    10030    2    1    2    0    0  0.00000000000E+00  0.00000000000E+00  0.37082623543E+02  0.15976556890E+04  0.15972252752E+04 0.  0.
        3    1    3    3  502    0 -0.37924033697E+03  0.65114461175E+03  0.28313025984E+03  0.80496912539E+03  0.10100000352E+00 0. -1.
       -3    1    3    3    0  502  0.37924033697E+03 -0.65114461175E+03 -0.24604763630E+03  0.79268656361E+03  0.10100000352E+00 0.  1.
</event>
<event>
 5   0  0.1000121E-03  0.1631801E+04  0.7818609E-02  0.8801246E-01
        2   -1    0    0  501    0  0.00000000000E+00  0.00000000000E+00  0.13197047332E+04  0.13197047332E+04  0.25500000920E-02 0.  1.
       -2   -1    0    0    0  501  0.00000000000E+00  0.00000000000E+00 -0.50442642765E+03  0.50442642765E+03  0.25500000920E-02 0. -1.
    10030    2    1    2    0    0  0.00000000000E+00  0.00000000000E+00  0.81527830558E+03  0.18241311609E+04  0.16318013900E+04 0.  0.
        4    1    3    3  502    0 -0.60195230335E+03  0.16904509508E+02 -0.20775457875E+03  0.63702112669E+03  0.12699999809E+01 0. -1.
       -4    1    3    3    0  502  0.60195230335E+03 -0.16904509508E+02  0.10230328843E+04  0.11871100342E+04  0.12699999809E+01 0.  1.
</event>
<event>
 5   0  0.5425525E-04  0.1591188E+04  0.7818609E-02  0.8825980E-01
       -1   -1    0    0    0  501  0.00000000000E+00  0.00000000000E+00  0.99158698989E+03  0.99158698990E+03  0.50400001928E-02 0. -1.
        1   -1    0    0  501    0  0.00000000000E+00  0.00000000000E+00 -0.63833992205E+03  0.63833992207E+03  0.50400001928E-02 0.  1.
    10030    2    1    2    0    0  0.00000000000E+00  0.00000000000E+00  0.35324706784E+03  0.16299269120E+04  0.15911876845E+04 0.  0.
        5    1    3    3  502    0 -0.12365391044E+02  0.71706380965E+03  0.52941235159E+03  0.89142186310E+03  0.46999998093E+01 0. -1.
       -5    1    3    3    0  502  0.12365391044E+02 -0.71706380965E+03 -0.17616528375E+03  0.73850504887E+03  0.46999998093E+01 0.  1.
</event>
<event>
 5   0  0.9844690E-04  0.1603734E+04  0.7818609E-02  0.8818257E-01
       -2   -1    0    0    0  501  0.00000000000E+00  0.00000000000E+00  0.89766030545E+03  0.89766030545E+03  0.25500000920E-02 0. -1.
        2   -1    0    0  501    0  0.00000000000E+00  0.00000000000E+00 -0.71629628578E+03  0.71629628579E+03  0.25500000920E-02 0.  1.
    10030    2    1    2    0    0  0.00000000000E+00  0.00000000000E+00  0.18136401967E+03  0.16139565912E+04  0.16037340711E+04 0.  0.
        3    1    3    3  502    0 -0.16011635456E+03 -0.16985161553E+03  0.86271200116E+03  0.89373308400E+03  0.10100000352E+00 0. -1.
       -3    1    3    3    0  502  0.16011635456E+03  0.16985161553E+03 -0.68134798149E+03  0.72022350724E+03  0.10100000352E+00 0.  1.
</event>
<event>
 5   0  0.9844690E-04  0.1428848E+04  0.7818609E-02  0.8933197E-01
        2   -1    0    0  501    0  0.00000000000E+00  0.00000000000E+00  0.48343859937E+03  0.48343859937E+03  0.25500000920E-02 0.  1.
       -2   -1    0    0    0  501  0.00000000000E+00  0.00000000000E+00 -0.10557741425E+04  0.10557741425E+04  0.25500000920E-02 0. -1.
    10030    2    1    2    0    0  0.00000000000E+00  0.00000000000E+00 -0.57233554314E+03  0.15392127419E+04  0.14288484492E+04 0.  0.
        3    1    3    3  502    0  0.31487928131E+03  0.15099669318E+03  0.38523282319E+03  0.51995509558E+03  0.10100000352E+00 0.  1.
       -3    1    3    3    0  502 -0.31487928131E+03 -0.15099669318E+03 -0.95756836634E+03  0.10192576463E+04  0.10100000352E+00 0. -1.
</event>
<event>
 5   0  0.3832500E-04  0.1570085E+04  0.7818609E-02  0.8839140E-01
       -3   -1    0    0    0  501  0.00000000000E+00  0.00000000000E+00  0.62416578598E+03  0.62416579415E+03  0.10100000352E+00 0. -1.
        3   -1    0    0  501    0  0.00000000000E+00  0.00000000000E+00 -0.98738455683E+03  0.98738456200E+03  0.10100000352E+00 0.  1.
    10030    2    1    2    0    0  0.00000000000E+00  0.00000000000E+00 -0.36321877085E+03  0.16115503561E+04  0.15700849260E+04 0.  0.
        2    1    3    3  502    0 -0.40905302614E+03 -0.23979683397E+03 -0.82380461868E+03  0.95051614901E+03  0.25500000920E-02 0.  1.
       -2    1    3    3    0  502  0.40905302614E+03  0.23979683397E+03  0.46058584783E+03  0.66103420713E+03  0.25500000920E-02 0. -1.
</event>
<event>
 5   0  0.5425525E-04  0.1423721E+04  0.7818609E-02  0.8936825E-01
        1   -1    0    0  501    0  0.00000000000E+00  0.00000000000E+00  0.15837520879E+04  0.15837520879E+04  0.50400001928E-02 0.  1.
       -1   -1    0    0    0  501  0.00000000000E+00  0.00000000000E+00 -0.31996512883E+03  0.31996512887E+03  0.50400001928E-02 0. -1.
    10030    2    1    2    0    0  0.00000000000E+00  0.00000000000E+00  0.12637869590E+04  0.19037172167E+04  0.14237210975E+04 0.  0.
        5    1    3    3  502    0  0.16011628796E+03 -0.25665527648E+03 -0.22972223790E+03  0.37987307512E+03  0.46999998093E+01 0. -1.
       -5    1    3    3    0  502 -0.16011628796E+03  0.25665527648E+03  0.14935091969E+04  0.15238441416E+04  0.46999998093E+01 0.  1.
</event>
<event>
 5   0  0.9844690E-04  0.1599171E+04  0.7818609E-02  0.8821058E-01
       -2   -1    0    0    0  501  0.00000000000E+00  0.00000000000E+00  0.58869904596E+03  0.58869904596E+03  0.25500000920E-02 0.  1.
        2   -1    0    0  501    0  0.00000000000E+00  0.00000000000E+00 -0.10860163797E+04  0.10860163797E+04  0.25500000920E-02 0. -1.
    10030    2    1    2    0    0  0.00000000000E+00  0.00000000000E+00 -0.49731733378E+03  0.16747154257E+04  0.15991707934E+04 0.  0.
        3    1    3    3  502    0 -0.48207195740E+02 -0.20298275431E+03  0.55969307813E+03  0.59731255149E+03  0.10100000352E+00 0.  1.
       -3    1    3    3    0  502  0.48207195740E+02  0.20298275431E+03 -0.10570104119E+04  0.10774028742E+04  0.10100000352E+00 0. -1.
</event>
<event>
 5   0  0.3832500E-04  0.1584771E+04  0.7818609E-02  0.8829959E-01
       -3   -1    0    0    0  501  0.00000000000E+00  0.00000000000E+00  0.77383717312E+03  0.77383717971E+03  0.10100000352E+00 0.  1.
        3   -1    0    0  501    0  0.00000000000E+00  0.00000000000E+00 -0.81137836784E+03  0.81137837413E+03  0.10100000352E+00 0. -1.
    10030    2    1    2    0    0  0.00000000000E+00  0.00000000000E+00 -0.37541194722E+02  0.15852155538E+04  0.15847709648E+04 0.  0.
        4    1    3    3  502    0  0.59479866824E+03  0.48613997085E+03  0.17559194941E+03  0.78800486838E+03  0.12699999809E+01 0.  1.
       -4    1    3    3    0  502 -0.59479866824E+03 -0.48613997085E+03 -0.21313314413E+03  0.79721068546E+03  0.12699999809E+01 0. -1.
</event>
<event>
 5   0  0.1057872E-03  0.1624525E+04  0.7818609E-02  0.8805621E-01
        2   -1    0    0  501    0  0.00000000000E+00  0.00000000000E+00  0.61635534839E+03  0.61635534840E+03  0.25500000920E-02 0. -1.
       -2   -1    0    0    0  501  0.00000000000E+00  0.00000000000E+00 -0.10704383767E+04  0.10704383767E+04  0.25500000920E-02 0.  1.
    10030    2    1    2    0    0  0.00000000000E+00  0.00000000000E+00 -0.45408302827E+03  0.16867937251E+04  0.16245250612E+04 0.  0.
        2    1    3    3  502    0  0.34176192664E+03 -0.32743455956E+03  0.45837909101E+03  0.65888238433E+03  0.25500000920E-02 0. -1.
       -2    1    3    3    0  502 -0.34176192664E+03  0.32743455956E+03 -0.91246211928E+03  0.10279113407E+04  0.25500000920E-02 0.  1.
</event>
<event>
 5   0  0.1030027E-03  0.1586552E+04  0.7818609E-02  0.8828852E-01
       -2   -1    0    0    0  501  0.00000000000E+00  0.00000000000E+00  0.79898369473E+03  0.79898369473E+03  0.25500000920E-02 0.  1.
        2   -1    0    0  501    0  0.00000000000E+00  0.00000000000E+00 -0.78760947931E+03  0.78760947931E+03  0.25500000920E-02 0. -1.
    10030    2    1    2    0    0  0.00000000000E+00  0.00000000000E+00  0.11374215423E+02  0.15865931740E+04  0.15865524029E+04 0.  0.
        1    1    3    3  502    0  0.41924806147E+03 -0.66039455554E+03  0.13758904057E+03  0.79424218607E+03  0.50400001928E-02 0.  1.
       -1    1    3    3    0  502 -0.41924806147E+03  0.66039455554E+03 -0.12621482515E+03  0.79235098797E+03  0.50400001928E-02 0. -1.
</event>
<event>
 5   0  0.5288658E-04  0.1634805E+04  0.7818609E-02  0.8799447E-01
       -1   -1    0    0    0  501  0.00000000000E+00  0.00000000000E+00  0.53338884914E+03  0.53338884916E+03  0.50400001928E-02 0. -1.
        1   -1    0    0  501    0  0.00000000000E+00  0.00000000000E+00 -0.12526448396E+04  0.12526448396E+04  0.50400001928E-02 0.  1.
    10030    2    1    2    0    0  0.00000000000E+00  0.00000000000E+00 -0.71925599047E+03  0.17860336888E+04  0.16348049295E+04 0.  0.
        1    1    3    3  502    0 -0.50573280886E+03  0.61308518746E+03 -0.56837283872E+03  0.97708075657E+03  0.50400001928E-02 0.  1.
       -1    1    3    3    0  502  0.50573280886E+03 -0.61308518746E+03 -0.15088315176E+03  0.80895293222E+03  0.50400001928E-02 0. -1.
</event>
<event>
 5   0  0.1000121E-03  0.1598118E+04  0.7818609E-02  0.8821705E-01
        2   -1    0    0  501    0  0.00000000000E+00  0.00000000000E+00  0.71466130727E+03  0.71466130728E+03  0.25500000920E-02 0.  1.
       -2   -1    0    0    0  501  0.00000000000E+00  0.00000000000E+00 -0.89342317433E+03  0.89342317433E+03  0.25500000920E-02 0. -1.
    10030    2    1    2    0    0  0.00000000000E+00  0.00000000000E+00 -0.17876186705E+03  0.16080844816E+04  0.15981176098E+04 0.  0.
        4    1    3    3  502    0  0.14009550172E+03  0.68276312873E+03 -0.48258793007E+03  0.84775289011E+03  0.12699999809E+01 0. -1.
       -4    1    3    3    0  502 -0.14009550172E+03 -0.68276312873E+03  0.30382606301E+03  0.76033159149E+03  0.12699999809E+01 0.  1.
</event>
<event>
 5   0  0.1000121E-03  0.1609609E+04  0.7818609E-02  0.8814667E-01
        2   -1    0    0  501    0  0.00000000000E+00  0.00000000000E+00  0.11444023761E+04  0.11444023761E+04  0.25500000920E-02 0. -1.
       -2   -1    0    0    0  501  0.00000000000E+00  0.00000000000E+00 -0.56598110805E+03  0.56598110806E+03  0.25500000920E-02 0.  1.
    10030    2    1    2    0    0  0.00000000000E+00  0.00000000000E+00  0.57842126809E+03  0.17103834842E+04  0.16096088033E+04 0.  0.
        4    1    3    3  502    0  0.93607276626E+02 -0.66783072189E+03  0.75597065712E+03  0.10130416786E+04  0.12699999809E+01 0. -1.
       -4    1    3    3    0  502 -0.93607276626E+02  0.66783072189E+03 -0.17754938902E+03  0.69734180556E+03  0.12699999809E+01 0.  1.
</event>
<event>
 5   0  0.9844690E-04  0.1605952E+04  0.7818609E-02  0.8816900E-01
       -2   -1    0    0    0  501  0.00000000000E+00  0.00000000000E+00  0.48455953816E+03  0.48455953816E+03  0.25500000920E-02 0.  1.
        2   -1    0    0  501    0  0.00000000000E+00  0.00000000000E+00 -0.13306321946E+04  0.13306321946E+04  0.25500000920E-02 0. -1.
    10030    2    1    2    0    0  0.00000000000E+00  0.00000000000E+00 -0.84607265642E+03  0.18151917327E+04  0.16059520811E+04 0.  0.
        3    1    3    3  502    0 -0.61423835910E+03  0.89432686170E+02  0.15272810427E+03  0.63922832477E+03  0.10100000352E+00 0.  1.
       -3    1    3    3    0  502  0.61423835910E+03 -0.89432686170E+02 -0.99880076069E+03  0.11759634080E+04  0.10100000352E+00 0. -1.
</event>
<event>
 5   0  0.5532881E-04  0.1584117E+04  0.7818609E-02  0.8830365E-01
        1   -1    0    0  501    0  0.00000000000E+00  0.00000000000E+00  0.15697510262E+04  0.15697510262E+04  0.50400001928E-02 0. -1.
       -1   -1    0    0    0  501  0.00000000000E+00  0.00000000000E+00 -0.39965363708E+03  0.39965363711E+03  0.50400001928E-02 0.  1.
    10030    2    1    2    0    0  0.00000000000E+00  0.00000000000E+00  0.11700973891E+04  0.19694046633E+04  0.15841170499E+04 0.  0.
        4    1    3    3  502    0  0.80531855449E+02 -0.75333079676E+03  0.87223615433E+03  0.11553312040E+04  0.12699999809E+01 0. -1.
       -4    1    3    3    0  502 -0.80531855449E+02  0.75333079676E+03  0.29786123479E+03  0.81407345932E+03  0.12699999809E+01 0.  1.
</event>
<event>
 5   0  0.5281116E-04  0.1594102E+04  0.7818609E-02  0.8824180E-01
       -1   -1    0    0    0  501  0.00000000000E+00  0.00000000000E+00  0.31126929747E+03  0.31126929751E+03  0.50400001928E-02 0. -1.
        1   -1    0    0  501    0  0.00000000000E+00  0.00000000000E+00 -0.20409656092E+04  0.20409656092E+04  0.50400001928E-02 0.  1.
    10030    2    1    2    0    0  0.00000000000E+00  0.00000000000E+00 -0.17296963117E+04  0.23522349067E+04  0.15941015418E+04 0.  0.
        2    1    3    3  502    0 -0.91725924259E+02 -0.57527623515E+03 -0.62132371402E+02  0.58584709908E+03  0.25500000920E-02 0.  1.
       -2    1    3    3    0  502  0.91725924259E+02  0.57527623515E+03 -0.16675639403E+04  0.17663878076E+04  0.25500000920E-02 0. -1.
</event>
<event>
 5   0  0.9844690E-04  0.1521591E+04  0.7818609E-02  0.8870221E-01
       -2   -1    0    0    0  501  0.00000000000E+00  0.00000000000E+00  0.84355673921E+03  0.84355673921E+03  0.25500000920E-02 0.  1.
        2   -1    0    0  501    0  0.00000000000E+00  0.00000000000E+00 -0.68615430280E+03  0.68615430281E+03  0.25500000920E-02 0. -1.
    10030    2    1    2    0    0  0.00000000000E+00  0.00000000000E+00  0.15740243641E+03  0.15297110420E+04  0.15215913857E+04 0.  0.
        3    1    3    3  502    0  0.48080781086E+03  0.34203252359E+03 -0.40411950696E+03  0.71517479282E+03  0.10100000352E+00 0. -1.
       -3    1    3    3    0  502 -0.48080781086E+03 -0.34203252359E+03  0.56152194337E+03  0.81453624920E+03  0.10100000352E+00 0.  1.
</event>
<event>
 5   0  0.1000121E-03  0.1860389E+04  0.7818609E-02  0.8674828E-01
       -2   -1    0    0    0  501  0.00000000000E+00  0.00000000000E+00  0.65954027938E+03  0.65954027938E+03  0.25500000920E-02 0. -1.
        2   -1    0    0  501    0  0.00000000000E+00  0.00000000000E+00 -0.13119170397E+04  0.13119170397E+04  0.25500000920E-02 0.  1.
    10030    2    1    2    0    0  0.00000000000E+00  0.00000000000E+00 -0.65237676031E+03  0.19714573191E+04  0.18603893473E+04 0.  0.
        4    1    3    3  502    0 -0.25166282708E+03 -0.62930284493E+03  0.34895395980E+03  0.76231668494E+03  0.12699999809E+01 0. -1.
       -4    1    3    3    0  502  0.25166282708E+03  0.62930284493E+03 -0.10013307201E+04  0.12091406341E+04  0.12699999809E+01 0.  1.
</event>
<event>
 5   0  0.1000121E-03  0.1555932E+04  0.7818609E-02  0.8848088E-01
        2   -1    0    0  501    0  0.00000000000E+00  0.00000000000E+00  0.11039349143E+04  0.11039349143E+04  0.25500000920E-02 0. -1.
       -2   -1    0    0    0  501  0.00000000000E+00  0.00000000000E+00 -0.54824872619E+03  0.54824872620E+03  0.25500000920E-02 0.  1.
    10030    2    1    2    0    0  0.00000000000E+00  0.00000000000E+00  0.55568618806E+03  0.16521836405E+04  0.15559317601E+04 0.  0.
        4    1    3    3  502    0  0.15805100142E+03  0.51223042670E+03 -0.32083308021E+03  0.62473643030E+03  0.12699999809E+01 0.  1.
       -4    1    3    3    0  502 -0.15805100142E+03 -0.51223042670E+03  0.87651926828E+03  0.10274472102E+04  0.12699999809E+01 0. -1.
</event>
<event>
 5   0  0.5623061E-04  0.1578013E+04  0.7818609E-02  0.8834171E-01
       -1   -1    0    0    0  501  0.00000000000E+00  0.00000000000E+00  0.73530394893E+03  0.73530394894E+03  0.50400001928E-02 0. -1.
        1   -1    0    0  501    0  0.00000000000E+00  0.00000000000E+00 -0.84663092094E+03  0.84663092096E+03  0.50400001928E-02 0.  1.
    10030    2    1    2    0    0  0.00000000000E+00  0.00000000000E+00 -0.11132697202E+03  0.15819348699E+04  0.15780127496E+04 0.  0.
        3    1    3    3  502    0  0.62027262318E+03  0.32782243158E+03 -0.41756681991E+03  0.81643599443E+03  0.10100000352E+00 0.  1.
       -3    1    3    3    0  502 -0.62027262318E+03 -0.32782243158E+03  0.30623984790E+03  0.76549887547E+03  0.10100000352E+00 0. -1.
</event>
<event>
 5   0  0.5288658E-04  0.1609776E+04  0.7818609E-02  0.8814565E-01
       -1   -1    0    0    0  501  0.00000000000E+00  0.00000000000E+00  0.75421023048E+03  0.75421023050E+03  0.50400001928E-02 0.  1.
        1   -1    0    0  501    0  0.00000000000E+00  0.00000000000E+00 -0.85897091493E+03  0.85897091495E+03  0.50400001928E-02 0. -1.
    10030    2    1    2    0    0  0.00000000000E+00  0.00000000000E+00 -0.10476068445E+03  0.16131811454E+04  0.16097759493E+04 0.  0.
        1    1    3    3  502    0 -0.46679364226E+03  0.54892190287E+03  0.30703288580E+03  0.78325012155E+03  0.50400001928E-02 0.  1.
       -1    1    3    3    0  502  0.46679364226E+03 -0.54892190287E+03 -0.41179357025E+03  0.82993102390E+03  0.50400001928E-02 0. -1.
</event>
<event>
 5   0  0.5281116E-04  0.1588719E+04  0.7818609E-02  0.8827508E-01
       -1   -1    0    0    0  501  0.00000000000E+00  0.00000000000E+00  0.53175164090E+03  0.53175164093E+03  0.50400001928E-02 0.  1.
        1   -1    0    0  501    0  0.00000000000E+00  0.00000000000E+00 -0.11866575611E+04  0.11866575611E+04  0.50400001928E-02 0. -1.
    10030    2    1    2    0    0  0.00000000000E+00  0.00000000000E+00 -0.65490592023E+03  0.17184092021E+04  0.15887191134E+04 0.  0.
        2    1    3    3  502    0 -0.37763229751E+03 -0.23115591757E+03 -0.10408118382E+04  0.11310740440E+04  0.25500000920E-02 0. -1.
       -2    1    3    3    0  502  0.37763229751E+03  0.23115591757E+03  0.38590591802E+03  0.58733515808E+03  0.25500000920E-02 0.  1.
</event>
<event>
 5   0  0.1030027E-03  0.1583112E+04  0.7818609E-02  0.8830991E-01
        2   -1    0    0  501    0  0.00000000000E+00  0.00000000000E+00  0.10837726784E+04  0.10837726784E+04  0.25500000920E-02 0. -1.
       -2   -1    0    0    0  501  0.00000000000E+00  0.00000000000E+00 -0.57812947629E+03  0.57812947630E+03  0.25500000920E-02 0.  1.
    10030    2    1    2    0    0  0.00000000000E+00  0.00000000000E+00  0.50564320209E+03  0.16619021547E+04  0.15831120377E+04 0.  0.
        1    1    3    3  502    0  0.19482501821E+03 -0.10912667595E+03  0.10500212255E+04  0.10735036065E+04  0.50400001928E-02 0. -1.
       -1    1    3    3    0  502 -0.19482501821E+03  0.10912667595E+03 -0.54437802341E+03  0.58839854820E+03  0.50400001928E-02 0.  1.
</event>
<event>
 5   0  0.1000121E-03  0.1638329E+04  0.7818609E-02  0.8797341E-01
       -2   -1    0    0    0  501  0.00000000000E+00  0.00000000000E+00  0.52304936086E+03  0.52304936087E+03  0.25500000920E-02 0. -1.
        2   -1    0    0  501    0  0.00000000000E+00  0.00000000000E+00 -0.12829200209E+04  0.12829200209E+04  0.25500000920E-02 0.  1.
    10030    2    1    2    0    0  0.00000000000E+00  0.00000000000E+00 -0.75987066008E+03  0.18059693818E+04  0.16383290231E+04 0.  0.
        4    1    3    3  502    0  0.63660434521E+03  0.19606032002E+03  0.14563645106E+03  0.68184773242E+03  0.12699999809E+01 0. -1.
       -4    1    3    3    0  502 -0.63660434521E+03 -0.19606032002E+03 -0.90550711114E+03  0.11241216494E+04  0.12699999809E+01 0.  1.
</event>
<event>
 5   0  0.5425525E-04  0.1470305E+04  0.7818609E-02  0.8904444E-01
        1   -1    0    0  501    0  0.00000000000E+00  0.00000000000E+00  0.21280974307E+04  0.21280974307E+04  0.50400001928E-02 0.  1.
       -1   -1    0    0    0  501  0.00000000000E+00  0.00000000000E+00 -0.25395876091E+03  0.25395876096E+03  0.50400001928E-02 0. -1.
    10030    2    1    2    0    0  0.00000000000E+00  0.00000000000E+00  0.18741386697E+04  0.23820561916E+04  0.14703047122E+04 0.  0.
        5    1    3    3  502    0  0.34517936835E+03 -0.73006879000E+02  0.19819440583E+04  0.20131078314E+04  0.46999998093E+01 0.  1.
       -5    1    3    3    0  502 -0.34517936835E+03  0.73006879000E+02 -0.10780538852E+03  0.36894836022E+03  0.46999998093E+01 0. -1.
</event>
<event>
 5   0  0.1030027E-03  0.1533539E+04  0.7818609E-02  0.8862451E-01
        2   -1    0    0  501    0  0.00000000000E+00  0.00000000000E+00  0.16567352975E+04  0.16567352975E+04  0.25500000920E-02 0.  1.
       -2   -1    0    0    0  501  0.00000000000E+00  0.00000000000E+00 -0.35487572990E+03  0.35487572991E+03  0.25500000920E-02 0. -1.
    10030    2    1    2    0    0  0.00000000000E+00  0.00000000000E+00  0.13018595676E+04  0.20116110274E+04  0.15335385850E+04 0.  0.
        1    1    3    3  502    0  0.52671561567E+03  0.12826678910E+03 -0.60385976842E+02  0.54546143328E+03  0.50400001928E-02 0. -1.
       -1    1    3    3    0  502 -0.52671561567E+03 -0.12826678910E+03  0.13622455444E+04  0.14661495941E+04  0.50400001928E-02 0.  1.
</event>
<event>
 5   0  0.5623061E-04  0.1594704E+04  0.7818609E-02  0.8823808E-01
        1   -1    0    0  501    0  0.00000000000E+00  0.00000000000E+00  0.36989481174E+03  0.36989481177E+03  0.50400001928E-02 0. -1.
       -1   -1    0    0    0  501  0.00000000000E+00  0.00000000000E+00 -0.17187872662E+04  0.17187872662E+04  0.50400001928E-02 0.  1.
    10030    2    1    2    0    0  0.00000000000E+00  0.00000000000E+00 -0.13488924544E+04  0.20886820779E+04  0.15947043516E+04 0.  0.
        3    1    3    3  502    0  0.40345648483E+03 -0.54033318912E+02  0.22355133905E+03  0.46440493763E+03  0.10100000352E+00 0. -1.
       -3    1    3    3    0  502 -0.40345648483E+03  0.54033318912E+02 -0.15724437935E+04  0.16242771403E+04  0.10100000352E+00 0.  1.
</event>
<event>
 5   0  0.5425525E-04  0.1597256E+04  0.7818609E-02  0.8822236E-01
        1   -1    0    0  501    0  0.00000000000E+00  0.00000000000E+00  0.29895127288E+04  0.29895127288E+04  0.50400001928E-02 0.  1.
       -1   -1    0    0    0  501  0.00000000000E+00  0.00000000000E+00 -0.21334796198E+03  0.21334796204E+03  0.50400001928E-02 0. -1.
    10030    2    1    2    0    0  0.00000000000E+00  0.00000000000E+00  0.27761647668E+04  0.32028606908E+04  0.15972557067E+04 0.  0.
        5    1    3    3  502    0  0.19931002544E+03  0.60031300742E+03  0.23656880842E+04  0.24487961113E+04  0.46999998093E+01 0.  1.
       -5    1    3    3    0  502 -0.19931002544E+03 -0.60031300742E+03  0.41047668262E+03  0.75406457952E+03  0.46999998093E+01 0. -1.
</event>
<event>
 5   0  0.5425525E-04  0.1536483E+04  0.7818609E-02  0.8860548E-01
        1   -1    0    0  501    0  0.00000000000E+00  0.00000000000E+00  0.10789168816E+04  0.10789168816E+04  0.50400001928E-02 0. -1.
       -1   -1    0    0    0  501  0.00000000000E+00  0.00000000000E+00 -0.54702539367E+03  0.54702539370E+03  0.50400001928E-02 0.  1.
    10030    2    1    2    0    0  0.00000000000E+00  0.00000000000E+00  0.53189148792E+03  0.16259422753E+04  0.15364829084E+04 0.  0.
        5    1    3    3  502    0  0.39164308206E+03 -0.40145529961E+03 -0.28961873646E+03  0.63123035717E+03  0.46999998093E+01 0.  1.
       -5    1    3    3    0  502 -0.39164308206E+03  0.40145529961E+03  0.82151022438E+03  0.99471191813E+03  0.46999998093E+01 0. -1.
</event>
<event>
 5   0  0.1037321E-03  0.1746288E+04  0.7818609E-02  0.8735396E-01
        2   -1    0    0  501    0  0.00000000000E+00  0.00000000000E+00  0.18259654806E+04  0.18259654806E+04  0.25500000920E-02 0. -1.
       -2   -1    0    0    0  501  0.00000000000E+00  0.00000000000E+00 -0.41752170596E+03  0.41752170597E+03  0.25500000920E-02 0.  1.
    10030    2    1    2    0    0  0.00000000000E+00  0.00000000000E+00  0.14084437747E+04  0.22434871866E+04  0.17462877455E+04 0.  0.
        5    1    3    3  502    0  0.31430167762E+03 -0.10009703527E+03 -0.33437795023E+03  0.46971870797E+03  0.46999998093E+01 0.  1.
       -5    1    3    3    0  502 -0.31430167762E+03  0.10009703527E+03  0.17428217249E+04  0.17737684786E+04  0.46999998093E+01 0. -1.
</event>
<event>
 5   0  0.1037321E-03  0.1620133E+04  0.7818609E-02  0.8808274E-01
       -2   -1    0    0    0  501  0.00000000000E+00  0.00000000000E+00  0.73572209128E+03  0.73572209128E+03  0.25500000920E-02 0. -1.
        2   -1    0    0  501    0  0.00000000000E+00  0.00000000000E+00 -0.89192302751E+03  0.89192302751E+03  0.25500000920E-02 0.  1.
    10030    2    1    2    0    0  0.00000000000E+00  0.00000000000E+00 -0.15620093623E+03  0.16276451188E+04  0.16201326798E+04 0.  0.
        5    1    3    3  502    0 -0.20751403090E+03 -0.75797672539E+03 -0.27546648944E+03  0.83276327132E+03  0.46999998093E+01 0.  1.
       -5    1    3    3    0  502  0.20751403090E+03  0.75797672539E+03  0.11926555321E+03  0.79488184747E+03  0.46999998093E+01 0. -1.
</event>
<event>
 5   0  0.1000121E-03  0.1663946E+04  0.7818609E-02  0.8782199E-01
       -2   -1    0    0    0  501  0.00000000000E+00  0.00000000000E+00  0.34919009333E+03  0.34919009334E+03  0.25500000920E-02 0. -1.
        2   -1    0    0  501    0  0.00000000000E+00  0.00000000000E+00 -0.19822407919E+04  0.19822407919E+04  0.25500000920E-02 0.  1.
    10030    2    1    2    0    0  0.00000000000E+00  0.00000000000E+00 -0.16330506986E+04  0.23314308852E+04  0.16639457288E+04 0.  0.
        4    1    3    3  502    0  0.35071429732E+03  0.71513757228E+03 -0.47979825387E+03  0.92985495802E+03  0.12699999809E+01 0.  1.
       -4    1    3    3    0  502 -0.35071429732E+03 -0.71513757228E+03 -0.11532524447E+04  0.14015759272E+04  0.12699999809E+01 0. -1.
</event>
<event>
 5   0  0.5288658E-04  0.1747321E+04  0.7818609E-02  0.8734826E-01
       -1   -1    0    0    0  501  0.00000000000E+00  0.00000000000E+00  0.83799880681E+03  0.83799880682E+03  0.50400001928E-02 0.  1.
        1   -1    0    0  501    0  0.00000000000E+00  0.00000000000E+00 -0.91083994828E+03  0.91083994830E+03  0.50400001928E-02 0. -1.
    10030    2    1    2    0    0  0.00000000000E+00  0.00000000000E+00 -0.72841141473E+02  0.17488387551E+04  0.17473211381E+04 0.  0.
        1    1    3    3  502    0  0.49152909727E+03  0.66828296664E+03 -0.31066551428E+03  0.88584199424E+03  0.50400001928E-02 0.  1.
       -1    1    3    3    0  502 -0.49152909727E+03 -0.66828296664E+03  0.23782437281E+03  0.86299676088E+03  0.50400001928E-02 0. -1.
</event>
<event>
 5   0  0.1037321E-03  0.1591931E+04  0.7818609E-02  0.8825520E-01
       -2   -1    0    0    0  501  0.00000000000E+00  0.00000000000E+00  0.41871932067E+03  0.41871932068E+03  0.25500000920E-02 0. -1.
        2   -1    0    0  501    0  0.00000000000E+00  0.00000000000E+00 -0.15130930553E+04  0.15130930553E+04  0.25500000920E-02 0.  1.
    10030    2    1    2    0    0  0.00000000000E+00  0.00000000000E+00 -0.10943737346E+04  0.19318123760E+04  0.15919312752E+04 0.  0.
        5    1    3    3  502    0  0.25058698321E+03  0.35647800837E+03 -0.13554822042E+04  0.14238063431E+04  0.46999998093E+01 0.  1.
       -5    1    3    3    0  502 -0.25058698321E+03 -0.35647800837E+03  0.26110846958E+03  0.50800603293E+03  0.46999998093E+01 0. -1.
</event>
<event>
 5   0  0.5425525E-04  0.1592739E+04  0.7818609E-02  0.8825021E-01
        1   -1    0    0  501    0  0.00000000000E+00  0.00000000000E+00  0.84440403172E+03  0.84440403174E+03  0.50400001928E-02 0. -1.
       -1   -1    0    0    0  501  0.00000000000E+00  0.00000000000E+00 -0.75106768576E+03  0.75106768577E+03  0.50400001928E-02 0.  1.
    10030    2    1    2    0    0  0.00000000000E+00  0.00000000000E+00  0.93336345970E+02  0.15954717175E+04  0.15927392530E+04 0.  0.
        5    1    3    3  502    0  0.38659704047E+03 -0.33994022568E+03 -0.56196440390E+03  0.76213037598E+03  0.46999998093E+01 0.  1.
       -5    1    3    3    0  502 -0.38659704047E+03  0.33994022568E+03  0.65530074987E+03  0.83334134154E+03  0.46999998093E+01 0. -1.
</event>
<event>
 5   0  0.9844690E-04  0.1630322E+04  0.7818609E-02  0.8802133E-01
        2   -1    0    0  501    0  0.00000000000E+00  0.00000000000E+00  0.53672843072E+03  0.53672843072E+03  0.25500000920E-02 0.  1.
       -2   -1    0    0    0  501  0.00000000000E+00  0.00000000000E+00 -0.12380331579E+04  0.12380331579E+04  0.25500000920E-02 0. -1.
    10030    2    1    2    0    0  0.00000000000E+00  0.00000000000E+00 -0.70130472719E+03  0.17747615886E+04  0.16303221694E+04 0.  0.
        3    1    3    3  502    0  0.27359054671E+03 -0.72856796274E+03 -0.86626918536E+02  0.78304999636E+03  0.10100000352E+00 0.  1.
       -3    1    3    3    0  502 -0.27359054671E+03  0.72856796274E+03 -0.61467780866E+03  0.99171159227E+03  0.10100000352E+00 0. -1.
</event>
<event>
 5   0  0.1037321E-03  0.1623839E+04  0.7818609E-02  0.8806035E-01
        2   -1    0    0  501    0  0.00000000000E+00  0.00000000000E+00  0.16445066604E+04  0.16445066604E+04  0.25500000920E-02 0. -1.
       -2   -1    0    0    0  501  0.00000000000E+00  0.00000000000E+00 -0.40085793643E+03  0.40085793644E+03  0.25500000920E-02 0.  1.
    10030    2    1    2    0    0  0.00000000000E+00  0.00000000000E+00  0.12436487240E+04  0.20453645969E+04  0.16238393349E+04 0.  0.
        5    1    3    3  502    0 -0.71744833249E+03  0.40688787987E+02  0.10978140151E+04  0.13120996110E+04  0.46999998093E+01 0. -1.
       -5    1    3    3    0  502  0.71744833249E+03 -0.40688787987E+02  0.14583470886E+03  0.73326498591E+03  0.46999998093E+01 0.  1.
</event>
<event>
 5   0  0.5532881E-04  0.1556413E+04  0.7818609E-02  0.8847782E-01
        1   -1    0    0  501    0  0.00000000000E+00  0.00000000000E+00  0.16442034081E+04  0.16442034081E+04  0.50400001928E-02 0. -1.
       -1   -1    0    0    0  501  0.00000000000E+00  0.00000000000E+00 -0.36832738000E+03  0.36832738003E+03  0.50400001928E-02 0.  1.
    10030    2    1    2    0    0  0.00000000000E+00  0.00000000000E+00  0.12758760281E+04  0.20125307882E+04  0.15564127133E+04 0.  0.
        4    1    3    3  502    0  0.21331645430E+02  0.35506034119E+03  0.15329360288E+04  0.15736636764E+04  0.12699999809E+01 0. -1.
       -4    1    3    3    0  502 -0.21331645430E+02 -0.35506034119E+03 -0.25706000068E+03  0.43886711181E+03  0.12699999809E+01 0.  1.
</event>
<event>
 5   0  0.9844690E-04  0.1588208E+04  0.7818609E-02  0.8827825E-01
       -2   -1    0    0    0  501  0.00000000000E+00  0.00000000000E+00  0.50457563673E+03  0.50457563673E+03  0.25500000920E-02 0. -1.
        2   -1    0    0  501    0  0.00000000000E+00  0.00000000000E+00 -0.12497661338E+04  0.12497661338E+04  0.25500000920E-02 0.  1.
    10030    2    1    2    0    0  0.00000000000E+00  0.00000000000E+00 -0.74519049708E+03  0.17543417705E+04  0.15882084784E+04 0.  0.
        3    1    3    3  502    0 -0.63294798196E+03 -0.45968655252E+03 -0.22167761721E+03  0.81306571112E+03  0.10100000352E+00 0. -1.
       -3    1    3    3    0  502  0.63294798196E+03  0.45968655252E+03 -0.52351287987E+03  0.94127605941E+03  0.10100000352E+00 0.  1.
</event>
<event>
 5   0  0.1057872E-03  0.1659267E+04  0.7818609E-02  0.8784943E-01
        2   -1    0    0  501    0  0.00000000000E+00  0.00000000000E+00  0.19064644449E+04  0.19064644449E+04  0.25500000920E-02 0.  1.
       -2   -1    0    0    0  501  0.00000000000E+00  0.00000000000E+00 -0.36103027390E+03  0.36103027391E+03  0.25500000920E-02 0. -1.
    10030    2    1    2    0    0  0.00000000000E+00  0.00000000000E+00  0.15454341710E+04  0.22674947188E+04  0.16592665618E+04 0.  0.
        2    1    3    3  502    0  0.53316527423E+03  0.21984275417E+03  0.15877388520E+04  0.16892337637E+04  0.25500000920E-02 0.  1.
       -2    1    3    3    0  502 -0.53316527423E+03 -0.21984275417E+03 -0.42304680985E+02  0.57826095514E+03  0.25500000920E-02 0. -1.
</event>
<event>
 5   0  0.1000121E-03  0.1627190E+04  0.7818609E-02  0.8804016E-01
        2   -1    0    0  501    0  0.00000000000E+00  0.00000000000E+00  0.90503169070E+03  0.90503169070E+03  0.25500000920E-02 0.  1.
       -2   -1    0    0    0  501  0.00000000000E+00  0.00000000000E+00 -0.73139642486E+03  0.73139642486E+03  0.25500000920E-02 0. -1.
    10030    2    1    2    0    0  0.00000000000E+00  0.00000000000E+00  0.17363526584E+03  0.16364281156E+04  0.16271901462E+04 0.  0.
        4    1    3    3  502    0 -0.43936009270E+03 -0.10381281336E+03  0.76750657884E+03  0.89043941553E+03  0.12699999809E+01 0.  1.
       -4    1    3    3    0  502  0.43936009270E+03  0.10381281336E+03 -0.59387131299E+03  0.74598870003E+03  0.12699999809E+01 0. -1.
</event>
<event>
 5   0  0.9844690E-04  0.1601337E+04  0.7818609E-02  0.8819727E-01
        2   -1    0    0  501    0  0.00000000000E+00  0.00000000000E+00  0.11302982375E+04  0.11302982375E+04  0.25500000920E-02 0.  1.
       -2   -1    0    0    0  501  0.00000000000E+00  0.00000000000E+00 -0.56716868538E+03  0.56716868538E+03  0.25500000920E-02 0. -1.
    10030    2    1    2    0    0  0.00000000000E+00  0.00000000000E+00  0.56312955214E+03  0.16974669229E+04  0.16013366485E+04 0.  0.
        3    1    3    3  502    0  0.42040281412E+03 -0.60425726529E+03  0.61543994058E+03  0.95949554425E+03  0.10100000352E+00 0.  1.
       -3    1    3    3    0  502 -0.42040281412E+03  0.60425726529E+03 -0.52310388438E+02  0.73797137865E+03  0.10100000352E+00 0. -1.
</event>
<event>
 5   0  0.1030027E-03  0.1610968E+04  0.7818609E-02  0.8813838E-01
        2   -1    0    0  501    0  0.00000000000E+00  0.00000000000E+00  0.12845242637E+04  0.12845242637E+04  0.25500000920E-02 0. -1.
       -2   -1    0    0    0  501  0.00000000000E+00  0.00000000000E+00 -0.50509342127E+03  0.50509342128E+03  0.25500000920E-02 0.  1.
    10030    2    1    2    0    0  0.00000000000E+00  0.00000000000E+00  0.77943084247E+03  0.17896176850E+04  0.16109683486E+04 0.  0.
        1    1    3    3  502    0 -0.46707557673E+03  0.65272013822E+03  0.46507298165E+03  0.92762926404E+03  0.50400001928E-02 0.  1.
       -1    1    3    3    0  502  0.46707557673E+03 -0.65272013822E+03  0.31435786081E+03  0.86198842098E+03  0.50400001928E-02 0. -1.
</event>
<event>
 5   0  0.1030027E-03  0.1597663E+04  0.7818609E-02  0.8821985E-01
       -2   -1    0    0    0  501  0.00000000000E+00  0.00000000000E+00  0.97162495211E+03  0.97162495211E+03  0.25500000920E-02 0. -1.
        2   -1    0    0  501    0  0.00000000000E+00  0.00000000000E+00 -0.65676760536E+03  0.65676760537E+03  0.25500000920E-02 0.  1.
    10030    2    1    2    0    0  0.00000000000E+00  0.00000000000E+00  0.31485734674E+03  0.16283925575E+04  0.15976630347E+04 0.  0.
        1    1    3    3  502    0 -0.34609936491E+03  0.55544682083E+03  0.62430668363E+03  0.90446933415E+03  0.50400001928E-02 0. -1.
       -1    1    3    3    0  502  0.34609936491E+03 -0.55544682083E+03 -0.30944933689E+03  0.72392322334E+03  0.50400001928E-02 0.  1.
</event>
<event>
 5   0  0.5288658E-04  0.1594347E+04  0.7818609E-02  0.8824028E-01
        1   -1    0    0  501    0  0.00000000000E+00  0.00000000000E+00  0.12824512494E+04  0.12824512494E+04  0.50400001928E-02 0. -1.
       -1   -1    0    0    0  501  0.00000000000E+00  0.00000000000E+00 -0.49552415907E+03  0.49552415909E+03  0.50400001928E-02 0.  1.
    10030    2    1    2    0    0  0.00000000000E+00  0.00000000000E+00  0.78692709029E+03  0.17779754085E+04  0.15943469847E+04 0.  0.
        1    1    3    3  502    0 -0.77210959465E+03  0.19547301684E+03  0.35609852867E+03  0.87245004935E+03  0.50400001928E-02 0. -1.
       -1    1    3    3    0  502  0.77210959465E+03 -0.19547301684E+03  0.43082856162E+03  0.90552535911E+03  0.50400001928E-02 0.  1.
</event>
<event>
 5   0  0.5281116E-04  0.1583513E+04  0.7818609E-02  0.8830741E-01
        1   -1    0    0  501    0  0.00000000000E+00  0.00000000000E+00  0.20259834643E+04  0.20259834643E+04  0.50400001928E-02 0. -1.
       -1   -1    0    0    0  501  0.00000000000E+00  0.00000000000E+00 -0.30941911131E+03  0.30941911135E+03  0.50400001928E-02 0.  1.
    10030    2    1    2    0    0  0.00000000000E+00  0.00000000000E+00  0.17165643530E+04  0.23354025756E+04  0.15835125552E+04 0.  0.
        2    1    3    3  502    0 -0.52942833970E+02 -0.78096617824E+03  0.10338227334E+04  0.12967268638E+04  0.25500000920E-02 0. -1.
       -2    1    3    3    0  502  0.52942833970E+02  0.78096617824E+03  0.68274161959E+03  0.10386757118E+04  0.25500000920E-02 0.  1.
</event>
<event>
 5   0  0.1030027E-03  0.1638519E+04  0.7818609E-02  0.8797228E-01
        2   -1    0    0  501    0  0.00000000000E+00  0.00000000000E+00  0.15684097241E+04  0.15684097241E+04  0.25500000920E-02 0.  1.
       -2   -1    0    0    0  501  0.00000000000E+00  0.00000000000E+00 -0.42794042131E+03  0.42794042132E+03  0.25500000920E-02 0. -1.
    10030    2    1    2    0    0  0.00000000000E+00  0.00000000000E+00  0.11404693028E+04  0.19963501454E+04  0.16385187434E+04 0.  0.
        1    1    3    3  502    0  0.38331073295E+03 -0.42178380988E+02  0.14509185327E+04  0.15012896863E+04  0.50400001928E-02 0.  1.
       -1    1    3    3    0  502 -0.38331073295E+03  0.42178380988E+02 -0.31044922987E+03  0.49506045910E+03  0.50400001928E-02 0. -1.
</event>
<event>
 5   0  0.5623061E-04  0.1574044E+04  0.7818609E-02  0.8836655E-01
       -1   -1    0    0    0  501  0.00000000000E+00  0.00000000000E+00  0.72058996376E+03  0.72058996378E+03  0.50400001928E-02 0.  1.
        1   -1    0    0  501    0  0.00000000000E+00  0.00000000000E+00 -0.85957795347E+03  0.85957795348E+03  0.50400001928E-02 0. -1.
    10030    2    1    2    0    0  0.00000000000E+00  0.00000000000E+00 -0.13898798971E+03  0.15801679173E+04  0.15740435145E+04 0.  0.
        3    1    3    3  502    0  0.29519578206E+03  0.72954973683E+03 -0.65019308897E+02  0.78969037539E+03  0.10100000352E+00 0. -1.
       -3    1    3    3    0  502 -0.29519578206E+03 -0.72954973683E+03 -0.73968680811E+02  0.79047754187E+03  0.10100000352E+00 0.  1.
</event>
<event>
 5   0  0.1037321E-03  0.1118744E+04  0.7818609E-02  0.9187112E-01
       -2   -1    0    0    0  501  0.00000000000E+00  0.00000000000E+00  0.28438325995E+03  0.28438325997E+03  0.25500000920E-02 0.  1.
        2   -1    0    0  501    0  0.00000000000E+00  0.00000000000E+00 -0.11002661787E+04  0.11002661787E+04  0.25500000920E-02 0. -1.
    10030    2    1    2    0    0  0.00000000000E+00  0.00000000000E+00 -0.81588291871E+03  0.13846494386E+04  0.11187444439E+04 0.  0.
        5    1    3    3  502    0 -0.76906190244E+02 -0.42067477969E+03 -0.85418251851E+03  0.95526524970E+03  0.46999998093E+01 0. -1.
       -5    1    3    3    0  502  0.76906190244E+02  0.42067477969E+03  0.38299599800E+02  0.42938418893E+03  0.46999998093E+01 0.  1.
</event>
<event>
 5   0  0.5623061E-04  0.1643012E+04  0.7818609E-02  0.8794551E-01
       -1   -1    0    0    0  501  0.00000000000E+00  0.00000000000E+00  0.65763917278E+03  0.65763917280E+03  0.50400001928E-02 0. -1.
        1   -1    0    0  501    0  0.00000000000E+00  0.00000000000E+00 -0.10262046828E+04  0.10262046828E+04  0.50400001928E-02 0.  1.
    10030    2    1    2    0    0  0.00000000000E+00  0.00000000000E+00 -0.36856551002E+03  0.16838438556E+04  0.16430123539E+04 0.  0.
        3    1    3    3  502    0 -0.38077387754E+02  0.17920709446E+03  0.63643548515E+03  0.66228030857E+03  0.10100000352E+00 0. -1.
       -3    1    3    3    0  502  0.38077387754E+02 -0.17920709446E+03 -0.10050009952E+04  0.10215635471E+04  0.10100000352E+00 0.  1.
</event>
<event>
 5   0  0.1057872E-03  0.1552431E+04  0.7818609E-02  0.8850316E-01
       -2   -1    0    0    0  501  0.00000000000E+00  0.00000000000E+00  0.26400783196E+03  0.26400783197E+03  0.25500000920E-02 0. -1.
        2   -1    0    0  501    0  0.00000000000E+00  0.00000000000E+00 -0.22821694500E+04  0.22821694500E+04  0.25500000920E-02 0.  1.
    10030    2    1    2    0    0  0.00000000000E+00  0.00000000000E+00 -0.20181616180E+04  0.25461772819E+04  0.15524311369E+04 0.  0.
        2    1    3    3  502    0  0.21368359876E+03 -0.43540261259E+03 -0.15114467480E+02  0.48524690887E+03  0.25500000920E-02 0. -1.
       -2    1    3    3    0  502 -0.21368359876E+03  0.43540261259E+03 -0.20030471505E+04  0.20609303731E+04  0.25500000920E-02 0.  1.
</event>
<event>
 5   0  0.5532881E-04  0.1595952E+04  0.7818609E-02  0.8823039E-01
       -1   -1    0    0    0  501  0.00000000000E+00  0.00000000000E+00  0.81276983754E+03  0.81276983756E+03  0.50400001928E-02 0. -1.
        1   -1    0    0  501    0  0.00000000000E+00  0.00000000000E+00 -0.78345103914E+03  0.78345103915E+03  0.50400001928E-02 0.  1.
    10030    2    1    2    0    0  0.00000000000E+00  0.00000000000E+00  0.29318798403E+02  0.15962208767E+04  0.15959515955E+04 0.  0.
        4    1    3    3  502    0 -0.17923876722E+03  0.63575218840E+03  0.46245849587E+03  0.80633544758E+03  0.12699999809E+01 0. -1.
       -4    1    3    3    0  502  0.17923876722E+03 -0.63575218840E+03 -0.43313969746E+03  0.78988542913E+03  0.12699999809E+01 0.  1.
</event>
<event>
 5   0  0.5425525E-04  0.1610455E+04  0.7818609E-02  0.8814151E-01
        1   -1    0    0  501    0  0.00000000000E+00  0.00000000000E+00  0.87392782562E+03  0.87392782564E+03  0.50400001928E-02 0. -1.
       -1   -1    0    0    0  501  0.00000000000E+00  0.00000000000E+00 -0.74192754586E+03  0.74192754588E+03  0.50400001928E-02 0.  1.
    10030    2    1    2    0    0  0.00000000000E+00  0.00000000000E+00  0.13200027976E+03  0.16158553715E+04  0.16104547519E+04 0.  0.
        5    1    3    3  502    0 -0.17254253185E+03 -0.50047106032E+03 -0.54276909186E+03  0.75819692995E+03  0.46999998093E+01 0.  1.
       -5    1    3    3    0  502  0.17254253185E+03  0.50047106032E+03  0.67476937162E+03  0.85765844156E+03  0.46999998093E+01 0. -1.
</event>
<event>
 5   0  0.5288658E-04  0.1606602E+04  0.7818609E-02  0.8816503E-01
       -1   -1    0    0    0  501  0.00000000000E+00  0.00000000000E+00  0.79018134005E+03  0.79018134007E+03  0.50400001928E-02 0.  1.
        1   -1    0    0  501    0  0.00000000000E+00  0.00000000000E+00 -0.81663828503E+03  0.81663828504E+03  0.50400001928E-02 0. -1.
    10030    2    1    2    0    0  0.00000000000E+00  0.00000000000E+00 -0.26456944976E+02  0.16068196251E+04  0.16066017981E+04 0.  0.
        1    1    3    3  502    0  0.59330164456E+03 -0.35108174044E+03  0.39917086431E+03  0.79661948812E+03  0.50400001928E-02 0.  1.
       -1    1    3    3    0  502 -0.59330164456E+03  0.35108174044E+03 -0.42562780929E+03  0.81020013699E+03  0.50400001928E-02 0. -1.
</event>
<event>
 5   0  0.5281116E-04  0.1552263E+04  0.7818609E-02  0.8850424E-01
       -1   -1    0    0    0  501  0.00000000000E+00  0.00000000000E+00  0.10629662707E+04  0.10629662707E+04  0.50400001928E-02 0. -1.
        1   -1    0    0  501    0  0.00000000000E+00  0.00000000000E+00 -0.56669720608E+03  0.56669720610E+03  0.50400001928E-02 0.  1.
    10030    2    1    2    0    0  0.00000000000E+00  0.00000000000E+00  0.49626906459E+03  0.16296634768E+04  0.15522628847E+04 0.  0.
        2    1    3    3  502    0  0.72778167793E+02 -0.61902806186E+03 -0.23740598380E+03  0.66697376577E+03  0.25500000920E-02 0.  1.
       -2    1    3    3    0  502 -0.72778167793E+02  0.61902806186E+03  0.73367504838E+03  0.96268971102E+03  0.25500000920E-02 0. -1.
</event>
<event>
 5   0  0.9844690E-04  0.1365409E+04  0.7818609E-02  0.8979245E-01
        2   -1    0    0  501    0  0.00000000000E+00  0.00000000000E+00  0.12770295025E+04  0.12770295025E+04  0.25500000920E-02 0. -1.
       -2   -1    0    0    0  501  0.00000000000E+00  0.00000000000E+00 -0.36497645935E+03  0.36497645936E+03  0.25500000920E-02 0.  1.
    10030    2    1    2    0    0  0.00000000000E+00  0.00000000000E+00  0.91205304316E+03  0.16420059619E+04  0.13654093984E+04 0.  0.
        3    1    3    3  502    0 -0.38585896680E+03 -0.53099077135E+02  0.11303039701E+04  0.11955307312E+04  0.10100000352E+00 0. -1.
       -3    1    3    3    0  502  0.38585896680E+03  0.53099077135E+02 -0.21825092697E+03  0.44647523064E+03  0.10100000352E+00 0.  1.
</event>
<event>
 5   0  0.1030027E-03  0.1459478E+04  0.7818609E-02  0.8911856E-01
        2   -1    0    0  501    0  0.00000000000E+00  0.00000000000E+00  0.71230079721E+03  0.71230079722E+03  0.25500000920E-02 0.  1.
       -2   -1    0    0    0  501  0.00000000000E+00  0.00000000000E+00 -0.74760362953E+03  0.74760362954E+03  0.25500000920E-02 0. -1.
    10030    2    1    2    0    0  0.00000000000E+00  0.00000000000E+00 -0.35302832320E+02  0.14599044268E+04  0.14594775248E+04 0.  0.
        1    1    3    3  502    0  0.50355790457E+03 -0.18241923964E+02  0.51034322955E+03  0.71718445537E+03  0.50400001928E-02 0.  1.
       -1    1    3    3    0  502 -0.50355790457E+03  0.18241923964E+02 -0.54564606187E+03  0.74271997139E+03  0.50400001928E-02 0. -1.
</event>
<event>
 5   0  0.5281116E-04  0.1612475E+04  0.7818609E-02  0.8812921E-01
       -1   -1    0    0    0  501  0.00000000000E+00  0.00000000000E+00  0.24666440656E+03  0.24666440661E+03  0.50400001928E-02 0.  1.
        1   -1    0    0  501    0  0.00000000000E+00  0.00000000000E+00 -0.26352362865E+04  0.26352362865E+04  0.50400001928E-02 0. -1.
    10030    2    1    2    0    0  0.00000000000E+00  0.00000000000E+00 -0.23885718800E+04  0.28819006931E+04  0.16124751097E+04 0.  0.
        2    1    3    3  502    0  0.74046485737E+03  0.29007258824E+03 -0.95725629964E+03  0.12444958556E+04  0.25500000920E-02 0. -1.
       -2    1    3    3    0  502 -0.74046485737E+03 -0.29007258824E+03 -0.14313155803E+04  0.16374048375E+04  0.25500000920E-02 0.  1.
</event>
<event>
 5   0  0.5532881E-04  0.1602653E+04  0.7818609E-02  0.8818920E-01
       -1   -1    0    0    0  501  0.00000000000E+00  0.00000000000E+00  0.34186672994E+03  0.34186672998E+03  0.50400001928E-02 0.  1.
        1   -1    0    0  501    0  0.00000000000E+00  0.00000000000E+00 -0.18782878945E+04  0.18782878945E+04  0.50400001928E-02 0. -1.
    10030    2    1    2    0    0  0.00000000000E+00  0.00000000000E+00 -0.15364211646E+04  0.22201546245E+04  0.16026529761E+04 0.  0.
        4    1    3    3  502    0 -0.28983904220E+03  0.50358686935E+03 -0.15326602096E+04  0.16391019909E+04  0.12699999809E+01 0.  1.
       -4    1    3    3    0  502  0.28983904220E+03 -0.50358686935E+03 -0.37609549396E+01  0.58105263363E+03  0.12699999809E+01 0. -1.
</event>
<event>
 5   0  0.5623061E-04  0.1603557E+04  0.7818609E-02  0.8818366E-01
        1   -1    0    0  501    0  0.00000000000E+00  0.00000000000E+00  0.90988625138E+03  0.90988625139E+03  0.50400001928E-02 0.  1.
       -1   -1    0    0    0  501  0.00000000000E+00  0.00000000000E+00 -0.70651582264E+03  0.70651582265E+03  0.50400001928E-02 0. -1.
    10030    2    1    2    0    0  0.00000000000E+00  0.00000000000E+00  0.20337042874E+03  0.16164020740E+04  0.16035573372E+04 0.  0.
        3    1    3    3  502    0  0.28274991763E+03  0.54553742332E+03  0.62087446856E+03  0.87352373298E+03  0.10100000352E+00 0.  1.
       -3    1    3    3    0  502 -0.28274991763E+03 -0.54553742332E+03 -0.41750403982E+03  0.74287834107E+03  0.10100000352E+00 0. -1.
</event>
<event>
 5   0  0.5532881E-04  0.1626857E+04  0.7818609E-02  0.8804217E-01
       -1   -1    0    0    0  501  0.00000000000E+00  0.00000000000E+00  0.81080394737E+03  0.81080394738E+03  0.50400001928E-02 0. -1.
        1   -1    0    0  501    0  0.00000000000E+00  0.00000000000E+00 -0.81606143954E+03  0.81606143955E+03  0.50400001928E-02 0.  1.
    10030    2    1    2    0    0  0.00000000000E+00  0.00000000000E+00 -0.52574921706E+01  0.16268653869E+04  0.16268568917E+04 0.  0.
        4    1    3    3  502    0 -0.32823646024E+02 -0.21562492647E+03 -0.78627352301E+03  0.81596517483E+03  0.12699999809E+01 0.  1.
       -4    1    3    3    0  502  0.32823646024E+02  0.21562492647E+03  0.78101603084E+03  0.81090021210E+03  0.12699999809E+01 0. -1.
</event>
<event>
 5   0  0.1057872E-03  0.1586758E+04  0.7818609E-02  0.8828725E-01
        2   -1    0    0  501    0  0.00000000000E+00  0.00000000000E+00  0.23104989712E+04  0.23104989712E+04  0.25500000920E-02 0. -1.
       -2   -1    0    0    0  501  0.00000000000E+00  0.00000000000E+00 -0.27243043840E+03  0.27243043841E+03  0.25500000920E-02 0.  1.
    10030    2    1    2    0    0  0.00000000000E+00  0.00000000000E+00  0.20380685328E+04  0.25829294096E+04  0.15867580126E+04 0.  0.
        2    1    3    3  502    0 -0.11893428502E+03 -0.20713251395E+03 -0.21251568401E+03  0.31970636285E+03  0.25500000920E-02 0.  1.
       -2    1    3    3    0  502  0.11893428502E+03  0.20713251395E+03  0.22505842168E+04  0.22632230468E+04  0.25500000920E-02 0. -1.
</event>
<event>
 5   0  0.1030027E-03  0.1577158E+04  0.7818609E-02  0.8834705E-01
        2   -1    0    0  501    0  0.00000000000E+00  0.00000000000E+00  0.62705207301E+03  0.62705207301E+03  0.25500000920E-02 0. -1.
       -2   -1    0    0    0  501  0.00000000000E+00  0.00000000000E+00 -0.99171480824E+03  0.99171480824E+03  0.25500000920E-02 0.  1.
    10030    2    1    2    0    0  0.00000000000E+00  0.00000000000E+00 -0.36466273523E+03  0.16187668813E+04  0.15771579836E+04 0.  0.
        1    1    3    3  502    0  0.53867220456E+03  0.37263512182E+03 -0.63304306718E+03  0.91091613386E+03  0.50400001928E-02 0.  1.
       -1    1    3    3    0  502 -0.53867220456E+03 -0.37263512182E+03  0.26838033195E+03  0.70785074740E+03  0.50400001928E-02 0. -1.
</event>
<event>
 5   0  0.3832500E-04  0.1676684E+04  0.7818609E-02  0.8774775E-01
        3   -1    0    0  501    0  0.00000000000E+00  0.00000000000E+00  0.98986524371E+03  0.98986524887E+03  0.10100000352E+00 0.  1.
       -3   -1    0    0    0  501  0.00000000000E+00  0.00000000000E+00 -0.71001328265E+03  0.71001328984E+03  0.10100000352E+00 0. -1.
    10030    2    1    2    0    0  0.00000000000E+00  0.00000000000E+00  0.27985196106E+03  0.16998785387E+04  0.16766842059E+04 0.  0.
        5    1    3    3  502    0 -0.83828095713E+03 -0.50587224447E+01  0.14743367615E+03  0.85117526551E+03  0.46999998093E+01 0.  1.
       -5    1    3    3    0  502  0.83828095713E+03  0.50587224447E+01  0.13241828491E+03  0.84870327319E+03  0.46999998093E+01 0. -1.
</event>
<event>
 5   0  0.5288658E-04  0.1593238E+04  0.7818609E-02  0.8824713E-01
        1   -1    0    0  501    0  0.00000000000E+00  0.00000000000E+00  0.19998503774E+04  0.19998503774E+04  0.50400001928E-02 0. -1.
       -1   -1    0    0    0  501  0.00000000000E+00  0.00000000000E+00 -0.31732466665E+03  0.31732466669E+03  0.50400001928E-02 0.  1.
    10030    2    1    2    0    0  0.00000000000E+00  0.00000000000E+00  0.16825257108E+04  0.23171750441E+04  0.15932380292E+04 0.  0.
        1    1    3    3  502    0  0.10928932394E+03 -0.23844939763E+03  0.19352431263E+04  0.19529383578E+04  0.50400001928E-02 0. -1.
       -1    1    3    3    0  502 -0.10928932394E+03  0.23844939763E+03 -0.25271741548E+03  0.36423668634E+03  0.50400001928E-02 0.  1.
</event>
<event>
 5   0  0.1057872E-03  0.1425018E+04  0.7818609E-02  0.8935906E-01
       -2   -1    0    0    0  501  0.00000000000E+00  0.00000000000E+00  0.22080957205E+03  0.22080957206E+03  0.25500000920E-02 0. -1.
        2   -1    0    0  501    0  0.00000000000E+00  0.00000000000E+00 -0.22991248917E+04  0.22991248917E+04  0.25500000920E-02 0.  1.
    10030    2    1    2    0    0  0.00000000000E+00  0.00000000000E+00 -0.20783153196E+04  0.25199344637E+04  0.14250175907E+04 0.  0.
        2    1    3    3  502    0  0.61753043035E+03  0.12710469909E+03 -0.16261053629E+04  0.17440522034E+04  0.25500000920E-02 0.  1.
       -2    1    3    3    0  502 -0.61753043035E+03 -0.12710469909E+03 -0.45220995676E+03  0.77588226036E+03  0.25500000920E-02 0. -1.
</event>
<event>
 5   0  0.5288658E-04  0.1553374E+04  0.7818609E-02  0.8849715E-01
       -1   -1    0    0    0  501  0.00000000000E+00  0.00000000000E+00  0.19066755420E+04  0.19066755420E+04  0.50400001928E-02 0.  1.
        1   -1    0    0  501    0  0.00000000000E+00  0.00000000000E+00 -0.31638471024E+03  0.31638471028E+03  0.50400001928E-02 0. -1.
    10030    2    1    2    0    0  0.00000000000E+00  0.00000000000E+00  0.15902908317E+04  0.22230602523E+04  0.15533743772E+04 0.  0.
        1    1    3    3  502    0 -0.44897613797E+03  0.13017853927E+03 -0.92512775377E+02  0.47653398429E+03  0.50400001928E-02 0. -1.
       -1    1    3    3    0  502  0.44897613797E+03 -0.13017853927E+03  0.16828036071E+04  0.17465262680E+04  0.50400001928E-02 0.  1.
</event>
<event>
 5   0  0.1030027E-03  0.1656824E+04  0.7818609E-02  0.8786380E-01
       -2   -1    0    0    0  501  0.00000000000E+00  0.00000000000E+00  0.12465909916E+04  0.12465909916E+04  0.25500000920E-02 0. -1.
        2   -1    0    0  501    0  0.00000000000E+00  0.00000000000E+00 -0.55051422858E+03  0.55051422859E+03  0.25500000920E-02 0.  1.
    10030    2    1    2    0    0  0.00000000000E+00  0.00000000000E+00  0.69607676301E+03  0.17971052202E+04  0.16568235610E+04 0.  0.
        1    1    3    3  502    0 -0.19353747098E+02 -0.22615178592E+03 -0.51612832701E+03  0.56383299634E+03  0.50400001928E-02 0.  1.
       -1    1    3    3    0  502  0.19353747098E+02  0.22615178592E+03  0.12122050900E+04  0.12332722238E+04  0.50400001928E-02 0. -1.
</event>
<event>
 5   0  0.5623061E-04  0.1587445E+04  0.7818609E-02  0.8828298E-01
       -1   -1    0    0    0  501  0.00000000000E+00  0.00000000000E+00  0.62375703819E+03  0.62375703821E+03  0.50400001928E-02 0. -1.
        1   -1    0    0  501    0  0.00000000000E+00  0.00000000000E+00 -0.10100016100E+04  0.10100016100E+04  0.50400001928E-02 0.  1.
    10030    2    1    2    0    0  0.00000000000E+00  0.00000000000E+00 -0.38624457180E+03  0.16337586482E+04  0.15874452593E+04 0.  0.
        3    1    3    3  502    0 -0.74557894757E+02  0.54321834473E+03 -0.78375614459E+03  0.95651385463E+03  0.10100000352E+00 0.  1.
       -3    1    3    3    0  502  0.74557894757E+02 -0.54321834473E+03  0.39751157279E+03  0.67724479358E+03  0.10100000352E+00 0. -1.
</event>
<event>
 5   0  0.1037321E-03  0.1534195E+04  0.7818609E-02  0.8862027E-01
        2   -1    0    0  501    0  0.00000000000E+00  0.00000000000E+00  0.78944133970E+03  0.78944133970E+03  0.25500000920E-02 0.  1.
       -2   -1    0    0    0  501  0.00000000000E+00  0.00000000000E+00 -0.74538592839E+03  0.74538592839E+03  0.25500000920E-02 0. -1.
    10030    2    1    2    0    0  0.00000000000E+00  0.00000000000E+00  0.44055411309E+02  0.15348272681E+04  0.15341948584E+04 0.  0.
        5    1    3    3  502    0 -0.41252661898E+01  0.35658646790E+03  0.70145819280E+03  0.78691588696E+03  0.46999998093E+01 0.  1.
       -5    1    3    3    0  502  0.41252661898E+01 -0.35658646790E+03 -0.65740278149E+03  0.74791138113E+03  0.46999998093E+01 0. -1.
</event>
<event>
 5   0  0.1030027E-03  0.2016068E+04  0.7818609E-02  0.8599145E-01
       -2   -1    0    0    0  501  0.00000000000E+00  0.00000000000E+00  0.65462048442E+03  0.65462048443E+03  0.25500000920E-02 0.  1.
        2   -1    0    0  501    0  0.00000000000E+00  0.00000000000E+00 -0.15522473958E+04  0.15522473958E+04  0.25500000920E-02 0. -1.
    10030    2    1    2    0    0  0.00000000000E+00  0.00000000000E+00 -0.89762691142E+03  0.22068678803E+04  0.20160683939E+04 0.  0.
        1    1    3    3  502    0 -0.94650540195E+03  0.35640883721E+02 -0.71218087537E+02  0.94984986420E+03  0.50400001928E-02 0. -1.
       -1    1    3    3    0  502  0.94650540195E+03 -0.35640883721E+02 -0.82640882388E+03  0.12570180161E+04  0.50400001928E-02 0.  1.
</event>
<event>
 5   0  0.5281116E-04  0.1588618E+04  0.7818609E-02  0.8827571E-01
        1   -1    0    0  501    0  0.00000000000E+00  0.00000000000E+00  0.11766002016E+04  0.11766002016E+04  0.50400001928E-02 0.  1.
       -1   -1    0    0    0  501  0.00000000000E+00  0.00000000000E+00 -0.53622869623E+03  0.53622869625E+03  0.50400001928E-02 0. -1.
    10030    2    1    2    0    0  0.00000000000E+00  0.00000000000E+00  0.64037150534E+03  0.17128288978E+04  0.15886180058E+04 0.  0.
        2    1    3    3  502    0  0.10367420076E+03  0.78625264546E+03  0.36822540789E+03  0.87437492726E+03  0.25500000920E-02 0.  1.
       -2    1    3    3    0  502 -0.10367420076E+03 -0.78625264546E+03  0.27214609745E+03  0.83845397057E+03  0.25500000920E-02 0. -1.
</event>
<event>
 5   0  0.1057872E-03  0.1591917E+04  0.7818609E-02  0.8825529E-01
       -2   -1    0    0    0  501  0.00000000000E+00  0.00000000000E+00  0.46268883685E+03  0.46268883685E+03  0.25500000920E-02 0.  1.
        2   -1    0    0  501    0  0.00000000000E+00  0.00000000000E+00 -0.13692793818E+04  0.13692793818E+04  0.25500000920E-02 0. -1.
    10030    2    1    2    0    0  0.00000000000E+00  0.00000000000E+00 -0.90659054499E+03  0.18319682187E+04  0.15919174407E+04 0.  0.
        2    1    3    3  502    0 -0.25743024460E+03  0.73136045648E+03 -0.66041200177E+03  0.10184804663E+04  0.25500000920E-02 0. -1.
       -2    1    3    3    0  502  0.25743024460E+03 -0.73136045648E+03 -0.24617854322E+03  0.81348775239E+03  0.25500000920E-02 0.  1.
</event>
<event>
 5   0  0.1030027E-03  0.1520277E+04  0.7818609E-02  0.8871080E-01
       -2   -1    0    0    0  501  0.00000000000E+00  0.00000000000E+00  0.17588272954E+04  0.17588272954E+04  0.25500000920E-02 0. -1.
        2   -1    0    0  501    0  0.00000000000E+00  0.00000000000E+00 -0.32852041641E+03  0.32852041642E+03  0.25500000920E-02 0.  1.
    10030    2    1    2    0    0  0.00000000000E+00  0.00000000000E+00  0.14303068790E+04  0.20873477118E+04  0.15202771793E+04 0.  0.
        1    1    3    3  502    0 -0.12306919309E+03 -0.29749770892E+02 -0.31394046580E+03  0.33851099132E+03  0.50400001928E-02 0.  1.
       -1    1    3    3    0  502  0.12306919309E+03  0.29749770892E+02  0.17442473448E+04  0.17488367205E+04  0.50400001928E-02 0. -1.
</event>
<event>
 5   0  0.5281116E-04  0.1645625E+04  0.7818609E-02  0.8792999E-01
       -1   -1    0    0    0  501  0.00000000000E+00  0.00000000000E+00  0.64405142289E+03  0.64405142291E+03  0.50400001928E-02 0. -1.
        1   -1    0    0  501    0  0.00000000000E+00  0.00000000000E+00 -0.10511905606E+04  0.10511905606E+04  0.50400001928E-02 0.  1.
    10030    2    1    2    0    0  0.00000000000E+00  0.00000000000E+00 -0.40713913775E+03  0.16952419836E+04  0.16456254450E+04 0.  0.
        2    1    3    3  502    0 -0.14496527039E+03  0.75829382630E+03  0.89609761398E+02  0.77720934501E+03  0.25500000920E-02 0. -1.
       -2    1    3    3    0  502  0.14496527039E+03 -0.75829382630E+03 -0.49674889914E+03  0.91803263855E+03  0.25500000920E-02 0.  1.
</event>
<event>
 5   0  0.5532881E-04  0.1604258E+04  0.7818609E-02  0.8817937E-01
        1   -1    0    0  501    0  0.00000000000E+00  0.00000000000E+00  0.11832967802E+04  0.11832967803E+04  0.50400001928E-02 0.  1.
       -1   -1    0    0    0  501  0.00000000000E+00  0.00000000000E+00 -0.54374407633E+03  0.54374407635E+03  0.50400001928E-02 0. -1.
    10030    2    1    2    0    0  0.00000000000E+00  0.00000000000E+00  0.63955270392E+03  0.17270408566E+04  0.16042576038E+04 0.  0.
        4    1    3    3  502    0  0.64173593100E+03 -0.22895235806E+03  0.77545100077E+03  0.10322645276E+04  0.12699999809E+01 0.  1.
       -4    1    3    3    0  502 -0.64173593100E+03  0.22895235806E+03 -0.13589829685E+03  0.69477632904E+03  0.12699999809E+01 0. -1.
</event>
<event>
 5   0  0.1037321E-03  0.1606674E+04  0.7818609E-02  0.8816458E-01
       -2   -1    0    0    0  501  0.00000000000E+00  0.00000000000E+00  0.98381884155E+03  0.98381884156E+03  0.25500000920E-02 0.  1.
        2   -1    0    0  501    0  0.00000000000E+00  0.00000000000E+00 -0.65596470696E+03  0.65596470697E+03  0.25500000920E-02 0. -1.
    10030    2    1    2    0    0  0.00000000000E+00  0.00000000000E+00  0.32785413459E+03  0.16397835485E+04  0.16066741276E+04 0.  0.
        5    1    3    3  502    0  0.63781120910E+02 -0.42501175565E+03 -0.52875290379E+03  0.68139910999E+03  0.46999998093E+01 0. -1.
       -5    1    3    3    0  502 -0.63781120910E+02  0.42501175565E+03  0.85660703838E+03  0.95838443854E+03  0.46999998093E+01 0.  1.
</event>
<event>
 5   0  0.5623061E-04  0.1609066E+04  0.7818609E-02  0.8814998E-01
       -1   -1    0    0    0  501  0.00000000000E+00  0.00000000000E+00  0.44193859310E+03  0.44193859312E+03  0.50400001928E-02 0. -1.
        1   -1    0    0  501    0  0.00000000000E+00  0.00000000000E+00 -0.14646232234E+04  0.14646232234E+04  0.50400001928E-02 0.  1.
    10030    2    1    2    0    0  0.00000000000E+00  0.00000000000E+00 -0.10226846303E+04  0.19065618165E+04  0.16090662221E+04 0.  0.
        3    1    3    3  502    0 -0.30202572928E+03 -0.70818775275E+03 -0.78801810291E+03  0.11016905078E+04  0.10100000352E+00 0.  1.
       -3    1    3    3    0  502  0.30202572928E+03  0.70818775275E+03 -0.23466652737E+03  0.80487130870E+03  0.10100000352E+00 0. -1.
</event>
<event>
 5   0  0.5288658E-04  0.1590048E+04  0.7818609E-02  0.8826685E-01
        1   -1    0    0  501    0  0.00000000000E+00  0.00000000000E+00  0.73024640151E+03  0.73024640153E+03  0.50400001928E-02 0. -1.
       -1   -1    0    0    0  501  0.00000000000E+00  0.00000000000E+00 -0.86554803078E+03  0.86554803080E+03  0.50400001928E-02 0.  1.
    10030    2    1    2    0    0  0.00000000000E+00  0.00000000000E+00 -0.13530162927E+03  0.15957944323E+04  0.15900482192E+04 0.  0.
        1    1    3    3  502    0  0.42234253076E+03 -0.66810027281E+03 -0.15358821905E+03  0.80518353738E+03  0.50400001928E-02 0.  1.
       -1    1    3    3    0  502 -0.42234253076E+03  0.66810027281E+03  0.18286589772E+02  0.79061089495E+03  0.50400001928E-02 0. -1.
</event>
<event>
 5   0  0.9844690E-04  0.1585885E+04  0.7818609E-02  0.8829267E-01
       -2   -1    0    0    0  501  0.00000000000E+00  0.00000000000E+00  0.44107848066E+03  0.44107848067E+03  0.25500000920E-02 0. -1.
        2   -1    0    0  501    0  0.00000000000E+00  0.00000000000E+00 -0.14255008618E+04  0.14255008618E+04  0.25500000920E-02 0.  1.
    10030    2    1    2    0    0  0.00000000000E+00  0.00000000000E+00 -0.98442238117E+03  0.18665793425E+04  0.15858849319E+04 0.  0.
        3    1    3    3  502    0  0.45886297967E+03  0.49680023395E+03 -0.97948167256E+03  0.11902731046E+04  0.10100000352E+00 0.  1.
       -3    1    3    3    0  502 -0.45886297967E+03 -0.49680023395E+03 -0.49407086102E+01  0.67630623786E+03  0.10100000352E+00 0. -1.
</event>
<event>
 5   0  0.1037321E-03  0.1586111E+04  0.7818609E-02  0.8829126E-01
       -2   -1    0    0    0  501  0.00000000000E+00  0.00000000000E+00  0.41370136621E+03  0.41370136622E+03  0.25500000920E-02 0. -1.
        2   -1    0    0  501    0  0.00000000000E+00  0.00000000000E+00 -0.15202687568E+04  0.15202687568E+04  0.25500000920E-02 0.  1.
    10030    2    1    2    0    0  0.00000000000E+00  0.00000000000E+00 -0.11065673906E+04  0.19339701231E+04  0.15861112971E+04 0.  0.
        5    1    3    3  502    0  0.12029158812E+03 -0.74728029183E+03 -0.26469648773E+03  0.80186296918E+03  0.46999998093E+01 0. -1.
       -5    1    3    3    0  502 -0.12029158812E+03  0.74728029183E+03 -0.84187090290E+03  0.11321071539E+04  0.46999998093E+01 0.  1.
</event>
<event>
 5   0  0.5425525E-04  0.1575292E+04  0.7818609E-02  0.8835873E-01
        1   -1    0    0  501    0  0.00000000000E+00  0.00000000000E+00  0.71992652878E+03  0.71992652880E+03  0.50400001928E-02 0. -1.
       -1   -1    0    0    0  501  0.00000000000E+00  0.00000000000E+00 -0.86173526915E+03  0.86173526917E+03  0.50400001928E-02 0.  1.
    10030    2    1    2    0    0  0.00000000000E+00  0.00000000000E+00 -0.14180874037E+03  0.15816617980E+04  0.15752918220E+04 0.  0.
        5    1    3    3  502    0 -0.75067970537E+03 -0.97177085854E+01  0.16828053533E+03  0.76938604256E+03  0.46999998093E+01 0. -1.
       -5    1    3    3    0  502  0.75067970537E+03  0.97177085854E+01 -0.31008927570E+03  0.81227575541E+03  0.46999998093E+01 0.  1.
</event>
<event>
 5   0  0.5281116E-04  0.1581713E+04  0.7818609E-02  0.8831862E-01
        1   -1    0    0  501    0  0.00000000000E+00  0.00000000000E+00  0.70348932394E+03  0.70348932396E+03  0.50400001928E-02 0.  1.
       -1   -1    0    0    0  501  0.00000000000E+00  0.00000000000E+00 -0.88907382065E+03  0.88907382066E+03  0.50400001928E-02 0. -1.
    10030    2    1    2    0    0  0.00000000000E+00  0.00000000000E+00 -0.18558449671E+03  0.15925631446E+04  0.15817129209E+04 0.  0.
        2    1    3    3  502    0 -0.35077999662E+03  0.47527944049E+03  0.43666360106E+03  0.73458304709E+03  0.25500000920E-02 0.  1.
       -2    1    3    3    0  502  0.35077999662E+03 -0.47527944049E+03 -0.62224809777E+03  0.85798009753E+03  0.25500000920E-02 0. -1.
</event>
<event>
 5   0  0.1000121E-03  0.1546923E+04  0.7818609E-02  0.8853836E-01
       -2   -1    0    0    0  501  0.00000000000E+00  0.00000000000E+00  0.34241157470E+03  0.34241157471E+03  0.25500000920E-02 0.  1.
        2   -1    0    0  501    0  0.00000000000E+00  0.00000000000E+00 -0.17471449326E+04  0.17471449326E+04  0.25500000920E-02 0. -1.
    10030    2    1    2    0    0  0.00000000000E+00  0.00000000000E+00 -0.14047333579E+04  0.20895565073E+04  0.15469229426E+04 0.  0.
        4    1    3    3  502    0  0.50716481769E+03  0.57784664329E+03 -0.58840241792E+03  0.96816419774E+03  0.12699999809E+01 0.  1.
       -4    1    3    3    0  502 -0.50716481769E+03 -0.57784664329E+03 -0.81633093996E+03  0.11213923095E+04  0.12699999809E+01 0. -1.
</event>
<event>
 5   0  0.1037321E-03  0.1624610E+04  0.7818609E-02  0.8805570E-01
       -2   -1    0    0    0  501  0.00000000000E+00  0.00000000000E+00  0.45248055673E+03  0.45248055674E+03  0.25500000920E-02 0.  1.
        2   -1    0    0  501    0  0.00000000000E+00  0.00000000000E+00 -0.14582715316E+04  0.14582715316E+04  0.25500000920E-02 0. -1.
    10030    2    1    2    0    0  0.00000000000E+00  0.00000000000E+00 -0.10057909748E+04  0.19107520883E+04  0.16246101249E+04 0.  0.
        5    1    3    3  502    0 -0.25042824974E+02  0.66894570825E+03 -0.10440453926E+04  0.12402291624E+04  0.46999998093E+01 0. -1.
       -5    1    3    3    0  502  0.25042824974E+02 -0.66894570825E+03  0.38254417705E+02  0.67052292588E+03  0.46999998093E+01 0.  1.
</event>
<event>
 5   0  0.5288658E-04  0.1582687E+04  0.7818609E-02  0.8831255E-01
        1   -1    0    0  501    0  0.00000000000E+00  0.00000000000E+00  0.94427765659E+03  0.94427765661E+03  0.50400001928E-02 0. -1.
       -1   -1    0    0    0  501  0.00000000000E+00  0.00000000000E+00 -0.66317830596E+03  0.66317830598E+03  0.50400001928E-02 0.  1.
    10030    2    1    2    0    0  0.00000000000E+00  0.00000000000E+00  0.28109935063E+03  0.16074559626E+04  0.15826869010E+04 0.  0.
        1    1    3    3  502    0  0.34255030190E+03 -0.17617715527E+03 -0.56153219963E+03  0.68095338358E+03  0.50400001928E-02 0.  1.
       -1    1    3    3    0  502 -0.34255030190E+03  0.17617715527E+03  0.84263155026E+03  0.92650257900E+03  0.50400001928E-02 0. -1.
</event>
<event>
 5   0  0.1057872E-03  0.1590150E+04  0.7818609E-02  0.8826622E-01
        2   -1    0    0  501    0  0.00000000000E+00  0.00000000000E+00  0.12493424988E+04  0.12493424988E+04  0.25500000920E-02 0. -1.
       -2   -1    0    0    0  501  0.00000000000E+00  0.00000000000E+00 -0.50598169542E+03  0.50598169543E+03  0.25500000920E-02 0.  1.
    10030    2    1    2    0    0  0.00000000000E+00  0.00000000000E+00  0.74336080342E+03  0.17553241943E+04  0.15901502265E+04 0.  0.
        2    1    3    3  502    0 -0.54292934204E+02  0.53744573293E+03 -0.27231281596E+03  0.60493793755E+03  0.25500000920E-02 0.  1.
       -2    1    3    3    0  502  0.54292934204E+02 -0.53744573293E+03  0.10156736194E+04  0.11503862567E+04  0.25500000920E-02 0. -1.
</event>
<event>
 5   0  0.5281116E-04  0.1616917E+04  0.7818609E-02  0.8810222E-01
       -1   -1    0    0    0  501  0.00000000000E+00  0.00000000000E+00  0.48440879696E+03  0.48440879699E+03  0.50400001928E-02 0.  1.
        1   -1    0    0  501    0  0.00000000000E+00  0.00000000000E+00 -0.13492843615E+04  0.13492843615E+04  0.50400001928E-02 0. -1.
    10030    2    1    2    0    0  0.00000000000E+00  0.00000000000E+00 -0.86487556456E+03  0.18336931585E+04  0.16169170843E+04 0.  0.
        2    1    3    3  502    0  0.69369876516E+03  0.71827523246E+02 -0.89619797781E+03  0.11355826634E+04  0.25500000920E-02 0.  1.
       -2    1    3    3    0  502 -0.69369876516E+03 -0.71827523246E+02  0.31322413250E+02  0.69811049517E+03  0.25500000920E-02 0. -1.
</event>
<event>
 5   0  0.1030027E-03  0.1607877E+04  0.7818609E-02  0.8815723E-01
        2   -1    0    0  501    0  0.00000000000E+00  0.00000000000E+00  0.61356105727E+03  0.61356105728E+03  0.25500000920E-02 0.  1.
       -2   -1    0    0    0  501  0.00000000000E+00  0.00000000000E+00 -0.10533867351E+04  0.10533867351E+04  0.25500000920E-02 0. -1.
    10030    2    1    2    0    0  0.00000000000E+00  0.00000000000E+00 -0.43982567779E+03  0.16669477923E+04  0.16078769591E+04 0.  0.
        1    1    3    3  502    0 -0.33701653866E+03  0.39560452997E+03 -0.85582656476E+03  0.10012603060E+04  0.50400001928E-02 0. -1.
       -1    1    3    3    0  502  0.33701653866E+03 -0.39560452997E+03  0.41600088696E+03  0.66568748632E+03  0.50400001928E-02 0.  1.
</event>
<event>
 5   0  0.5288658E-04  0.1642853E+04  0.7818609E-02  0.8794646E-01
        1   -1    0    0  501    0  0.00000000000E+00  0.00000000000E+00  0.12553538437E+04  0.12553538437E+04  0.50400001928E-02 0.  1.
       -1   -1    0    0    0  501  0.00000000000E+00  0.00000000000E+00 -0.53749075900E+03  0.53749075902E+03  0.50400001928E-02 0. -1.
    10030    2    1    2    0    0  0.00000000000E+00  0.00000000000E+00  0.71786308473E+03  0.17928446028E+04  0.16428525075E+04 0.  0.
        1    1    3    3  502    0 -0.13718107912E+03  0.71748769095E+03 -0.51045629773E+02  0.73226558807E+03  0.50400001928E-02 0. -1.
       -1    1    3    3    0  502  0.13718107912E+03 -0.71748769095E+03  0.76890871451E+03  0.10605790147E+04  0.50400001928E-02 0.  1.
</event>
<event>
 5   0  0.5623061E-04  0.1577737E+04  0.7818609E-02  0.8834343E-01
        1   -1    0    0  501    0  0.00000000000E+00  0.00000000000E+00  0.58976364275E+03  0.58976364277E+03  0.50400001928E-02 0. -1.
       -1   -1    0    0    0  501  0.00000000000E+00  0.00000000000E+00 -0.10551918769E+04  0.10551918769E+04  0.50400001928E-02 0.  1.
    10030    2    1    2    0    0  0.00000000000E+00  0.00000000000E+00 -0.46542823411E+03  0.16449555196E+04  0.15777373737E+04 0.  0.
        3    1    3    3  502    0 -0.14840237665E+03  0.74422269695E+03 -0.80743982853E+01  0.75891758061E+03  0.10100000352E+00 0.  1.
       -3    1    3    3    0  502  0.14840237665E+03 -0.74422269695E+03 -0.45735383583E+03  0.88603793903E+03  0.10100000352E+00 0. -1.
</event>
<event>
 5   0  0.1000121E-03  0.1606057E+04  0.7818609E-02  0.8816836E-01
       -2   -1    0    0    0  501  0.00000000000E+00  0.00000000000E+00  0.56362298220E+03  0.56362298221E+03  0.25500000920E-02 0. -1.
        2   -1    0    0  501    0  0.00000000000E+00  0.00000000000E+00 -0.11441236411E+04  0.11441236411E+04  0.25500000920E-02 0.  1.
    10030    2    1    2    0    0  0.00000000000E+00  0.00000000000E+00 -0.58050065892E+03  0.17077466233E+04  0.16060565104E+04 0.  0.
        4    1    3    3  502    0 -0.21742993784E+03 -0.13089343831E+03 -0.11003579867E+04  0.11292467321E+04  0.12699999809E+01 0.  1.
       -4    1    3    3    0  502  0.21742993784E+03  0.13089343831E+03  0.51985732778E+03  0.57849989128E+03  0.12699999809E+01 0. -1.
</event>
<event>
 5   0  0.1030027E-03  0.1611682E+04  0.7818609E-02  0.8813403E-01
       -2   -1    0    0    0  501  0.00000000000E+00  0.00000000000E+00  0.38932003358E+03  0.38932003358E+03  0.25500000920E-02 0. -1.
        2   -1    0    0  501    0  0.00000000000E+00  0.00000000000E+00 -0.16679850076E+04  0.16679850076E+04  0.25500000920E-02 0.  1.
    10030    2    1    2    0    0  0.00000000000E+00  0.00000000000E+00 -0.12786649740E+04  0.20573050412E+04  0.16116823250E+04 0.  0.
        1    1    3    3  502    0 -0.89160700044E+02 -0.27732720000E+03  0.31975649786E+03  0.43255545799E+03  0.50400001928E-02 0. -1.
       -1    1    3    3    0  502  0.89160700044E+02  0.27732720000E+03 -0.15984214719E+04  0.16247495832E+04  0.50400001928E-02 0.  1.
</event>
<event>
 5   0  0.3832500E-04  0.1595931E+04  0.7818609E-02  0.8823052E-01
       -4   -1    0    0    0  501  0.00000000000E+00  0.00000000000E+00  0.10619575801E+04  0.10619583395E+04  0.12699999809E+01 0. -1.
        4   -1    0    0  501    0  0.00000000000E+00  0.00000000000E+00 -0.59959751933E+03  0.59959886431E+03  0.12699999809E+01 0.  1.
    10030    2    1    2    0    0  0.00000000000E+00  0.00000000000E+00  0.46236006079E+03  0.16615572038E+04  0.15959309245E+04 0.  0.
        2    1    3    3  502    0  0.11413635651E+03 -0.25204161177E+03 -0.54806047294E+03  0.61394003286E+03  0.25500000920E-02 0.  1.
       -2    1    3    3    0  502 -0.11413635651E+03  0.25204161177E+03  0.10104205337E+04  0.10476171710E+04  0.25500000920E-02 0. -1.
</event>
<event>
 5   0  0.5532881E-04  0.1608056E+04  0.7818609E-02  0.8815614E-01
        1   -1    0    0  501    0  0.00000000000E+00  0.00000000000E+00  0.73891770449E+03  0.73891770451E+03  0.50400001928E-02 0. -1.
       -1   -1    0    0    0  501  0.00000000000E+00  0.00000000000E+00 -0.87487557949E+03  0.87487557951E+03  0.50400001928E-02 0.  1.
    10030    2    1    2    0    0  0.00000000000E+00  0.00000000000E+00 -0.13595787500E+03  0.16137932840E+04  0.16080560375E+04 0.  0.
        4    1    3    3  502    0 -0.73783000327E+03 -0.28777299427E+03  0.71271411432E+02  0.79516516331E+03  0.12699999809E+01 0.  1.
       -4    1    3    3    0  502  0.73783000327E+03  0.28777299427E+03 -0.20722928643E+03  0.81862812070E+03  0.12699999809E+01 0. -1.
</event>
<event>
 5   0  0.5425525E-04  0.1466298E+04  0.7818609E-02  0.8907179E-01
        1   -1    0    0  501    0  0.00000000000E+00  0.00000000000E+00  0.30867093732E+04  0.30867093732E+04  0.50400001928E-02 0. -1.
       -1   -1    0    0    0  501  0.00000000000E+00  0.00000000000E+00 -0.17413612722E+03  0.17413612729E+03  0.50400001928E-02 0.  1.
    10030    2    1    2    0    0  0.00000000000E+00  0.00000000000E+00  0.29125732460E+04  0.32608455005E+04  0.14662982183E+04 0.  0.
        5    1    3    3  502    0  0.43493343264E+03  0.53685880558E+03  0.20014779961E+04  0.21173853515E+04  0.46999998093E+01 0. -1.
       -5    1    3    3    0  502 -0.43493343264E+03 -0.53685880558E+03  0.91109524990E+03  0.11434601490E+04  0.46999998093E+01 0.  1.
</event>
<event>
 5   0  0.1057872E-03  0.1599389E+04  0.7818609E-02  0.8820924E-01
       -2   -1    0    0    0  501  0.00000000000E+00  0.00000000000E+00  0.45755336347E+03  0.45755336348E+03  0.25500000920E-02 0. -1.
        2   -1    0    0  501    0  0.00000000000E+00  0.00000000000E+00 -0.13976753907E+04  0.13976753907E+04  0.25500000920E-02 0.  1.
    10030    2    1    2    0    0  0.00000000000E+00  0.00000000000E+00 -0.94012202726E+03  0.18552287542E+04  0.15993887283E+04 0.  0.
        2    1    3    3  502    0 -0.17658992808E+03  0.42704845351E+03  0.28699176620E+03  0.54398406063E+03  0.25500000920E-02 0. -1.
       -2    1    3    3    0  502  0.17658992808E+03 -0.42704845351E+03 -0.12271137935E+04  0.13112446936E+04  0.25500000920E-02 0.  1.
</event>
<event>
 5   0  0.5532881E-04  0.1627527E+04  0.7818609E-02  0.8803814E-01
        1   -1    0    0  501    0  0.00000000000E+00  0.00000000000E+00  0.51019294070E+03  0.51019294073E+03  0.50400001928E-02 0.  1.
       -1   -1    0    0    0  501  0.00000000000E+00  0.00000000000E+00 -0.12979611843E+04  0.12979611843E+04  0.50400001928E-02 0. -1.
    10030    2    1    2    0    0  0.00000000000E+00  0.00000000000E+00 -0.78776824355E+03  0.18081541250E+04  0.16275265080E+04 0.  0.
        4    1    3    3  502    0 -0.79933241099E+03  0.14053993715E+03 -0.45984735475E+03  0.93281561938E+03  0.12699999809E+01 0. -1.
       -4    1    3    3    0  502  0.79933241099E+03 -0.14053993715E+03 -0.32792088880E+03  0.87533850561E+03  0.12699999809E+01 0.  1.
</event>
<event>
 5   0  0.1037321E-03  0.1549211E+04  0.7818609E-02  0.8852372E-01
       -2   -1    0    0    0  501  0.00000000000E+00  0.00000000000E+00  0.54405204154E+03  0.54405204155E+03  0.25500000920E-02 0. -1.
        2   -1    0    0  501    0  0.00000000000E+00  0.00000000000E+00 -0.11028611295E+04  0.11028611295E+04  0.25500000920E-02 0.  1.
    10030    2    1    2    0    0  0.00000000000E+00  0.00000000000E+00 -0.55880908797E+03  0.16469131711E+04  0.15492112174E+04 0.  0.
        5    1    3    3  502    0 -0.20853767509E+03  0.69260205204E+02 -0.10690174653E+04  0.10913777390E+04  0.46999998093E+01 0.  1.
       -5    1    3    3    0  502  0.20853767509E+03 -0.69260205204E+02  0.51020837737E+03  0.55553543207E+03  0.46999998093E+01 0. -1.
</event>
<event>
 5   0  0.5425525E-04  0.1597108E+04  0.7818609E-02  0.8822327E-01
       -1   -1    0    0    0  501  0.00000000000E+00  0.00000000000E+00  0.73619101564E+03  0.73619101566E+03  0.50400001928E-02 0.  1.
        1   -1    0    0  501    0  0.00000000000E+00  0.00000000000E+00 -0.86619995828E+03  0.86619995829E+03  0.50400001928E-02 0. -1.
    10030    2    1    2    0    0  0.00000000000E+00  0.00000000000E+00 -0.13000894264E+03  0.16023909740E+04  0.15971081705E+04 0.  0.
        5    1    3    3  502    0 -0.34602226317E+03 -0.33296326283E+03  0.57512677267E+03  0.74925885757E+03  0.46999998093E+01 0.  1.
       -5    1    3    3    0  502  0.34602226317E+03  0.33296326283E+03 -0.70513571531E+03  0.85313211638E+03  0.46999998093E+01 0. -1.
</event>
<event>
 5   0  0.5288658E-04  0.1577607E+04  0.7818609E-02  0.8834424E-01
        1   -1    0    0  501    0  0.00000000000E+00  0.00000000000E+00  0.14673913106E+04  0.14673913106E+04  0.50400001928E-02 0.  1.
       -1   -1    0    0    0  501  0.00000000000E+00  0.00000000000E+00 -0.42402543910E+03  0.42402543913E+03  0.50400001928E-02 0. -1.
    10030    2    1    2    0    0  0.00000000000E+00  0.00000000000E+00  0.10433658715E+04  0.18914167497E+04  0.15776073591E+04 0.  0.
        1    1    3    3  502    0 -0.64978876949E+02 -0.77543029900E+03  0.36676365468E+03  0.86024995290E+03  0.50400001928E-02 0.  1.
       -1    1    3    3    0  502  0.64978876949E+02  0.77543029900E+03  0.67660221681E+03  0.10311667968E+04  0.50400001928E-02 0. -1.
</event>
<event>
 5   0  0.1057872E-03  0.1624542E+04  0.7818609E-02  0.8805611E-01
       -2   -1    0    0    0  501  0.00000000000E+00  0.00000000000E+00  0.57130511351E+03  0.57130511351E+03  0.25500000920E-02 0. -1.
        2   -1    0    0  501    0  0.00000000000E+00  0.00000000000E+00 -0.11548724057E+04  0.11548724057E+04  0.25500000920E-02 0.  1.
    10030    2    1    2    0    0  0.00000000000E+00  0.00000000000E+00 -0.58356729215E+03  0.17261775192E+04  0.16245424104E+04 0.  0.
        2    1    3    3  502    0  0.74394412180E+03  0.32466290962E+03 -0.25945573051E+03  0.85215969005E+03  0.25500000920E-02 0.  1.
       -2    1    3    3    0  502 -0.74394412180E+03 -0.32466290962E+03 -0.32411156164E+03  0.87401782913E+03  0.25500000920E-02 0. -1.
</event>
<event>
 5   0  0.5425525E-04  0.1604095E+04  0.7818609E-02  0.8818036E-01
       -1   -1    0    0    0  501  0.00000000000E+00  0.00000000000E+00  0.82072351908E+03  0.82072351910E+03  0.50400001928E-02 0.  1.
        1   -1    0    0  501    0  0.00000000000E+00  0.00000000000E+00 -0.78379645011E+03  0.78379645013E+03  0.50400001928E-02 0. -1.
    10030    2    1    2    0    0  0.00000000000E+00  0.00000000000E+00  0.36927068970E+02  0.16045199692E+04  0.16040949857E+04 0.  0.
        5    1    3    3  502    0 -0.40151611520E+03  0.35708306434E+03 -0.57712228509E+03  0.78855293262E+03  0.46999998093E+01 0. -1.
       -5    1    3    3    0  502  0.40151611520E+03 -0.35708306434E+03  0.61404935406E+03  0.81596703660E+03  0.46999998093E+01 0.  1.
</event>
<event>
 5   0  0.1030027E-03  0.1598884E+04  0.7818609E-02  0.8821234E-01
       -2   -1    0    0    0  501  0.00000000000E+00  0.00000000000E+00  0.41744711749E+03  0.41744711750E+03  0.25500000920E-02 0. -1.
        2   -1    0    0  501    0  0.00000000000E+00  0.00000000000E+00 -0.15309906175E+04  0.15309906175E+04  0.25500000920E-02 0.  1.
    10030    2    1    2    0    0  0.00000000000E+00  0.00000000000E+00 -0.11135435000E+04  0.19484377350E+04  0.15988841361E+04 0.  0.
        1    1    3    3  502    0 -0.52792948775E+03 -0.41214678485E+03 -0.10887020868E+04  0.12782201493E+04  0.50400001928E-02 0.  1.
       -1    1    3    3    0  502  0.52792948775E+03  0.41214678485E+03 -0.24841413185E+02  0.67021758566E+03  0.50400001928E-02 0. -1.
</event>
<event>
 5   0  0.5288658E-04  0.1592625E+04  0.7818609E-02  0.8825091E-01
       -1   -1    0    0    0  501  0.00000000000E+00  0.00000000000E+00  0.86962275873E+03  0.86962275875E+03  0.50400001928E-02 0. -1.
        1   -1    0    0  501    0  0.00000000000E+00  0.00000000000E+00 -0.72918253110E+03  0.72918253112E+03  0.50400001928E-02 0.  1.
    10030    2    1    2    0    0  0.00000000000E+00  0.00000000000E+00  0.14044022763E+03  0.15988052899E+04  0.15926251591E+04 0.  0.
        1    1    3    3  502    0 -0.87152758430E+02 -0.20760904051E+03  0.83700121115E+03  0.86675725811E+03  0.50400001928E-02 0. -1.
       -1    1    3    3    0  502  0.87152758430E+02  0.20760904051E+03 -0.69656098352E+03  0.73204803175E+03  0.50400001928E-02 0.  1.
</event>
<event>
 5   0  0.5281116E-04  0.1589542E+04  0.7818609E-02  0.8826999E-01
        1   -1    0    0  501    0  0.00000000000E+00  0.00000000000E+00  0.19013559977E+04  0.19013559977E+04  0.50400001928E-02 0.  1.
       -1   -1    0    0    0  501  0.00000000000E+00  0.00000000000E+00 -0.33221582811E+03  0.33221582815E+03  0.50400001928E-02 0. -1.
    10030    2    1    2    0    0  0.00000000000E+00  0.00000000000E+00  0.15691401695E+04  0.22335718258E+04  0.15895415155E+04 0.  0.
        2    1    3    3  502    0  0.18173864833E+03  0.74912422243E+03  0.10564782089E+04  0.13078081828E+04  0.25500000920E-02 0.  1.
       -2    1    3    3    0  502 -0.18173864833E+03 -0.74912422243E+03  0.51266196060E+03  0.92576364304E+03  0.25500000920E-02 0. -1.
</event>
<event>
 5   0  0.1000121E-03  0.1610455E+04  0.7818609E-02  0.8814151E-01
        2   -1    0    0  501    0  0.00000000000E+00  0.00000000000E+00  0.19848484177E+04  0.19848484177E+04  0.25500000920E-02 0.  1.
       -2   -1    0    0    0  501  0.00000000000E+00  0.00000000000E+00 -0.32667031722E+03  0.32667031723E+03  0.25500000920E-02 0. -1.
    10030    2    1    2    0    0  0.00000000000E+00  0.00000000000E+00  0.16581781004E+04  0.23115187349E+04  0.16104546715E+04 0.  0.
        4    1    3    3  502    0  0.99131854500E+02  0.43496335114E+03  0.17912562932E+04  0.18459742583E+04  0.12699999809E+01 0.  1.
       -4    1    3    3    0  502 -0.99131854500E+02 -0.43496335114E+03 -0.13307819276E+03  0.46554447661E+03  0.12699999809E+01 0. -1.
</event>
<event>
 5   0  0.1057872E-03  0.1641069E+04  0.7818609E-02  0.8795707E-01
       -2   -1    0    0    0  501  0.00000000000E+00  0.00000000000E+00  0.11880164557E+04  0.11880164557E+04  0.25500000920E-02 0. -1.
        2   -1    0    0  501    0  0.00000000000E+00  0.00000000000E+00 -0.56672365350E+03  0.56672365350E+03  0.25500000920E-02 0.  1.
    10030    2    1    2    0    0  0.00000000000E+00  0.00000000000E+00  0.62129280221E+03  0.17547401092E+04  0.16410691956E+04 0.  0.
        2    1    3    3  502    0  0.44185443211E+03 -0.33645207848E+03  0.95650602693E+03  0.11060466174E+04  0.25500000920E-02 0. -1.
       -2    1    3    3    0  502 -0.44185443211E+03  0.33645207848E+03 -0.33521322472E+03  0.64869349182E+03  0.25500000920E-02 0.  1.
</event>
<event>
 5   0  0.1000121E-03  0.1589670E+04  0.7818609E-02  0.8826919E-01
        2   -1    0    0  501    0  0.00000000000E+00  0.00000000000E+00  0.12467986039E+04  0.12467986039E+04  0.25500000920E-02 0. -1.
       -2   -1    0    0    0  501  0.00000000000E+00  0.00000000000E+00 -0.50670785220E+03  0.50670785221E+03  0.25500000920E-02 0.  1.
    10030    2    1    2    0    0  0.00000000000E+00  0.00000000000E+00  0.74009075169E+03  0.17535064561E+04  0.15896699566E+04 0.  0.
        4    1    3    3  502    0 -0.78180102058E+03 -0.89813825149E+02  0.24680961080E+03  0.82473993226E+03  0.12699999809E+01 0. -1.
       -4    1    3    3    0  502  0.78180102058E+03  0.89813825149E+02  0.49328114089E+03  0.92876652385E+03  0.12699999809E+01 0.  1.
</event>
<event>
 5   0  0.5281116E-04  0.1568855E+04  0.7818609E-02  0.8839913E-01
       -1   -1    0    0    0  501  0.00000000000E+00  0.00000000000E+00  0.85243602591E+03  0.85243602592E+03  0.50400001928E-02 0. -1.
        1   -1    0    0  501    0  0.00000000000E+00  0.00000000000E+00 -0.72184489497E+03  0.72184489498E+03  0.50400001928E-02 0.  1.
    10030    2    1    2    0    0  0.00000000000E+00  0.00000000000E+00  0.13059113094E+03  0.15742809209E+04  0.15688551158E+04 0.  0.
        2    1    3    3  502    0 -0.19373434058E+03  0.10068393083E+03  0.82133098489E+03  0.84985577329E+03  0.25500000920E-02 0. -1.
       -2    1    3    3    0  502  0.19373434058E+03 -0.10068393083E+03 -0.69073985395E+03  0.72442514761E+03  0.25500000920E-02 0.  1.
</event>
<event>
 5   0  0.1030027E-03  0.1626911E+04  0.7818609E-02  0.8804184E-01
        2   -1    0    0  501    0  0.00000000000E+00  0.00000000000E+00  0.24383670583E+03  0.24383670584E+03  0.25500000920E-02 0.  1.
       -2   -1    0    0    0  501  0.00000000000E+00  0.00000000000E+00 -0.27137408521E+04  0.27137408521E+04  0.25500000920E-02 0. -1.
    10030    2    1    2    0    0  0.00000000000E+00  0.00000000000E+00 -0.24699041462E+04  0.29575775579E+04  0.16269107288E+04 0.  0.
        1    1    3    3  502    0  0.21513158977E+03  0.18231872630E+02  0.19079910453E+03  0.28812896489E+03  0.50400001928E-02 0.  1.
       -1    1    3    3    0  502 -0.21513158977E+03 -0.18231872630E+02 -0.26607032508E+04  0.26694485930E+04  0.50400001928E-02 0. -1.
</event>
<event>
 5   0  0.5532881E-04  0.1604119E+04  0.7818609E-02  0.8818021E-01
        1   -1    0    0  501    0  0.00000000000E+00  0.00000000000E+00  0.59170045470E+03  0.59170045472E+03  0.50400001928E-02 0. -1.
       -1   -1    0    0    0  501  0.00000000000E+00  0.00000000000E+00 -0.10872051569E+04  0.10872051569E+04  0.50400001928E-02 0.  1.
    10030    2    1    2    0    0  0.00000000000E+00  0.00000000000E+00 -0.49550470223E+03  0.16789056117E+04  0.16041194291E+04 0.  0.
        4    1    3    3  502    0  0.72448112585E+03  0.31069422387E+03 -0.40261825514E+03  0.88515923693E+03  0.12699999809E+01 0.  1.
       -4    1    3    3    0  502 -0.72448112585E+03 -0.31069422387E+03 -0.92886447089E+02  0.79374637473E+03  0.12699999809E+01 0. -1.
</event>
<event>
 5   0  0.5281116E-04  0.1552874E+04  0.7818609E-02  0.8850034E-01
       -1   -1    0    0    0  501  0.00000000000E+00  0.00000000000E+00  0.44170604202E+03  0.44170604205E+03  0.50400001928E-02 0.  1.
        1   -1    0    0  501    0  0.00000000000E+00  0.00000000000E+00 -0.13648324678E+04  0.13648324679E+04  0.50400001928E-02 0. -1.
    10030    2    1    2    0    0  0.00000000000E+00  0.00000000000E+00 -0.92312642583E+03  0.18065385099E+04  0.15528744282E+04 0.  0.
        2    1    3    3  502    0  0.46165571716E+03 -0.53612483961E+03 -0.83365182026E+03  0.10934034947E+04  0.25500000920E-02 0. -1.
       -2    1    3    3    0  502 -0.46165571716E+03  0.53612483961E+03 -0.89474605569E+02  0.71313501518E+03  0.25500000920E-02 0.  1.
</event>
<event>
 5   0  0.5288658E-04  0.1592408E+04  0.7818609E-02  0.8825225E-01
       -1   -1    0    0    0  501  0.00000000000E+00  0.00000000000E+00  0.37072290866E+03  0.37072290869E+03  0.50400001928E-02 0. -1.
        1   -1    0    0  501    0  0.00000000000E+00  0.00000000000E+00 -0.17100134507E+04  0.17100134507E+04  0.50400001928E-02 0.  1.
    10030    2    1    2    0    0  0.00000000000E+00  0.00000000000E+00 -0.13392905420E+04  0.20807363594E+04  0.15924084405E+04 0.  0.
        1    1    3    3  502    0  0.78629886271E+03 -0.12235266748E+03 -0.63494899334E+03  0.10180355106E+04  0.50400001928E-02 0. -1.
       -1    1    3    3    0  502 -0.78629886271E+03  0.12235266748E+03 -0.70434154870E+03  0.10627008488E+04  0.50400001928E-02 0.  1.
</event>
<event>
 5   0  0.1030027E-03  0.1471277E+04  0.7818609E-02  0.8903781E-01
        2   -1    0    0  501    0  0.00000000000E+00  0.00000000000E+00  0.89916904427E+03  0.89916904427E+03  0.25500000920E-02 0.  1.
       -2   -1    0    0    0  501  0.00000000000E+00  0.00000000000E+00 -0.60184883747E+03  0.60184883748E+03  0.25500000920E-02 0. -1.
    10030    2    1    2    0    0  0.00000000000E+00  0.00000000000E+00  0.29732020680E+03  0.15010178818E+04  0.14712767843E+04 0.  0.
        1    1    3    3  502    0 -0.45118073056E+03 -0.54071715642E+03  0.36562005082E+03  0.79348416270E+03  0.50400001928E-02 0. -1.
       -1    1    3    3    0  502  0.45118073056E+03  0.54071715642E+03 -0.68299844024E+02  0.70753371905E+03  0.50400001928E-02 0.  1.
</event>
<event>
 5   0  0.5288658E-04  0.1711576E+04  0.7818609E-02  0.8754789E-01
        1   -1    0    0  501    0  0.00000000000E+00  0.00000000000E+00  0.59442493175E+03  0.59442493177E+03  0.50400001928E-02 0.  1.
       -1   -1    0    0    0  501  0.00000000000E+00  0.00000000000E+00 -0.12320702318E+04  0.12320702318E+04  0.50400001928E-02 0. -1.
    10030    2    1    2    0    0  0.00000000000E+00  0.00000000000E+00 -0.63764530005E+03  0.18264951636E+04  0.17115761899E+04 0.  0.
        1    1    3    3  502    0 -0.72900830278E+03  0.59408033735E+02 -0.79293993818E+03  0.10787660384E+04  0.50400001928E-02 0. -1.
       -1    1    3    3    0  502  0.72900830278E+03 -0.59408033735E+02  0.15529463813E+03  0.74772912519E+03  0.50400001928E-02 0.  1.
</event>
<event>
 5   0  0.5425525E-04  0.1574441E+04  0.7818609E-02  0.8836406E-01
        1   -1    0    0  501    0  0.00000000000E+00  0.00000000000E+00  0.12604765574E+04  0.12604765574E+04  0.50400001928E-02 0.  1.
       -1   -1    0    0    0  501  0.00000000000E+00  0.00000000000E+00 -0.49165216517E+03  0.49165216520E+03  0.50400001928E-02 0. -1.
    10030    2    1    2    0    0  0.00000000000E+00  0.00000000000E+00  0.76882439221E+03  0.17521287226E+04  0.15744408895E+04 0.  0.
        5    1    3    3  502    0  0.24965597075E+03 -0.70687419556E+03  0.65171753513E+03  0.99335646556E+03  0.46999998093E+01 0.  1.
       -5    1    3    3    0  502 -0.24965597075E+03  0.70687419556E+03  0.11710685708E+03  0.75877225704E+03  0.46999998093E+01 0. -1.
</event>
<event>
 5   0  0.5623061E-04  0.1074441E+04  0.7818609E-02  0.9230468E-01
        1   -1    0    0  501    0  0.00000000000E+00  0.00000000000E+00  0.17148445808E+04  0.17148445808E+04  0.50400001928E-02 0.  1.
       -1   -1    0    0    0  501  0.00000000000E+00  0.00000000000E+00 -0.16829861406E+03  0.16829861414E+03  0.50400001928E-02 0. -1.
    10030    2    1    2    0    0  0.00000000000E+00  0.00000000000E+00  0.15465459667E+04  0.18831431949E+04  0.10744411875E+04 0.  0.
        3    1    3    3  502    0 -0.19095122661E+03  0.48139806520E+03  0.52294446373E+03  0.73598735755E+03  0.10100000352E+00 0. -1.
       -3    1    3    3    0  502  0.19095122661E+03 -0.48139806520E+03  0.10236015030E+04  0.11471558374E+04  0.10100000352E+00 0.  1.
</event>
<event>
 5   0  0.1057872E-03  0.1648348E+04  0.7818609E-02  0.8791384E-01
        2   -1    0    0  501    0  0.00000000000E+00  0.00000000000E+00  0.14072331287E+04  0.14072331287E+04  0.25500000920E-02 0.  1.
       -2   -1    0    0    0  501  0.00000000000E+00  0.00000000000E+00 -0.48269392240E+03  0.48269392241E+03  0.25500000920E-02 0. -1.
    10030    2    1    2    0    0  0.00000000000E+00  0.00000000000E+00  0.92453920631E+03  0.18899270511E+04  0.16483481169E+04 0.  0.
        2    1    3    3  502    0  0.41410727709E+03 -0.57252310057E+03  0.94870675498E+03  0.11829252067E+04  0.25500000920E-02 0.  1.
       -2    1    3    3    0  502 -0.41410727709E+03  0.57252310057E+03 -0.24167548667E+02  0.70700184445E+03  0.25500000920E-02 0. -1.
</event>
<event>
 5   0  0.1057872E-03  0.1621059E+04  0.7818609E-02  0.8807714E-01
        2   -1    0    0  501    0  0.00000000000E+00  0.00000000000E+00  0.16688728674E+04  0.16688728674E+04  0.25500000920E-02 0.  1.
       -2   -1    0    0    0  501  0.00000000000E+00  0.00000000000E+00 -0.39365354106E+03  0.39365354107E+03  0.25500000920E-02 0. -1.
    10030    2    1    2    0    0  0.00000000000E+00  0.00000000000E+00  0.12752193263E+04  0.20625264084E+04  0.16210585601E+04 0.  0.
        2    1    3    3  502    0 -0.16327671909E+01  0.57848323127E+03  0.13599455397E+04  0.14778692046E+04  0.25500000920E-02 0.  1.
       -2    1    3    3    0  502  0.16327671909E+01 -0.57848323127E+03 -0.84726213420E+02  0.58465720387E+03  0.25500000920E-02 0. -1.
</event>
<event>
 5   0  0.1000121E-03  0.1547650E+04  0.7818609E-02  0.8853370E-01
       -2   -1    0    0    0  501  0.00000000000E+00  0.00000000000E+00  0.75041924021E+03  0.75041924021E+03  0.25500000920E-02 0. -1.
        2   -1    0    0  501    0  0.00000000000E+00  0.00000000000E+00 -0.79796115235E+03  0.79796115236E+03  0.25500000920E-02 0.  1.
    10030    2    1    2    0    0  0.00000000000E+00  0.00000000000E+00 -0.47541912148E+02  0.15483803926E+04  0.15476503503E+04 0.  0.
        4    1    3    3  502    0  0.62037246641E+03 -0.14411643700E+02 -0.48630288453E+03  0.78839190822E+03  0.12699999809E+01 0.  1.
       -4    1    3    3    0  502 -0.62037246641E+03  0.14411643700E+02  0.43876097238E+03  0.75998848434E+03  0.12699999809E+01 0. -1.
</event>
<event>
 5   0  0.5425525E-04  0.1296628E+04  0.7818609E-02  0.9032244E-01
        1   -1    0    0  501    0  0.00000000000E+00  0.00000000000E+00  0.43418719403E+03  0.43418719406E+03  0.50400001928E-02 0.  1.
       -1   -1    0    0    0  501  0.00000000000E+00  0.00000000000E+00 -0.96804092401E+03  0.96804092403E+03  0.50400001928E-02 0. -1.
    10030    2    1    2    0    0  0.00000000000E+00  0.00000000000E+00 -0.53385372998E+03  0.14022281181E+04  0.12966278919E+04 0.  0.
        5    1    3    3  502    0  0.25818512508E+03  0.31934328162E+02 -0.90909733415E+03  0.94560002807E+03  0.46999998093E+01 0. -1.
       -5    1    3    3    0  502 -0.25818512508E+03 -0.31934328162E+02  0.37524360417E+03  0.45662809002E+03  0.46999998093E+01 0.  1.
</event>
<event>
 5   0  0.5623061E-04  0.1018231E+04  0.7818609E-02  0.9288773E-01
       -1   -1    0    0    0  501  0.00000000000E+00  0.00000000000E+00  0.47950594228E+03  0.47950594231E+03  0.50400001928E-02 0. -1.
        1   -1    0    0  501    0  0.00000000000E+00  0.00000000000E+00 -0.54055322803E+03  0.54055322806E+03  0.50400001928E-02 0.  1.
    10030    2    1    2    0    0  0.00000000000E+00  0.00000000000E+00 -0.61047285754E+02  0.10200591704E+04  0.10182307891E+04 0.  0.
        3    1    3    3  502    0  0.20314287164E+03  0.31170172709E+03  0.31762518145E+03  0.48919398919E+03  0.10100000352E+00 0. -1.
       -3    1    3    3    0  502 -0.20314287164E+03 -0.31170172709E+03 -0.37867246720E+03  0.53086518118E+03  0.10100000352E+00 0.  1.
</event>
<event>
 5   0  0.5532881E-04  0.1880960E+04  0.7818609E-02  0.8664392E-01
       -1   -1    0    0    0  501  0.00000000000E+00  0.00000000000E+00  0.14202337520E+04  0.14202337520E+04  0.50400001928E-02 0.  1.
        1   -1    0    0  501    0  0.00000000000E+00  0.00000000000E+00 -0.62278674405E+03  0.62278674407E+03  0.50400001928E-02 0. -1.
    10030    2    1    2    0    0  0.00000000000E+00  0.00000000000E+00  0.79744700793E+03  0.20430204961E+04  0.18809601317E+04 0.  0.
        4    1    3    3  502    0 -0.11308428408E+03  0.43338112082E+03  0.12969533779E+04  0.13721140363E+04  0.12699999809E+01 0.  1.
       -4    1    3    3    0  502  0.11308428408E+03 -0.43338112082E+03 -0.49950636999E+03  0.67090645977E+03  0.12699999809E+01 0. -1.
</event>
<event>
 5   0  0.1037321E-03  0.1594884E+04  0.7818609E-02  0.8823697E-01
       -2   -1    0    0    0  501  0.00000000000E+00  0.00000000000E+00  0.76777304916E+03  0.76777304916E+03  0.25500000920E-02 0.  1.
        2   -1    0    0  501    0  0.00000000000E+00  0.00000000000E+00 -0.82825698449E+03  0.82825698449E+03  0.25500000920E-02 0. -1.
    10030    2    1    2    0    0  0.00000000000E+00  0.00000000000E+00 -0.60483935327E+02  0.15960300337E+04  0.15948835575E+04 0.  0.
        5    1    3    3  502    0  0.42489871428E+02 -0.55940602436E+03 -0.59735103418E+03  0.81950645958E+03  0.46999998093E+01 0. -1.
       -5    1    3    3    0  502 -0.42489871428E+02  0.55940602436E+03  0.53686709885E+03  0.77652357407E+03  0.46999998093E+01 0.  1.
</event>
<event>
 5   0  0.5623061E-04  0.1627187E+04  0.7818609E-02  0.8804018E-01
        1   -1    0    0  501    0  0.00000000000E+00  0.00000000000E+00  0.56087888576E+03  0.56087888578E+03  0.50400001928E-02 0.  1.
       -1   -1    0    0    0  501  0.00000000000E+00  0.00000000000E+00 -0.11801729346E+04  0.11801729346E+04  0.50400001928E-02 0. -1.
    10030    2    1    2    0    0  0.00000000000E+00  0.00000000000E+00 -0.61929404881E+03  0.17410518204E+04  0.16271866280E+04 0.  0.
        3    1    3    3  502    0  0.39635889502E+03  0.13939752928E+03  0.43581431123E+03  0.60536449260E+03  0.10100000352E+00 0.  1.
       -3    1    3    3    0  502 -0.39635889502E+03 -0.13939752928E+03 -0.10551083600E+04  0.11356873278E+04  0.10100000352E+00 0. -1.
</event>
<event>
 5   0  0.5281116E-04  0.1516222E+04  0.7818609E-02  0.8873737E-01
        1   -1    0    0  501    0  0.00000000000E+00  0.00000000000E+00  0.15093424104E+04  0.15093424104E+04  0.50400001928E-02 0. -1.
       -1   -1    0    0    0  501  0.00000000000E+00  0.00000000000E+00 -0.38078311670E+03  0.38078311674E+03  0.50400001928E-02 0.  1.
    10030    2    1    2    0    0  0.00000000000E+00  0.00000000000E+00  0.11285592937E+04  0.18901255271E+04  0.15162217611E+04 0.  0.
        2    1    3    3  502    0  0.38927522044E+03  0.25950195719E+03  0.13079232583E+04  0.13890787281E+04  0.25500000920E-02 0. -1.
       -2    1    3    3    0  502 -0.38927522044E+03 -0.25950195719E+03 -0.17936396466E+03  0.50104679907E+03  0.25500000920E-02 0.  1.
</event>
<event>
 5   0  0.9844690E-04  0.1608747E+04  0.7818609E-02  0.8815192E-01
       -2   -1    0    0    0  501  0.00000000000E+00  0.00000000000E+00  0.84366264197E+03  0.84366264197E+03  0.25500000920E-02 0.  1.
        2   -1    0    0  501    0  0.00000000000E+00  0.00000000000E+00 -0.76691388080E+03  0.76691388080E+03  0.25500000920E-02 0. -1.
    10030    2    1    2    0    0  0.00000000000E+00  0.00000000000E+00  0.76748761166E+02  0.16105765228E+04  0.16087468301E+04 0.  0.
        3    1    3    3  502    0  0.20647942049E+03 -0.43055610426E+03  0.68641597922E+03  0.83616937084E+03  0.10100000352E+00 0.  1.
       -3    1    3    3    0  502 -0.20647942049E+03  0.43055610426E+03 -0.60966721805E+03  0.77440715194E+03  0.10100000352E+00 0. -1.
</event>
<event>
 5   0  0.5623061E-04  0.1188943E+04  0.7818609E-02  0.9122591E-01
        1   -1    0    0  501    0  0.00000000000E+00  0.00000000000E+00  0.49599671517E+03  0.49599671520E+03  0.50400001928E-02 0.  1.
       -1   -1    0    0    0  501  0.00000000000E+00  0.00000000000E+00 -0.71249686273E+03  0.71249686275E+03  0.50400001928E-02 0. -1.
    10030    2    1    2    0    0  0.00000000000E+00  0.00000000000E+00 -0.21650014756E+03  0.12084935779E+04  0.11889425613E+04 0.  0.
        3    1    3    3  502    0  0.56854325692E+03 -0.18185268090E+02  0.67285880950E+02  0.57279973721E+03  0.10100000352E+00 0.  1.
       -3    1    3    3    0  502 -0.56854325692E+03  0.18185268090E+02 -0.28378602851E+03  0.63569384073E+03  0.10100000352E+00 0. -1.
</event>
<event>
 5   0  0.5623061E-04  0.1595874E+04  0.7818609E-02  0.8823087E-01
        1   -1    0    0  501    0  0.00000000000E+00  0.00000000000E+00  0.16135749492E+04  0.16135749492E+04  0.50400001928E-02 0.  1.
       -1   -1    0    0    0  501  0.00000000000E+00  0.00000000000E+00 -0.39459169185E+03  0.39459169189E+03  0.50400001928E-02 0. -1.
    10030    2    1    2    0    0  0.00000000000E+00  0.00000000000E+00  0.12189832574E+04  0.20081666411E+04  0.15958737659E+04 0.  0.
        3    1    3    3  502    0  0.46060373735E+03  0.65009640831E+03  0.55432314941E+03  0.97059533645E+03  0.10100000352E+00 0.  1.
       -3    1    3    3    0  502 -0.46060373735E+03 -0.65009640831E+03  0.66466010796E+03  0.10375713047E+04  0.10100000352E+00 0. -1.
</event>
<event>
 5   0  0.5623061E-04  0.1644805E+04  0.7818609E-02  0.8793486E-01
        1   -1    0    0  501    0  0.00000000000E+00  0.00000000000E+00  0.14755285454E+04  0.14755285454E+04  0.50400001928E-02 0. -1.
       -1   -1    0    0    0  501  0.00000000000E+00  0.00000000000E+00 -0.45837505420E+03  0.45837505423E+03  0.50400001928E-02 0.  1.
    10030    2    1    2    0    0  0.00000000000E+00  0.00000000000E+00  0.10171534912E+04  0.19339035996E+04  0.16448045197E+04 0.  0.
        3    1    3    3  502    0 -0.14565947951E+03 -0.65736558846E+03  0.10638058814E+04  0.12589794138E+04  0.10100000352E+00 0. -1.
       -3    1    3    3    0  502  0.14565947951E+03  0.65736558846E+03 -0.46652390247E+02  0.67492418580E+03  0.10100000352E+00 0.  1.
</event>
<event>
 5   0  0.3832500E-04  0.1594856E+04  0.7818609E-02  0.8823714E-01
        4   -1    0    0  501    0  0.00000000000E+00  0.00000000000E+00  0.94214874110E+03  0.94214959707E+03  0.12699999809E+01 0.  1.
       -4   -1    0    0    0  501  0.00000000000E+00  0.00000000000E+00 -0.67493560926E+03  0.67493680412E+03  0.12699999809E+01 0. -1.
    10030    2    1    2    0    0  0.00000000000E+00  0.00000000000E+00  0.26721313184E+03  0.16170864012E+04  0.15948559719E+04 0.  0.
        2    1    3    3  502    0 -0.51328641044E+02 -0.49616603216E+03  0.76443301811E+03  0.91278321635E+03  0.25500000920E-02 0.  1.
       -2    1    3    3    0  502  0.51328641044E+02  0.49616603216E+03 -0.49721988627E+03  0.70430318484E+03  0.25500000920E-02 0. -1.
</event>
<event>
 5   0  0.5532881E-04  0.1596867E+04  0.7818609E-02  0.8822475E-01
        1   -1    0    0  501    0  0.00000000000E+00  0.00000000000E+00  0.16401869454E+04  0.16401869454E+04  0.50400001928E-02 0.  1.
       -1   -1    0    0    0  501  0.00000000000E+00  0.00000000000E+00 -0.38867292047E+03  0.38867292050E+03  0.50400001928E-02 0. -1.
    10030    2    1    2    0    0  0.00000000000E+00  0.00000000000E+00  0.12515140249E+04  0.20288598659E+04  0.15968672459E+04 0.  0.
        4    1    3    3  502    0 -0.47193725150E+03 -0.57654600989E+03  0.26112613158E+03  0.78950525037E+03  0.12699999809E+01 0. -1.
       -4    1    3    3    0  502  0.47193725150E+03  0.57654600989E+03  0.99038789334E+03  0.12393546155E+04  0.12699999809E+01 0.  1.
</event>
<event>
 5   0  0.5281116E-04  0.1653097E+04  0.7818609E-02  0.8788576E-01
       -1   -1    0    0    0  501  0.00000000000E+00  0.00000000000E+00  0.48996700006E+03  0.48996700009E+03  0.50400001928E-02 0. -1.
        1   -1    0    0  501    0  0.00000000000E+00  0.00000000000E+00 -0.13943437382E+04  0.13943437382E+04  0.50400001928E-02 0.  1.
    10030    2    1    2    0    0  0.00000000000E+00  0.00000000000E+00 -0.90437673815E+03  0.18843107383E+04  0.16530969947E+04 0.  0.
        2    1    3    3  502    0 -0.22549612163E+03  0.47318795852E+03 -0.11806579946E+04  0.12917850615E+04  0.25500000920E-02 0.  1.
       -2    1    3    3    0  502  0.22549612163E+03 -0.47318795852E+03  0.27628125646E+03  0.59252567677E+03  0.25500000920E-02 0. -1.
</event>
<event>
 5   0  0.9844690E-04  0.1623319E+04  0.7818609E-02  0.8806349E-01
        2   -1    0    0  501    0  0.00000000000E+00  0.00000000000E+00  0.12609438531E+04  0.12609438531E+04  0.25500000920E-02 0. -1.
       -2   -1    0    0    0  501  0.00000000000E+00  0.00000000000E+00 -0.52245859360E+03  0.52245859361E+03  0.25500000920E-02 0.  1.
    10030    2    1    2    0    0  0.00000000000E+00  0.00000000000E+00  0.73848525953E+03  0.17834024467E+04  0.16233187637E+04 0.  0.
        3    1    3    3  502    0  0.49075331383E+03  0.18955074116E+03 -0.30978915277E+03  0.61052242210E+03  0.10100000352E+00 0.  1.
       -3    1    3    3    0  502 -0.49075331383E+03 -0.18955074116E+03  0.10482744123E+04  0.11728800246E+04  0.10100000352E+00 0. -1.
</event>
<event>
 5   0  0.1000121E-03  0.1536261E+04  0.7818609E-02  0.8860691E-01
       -2   -1    0    0    0  501  0.00000000000E+00  0.00000000000E+00  0.57606237984E+03  0.57606237985E+03  0.25500000920E-02 0.  1.
        2   -1    0    0  501    0  0.00000000000E+00  0.00000000000E+00 -0.10242377366E+04  0.10242377366E+04  0.25500000920E-02 0. -1.
    10030    2    1    2    0    0  0.00000000000E+00  0.00000000000E+00 -0.44817535677E+03  0.16003001165E+04  0.15362614726E+04 0.  0.
        4    1    3    3  502    0 -0.13279489837E+03  0.26336972514E+03 -0.96289490273E+03  0.10070582425E+04  0.12699999809E+01 0. -1.
       -4    1    3    3    0  502  0.13279489837E+03 -0.26336972514E+03  0.51471954596E+03  0.59324187398E+03  0.12699999809E+01 0.  1.
</event>
<event>
 5   0  0.1000121E-03  0.1584560E+04  0.7818609E-02  0.8830090E-01
        2   -1    0    0  501    0  0.00000000000E+00  0.00000000000E+00  0.49719375895E+03  0.49719375895E+03  0.25500000920E-02 0.  1.
       -2   -1    0    0    0  501  0.00000000000E+00  0.00000000000E+00 -0.12625014140E+04  0.12625014140E+04  0.25500000920E-02 0. -1.
    10030    2    1    2    0    0  0.00000000000E+00  0.00000000000E+00 -0.76530765509E+03  0.17596951730E+04  0.15845602844E+04 0.  0.
        4    1    3    3  502    0 -0.20144222029E+03  0.55560449670E+03  0.20333236216E+03  0.62499678981E+03  0.12699999809E+01 0.  1.
       -4    1    3    3    0  502  0.20144222029E+03 -0.55560449670E+03 -0.96864001725E+03  0.11346983832E+04  0.12699999809E+01 0. -1.
</event>
<event>
 5   0  0.5425525E-04  0.1679413E+04  0.7818609E-02  0.8773194E-01
       -1   -1    0    0    0  501  0.00000000000E+00  0.00000000000E+00  0.80290524150E+03  0.80290524152E+03  0.50400001928E-02 0. -1.
        1   -1    0    0  501    0  0.00000000000E+00  0.00000000000E+00 -0.87819437283E+03  0.87819437285E+03  0.50400001928E-02 0.  1.
    10030    2    1    2    0    0  0.00000000000E+00  0.00000000000E+00 -0.75289131331E+02  0.16810996144E+04  0.16794128320E+04 0.  0.
        5    1    3    3  502    0 -0.37570058191E+03 -0.40693344543E+02  0.71296049512E+03  0.80693347504E+03  0.46999998093E+01 0. -1.
       -5    1    3    3    0  502  0.37570058191E+03  0.40693344543E+02 -0.78824962645E+03  0.87416613932E+03  0.46999998093E+01 0.  1.
</event>
<event>
 5   0  0.5623061E-04  0.1604121E+04  0.7818609E-02  0.8818021E-01
       -1   -1    0    0    0  501  0.00000000000E+00  0.00000000000E+00  0.78544501952E+03  0.78544501954E+03  0.50400001928E-02 0. -1.
        1   -1    0    0  501    0  0.00000000000E+00  0.00000000000E+00 -0.81902697528E+03  0.81902697529E+03  0.50400001928E-02 0.  1.
    10030    2    1    2    0    0  0.00000000000E+00  0.00000000000E+00 -0.33581955756E+02  0.16044719948E+04  0.16041205174E+04 0.  0.
        3    1    3    3  502    0 -0.19503953777E+03 -0.11447223421E+03 -0.78647653498E+03  0.81834568734E+03  0.10100000352E+00 0.  1.
       -3    1    3    3    0  502  0.19503953777E+03  0.11447223421E+03  0.75289457923E+03  0.78612630749E+03  0.10100000352E+00 0. -1.
</event>
<event>
 5   0  0.1000121E-03  0.1608904E+04  0.7818609E-02  0.8815097E-01
       -2   -1    0    0    0  501  0.00000000000E+00  0.00000000000E+00  0.29656994235E+03  0.29656994236E+03  0.25500000920E-02 0.  1.
        2   -1    0    0  501    0  0.00000000000E+00  0.00000000000E+00 -0.21820912090E+04  0.21820912090E+04  0.25500000920E-02 0. -1.
    10030    2    1    2    0    0  0.00000000000E+00  0.00000000000E+00 -0.18855212667E+04  0.24786611514E+04  0.16089035572E+04 0.  0.
        4    1    3    3  502    0 -0.24103455183E+03 -0.76611603400E+03 -0.87200042483E+03  0.11855031786E+04  0.12699999809E+01 0.  1.
       -4    1    3    3    0  502  0.24103455183E+03  0.76611603400E+03 -0.10135208418E+04  0.12931579727E+04  0.12699999809E+01 0. -1.
</event>
<event>
 5   0  0.1037321E-03  0.1623330E+04  0.7818609E-02  0.8806342E-01
       -2   -1    0    0    0  501  0.00000000000E+00  0.00000000000E+00  0.77426663633E+03  0.77426663633E+03  0.25500000920E-02 0.  1.
        2   -1    0    0  501    0  0.00000000000E+00  0.00000000000E+00 -0.85087007600E+03  0.85087007600E+03  0.25500000920E-02 0. -1.
    10030    2    1    2    0    0  0.00000000000E+00  0.00000000000E+00 -0.76603439668E+02  0.16251367123E+04  0.16233302950E+04 0.  0.
        5    1    3    3  502    0 -0.73287133092E+03  0.34881485625E+03 -0.40760074047E+02  0.81268423466E+03  0.46999998093E+01 0.  1.
       -5    1    3    3    0  502  0.73287133092E+03 -0.34881485625E+03 -0.35843365621E+02  0.81245247768E+03  0.46999998093E+01 0. -1.
</event>
<event>
 5   0  0.5425525E-04  0.1603063E+04  0.7818609E-02  0.8818668E-01
        1   -1    0    0  501    0  0.00000000000E+00  0.00000000000E+00  0.63300076773E+03  0.63300076775E+03  0.50400001928E-02 0.  1.
       -1   -1    0    0    0  501  0.00000000000E+00  0.00000000000E+00 -0.10149323391E+04  0.10149323392E+04  0.50400001928E-02 0. -1.
    10030    2    1    2    0    0  0.00000000000E+00  0.00000000000E+00 -0.38193157141E+03  0.16479331069E+04  0.16030632550E+04 0.  0.
        5    1    3    3  502    0 -0.11575796552E+03 -0.79297119581E+03 -0.17545587430E+03  0.82037191432E+03  0.46999998093E+01 0.  1.
       -5    1    3    3    0  502  0.11575796552E+03  0.79297119581E+03 -0.20647569711E+03  0.82756119258E+03  0.46999998093E+01 0. -1.
</event>
<event>
 5   0  0.5623061E-04  0.1579693E+04  0.7818609E-02  0.8833121E-01
       -1   -1    0    0    0  501  0.00000000000E+00  0.00000000000E+00  0.81762436101E+03  0.81762436102E+03  0.50400001928E-02 0.  1.
        1   -1    0    0  501    0  0.00000000000E+00  0.00000000000E+00 -0.76301222346E+03  0.76301222348E+03  0.50400001928E-02 0. -1.
    10030    2    1    2    0    0  0.00000000000E+00  0.00000000000E+00  0.54612137547E+02  0.15806365845E+04  0.15796928583E+04 0.  0.
        3    1    3    3  502    0  0.73542991235E+03  0.17498157862E+03  0.25631320427E+03  0.79823065446E+03  0.10100000352E+00 0.  1.
       -3    1    3    3    0  502 -0.73542991235E+03 -0.17498157862E+03 -0.20170106672E+03  0.78240593004E+03  0.10100000352E+00 0. -1.
</event>
<event>
 5   0  0.1057872E-03  0.1112250E+04  0.7818609E-02  0.9193334E-01
        2   -1    0    0  501    0  0.00000000000E+00  0.00000000000E+00  0.15231937251E+04  0.15231937251E+04  0.25500000920E-02 0. -1.
       -2   -1    0    0    0  501  0.00000000000E+00  0.00000000000E+00 -0.20304383758E+03  0.20304383759E+03  0.25500000920E-02 0.  1.
    10030    2    1    2    0    0  0.00000000000E+00  0.00000000000E+00  0.13201498875E+04  0.17262375626E+04  0.11122501505E+04 0.  0.
        2    1    3    3  502    0  0.43363725626E+03  0.46599236916E+02  0.11956067839E+04  0.12726697689E+04  0.25500000920E-02 0. -1.
       -2    1    3    3    0  502 -0.43363725626E+03 -0.46599236916E+02  0.12454310359E+03  0.45356779379E+03  0.25500000920E-02 0.  1.
</event>
<event>
 5   0  0.1037321E-03  0.1605976E+04  0.7818609E-02  0.8816885E-01
       -2   -1    0    0    0  501  0.00000000000E+00  0.00000000000E+00  0.10165024532E+04  0.10165024532E+04  0.25500000920E-02 0.  1.
        2   -1    0    0  501    0  0.00000000000E+00  0.00000000000E+00 -0.63432196093E+03  0.63432196093E+03  0.25500000920E-02 0. -1.
    10030    2    1    2    0    0  0.00000000000E+00  0.00000000000E+00  0.38218049226E+03  0.16508244141E+04  0.16059761261E+04 0.  0.
        5    1    3    3  502    0  0.65149080215E+03 -0.38805778272E+03 -0.80365168116E+02  0.76256787125E+03  0.46999998093E+01 0. -1.
       -5    1    3    3    0  502 -0.65149080215E+03  0.38805778272E+03  0.46254566037E+03  0.88825654287E+03  0.46999998093E+01 0.  1.
</event>
<event>
 5   0  0.1030027E-03  0.1506157E+04  0.7818609E-02  0.8880369E-01
        2   -1    0    0  501    0  0.00000000000E+00  0.00000000000E+00  0.38982078683E+03  0.38982078684E+03  0.25500000920E-02 0. -1.
       -2   -1    0    0    0  501  0.00000000000E+00  0.00000000000E+00 -0.14548417998E+04  0.14548417998E+04  0.25500000920E-02 0.  1.
    10030    2    1    2    0    0  0.00000000000E+00  0.00000000000E+00 -0.10650210130E+04  0.18446625867E+04  0.15061574621E+04 0.  0.
        1    1    3    3  502    0 -0.36130653741E+03  0.61649362230E+03 -0.24133783238E+03  0.75422194988E+03  0.50400001928E-02 0. -1.
       -1    1    3    3    0  502  0.36130653741E+03 -0.61649362230E+03 -0.82368318061E+03  0.10904406368E+04  0.50400001928E-02 0.  1.
</event>
<event>
 5   0  0.1000121E-03  0.1785611E+04  0.7818609E-02  0.8713989E-01
        2   -1    0    0  501    0  0.00000000000E+00  0.00000000000E+00  0.67051873509E+03  0.67051873510E+03  0.25500000920E-02 0. -1.
       -2   -1    0    0    0  501  0.00000000000E+00  0.00000000000E+00 -0.11887840976E+04  0.11887840976E+04  0.25500000920E-02 0.  1.
    10030    2    1    2    0    0  0.00000000000E+00  0.00000000000E+00 -0.51826536251E+03  0.18593028327E+04  0.17856113905E+04 0.  0.
        4    1    3    3  502    0  0.15002989187E+02  0.36187805486E+03 -0.11088492285E+04  0.11665029107E+04  0.12699999809E+01 0.  1.
       -4    1    3    3    0  502 -0.15002989187E+02 -0.36187805486E+03  0.59058386598E+03  0.69279992200E+03  0.12699999809E+01 0. -1.
</event>
<event>
 5   0  0.1037321E-03  0.1543934E+04  0.7818609E-02  0.8855752E-01
       -2   -1    0    0    0  501  0.00000000000E+00  0.00000000000E+00  0.46798791082E+03  0.46798791083E+03  0.25500000920E-02 0. -1.
        2   -1    0    0  501    0  0.00000000000E+00  0.00000000000E+00 -0.12733933571E+04  0.12733933571E+04  0.25500000920E-02 0.  1.
    10030    2    1    2    0    0  0.00000000000E+00  0.00000000000E+00 -0.80540544626E+03  0.17413812679E+04  0.15439335437E+04 0.  0.
        5    1    3    3  502    0  0.50434630291E+03  0.11913648444E+03  0.24261368273E+03  0.57222564101E+03  0.46999998093E+01 0. -1.
       -5    1    3    3    0  502 -0.50434630291E+03 -0.11913648444E+03 -0.10480191290E+04  0.11691556269E+04  0.46999998093E+01 0.  1.
</event>
<event>
 5   0  0.9844690E-04  0.1598257E+04  0.7818609E-02  0.8821620E-01
        2   -1    0    0  501    0  0.00000000000E+00  0.00000000000E+00  0.67857330417E+03  0.67857330418E+03  0.25500000920E-02 0. -1.
       -2   -1    0    0    0  501  0.00000000000E+00  0.00000000000E+00 -0.94110132373E+03  0.94110132374E+03  0.25500000920E-02 0.  1.
    10030    2    1    2    0    0  0.00000000000E+00  0.00000000000E+00 -0.26252801956E+03  0.16196746279E+04  0.15982568440E+04 0.  0.
        3    1    3    3  502    0 -0.44759057111E+03  0.32775068387E+03 -0.71416624673E+03  0.90431812339E+03  0.10100000352E+00 0.  1.
       -3    1    3    3    0  502  0.44759057111E+03 -0.32775068387E+03  0.45163822717E+03  0.71535650452E+03  0.10100000352E+00 0. -1.
</event>
<event>
 5   0  0.5281116E-04  0.1589675E+04  0.7818609E-02  0.8826917E-01
       -1   -1    0    0    0  501  0.00000000000E+00  0.00000000000E+00  0.61329706962E+03  0.61329706964E+03  0.50400001928E-02 0. -1.
        1   -1    0    0  501    0  0.00000000000E+00  0.00000000000E+00 -0.10301147188E+04  0.10301147189E+04  0.50400001928E-02 0.  1.
    10030    2    1    2    0    0  0.00000000000E+00  0.00000000000E+00 -0.41681764923E+03  0.16434117885E+04  0.15896746063E+04 0.  0.
        2    1    3    3  502    0 -0.22795504435E+03  0.66989105566E+03 -0.58265269986E+03  0.91662516732E+03  0.25500000920E-02 0.  1.
       -2    1    3    3    0  502  0.22795504435E+03 -0.66989105566E+03  0.16583505063E+03  0.72678662118E+03  0.25500000920E-02 0. -1.
</event>
<event>
 5   0  0.1037321E-03  0.1457024E+04  0.7818609E-02  0.8913545E-01
        2   -1    0    0  501    0  0.00000000000E+00  0.00000000000E+00  0.92113898777E+03  0.92113898777E+03  0.25500000920E-02 0. -1.
       -2   -1    0    0    0  501  0.00000000000E+00  0.00000000000E+00 -0.57616693196E+03  0.57616693197E+03  0.25500000920E-02 0.  1.
    10030    2    1    2    0    0  0.00000000000E+00  0.00000000000E+00  0.34497205580E+03  0.14973059197E+04  0.14570241240E+04 0.  0.
        5    1    3    3  502    0 -0.18201641588E+03 -0.69815077225E+03  0.68885903777E+02  0.72478399139E+03  0.46999998093E+01 0. -1.
       -5    1    3    3    0  502  0.18201641588E+03  0.69815077225E+03  0.27608615203E+03  0.77252192835E+03  0.46999998093E+01 0.  1.
</event>
<event>
 5   0  0.5425525E-04  0.1610346E+04  0.7818609E-02  0.8814217E-01
        1   -1    0    0  501    0  0.00000000000E+00  0.00000000000E+00  0.14847136377E+04  0.14847136377E+04  0.50400001928E-02 0. -1.
       -1   -1    0    0    0  501  0.00000000000E+00  0.00000000000E+00 -0.43665229319E+03  0.43665229322E+03  0.50400001928E-02 0.  1.
    10030    2    1    2    0    0  0.00000000000E+00  0.00000000000E+00  0.10480613445E+04  0.19213659309E+04  0.16103460680E+04 0.  0.
        5    1    3    3  502    0  0.76329990182E+03  0.63827081817E+02  0.22794741987E+03  0.79917629639E+03  0.46999998093E+01 0.  1.
       -5    1    3    3    0  502 -0.76329990182E+03 -0.63827081817E+02  0.82011392465E+03  0.11221896345E+04  0.46999998093E+01 0. -1.
</event>
<event>
 5   0  0.5425525E-04  0.1810039E+04  0.7818609E-02  0.8700979E-01
       -1   -1    0    0    0  501  0.00000000000E+00  0.00000000000E+00  0.10156744948E+04  0.10156744948E+04  0.50400001928E-02 0.  1.
        1   -1    0    0  501    0  0.00000000000E+00  0.00000000000E+00 -0.80642049744E+03  0.80642049745E+03  0.50400001928E-02 0. -1.
    10030    2    1    2    0    0  0.00000000000E+00  0.00000000000E+00  0.20925399736E+03  0.18220949923E+04  0.18100394817E+04 0.  0.
        5    1    3    3  502    0 -0.53934169615E+03 -0.43951605278E+03 -0.47799790582E+03  0.84413737852E+03  0.46999998093E+01 0. -1.
       -5    1    3    3    0  502  0.53934169615E+03  0.43951605278E+03  0.68725190319E+03  0.97795761375E+03  0.46999998093E+01 0.  1.
</event>
<event>
 5   0  0.5425525E-04  0.1596137E+04  0.7818609E-02  0.8822924E-01
        1   -1    0    0  501    0  0.00000000000E+00  0.00000000000E+00  0.19826242159E+04  0.19826242159E+04  0.50400001928E-02 0. -1.
       -1   -1    0    0    0  501  0.00000000000E+00  0.00000000000E+00 -0.32124779502E+03  0.32124779506E+03  0.50400001928E-02 0.  1.
    10030    2    1    2    0    0  0.00000000000E+00  0.00000000000E+00  0.16613764209E+04  0.23038720110E+04  0.15961374098E+04 0.  0.
        5    1    3    3  502    0  0.58433884941E+03  0.15088582238E+03  0.76969569958E+02  0.60841172492E+03  0.46999998093E+01 0.  1.
       -5    1    3    3    0  502 -0.58433884941E+03 -0.15088582238E+03  0.15844068510E+04  0.16954602861E+04  0.46999998093E+01 0. -1.
</event>
<event>
 5   0  0.5532881E-04  0.1501813E+04  0.7818609E-02  0.8883248E-01
        1   -1    0    0  501    0  0.00000000000E+00  0.00000000000E+00  0.72076142522E+03  0.72076142523E+03  0.50400001928E-02 0.  1.
       -1   -1    0    0    0  501  0.00000000000E+00  0.00000000000E+00 -0.78231188250E+03  0.78231188251E+03  0.50400001928E-02 0. -1.
    10030    2    1    2    0    0  0.00000000000E+00  0.00000000000E+00 -0.61550457278E+02  0.15030733077E+04  0.15018125415E+04 0.  0.
        4    1    3    3  502    0 -0.28163145097E+03  0.16627296776E+03  0.64573278097E+03  0.72383382852E+03  0.12699999809E+01 0.  1.
       -4    1    3    3    0  502  0.28163145097E+03 -0.16627296776E+03 -0.70728323825E+03  0.77923947923E+03  0.12699999809E+01 0. -1.
</event>
<event>
 5   0  0.9844690E-04  0.1829114E+04  0.7818609E-02  0.8690968E-01
        2   -1    0    0  501    0  0.00000000000E+00  0.00000000000E+00  0.17308345386E+04  0.17308345386E+04  0.25500000920E-02 0. -1.
       -2   -1    0    0    0  501  0.00000000000E+00  0.00000000000E+00 -0.48324345835E+03  0.48324345836E+03  0.25500000920E-02 0.  1.
    10030    2    1    2    0    0  0.00000000000E+00  0.00000000000E+00  0.12475910803E+04  0.22140779970E+04  0.18291139585E+04 0.  0.
        3    1    3    3  502    0  0.45063553283E+03  0.21743077870E+03 -0.30287507141E+03  0.58487763341E+03  0.10100000352E+00 0.  1.
       -3    1    3    3    0  502 -0.45063553283E+03 -0.21743077870E+03  0.15504661517E+04  0.16292003636E+04  0.10100000352E+00 0. -1.
</event>
<event>
 5   0  0.1037321E-03  0.1613815E+04  0.7818609E-02  0.8812106E-01
       -2   -1    0    0    0  501  0.00000000000E+00  0.00000000000E+00  0.48777073476E+03  0.48777073476E+03  0.25500000920E-02 0.  1.
        2   -1    0    0  501    0  0.00000000000E+00  0.00000000000E+00 -0.13348477579E+04  0.13348477579E+04  0.25500000920E-02 0. -1.
    10030    2    1    2    0    0  0.00000000000E+00  0.00000000000E+00 -0.84707702311E+03  0.18226184926E+04  0.16138149481E+04 0.  0.
        5    1    3    3  502    0  0.23113396015E+03  0.76662510509E+03 -0.53614121732E+03  0.96364228539E+03  0.46999998093E+01 0. -1.
       -5    1    3    3    0  502 -0.23113396015E+03 -0.76662510509E+03 -0.31093580579E+03  0.85897620725E+03  0.46999998093E+01 0.  1.
</event>
<event>
 5   0  0.5532881E-04  0.1583102E+04  0.7818609E-02  0.8830997E-01
        1   -1    0    0  501    0  0.00000000000E+00  0.00000000000E+00  0.68205704103E+03  0.68205704105E+03  0.50400001928E-02 0. -1.
       -1   -1    0    0    0  501  0.00000000000E+00  0.00000000000E+00 -0.91862223083E+03  0.91862223084E+03  0.50400001928E-02 0.  1.
    10030    2    1    2    0    0  0.00000000000E+00  0.00000000000E+00 -0.23656518979E+03  0.16006792719E+04  0.15831017158E+04 0.  0.
        4    1    3    3  502    0  0.68191441237E+03  0.61898192989E+02 -0.51982235341E+03  0.85968339759E+03  0.12699999809E+01 0.  1.
       -4    1    3    3    0  502 -0.68191441237E+03 -0.61898192989E+02  0.28325716362E+03  0.74099587430E+03  0.12699999809E+01 0. -1.
</event>
<event>
 5   0  0.1000121E-03  0.1600585E+04  0.7818609E-02  0.8820188E-01
        2   -1    0    0  501    0  0.00000000000E+00  0.00000000000E+00  0.52764336092E+03  0.52764336093E+03  0.25500000920E-02 0. -1.
       -2   -1    0    0    0  501  0.00000000000E+00  0.00000000000E+00 -0.12138283300E+04  0.12138283300E+04  0.25500000920E-02 0.  1.
    10030    2    1    2    0    0  0.00000000000E+00  0.00000000000E+00 -0.68618496907E+03  0.17414716909E+04  0.16005854674E+04 0.  0.
        4    1    3    3  502    0 -0.23938540824E+03  0.13562628275E+03  0.47456647499E+03  0.54855702925E+03  0.12699999809E+01 0. -1.
       -4    1    3    3    0  502  0.23938540824E+03 -0.13562628275E+03 -0.11607514441E+04  0.11929146617E+04  0.12699999809E+01 0.  1.
</event>
<event>
 5   0  0.1057872E-03  0.1526347E+04  0.7818609E-02  0.8867119E-01
       -2   -1    0    0    0  501  0.00000000000E+00  0.00000000000E+00  0.68971716852E+03  0.68971716852E+03  0.25500000920E-02 0.  1.
        2   -1    0    0  501    0  0.00000000000E+00  0.00000000000E+00 -0.84445321272E+03  0.84445321273E+03  0.25500000920E-02 0. -1.
    10030    2    1    2    0    0  0.00000000000E+00  0.00000000000E+00 -0.15473604420E+03  0.15341703813E+04  0.15263471150E+04 0.  0.
        2    1    3    3  502    0 -0.69477840939E+03 -0.16127284826E+03  0.19551551115E+03  0.73956222513E+03  0.25500000920E-02 0.  1.
       -2    1    3    3    0  502  0.69477840939E+03  0.16127284826E+03 -0.35025155536E+03  0.79460815612E+03  0.25500000920E-02 0. -1.
</event>
<event>
 5   0  0.5532881E-04  0.1600277E+04  0.7818609E-02  0.8820378E-01
        1   -1    0    0  501    0  0.00000000000E+00  0.00000000000E+00  0.48145325584E+03  0.48145325587E+03  0.50400001928E-02 0. -1.
       -1   -1    0    0    0  501  0.00000000000E+00  0.00000000000E+00 -0.13297684781E+04  0.13297684781E+04  0.50400001928E-02 0.  1.
    10030    2    1    2    0    0  0.00000000000E+00  0.00000000000E+00 -0.84831522227E+03  0.18112217340E+04  0.16002766802E+04 0.  0.
        4    1    3    3  502    0 -0.45838453426E+02 -0.77863814606E+03 -0.62612042931E+03  0.10002034449E+04  0.12699999809E+01 0.  1.
       -4    1    3    3    0  502  0.45838453426E+02  0.77863814606E+03 -0.22219479296E+03  0.81101828908E+03  0.12699999809E+01 0. -1.
</event>
<event>
 5   0  0.1037321E-03  0.1582789E+04  0.7818609E-02  0.8831191E-01
        2   -1    0    0  501    0  0.00000000000E+00  0.00000000000E+00  0.65242386766E+03  0.65242386766E+03  0.25500000920E-02 0. -1.
       -2   -1    0    0    0  501  0.00000000000E+00  0.00000000000E+00 -0.95996716953E+03  0.95996716954E+03  0.25500000920E-02 0.  1.
    10030    2    1    2    0    0  0.00000000000E+00  0.00000000000E+00 -0.30754330187E+03  0.16123910372E+04  0.15827893019E+04 0.  0.
        5    1    3    3  502    0  0.19043519482E+03  0.49991964564E+03  0.44031449975E+03  0.69288106065E+03  0.46999998093E+01 0. -1.
       -5    1    3    3    0  502 -0.19043519482E+03 -0.49991964564E+03 -0.74785780163E+03  0.91950997655E+03  0.46999998093E+01 0.  1.
</event>
<event>
 5   0  0.5623061E-04  0.1834240E+04  0.7818609E-02  0.8688300E-01
       -1   -1    0    0    0  501  0.00000000000E+00  0.00000000000E+00  0.45771777689E+03  0.45771777692E+03  0.50400001928E-02 0.  1.
        1   -1    0    0  501    0  0.00000000000E+00  0.00000000000E+00 -0.18376157228E+04  0.18376157228E+04  0.50400001928E-02 0. -1.
    10030    2    1    2    0    0  0.00000000000E+00  0.00000000000E+00 -0.13798979460E+04  0.22953334998E+04  0.18342403152E+04 0.  0.
        3    1    3    3  502    0  0.24743870773E+02 -0.66647227844E+02  0.45426448767E+03  0.45979380931E+03  0.10100000352E+00 0.  1.
       -3    1    3    3    0  502 -0.24743870773E+02  0.66647227844E+02 -0.18341624336E+04  0.18355396905E+04  0.10100000352E+00 0. -1.
</event>
<event>
 5   0  0.1000121E-03  0.1555362E+04  0.7818609E-02  0.8848450E-01
        2   -1    0    0  501    0  0.00000000000E+00  0.00000000000E+00  0.15586202828E+04  0.15586202828E+04  0.25500000920E-02 0. -1.
       -2   -1    0    0    0  501  0.00000000000E+00  0.00000000000E+00 -0.38802745664E+03  0.38802745664E+03  0.25500000920E-02 0.  1.
    10030    2    1    2    0    0  0.00000000000E+00  0.00000000000E+00  0.11705928262E+04  0.19466477394E+04  0.15553616482E+04 0.  0.
        4    1    3    3  502    0  0.39826230715E+02 -0.33741492971E+03  0.14608166201E+04  0.14998072456E+04  0.12699999809E+01 0. -1.
       -4    1    3    3    0  502 -0.39826230715E+02  0.33741492971E+03 -0.29022379396E+03  0.44684049383E+03  0.12699999809E+01 0.  1.
</event>
<event>
 5   0  0.3832500E-04  0.1624077E+04  0.7818609E-02  0.8805892E-01
        3   -1    0    0  501    0  0.00000000000E+00  0.00000000000E+00  0.24992398045E+03  0.24992400086E+03  0.10100000352E+00 0. -1.
       -3   -1    0    0    0  501  0.00000000000E+00  0.00000000000E+00 -0.26384288835E+04  0.26384288854E+04  0.10100000352E+00 0.  1.
    10030    2    1    2    0    0  0.00000000000E+00  0.00000000000E+00 -0.23885049030E+04  0.28883528862E+04  0.16240771915E+04 0.  0.
        1    1    3    3  502    0  0.32220196318E+03 -0.64853449413E+03 -0.18476889202E+04  0.19845315419E+04  0.50400001928E-02 0.  1.
       -1    1    3    3    0  502 -0.32220196318E+03  0.64853449413E+03 -0.54081598285E+03  0.90382134433E+03  0.50400001928E-02 0. -1.
</event>
<event>
 5   0  0.1037321E-03  0.1612082E+04  0.7818609E-02  0.8813160E-01
        2   -1    0    0  501    0  0.00000000000E+00  0.00000000000E+00  0.23451660417E+04  0.23451660417E+04  0.25500000920E-02 0.  1.
       -2   -1    0    0    0  501  0.00000000000E+00  0.00000000000E+00 -0.27703891768E+03  0.27703891770E+03  0.25500000920E-02 0. -1.
    10030    2    1    2    0    0  0.00000000000E+00  0.00000000000E+00  0.20681271240E+04  0.26222049594E+04  0.16120822088E+04 0.  0.
        5    1    3    3  502    0 -0.31757711552E+03 -0.28003737222E+03  0.21496801436E+04  0.21909867558E+04  0.46999998093E+01 0.  1.
       -5    1    3    3    0  502  0.31757711552E+03  0.28003737222E+03 -0.81553019587E+02  0.43121820363E+03  0.46999998093E+01 0. -1.
</event>
<event>
 5   0  0.5288658E-04  0.1557199E+04  0.7818609E-02  0.8847283E-01
        1   -1    0    0  501    0  0.00000000000E+00  0.00000000000E+00  0.18150950221E+04  0.18150950221E+04  0.50400001928E-02 0.  1.
       -1   -1    0    0    0  501  0.00000000000E+00  0.00000000000E+00 -0.33398635104E+03  0.33398635108E+03  0.50400001928E-02 0. -1.
    10030    2    1    2    0    0  0.00000000000E+00  0.00000000000E+00  0.14811086711E+04  0.21490813732E+04  0.15571987198E+04 0.  0.
        1    1    3    3  502    0  0.53306492287E+03  0.46696504911E+03  0.29548211285E+03  0.76780482424E+03  0.50400001928E-02 0. -1.
       -1    1    3    3    0  502 -0.53306492287E+03 -0.46696504911E+03  0.11856265582E+04  0.13812765489E+04  0.50400001928E-02 0.  1.
</event>
<event>
 5   0  0.5288658E-04  0.1591645E+04  0.7818609E-02  0.8825697E-01
        1   -1    0    0  501    0  0.00000000000E+00  0.00000000000E+00  0.10316160965E+04  0.10316160965E+04  0.50400001928E-02 0. -1.
       -1   -1    0    0    0  501  0.00000000000E+00  0.00000000000E+00 -0.61392352726E+03  0.61392352728E+03  0.50400001928E-02 0.  1.
    10030    2    1    2    0    0  0.00000000000E+00  0.00000000000E+00  0.41769256924E+03  0.16455396238E+04  0.15916449262E+04 0.  0.
        1    1    3    3  502    0  0.15128755984E+03 -0.77637225900E+03  0.11817495078E+03  0.79975441813E+03  0.50400001928E-02 0.  1.
       -1    1    3    3    0  502 -0.15128755984E+03  0.77637225900E+03  0.29951761846E+03  0.84578520565E+03  0.50400001928E-02 0. -1.
</event>
<event>
 5   0  0.5623061E-04  0.1578449E+04  0.7818609E-02  0.8833898E-01
       -1   -1    0    0    0  501  0.00000000000E+00  0.00000000000E+00  0.67176696462E+03  0.67176696464E+03  0.50400001928E-02 0.  1.
        1   -1    0    0  501    0  0.00000000000E+00  0.00000000000E+00 -0.92721968661E+03  0.92721968662E+03  0.50400001928E-02 0. -1.
    10030    2    1    2    0    0  0.00000000000E+00  0.00000000000E+00 -0.25545272198E+03  0.15989866513E+04  0.15784493079E+04 0.  0.
        3    1    3    3  502    0 -0.43488977098E+03  0.98607308562E+02 -0.78736930561E+03  0.90487731092E+03  0.10100000352E+00 0. -1.
       -3    1    3    3    0  502  0.43488977098E+03 -0.98607308562E+02  0.53191658363E+03  0.69410934034E+03  0.10100000352E+00 0.  1.
</event>
<event>
 5   0  0.1000121E-03  0.1598242E+04  0.7818609E-02  0.8821629E-01
       -2   -1    0    0    0  501  0.00000000000E+00  0.00000000000E+00  0.37934489575E+03  0.37934489576E+03  0.25500000920E-02 0. -1.
        2   -1    0    0  501    0  0.00000000000E+00  0.00000000000E+00 -0.16834130888E+04  0.16834130888E+04  0.25500000920E-02 0.  1.
    10030    2    1    2    0    0  0.00000000000E+00  0.00000000000E+00 -0.13040681931E+04  0.20627579846E+04  0.15982417373E+04 0.  0.
        4    1    3    3  502    0  0.55587334187E+03  0.19403314460E+02  0.88507572645E+02  0.56321120739E+03  0.12699999809E+01 0. -1.
       -4    1    3    3    0  502 -0.55587334187E+03 -0.19403314460E+02 -0.13925757657E+04  0.14995467772E+04  0.12699999809E+01 0.  1.
</event>
<event>
 5   0  0.1030027E-03  0.1471877E+04  0.7818609E-02  0.8903373E-01
        2   -1    0    0  501    0  0.00000000000E+00  0.00000000000E+00  0.49759806656E+03  0.49759806657E+03  0.25500000920E-02 0.  1.
       -2   -1    0    0    0  501  0.00000000000E+00  0.00000000000E+00 -0.10884397042E+04  0.10884397042E+04  0.25500000920E-02 0. -1.
    10030    2    1    2    0    0  0.00000000000E+00  0.00000000000E+00 -0.59084163764E+03  0.15860377708E+04  0.14718770226E+04 0.  0.
        1    1    3    3  502    0 -0.59423276343E+03  0.31920580638E+03  0.21683656488E+02  0.67488895750E+03  0.50400001928E-02 0. -1.
       -1    1    3    3    0  502  0.59423276343E+03 -0.31920580638E+03 -0.61252529413E+03  0.91114881328E+03  0.50400001928E-02 0.  1.
</event>
<event>
 5   0  0.1037321E-03  0.1562987E+04  0.7818609E-02  0.8843615E-01
       -2   -1    0    0    0  501  0.00000000000E+00  0.00000000000E+00  0.42066107541E+03  0.42066107541E+03  0.25500000920E-02 0.  1.
        2   -1    0    0  501    0  0.00000000000E+00  0.00000000000E+00 -0.14518380776E+04  0.14518380776E+04  0.25500000920E-02 0. -1.
    10030    2    1    2    0    0  0.00000000000E+00  0.00000000000E+00 -0.10311770022E+04  0.18724991530E+04  0.15629865860E+04 0.  0.
        5    1    3    3  502    0 -0.44735382423E+03 -0.61466402336E+03 -0.73246890472E+03  0.10556846556E+04  0.46999998093E+01 0. -1.
       -5    1    3    3    0  502  0.44735382423E+03  0.61466402336E+03 -0.29870809743E+03  0.81681449738E+03  0.46999998093E+01 0.  1.
</event>
<event>
 5   0  0.5281116E-04  0.1606377E+04  0.7818609E-02  0.8816640E-01
       -1   -1    0    0    0  501  0.00000000000E+00  0.00000000000E+00  0.52644021232E+03  0.52644021234E+03  0.50400001928E-02 0. -1.
        1   -1    0    0  501    0  0.00000000000E+00  0.00000000000E+00 -0.12254227545E+04  0.12254227545E+04  0.50400001928E-02 0.  1.
    10030    2    1    2    0    0  0.00000000000E+00  0.00000000000E+00 -0.69898254214E+03  0.17518629668E+04  0.16063770604E+04 0.  0.
        2    1    3    3  502    0 -0.19492639483E+03  0.76189557574E+03 -0.17152262354E+03  0.80492308832E+03  0.25500000920E-02 0. -1.
       -2    1    3    3    0  502  0.19492639483E+03 -0.76189557574E+03 -0.52745991860E+03  0.94693987848E+03  0.25500000920E-02 0.  1.
</event>
<event>
 5   0  0.5425525E-04  0.1581317E+04  0.7818609E-02  0.8832108E-01
        1   -1    0    0  501    0  0.00000000000E+00  0.00000000000E+00  0.90657264584E+03  0.90657264585E+03  0.50400001928E-02 0. -1.
       -1   -1    0    0    0  501  0.00000000000E+00  0.00000000000E+00 -0.68956529488E+03  0.68956529489E+03  0.50400001928E-02 0.  1.
    10030    2    1    2    0    0  0.00000000000E+00  0.00000000000E+00  0.21700735096E+03  0.15961379407E+04  0.15813172153E+04 0.  0.
        5    1    3    3  502    0 -0.32268061292E+03  0.16699181367E+03  0.81730298040E+03  0.89443574144E+03  0.46999998093E+01 0. -1.
       -5    1    3    3    0  502  0.32268061292E+03 -0.16699181367E+03 -0.60029562944E+03  0.70170219931E+03  0.46999998093E+01 0.  1.
</event>
<event>
 5   0  0.1000121E-03  0.1618107E+04  0.7818609E-02  0.8809501E-01
       -2   -1    0    0    0  501  0.00000000000E+00  0.00000000000E+00  0.23032789911E+03  0.23032789913E+03  0.25500000920E-02 0. -1.
        2   -1    0    0  501    0  0.00000000000E+00  0.00000000000E+00 -0.28418959610E+04  0.28418959610E+04  0.25500000920E-02 0.  1.
    10030    2    1    2    0    0  0.00000000000E+00  0.00000000000E+00 -0.26115680619E+04  0.30722238602E+04  0.16181074454E+04 0.  0.
        4    1    3    3  502    0  0.32198750757E+03  0.69753149442E+03 -0.82418388231E+03  0.11267239349E+04  0.12699999809E+01 0. -1.
       -4    1    3    3    0  502 -0.32198750757E+03 -0.69753149442E+03 -0.17873841796E+04  0.19454999252E+04  0.12699999809E+01 0.  1.
</event>
<event>
 5   0  0.5623061E-04  0.1608435E+04  0.7818609E-02  0.8815383E-01
       -1   -1    0    0    0  501  0.00000000000E+00  0.00000000000E+00  0.51968141446E+03  0.51968141449E+03  0.50400001928E-02 0.  1.
        1   -1    0    0  501    0  0.00000000000E+00  0.00000000000E+00 -0.12445434898E+04  0.12445434898E+04  0.50400001928E-02 0. -1.
    10030    2    1    2    0    0  0.00000000000E+00  0.00000000000E+00 -0.72486207536E+03  0.17642249043E+04  0.16084354152E+04 0.  0.
        3    1    3    3  502    0  0.45509508631E+03  0.31163935077E+03  0.27952177802E+03  0.61835512217E+03  0.10100000352E+00 0.  1.
       -3    1    3    3    0  502 -0.45509508631E+03 -0.31163935077E+03 -0.10043838534E+04  0.11458697822E+04  0.10100000352E+00 0. -1.
</event>
<event>
 5   0  0.1000121E-03  0.1607688E+04  0.7818609E-02  0.8815839E-01
       -2   -1    0    0    0  501  0.00000000000E+00  0.00000000000E+00  0.71883999964E+03  0.71883999964E+03  0.25500000920E-02 0.  1.
        2   -1    0    0  501    0  0.00000000000E+00  0.00000000000E+00 -0.89890011461E+03  0.89890011462E+03  0.25500000920E-02 0. -1.
    10030    2    1    2    0    0  0.00000000000E+00  0.00000000000E+00 -0.18006011497E+03  0.16177401143E+04  0.16076882261E+04 0.  0.
        4    1    3    3  502    0 -0.34589612789E+03 -0.50980340216E+03  0.42955107355E+03  0.75103886573E+03  0.12699999809E+01 0.  1.
       -4    1    3    3    0  502  0.34589612789E+03  0.50980340216E+03 -0.60961118852E+03  0.86670124854E+03  0.12699999809E+01 0. -1.
</event>
<event>
 5   0  0.5288658E-04  0.1806234E+04  0.7818609E-02  0.8702991E-01
        1   -1    0    0  501    0  0.00000000000E+00  0.00000000000E+00  0.77341309003E+03  0.77341309005E+03  0.50400001928E-02 0. -1.
       -1   -1    0    0    0  501  0.00000000000E+00  0.00000000000E+00 -0.10545730144E+04  0.10545730144E+04  0.50400001928E-02 0.  1.
    10030    2    1    2    0    0  0.00000000000E+00  0.00000000000E+00 -0.28115992440E+03  0.18279861045E+04  0.18062342858E+04 0.  0.
        1    1    3    3  502    0  0.24853806597E+03  0.39392548514E+03  0.64247694292E+03  0.79355219128E+03  0.50400001928E-02 0. -1.
       -1    1    3    3    0  502 -0.24853806597E+03 -0.39392548514E+03 -0.92363686733E+03  0.10344339132E+04  0.50400001928E-02 0.  1.
</event>
<event>
 5   0  0.5288658E-04  0.1532419E+04  0.7818609E-02  0.8863176E-01
        1   -1    0    0  501    0  0.00000000000E+00  0.00000000000E+00  0.49930269009E+03  0.49930269012E+03  0.50400001928E-02 0. -1.
       -1   -1    0    0    0  501  0.00000000000E+00  0.00000000000E+00 -0.11757939030E+04  0.11757939030E+04  0.50400001928E-02 0.  1.
    10030    2    1    2    0    0  0.00000000000E+00  0.00000000000E+00 -0.67649121286E+03  0.16750965931E+04  0.15324190795E+04 0.  0.
        1    1    3    3  502    0  0.15740652100E+02 -0.47789131132E+03  0.31620383825E+03  0.57324753895E+03  0.50400001928E-02 0. -1.
       -1    1    3    3    0  502 -0.15740652100E+02  0.47789131132E+03 -0.99269505111E+03  0.11018490541E+04  0.50400001928E-02 0.  1.
</event>
<event>
 5   0  0.1000121E-03  0.1587538E+04  0.7818609E-02  0.8828241E-01
        2   -1    0    0  501    0  0.00000000000E+00  0.00000000000E+00  0.13603669905E+04  0.13603669905E+04  0.25500000920E-02 0.  1.
       -2   -1    0    0    0  501  0.00000000000E+00  0.00000000000E+00 -0.46316101263E+03  0.46316101264E+03  0.25500000920E-02 0. -1.
    10030    2    1    2    0    0  0.00000000000E+00  0.00000000000E+00  0.89720597786E+03  0.18235280031E+04  0.15875376567E+04 0.  0.
        4    1    3    3  502    0 -0.31005896258E+03 -0.74396233363E+02  0.12835677634E+04  0.13225804989E+04  0.12699999809E+01 0.  1.
       -4    1    3    3    0  502  0.31005896258E+03  0.74396233363E+02 -0.38636178554E+03  0.50094750428E+03  0.12699999809E+01 0. -1.
</event>
<event>
 5   0  0.1030027E-03  0.1592447E+04  0.7818609E-02  0.8825201E-01
        2   -1    0    0  501    0  0.00000000000E+00  0.00000000000E+00  0.17087932642E+04  0.17087932642E+04  0.25500000920E-02 0.  1.
       -2   -1    0    0    0  501  0.00000000000E+00  0.00000000000E+00 -0.37100577643E+03  0.37100577644E+03  0.25500000920E-02 0. -1.
    10030    2    1    2    0    0  0.00000000000E+00  0.00000000000E+00  0.13377874878E+04  0.20797990406E+04  0.15924473891E+04 0.  0.
        1    1    3    3  502    0  0.83426174107E+02 -0.72104092295E+03  0.10963343887E+04  0.13148418273E+04  0.50400001928E-02 0.  1.
       -1    1    3    3    0  502 -0.83426174107E+02  0.72104092295E+03  0.24145309908E+03  0.76495721330E+03  0.50400001928E-02 0. -1.
</event>
<event>
 5   0  0.1000121E-03  0.1591474E+04  0.7818609E-02  0.8825803E-01
        2   -1    0    0  501    0  0.00000000000E+00  0.00000000000E+00  0.37894874292E+03  0.37894874293E+03  0.25500000920E-02 0.  1.
       -2   -1    0    0    0  501  0.00000000000E+00  0.00000000000E+00 -0.16709307456E+04  0.16709307456E+04  0.25500000920E-02 0. -1.
    10030    2    1    2    0    0  0.00000000000E+00  0.00000000000E+00 -0.12919820027E+04  0.20498794886E+04  0.15914736637E+04 0.  0.
        4    1    3    3  502    0  0.45522818138E+03 -0.34172203629E+03  0.70219661549E+02  0.57353209237E+03  0.12699999809E+01 0.  1.
       -4    1    3    3    0  502 -0.45522818138E+03  0.34172203629E+03 -0.13622016643E+04  0.14763473962E+04  0.12699999809E+01 0. -1.
</event>
<event>
 5   0  0.1000121E-03  0.1369202E+04  0.7818609E-02  0.8976419E-01
       -2   -1    0    0    0  501  0.00000000000E+00  0.00000000000E+00  0.31382368455E+03  0.31382368456E+03  0.25500000920E-02 0.  1.
        2   -1    0    0  501    0  0.00000000000E+00  0.00000000000E+00 -0.14934449428E+04  0.14934449428E+04  0.25500000920E-02 0. -1.
    10030    2    1    2    0    0  0.00000000000E+00  0.00000000000E+00 -0.11796212582E+04  0.18072686273E+04  0.13692018034E+04 0.  0.
        4    1    3    3  502    0  0.46081056105E+03 -0.33855796201E+03 -0.92927977939E+02  0.57931432642E+03  0.12699999809E+01 0.  1.
       -4    1    3    3    0  502 -0.46081056105E+03  0.33855796201E+03 -0.10866932803E+04  0.12279543009E+04  0.12699999809E+01 0. -1.
</event>
<event>
 5   0  0.5288658E-04  0.1572746E+04  0.7818609E-02  0.8837469E-01
        1   -1    0    0  501    0  0.00000000000E+00  0.00000000000E+00  0.78491934984E+03  0.78491934986E+03  0.50400001928E-02 0. -1.
       -1   -1    0    0    0  501  0.00000000000E+00  0.00000000000E+00 -0.78782888769E+03  0.78782888771E+03  0.50400001928E-02 0.  1.
    10030    2    1    2    0    0  0.00000000000E+00  0.00000000000E+00 -0.29095378500E+01  0.15727482376E+04  0.15727455463E+04 0.  0.
        1    1    3    3  502    0  0.29372656199E+03  0.38770651289E+03  0.61643827328E+03  0.78523103488E+03  0.50400001928E-02 0. -1.
       -1    1    3    3    0  502 -0.29372656199E+03 -0.38770651289E+03 -0.61934781113E+03  0.78751720269E+03  0.50400001928E-02 0.  1.
</event>
<event>
 5   0  0.5623061E-04  0.1586236E+04  0.7818609E-02  0.8829048E-01
        1   -1    0    0  501    0  0.00000000000E+00  0.00000000000E+00  0.72370202068E+03  0.72370202070E+03  0.50400001928E-02 0.  1.
       -1   -1    0    0    0  501  0.00000000000E+00  0.00000000000E+00 -0.86919273397E+03  0.86919273398E+03  0.50400001928E-02 0. -1.
    10030    2    1    2    0    0  0.00000000000E+00  0.00000000000E+00 -0.14549071328E+03  0.15928947547E+04  0.15862364741E+04 0.  0.
        3    1    3    3  502    0  0.17858171081E+03 -0.14511443594E+03 -0.83493518801E+03  0.86606374207E+03  0.10100000352E+00 0. -1.
       -3    1    3    3    0  502 -0.17858171081E+03  0.14511443594E+03  0.68944447473E+03  0.72683101261E+03  0.10100000352E+00 0.  1.
</event>
<event>
 5   0  0.1057872E-03  0.1616844E+04  0.7818609E-02  0.8810267E-01
       -2   -1    0    0    0  501  0.00000000000E+00  0.00000000000E+00  0.73817791272E+03  0.73817791272E+03  0.25500000920E-02 0.  1.
        2   -1    0    0  501    0  0.00000000000E+00  0.00000000000E+00 -0.88535000607E+03  0.88535000608E+03  0.25500000920E-02 0. -1.
    10030    2    1    2    0    0  0.00000000000E+00  0.00000000000E+00 -0.14717209336E+03  0.16235279188E+04  0.16168436158E+04 0.  0.
        2    1    3    3  502    0 -0.44318223323E+03  0.30619836609E+03  0.53171439879E+03  0.75689373965E+03  0.25500000920E-02 0.  1.
       -2    1    3    3    0  502  0.44318223323E+03 -0.30619836609E+03 -0.67888649214E+03  0.86663417915E+03  0.25500000920E-02 0. -1.
</event>
<event>
 5   0  0.5281116E-04  0.1589059E+04  0.7818609E-02  0.8827298E-01
       -1   -1    0    0    0  501  0.00000000000E+00  0.00000000000E+00  0.90678309864E+03  0.90678309865E+03  0.50400001928E-02 0.  1.
        1   -1    0    0  501    0  0.00000000000E+00  0.00000000000E+00 -0.69617230874E+03  0.69617230876E+03  0.50400001928E-02 0. -1.
    10030    2    1    2    0    0  0.00000000000E+00  0.00000000000E+00  0.21061078990E+03  0.16029554074E+04  0.15890591976E+04 0.  0.
        2    1    3    3  502    0  0.23183531263E+02  0.26611124860E+03  0.86013016406E+03  0.90065341385E+03  0.25500000920E-02 0.  1.
       -2    1    3    3    0  502 -0.23183531263E+02 -0.26611124860E+03 -0.64951937415E+03  0.70230199356E+03  0.25500000920E-02 0. -1.
</event>
<event>
 5   0  0.5281116E-04  0.1613275E+04  0.7818609E-02  0.8812434E-01
        1   -1    0    0  501    0  0.00000000000E+00  0.00000000000E+00  0.16929503726E+04  0.16929503726E+04  0.50400001928E-02 0. -1.
       -1   -1    0    0    0  501  0.00000000000E+00  0.00000000000E+00 -0.38433728773E+03  0.38433728776E+03  0.50400001928E-02 0.  1.
    10030    2    1    2    0    0  0.00000000000E+00  0.00000000000E+00  0.13086130848E+04  0.20772876603E+04  0.16132748737E+04 0.  0.
        2    1    3    3  502    0  0.69043387294E+03 -0.41684607872E+03  0.63589903584E+03  0.10270477935E+04  0.25500000920E-02 0.  1.
       -2    1    3    3    0  502 -0.69043387294E+03  0.41684607872E+03  0.67271404899E+03  0.10502398669E+04  0.25500000920E-02 0. -1.
</event>
<event>
 5   0  0.5532881E-04  0.1614255E+04  0.7818609E-02  0.8811838E-01
       -1   -1    0    0    0  501  0.00000000000E+00  0.00000000000E+00  0.40869954796E+03  0.40869954799E+03  0.50400001928E-02 0. -1.
        1   -1    0    0  501    0  0.00000000000E+00  0.00000000000E+00 -0.15939697544E+04  0.15939697544E+04  0.50400001928E-02 0.  1.
    10030    2    1    2    0    0  0.00000000000E+00  0.00000000000E+00 -0.11852702064E+04  0.20026693024E+04  0.16142548970E+04 0.  0.
        4    1    3    3  502    0 -0.65448570175E+02 -0.28626362127E+03  0.34007554976E+03  0.44931433167E+03  0.12699999809E+01 0. -1.
       -4    1    3    3    0  502  0.65448570175E+02  0.28626362127E+03 -0.15253457562E+04  0.15533549707E+04  0.12699999809E+01 0.  1.
</event>
<event>
 5   0  0.1057872E-03  0.1611499E+04  0.7818609E-02  0.8813514E-01
        2   -1    0    0  501    0  0.00000000000E+00  0.00000000000E+00  0.24591080687E+04  0.24591080687E+04  0.25500000920E-02 0. -1.
       -2   -1    0    0    0  501  0.00000000000E+00  0.00000000000E+00 -0.26401142148E+03  0.26401142149E+03  0.25500000920E-02 0.  1.
    10030    2    1    2    0    0  0.00000000000E+00  0.00000000000E+00  0.21950966472E+04  0.27231194901E+04  0.16114994468E+04 0.  0.
        2    1    3    3  502    0  0.27628473814E+03  0.43704751691E+03  0.53297047563E+02  0.51979261619E+03  0.25500000920E-02 0.  1.
       -2    1    3    3    0  502 -0.27628473814E+03 -0.43704751691E+03  0.21417995996E+04  0.22033268740E+04  0.25500000920E-02 0. -1.
</event>
<event>
 5   0  0.5288658E-04  0.1574759E+04  0.7818609E-02  0.8836207E-01
        1   -1    0    0  501    0  0.00000000000E+00  0.00000000000E+00  0.96163470249E+03  0.96163470250E+03  0.50400001928E-02 0.  1.
       -1   -1    0    0    0  501  0.00000000000E+00  0.00000000000E+00 -0.64470026977E+03  0.64470026979E+03  0.50400001928E-02 0. -1.
    10030    2    1    2    0    0  0.00000000000E+00  0.00000000000E+00  0.31693443272E+03  0.16063349723E+04  0.15747585874E+04 0.  0.
        1    1    3    3  502    0 -0.38073448522E+03 -0.26905544357E+03  0.80571109669E+03  0.93087053413E+03  0.50400001928E-02 0.  1.
       -1    1    3    3    0  502  0.38073448522E+03  0.26905544357E+03 -0.48877666397E+03  0.67546443816E+03  0.50400001928E-02 0. -1.
</event>
<event>
 5   0  0.1057872E-03  0.1602473E+04  0.7818609E-02  0.8819030E-01
        2   -1    0    0  501    0  0.00000000000E+00  0.00000000000E+00  0.58325319636E+03  0.58325319636E+03  0.25500000920E-02 0.  1.
       -2   -1    0    0    0  501  0.00000000000E+00  0.00000000000E+00 -0.11006884906E+04  0.11006884906E+04  0.25500000920E-02 0. -1.
    10030    2    1    2    0    0  0.00000000000E+00  0.00000000000E+00 -0.51743529426E+03  0.16839416870E+04  0.16024731890E+04 0.  0.
        2    1    3    3  502    0 -0.29105672225E+02  0.21668338870E+03  0.55130236300E+03  0.59307092877E+03  0.25500000920E-02 0.  1.
       -2    1    3    3    0  502  0.29105672225E+02 -0.21668338870E+03 -0.10687376573E+04  0.10908707582E+04  0.25500000920E-02 0. -1.
</event>
<event>
 5   0  0.1057872E-03  0.1605474E+04  0.7818609E-02  0.8817192E-01
       -2   -1    0    0    0  501  0.00000000000E+00  0.00000000000E+00  0.47564021841E+03  0.47564021842E+03  0.25500000920E-02 0. -1.
        2   -1    0    0  501    0  0.00000000000E+00  0.00000000000E+00 -0.13547773512E+04  0.13547773512E+04  0.25500000920E-02 0.  1.
    10030    2    1    2    0    0  0.00000000000E+00  0.00000000000E+00 -0.87913713281E+03  0.18304175696E+04  0.16054738805E+04 0.  0.
        2    1    3    3  502    0  0.30881271299E+03 -0.24656236849E+03 -0.12362017759E+04  0.12978263074E+04  0.25500000920E-02 0.  1.
       -2    1    3    3    0  502 -0.30881271299E+03  0.24656236849E+03  0.35706464314E+03  0.53259126227E+03  0.25500000920E-02 0. -1.
</event>
<event>
 5   0  0.1057872E-03  0.1417155E+04  0.7818609E-02  0.8941494E-01
        2   -1    0    0  501    0  0.00000000000E+00  0.00000000000E+00  0.77735402997E+03  0.77735402998E+03  0.25500000920E-02 0. -1.
       -2   -1    0    0    0  501  0.00000000000E+00  0.00000000000E+00 -0.64588591118E+03  0.64588591119E+03  0.25500000920E-02 0.  1.
    10030    2    1    2    0    0  0.00000000000E+00  0.00000000000E+00  0.13146811879E+03  0.14232399412E+04  0.14171549188E+04 0.  0.
        2    1    3    3  502    0 -0.23721735625E+03 -0.21926555571E+03 -0.56763430336E+03  0.65311420164E+03  0.25500000920E-02 0.  1.
       -2    1    3    3    0  502  0.23721735625E+03  0.21926555571E+03  0.69910242215E+03  0.77012573953E+03  0.25500000920E-02 0. -1.
</event>
<event>
 5   0  0.1030027E-03  0.1596407E+04  0.7818609E-02  0.8822758E-01
        2   -1    0    0  501    0  0.00000000000E+00  0.00000000000E+00  0.15859346322E+04  0.15859346322E+04  0.25500000920E-02 0. -1.
       -2   -1    0    0    0  501  0.00000000000E+00  0.00000000000E+00 -0.40173737297E+03  0.40173737298E+03  0.25500000920E-02 0.  1.
    10030    2    1    2    0    0  0.00000000000E+00  0.00000000000E+00  0.11841972593E+04  0.19876720052E+04  0.15964074829E+04 0.  0.
        1    1    3    3  502    0 -0.18639475770E+03  0.38698932301E+03 -0.24556654661E+03  0.49477941616E+03  0.50400001928E-02 0.  1.
       -1    1    3    3    0  502  0.18639475770E+03 -0.38698932301E+03  0.14297638059E+04  0.14928925890E+04  0.50400001928E-02 0. -1.
</event>
<event>
 5   0  0.5281116E-04  0.1599493E+04  0.7818609E-02  0.8820859E-01
        1   -1    0    0  501    0  0.00000000000E+00  0.00000000000E+00  0.72589482356E+03  0.72589482358E+03  0.50400001928E-02 0. -1.
       -1   -1    0    0    0  501  0.00000000000E+00  0.00000000000E+00 -0.88111224901E+03  0.88111224902E+03  0.50400001928E-02 0.  1.
    10030    2    1    2    0    0  0.00000000000E+00  0.00000000000E+00 -0.15521742545E+03  0.16070070726E+04  0.15994934455E+04 0.  0.
        2    1    3    3  502    0  0.27187435332E+03  0.27005698149E+03  0.62764913495E+03  0.73538416753E+03  0.25500000920E-02 0. -1.
       -2    1    3    3    0  502 -0.27187435332E+03 -0.27005698149E+03 -0.78286656040E+03  0.87162290507E+03  0.25500000920E-02 0.  1.
</event>
<event>
 5   0  0.1000121E-03  0.1251873E+04  0.7818609E-02  0.9068625E-01
        2   -1    0    0  501    0  0.00000000000E+00  0.00000000000E+00  0.13155961629E+04  0.13155961630E+04  0.25500000920E-02 0.  1.
       -2   -1    0    0    0  501  0.00000000000E+00  0.00000000000E+00 -0.29780933102E+03  0.29780933103E+03  0.25500000920E-02 0. -1.
    10030    2    1    2    0    0  0.00000000000E+00  0.00000000000E+00  0.10177868319E+04  0.16134054940E+04  0.12518734971E+04 0.  0.
        4    1    3    3  502    0 -0.70123706436E+02 -0.42582153284E+03 -0.75420102854E+02  0.43809943717E+03  0.12699999809E+01 0. -1.
       -4    1    3    3    0  502  0.70123706436E+02  0.42582153284E+03  0.10932069348E+04  0.11753060568E+04  0.12699999809E+01 0.  1.
</event>
<event>
 5   0  0.1037321E-03  0.1579598E+04  0.7818609E-02  0.8833180E-01
       -2   -1    0    0    0  501  0.00000000000E+00  0.00000000000E+00  0.50923711405E+03  0.50923711406E+03  0.25500000920E-02 0.  1.
        2   -1    0    0  501    0  0.00000000000E+00  0.00000000000E+00 -0.12249356569E+04  0.12249356569E+04  0.25500000920E-02 0. -1.
    10030    2    1    2    0    0  0.00000000000E+00  0.00000000000E+00 -0.71569854286E+03  0.17341727710E+04  0.15795983019E+04 0.  0.
        5    1    3    3  502    0 -0.63639671060E+03  0.44900951512E+03 -0.50162363384E+03  0.92642251589E+03  0.46999998093E+01 0.  1.
       -5    1    3    3    0  502  0.63639671060E+03 -0.44900951512E+03 -0.21407490902E+03  0.80775025509E+03  0.46999998093E+01 0. -1.
</event>
<event>
 5   0  0.5623061E-04  0.1622714E+04  0.7818609E-02  0.8806714E-01
        1   -1    0    0  501    0  0.00000000000E+00  0.00000000000E+00  0.98514145410E+03  0.98514145411E+03  0.50400001928E-02 0. -1.
       -1   -1    0    0    0  501  0.00000000000E+00  0.00000000000E+00 -0.66822872504E+03  0.66822872506E+03  0.50400001928E-02 0.  1.
    10030    2    1    2    0    0  0.00000000000E+00  0.00000000000E+00  0.31691272905E+03  0.16533701792E+04  0.16227135519E+04 0.  0.
        3    1    3    3  502    0 -0.23866586685E+03 -0.76918471673E+03  0.58141870114E+02  0.80745712685E+03  0.10100000352E+00 0.  1.
       -3    1    3    3    0  502  0.23866586685E+03  0.76918471673E+03  0.25877085894E+03  0.84591305232E+03  0.10100000352E+00 0. -1.
</event>
<event>
 5   0  0.1037321E-03  0.1602310E+04  0.7818609E-02  0.8819130E-01
        2   -1    0    0  501    0  0.00000000000E+00  0.00000000000E+00  0.13198661007E+04  0.13198661007E+04  0.25500000920E-02 0.  1.
       -2   -1    0    0    0  501  0.00000000000E+00  0.00000000000E+00 -0.48629853730E+03  0.48629853731E+03  0.25500000920E-02 0. -1.
    10030    2    1    2    0    0  0.00000000000E+00  0.00000000000E+00  0.83356756345E+03  0.18061646381E+04  0.16023095259E+04 0.  0.
        5    1    3    3  502    0 -0.66186405939E+03  0.33596471429E+02  0.92420333110E+03  0.11372627855E+04  0.46999998093E+01 0.  1.
       -5    1    3    3    0  502  0.66186405939E+03 -0.33596471429E+02 -0.90635767658E+02  0.66890185258E+03  0.46999998093E+01 0. -1.
</event>
<event>
 5   0  0.5425525E-04  0.1585141E+04  0.7818609E-02  0.8829729E-01
        1   -1    0    0  501    0  0.00000000000E+00  0.00000000000E+00  0.59822731909E+03  0.59822731911E+03  0.50400001928E-02 0. -1.
       -1   -1    0    0    0  501  0.00000000000E+00  0.00000000000E+00 -0.10500484886E+04  0.10500484886E+04  0.50400001928E-02 0.  1.
    10030    2    1    2    0    0  0.00000000000E+00  0.00000000000E+00 -0.45182116950E+03  0.16482758077E+04  0.15851406149E+04 0.  0.
        5    1    3    3  502    0 -0.42489313714E+03  0.19518762762E+03  0.43950972296E+03  0.64173458262E+03  0.46999998093E+01 0. -1.
       -5    1    3    3    0  502  0.42489313714E+03 -0.19518762762E+03 -0.89133089245E+03  0.10065412251E+04  0.46999998093E+01 0.  1.
</event>
<event>
 5   0  0.1037321E-03  0.1622246E+04  0.7818609E-02  0.8806997E-01
       -2   -1    0    0    0  501  0.00000000000E+00  0.00000000000E+00  0.48475047467E+03  0.48475047467E+03  0.25500000920E-02 0.  1.
        2   -1    0    0  501    0  0.00000000000E+00  0.00000000000E+00 -0.13572358878E+04  0.13572358878E+04  0.25500000920E-02 0. -1.
    10030    2    1    2    0    0  0.00000000000E+00  0.00000000000E+00 -0.87248541313E+03  0.18419863625E+04  0.16222462709E+04 0.  0.
        5    1    3    3  502    0 -0.43709375749E+03  0.35999501456E+03 -0.10956388976E+04  0.12333264156E+04  0.46999998093E+01 0. -1.
       -5    1    3    3    0  502  0.43709375749E+03 -0.35999501456E+03  0.22315348448E+03  0.60865994692E+03  0.46999998093E+01 0.  1.
</event>
<event>
 5   0  0.1057872E-03  0.1648579E+04  0.7818609E-02  0.8791248E-01
       -2   -1    0    0    0  501  0.00000000000E+00  0.00000000000E+00  0.26503028502E+03  0.26503028503E+03  0.25500000920E-02 0.  1.
        2   -1    0    0  501    0  0.00000000000E+00  0.00000000000E+00 -0.25636800108E+04  0.25636800108E+04  0.25500000920E-02 0. -1.
    10030    2    1    2    0    0  0.00000000000E+00  0.00000000000E+00 -0.22986497258E+04  0.28287102958E+04  0.16485785926E+04 0.  0.
        2    1    3    3  502    0 -0.13744675037E+03 -0.22178135061E+03 -0.24909537258E+04  0.25045816099E+04  0.25500000920E-02 0. -1.
       -2    1    3    3    0  502  0.13744675037E+03  0.22178135061E+03  0.19230399996E+03  0.32412868597E+03  0.25500000920E-02 0.  1.
</event>
<event>
 5   0  0.5288658E-04  0.1626645E+04  0.7818609E-02  0.8804344E-01
        1   -1    0    0  501    0  0.00000000000E+00  0.00000000000E+00  0.63350929467E+03  0.63350929469E+03  0.50400001928E-02 0.  1.
       -1   -1    0    0    0  501  0.00000000000E+00  0.00000000000E+00 -0.10441729291E+04  0.10441729292E+04  0.50400001928E-02 0. -1.
    10030    2    1    2    0    0  0.00000000000E+00  0.00000000000E+00 -0.41066363447E+03  0.16776822239E+04  0.16266447134E+04 0.  0.
        1    1    3    3  502    0  0.56659838231E+03 -0.56517989508E+03 -0.55760202997E+02  0.80222892051E+03  0.50400001928E-02 0.  1.
       -1    1    3    3    0  502 -0.56659838231E+03  0.56517989508E+03 -0.35490343148E+03  0.87545330334E+03  0.50400001928E-02 0. -1.
</event>
<event>
 5   0  0.5288658E-04  0.1579706E+04  0.7818609E-02  0.8833114E-01
        1   -1    0    0  501    0  0.00000000000E+00  0.00000000000E+00  0.77414784466E+03  0.77414784467E+03  0.50400001928E-02 0. -1.
       -1   -1    0    0    0  501  0.00000000000E+00  0.00000000000E+00 -0.80587629886E+03  0.80587629887E+03  0.50400001928E-02 0.  1.
    10030    2    1    2    0    0  0.00000000000E+00  0.00000000000E+00 -0.31728454198E+02  0.15800241435E+04  0.15797055420E+04 0.  0.
        1    1    3    3  502    0  0.52021148558E+03  0.54080858433E+03 -0.26243673525E+03  0.79496349265E+03  0.50400001928E-02 0.  1.
       -1    1    3    3    0  502 -0.52021148558E+03 -0.54080858433E+03  0.23070828105E+03  0.78506065089E+03  0.50400001928E-02 0. -1.
</event>
<event>
 5   0  0.1000121E-03  0.1015464E+04  0.7818609E-02  0.9291745E-01
        2   -1    0    0  501    0  0.00000000000E+00  0.00000000000E+00  0.49814624299E+03  0.49814624300E+03  0.25500000920E-02 0.  1.
       -2   -1    0    0    0  501  0.00000000000E+00  0.00000000000E+00 -0.51750249016E+03  0.51750249016E+03  0.25500000920E-02 0. -1.
    10030    2    1    2    0    0  0.00000000000E+00  0.00000000000E+00 -0.19356247164E+02  0.10156487332E+04  0.10154642706E+04 0.  0.
        4    1    3    3  502    0  0.20241008734E+03 -0.28354122446E+03 -0.37910255086E+03  0.51486486227E+03  0.12699999809E+01 0. -1.
       -4    1    3    3    0  502 -0.20241008734E+03  0.28354122446E+03  0.35974630370E+03  0.50078387090E+03  0.12699999809E+01 0.  1.
</event>
<event>
 5   0  0.1000121E-03  0.1676021E+04  0.7818609E-02  0.8775160E-01
        2   -1    0    0  501    0  0.00000000000E+00  0.00000000000E+00  0.15326764093E+04  0.15326764093E+04  0.25500000920E-02 0. -1.
       -2   -1    0    0    0  501  0.00000000000E+00  0.00000000000E+00 -0.45819310886E+03  0.45819310886E+03  0.25500000920E-02 0.  1.
    10030    2    1    2    0    0  0.00000000000E+00  0.00000000000E+00  0.10744833004E+04  0.19908695181E+04  0.16760212037E+04 0.  0.
        4    1    3    3  502    0  0.75060287148E+03 -0.22168915144E+03  0.89302226205E+03  0.11874515249E+04  0.12699999809E+01 0. -1.
       -4    1    3    3    0  502 -0.75060287148E+03  0.22168915144E+03  0.18146103836E+03  0.80341799325E+03  0.12699999809E+01 0.  1.
</event>
<event>
 5   0  0.1030027E-03  0.1638346E+04  0.7818609E-02  0.8797331E-01
       -2   -1    0    0    0  501  0.00000000000E+00  0.00000000000E+00  0.12188337120E+04  0.12188337120E+04  0.25500000920E-02 0. -1.
        2   -1    0    0  501    0  0.00000000000E+00  0.00000000000E+00 -0.55056264811E+03  0.55056264811E+03  0.25500000920E-02 0.  1.
    10030    2    1    2    0    0  0.00000000000E+00  0.00000000000E+00  0.66827106394E+03  0.17693963602E+04  0.16383458928E+04 0.  0.
        1    1    3    3  502    0 -0.77731464260E+02  0.57179316302E+03  0.96206813268E+03  0.11218576976E+04  0.50400001928E-02 0. -1.
       -1    1    3    3    0  502  0.77731464260E+02 -0.57179316302E+03 -0.29379706875E+03  0.64753866251E+03  0.50400001928E-02 0.  1.
</event>
<event>
 5   0  0.1037321E-03  0.1595020E+04  0.7818609E-02  0.8823613E-01
       -2   -1    0    0    0  501  0.00000000000E+00  0.00000000000E+00  0.67104515010E+03  0.67104515010E+03  0.25500000920E-02 0. -1.
        2   -1    0    0  501    0  0.00000000000E+00  0.00000000000E+00 -0.94780840378E+03  0.94780840378E+03  0.25500000920E-02 0.  1.
    10030    2    1    2    0    0  0.00000000000E+00  0.00000000000E+00 -0.27676325368E+03  0.16188535539E+04  0.15950200407E+04 0.  0.
        5    1    3    3  502    0 -0.38660582488E+03 -0.54709964929E+03 -0.57753404701E+03  0.88450537338E+03  0.46999998093E+01 0.  1.
       -5    1    3    3    0  502  0.38660582488E+03  0.54709964929E+03  0.30077079333E+03  0.73434818050E+03  0.46999998093E+01 0. -1.
</event>
<event>
 5   0  0.5623061E-04  0.1747334E+04  0.7818609E-02  0.8734819E-01
       -1   -1    0    0    0  501  0.00000000000E+00  0.00000000000E+00  0.33448478556E+03  0.33448478560E+03  0.50400001928E-02 0. -1.
        1   -1    0    0  501    0  0.00000000000E+00  0.00000000000E+00 -0.22819998331E+04  0.22819998331E+04  0.50400001928E-02 0.  1.
    10030    2    1    2    0    0  0.00000000000E+00  0.00000000000E+00 -0.19475150475E+04  0.26164846187E+04  0.17473342266E+04 0.  0.
        3    1    3    3  502    0 -0.78484836875E+01  0.87147173134E+03 -0.10656948764E+04  0.13766735841E+04  0.10100000352E+00 0. -1.
       -3    1    3    3    0  502  0.78484836875E+01 -0.87147173134E+03 -0.88182017110E+03  0.12398110346E+04  0.10100000352E+00 0.  1.
</event>
<event>
 5   0  0.5288658E-04  0.1575223E+04  0.7818609E-02  0.8835916E-01
       -1   -1    0    0    0  501  0.00000000000E+00  0.00000000000E+00  0.13323657087E+04  0.13323657088E+04  0.50400001928E-02 0.  1.
        1   -1    0    0  501    0  0.00000000000E+00  0.00000000000E+00 -0.46558659580E+03  0.46558659583E+03  0.50400001928E-02 0. -1.
    10030    2    1    2    0    0  0.00000000000E+00  0.00000000000E+00  0.86677911295E+03  0.17979523046E+04  0.15752226696E+04 0.  0.
        1    1    3    3  502    0 -0.29286192426E+03 -0.45091516243E+03  0.10903012033E+04  0.12156682542E+04  0.50400001928E-02 0.  1.
       -1    1    3    3    0  502  0.29286192426E+03  0.45091516243E+03 -0.22352209036E+03  0.58228405035E+03  0.50400001928E-02 0. -1.
</event>
<event>
 5   0  0.1057872E-03  0.1604575E+04  0.7818609E-02  0.8817742E-01
        2   -1    0    0  501    0  0.00000000000E+00  0.00000000000E+00  0.93366260914E+03  0.93366260914E+03  0.25500000920E-02 0.  1.
       -2   -1    0    0    0  501  0.00000000000E+00  0.00000000000E+00 -0.68939802870E+03  0.68939802870E+03  0.25500000920E-02 0. -1.
    10030    2    1    2    0    0  0.00000000000E+00  0.00000000000E+00  0.24426458044E+03  0.16230606378E+04  0.16045749122E+04 0.  0.
        2    1    3    3  502    0  0.27869700759E+03 -0.74628718986E+03  0.25912427515E+02  0.79704958798E+03  0.25500000920E-02 0.  1.
       -2    1    3    3    0  502 -0.27869700759E+03  0.74628718986E+03  0.21835215293E+03  0.82601104986E+03  0.25500000920E-02 0. -1.
</event>
<event>
 5   0  0.5425525E-04  0.1577747E+04  0.7818609E-02  0.8834336E-01
        1   -1    0    0  501    0  0.00000000000E+00  0.00000000000E+00  0.10242539358E+04  0.10242539358E+04  0.50400001928E-02 0. -1.
       -1   -1    0    0    0  501  0.00000000000E+00  0.00000000000E+00 -0.60758532505E+03  0.60758532507E+03  0.50400001928E-02 0.  1.
    10030    2    1    2    0    0  0.00000000000E+00  0.00000000000E+00  0.41666861076E+03  0.16318392609E+04  0.15777473316E+04 0.  0.
        5    1    3    3  502    0 -0.21349185246E+03  0.75535236523E+03  0.12713407128E+03  0.79518622273E+03  0.46999998093E+01 0.  1.
       -5    1    3    3    0  502  0.21349185246E+03 -0.75535236523E+03  0.28953453948E+03  0.83665303818E+03  0.46999998093E+01 0. -1.
</event>
<event>
 5   0  0.5288658E-04  0.1581470E+04  0.7818609E-02  0.8832013E-01
        1   -1    0    0  501    0  0.00000000000E+00  0.00000000000E+00  0.52752161110E+03  0.52752161112E+03  0.50400001928E-02 0. -1.
       -1   -1    0    0    0  501  0.00000000000E+00  0.00000000000E+00 -0.11852820988E+04  0.11852820988E+04  0.50400001928E-02 0.  1.
    10030    2    1    2    0    0  0.00000000000E+00  0.00000000000E+00 -0.65776048773E+03  0.17128037100E+04  0.15814701039E+04 0.  0.
        1    1    3    3  502    0 -0.46115599058E+03 -0.31142323212E+03 -0.93732871773E+03  0.10900616507E+04  0.50400001928E-02 0.  1.
       -1    1    3    3    0  502  0.46115599058E+03  0.31142323212E+03  0.27956823000E+03  0.62274205929E+03  0.50400001928E-02 0. -1.
</event>
<event>
 5   0  0.5281116E-04  0.1615943E+04  0.7818609E-02  0.8810813E-01
        1   -1    0    0  501    0  0.00000000000E+00  0.00000000000E+00  0.91297033522E+03  0.91297033524E+03  0.50400001928E-02 0. -1.
       -1   -1    0    0    0  501  0.00000000000E+00  0.00000000000E+00 -0.71504814860E+03  0.71504814862E+03  0.50400001928E-02 0.  1.
    10030    2    1    2    0    0  0.00000000000E+00  0.00000000000E+00  0.19792218663E+03  0.16280184839E+04  0.16159427564E+04 0.  0.
        2    1    3    3  502    0  0.57971398663E+03  0.14061622240E+03 -0.45006680836E+03  0.74726257787E+03  0.25500000920E-02 0.  1.
       -2    1    3    3    0  502 -0.57971398663E+03 -0.14061622240E+03  0.64798899499E+03  0.88075590598E+03  0.25500000920E-02 0. -1.
</event>
<event>
 5   0  0.1057872E-03  0.1575455E+04  0.7818609E-02  0.8835770E-01
       -2   -1    0    0    0  501  0.00000000000E+00  0.00000000000E+00  0.98661291432E+03  0.98661291433E+03  0.25500000920E-02 0.  1.
        2   -1    0    0  501    0  0.00000000000E+00  0.00000000000E+00 -0.62893430375E+03  0.62893430375E+03  0.25500000920E-02 0. -1.
    10030    2    1    2    0    0  0.00000000000E+00  0.00000000000E+00  0.35767861058E+03  0.16155472181E+04  0.15754551169E+04 0.  0.
        2    1    3    3  502    0  0.46225405115E+03 -0.11141642738E+03  0.82285186825E+03  0.95035657792E+03  0.25500000920E-02 0.  1.
       -2    1    3    3    0  502 -0.46225405115E+03  0.11141642738E+03 -0.46517325768E+03  0.66519064016E+03  0.25500000920E-02 0. -1.
</event>
<event>
 5   0  0.9844690E-04  0.1613922E+04  0.7818609E-02  0.8812040E-01
       -2   -1    0    0    0  501  0.00000000000E+00  0.00000000000E+00  0.42459672365E+03  0.42459672365E+03  0.25500000920E-02 0. -1.
        2   -1    0    0  501    0  0.00000000000E+00  0.00000000000E+00 -0.15336581875E+04  0.15336581876E+04  0.25500000920E-02 0.  1.
    10030    2    1    2    0    0  0.00000000000E+00  0.00000000000E+00 -0.11090614639E+04  0.19582549112E+04  0.16139222306E+04 0.  0.
        3    1    3    3  502    0 -0.10701301753E+03  0.36267690058E+03  0.31044498049E+03  0.48924678461E+03  0.10100000352E+00 0. -1.
       -3    1    3    3    0  502  0.10701301753E+03 -0.36267690058E+03 -0.14195064444E+04  0.14690081266E+04  0.10100000352E+00 0.  1.
</event>
<event>
 5   0  0.5425525E-04  0.1548951E+04  0.7818609E-02  0.8852538E-01
       -1   -1    0    0    0  501  0.00000000000E+00  0.00000000000E+00  0.79985884855E+03  0.79985884857E+03  0.50400001928E-02 0.  1.
        1   -1    0    0  501    0  0.00000000000E+00  0.00000000000E+00 -0.74989797156E+03  0.74989797158E+03  0.50400001928E-02 0. -1.
    10030    2    1    2    0    0  0.00000000000E+00  0.00000000000E+00  0.49960876992E+02  0.15497568202E+04  0.15489512944E+04 0.  0.
        5    1    3    3  502    0 -0.54093373439E+03 -0.35955501700E+03  0.44698328762E+03  0.78848288799E+03  0.46999998093E+01 0.  1.
       -5    1    3    3    0  502  0.54093373439E+03  0.35955501700E+03 -0.39702241063E+03  0.76127393216E+03  0.46999998093E+01 0. -1.
</event>
<event>
 5   0  0.5288658E-04  0.1661903E+04  0.7818609E-02  0.8783396E-01
       -1   -1    0    0    0  501  0.00000000000E+00  0.00000000000E+00  0.61243340085E+03  0.61243340087E+03  0.50400001928E-02 0. -1.
        1   -1    0    0  501    0  0.00000000000E+00  0.00000000000E+00 -0.11274380671E+04  0.11274380671E+04  0.50400001928E-02 0.  1.
    10030    2    1    2    0    0  0.00000000000E+00  0.00000000000E+00 -0.51500466626E+03  0.17398714680E+04  0.16619034024E+04 0.  0.
        1    1    3    3  502    0 -0.42560143549E+03 -0.61290162230E+03 -0.64030079923E+03  0.98324467659E+03  0.50400001928E-02 0. -1.
       -1    1    3    3    0  502  0.42560143549E+03  0.61290162230E+03  0.12529613298E+03  0.75662679141E+03  0.50400001928E-02 0.  1.
</event>
<event>
 5   0  0.5623061E-04  0.1631191E+04  0.7818609E-02  0.8801612E-01
        1   -1    0    0  501    0  0.00000000000E+00  0.00000000000E+00  0.12509964210E+04  0.12509964210E+04  0.50400001928E-02 0. -1.
       -1   -1    0    0    0  501  0.00000000000E+00  0.00000000000E+00 -0.53173275756E+03  0.53173275758E+03  0.50400001928E-02 0.  1.
    10030    2    1    2    0    0  0.00000000000E+00  0.00000000000E+00  0.71926366340E+03  0.17827291785E+04  0.16311907021E+04 0.  0.
        3    1    3    3  502    0  0.52111125967E+03  0.69898997397E+02  0.10410559255E+04  0.11662933872E+04  0.10100000352E+00 0. -1.
       -3    1    3    3    0  502 -0.52111125967E+03 -0.69898997397E+02 -0.32179226205E+03  0.61643579139E+03  0.10100000352E+00 0.  1.
</event>
<event>
 5   0  0.1037321E-03  0.1636144E+04  0.7818609E-02  0.8798646E-01
       -2   -1    0    0    0  501  0.00000000000E+00  0.00000000000E+00  0.60401877121E+03  0.60401877121E+03  0.25500000920E-02 0.  1.
        2   -1    0    0  501    0  0.00000000000E+00  0.00000000000E+00 -0.11079822513E+04  0.11079822513E+04  0.25500000920E-02 0. -1.
    10030    2    1    2    0    0  0.00000000000E+00  0.00000000000E+00 -0.50396348013E+03  0.17120010226E+04  0.16361443432E+04 0.  0.
        5    1    3    3  502    0 -0.19408132046E+03 -0.47280089609E+03 -0.92035449025E+03  0.10527500767E+04  0.46999998093E+01 0. -1.
       -5    1    3    3    0  502  0.19408132046E+03  0.47280089609E+03  0.41639101012E+03  0.65925094584E+03  0.46999998093E+01 0.  1.
</event>
<event>
 5   0  0.3832500E-04  0.1597270E+04  0.7818609E-02  0.8822227E-01
       -3   -1    0    0    0  501  0.00000000000E+00  0.00000000000E+00  0.35321196643E+03  0.35321198087E+03  0.10100000352E+00 0.  1.
        3   -1    0    0  501    0  0.00000000000E+00  0.00000000000E+00 -0.18057652501E+04  0.18057652529E+04  0.10100000352E+00 0. -1.
    10030    2    1    2    0    0  0.00000000000E+00  0.00000000000E+00 -0.14525532836E+04  0.21589772338E+04  0.15972700630E+04 0.  0.
        2    1    3    3  502    0 -0.48734605309E+03  0.31856143975E+03  0.12617222959E+02  0.58236308320E+03  0.25500000920E-02 0.  1.
       -2    1    3    3    0  502  0.48734605309E+03 -0.31856143975E+03 -0.14651705066E+04  0.15766141506E+04  0.25500000920E-02 0. -1.
</event>
<event>
 5   0  0.1057872E-03  0.1614046E+04  0.7818609E-02  0.8811965E-01
       -2   -1    0    0    0  501  0.00000000000E+00  0.00000000000E+00  0.30063167190E+03  0.30063167191E+03  0.25500000920E-02 0.  1.
        2   -1    0    0  501    0  0.00000000000E+00  0.00000000000E+00 -0.21663921442E+04  0.21663921442E+04  0.25500000920E-02 0. -1.
    10030    2    1    2    0    0  0.00000000000E+00  0.00000000000E+00 -0.18657604723E+04  0.24670238161E+04  0.16140459626E+04 0.  0.
        2    1    3    3  502    0 -0.61941920937E+03 -0.13279236883E+02 -0.17233079872E+04  0.18312965117E+04  0.25500000920E-02 0. -1.
       -2    1    3    3    0  502  0.61941920937E+03  0.13279236883E+02 -0.14245248513E+03  0.63572730443E+03  0.25500000920E-02 0.  1.
</event>
<event>
 5   0  0.1057872E-03  0.1562826E+04  0.7818609E-02  0.8843716E-01
        2   -1    0    0  501    0  0.00000000000E+00  0.00000000000E+00  0.67261626799E+03  0.67261626800E+03  0.25500000920E-02 0. -1.
       -2   -1    0    0    0  501  0.00000000000E+00  0.00000000000E+00 -0.90780804232E+03  0.90780804233E+03  0.25500000920E-02 0.  1.
    10030    2    1    2    0    0  0.00000000000E+00  0.00000000000E+00 -0.23519177433E+03  0.15804243103E+04  0.15628262315E+04 0.  0.
        2    1    3    3  502    0 -0.27749317448E+03  0.47517469686E+03 -0.67865224784E+03  0.87370608784E+03  0.25500000920E-02 0.  1.
       -2    1    3    3    0  502  0.27749317448E+03 -0.47517469686E+03  0.44346047351E+03  0.70671822248E+03  0.25500000920E-02 0. -1.
</event>
<event>
 5   0  0.1037321E-03  0.1568764E+04  0.7818609E-02  0.8839971E-01
        2   -1    0    0  501    0  0.00000000000E+00  0.00000000000E+00  0.51973456056E+03  0.51973456057E+03  0.25500000920E-02 0. -1.
       -2   -1    0    0    0  501  0.00000000000E+00  0.00000000000E+00 -0.11837873022E+04  0.11837873022E+04  0.25500000920E-02 0.  1.
    10030    2    1    2    0    0  0.00000000000E+00  0.00000000000E+00 -0.66405274163E+03  0.17035218628E+04  0.15687640655E+04 0.  0.
        5    1    3    3  502    0 -0.47688994259E+03 -0.34539706648E+03 -0.89471774356E+03  0.10711046081E+04  0.46999998093E+01 0.  1.
       -5    1    3    3    0  502  0.47688994259E+03  0.34539706648E+03  0.23066500193E+03  0.63241725466E+03  0.46999998093E+01 0. -1.
</event>
<event>
 5   0  0.1030027E-03  0.1653678E+04  0.7818609E-02  0.8788234E-01
        2   -1    0    0  501    0  0.00000000000E+00  0.00000000000E+00  0.12003219747E+04  0.12003219747E+04  0.25500000920E-02 0.  1.
       -2   -1    0    0    0  501  0.00000000000E+00  0.00000000000E+00 -0.56956616185E+03  0.56956616185E+03  0.25500000920E-02 0. -1.
    10030    2    1    2    0    0  0.00000000000E+00  0.00000000000E+00  0.63075581281E+03  0.17698881365E+04  0.16536780583E+04 0.  0.
        1    1    3    3  502    0 -0.65803872216E+03  0.13697320020E+03 -0.20000768285E+03  0.70127005544E+03  0.50400001928E-02 0. -1.
       -1    1    3    3    0  502  0.65803872216E+03 -0.13697320020E+03  0.83076349566E+03  0.10686180811E+04  0.50400001928E-02 0.  1.
</event>
<event>
 5   0  0.1057872E-03  0.1601842E+04  0.7818609E-02  0.8819417E-01
        2   -1    0    0  501    0  0.00000000000E+00  0.00000000000E+00  0.22911383540E+04  0.22911383540E+04  0.25500000920E-02 0.  1.
       -2   -1    0    0    0  501  0.00000000000E+00  0.00000000000E+00 -0.27998079640E+03  0.27998079641E+03  0.25500000920E-02 0. -1.
    10030    2    1    2    0    0  0.00000000000E+00  0.00000000000E+00  0.20111575576E+04  0.25711191504E+04  0.16018423655E+04 0.  0.
        2    1    3    3  502    0 -0.29132046278E+03  0.72480852380E+03  0.72179010517E+03  0.10635769667E+04  0.25500000920E-02 0.  1.
       -2    1    3    3    0  502  0.29132046278E+03 -0.72480852380E+03  0.12893674524E+04  0.15075421836E+04  0.25500000920E-02 0. -1.
</event>
<event>
 5   0  0.1030027E-03  0.1142858E+04  0.7818609E-02  0.9164398E-01
       -2   -1    0    0    0  501  0.00000000000E+00  0.00000000000E+00  0.16317615962E+03  0.16317615964E+03  0.25500000920E-02 0. -1.
        2   -1    0    0  501    0  0.00000000000E+00  0.00000000000E+00 -0.20010948376E+04  0.20010948376E+04  0.25500000920E-02 0.  1.
    10030    2    1    2    0    0  0.00000000000E+00  0.00000000000E+00 -0.18379186779E+04  0.21642709972E+04  0.11428577701E+04 0.  0.
        1    1    3    3  502    0  0.39255582215E+03  0.40277916461E+03 -0.72770285409E+03  0.91971874658E+03  0.50400001928E-02 0. -1.
       -1    1    3    3    0  502 -0.39255582215E+03 -0.40277916461E+03 -0.11102158238E+04  0.12445522506E+04  0.50400001928E-02 0.  1.
</event>
<event>
 5   0  0.5532881E-04  0.1558541E+04  0.7818609E-02  0.8846431E-01
        1   -1    0    0  501    0  0.00000000000E+00  0.00000000000E+00  0.71206484340E+03  0.71206484342E+03  0.50400001928E-02 0.  1.
       -1   -1    0    0    0  501  0.00000000000E+00  0.00000000000E+00 -0.85281896133E+03  0.85281896134E+03  0.50400001928E-02 0. -1.
    10030    2    1    2    0    0  0.00000000000E+00  0.00000000000E+00 -0.14075411792E+03  0.15648838048E+04  0.15585408563E+04 0.  0.
        4    1    3    3  502    0  0.26477038205E+03  0.49939525958E+02 -0.80455978667E+03  0.84847827001E+03  0.12699999809E+01 0. -1.
       -4    1    3    3    0  502 -0.26477038205E+03 -0.49939525958E+02  0.66380566874E+03  0.71640553475E+03  0.12699999809E+01 0.  1.
</event>
<event>
 5   0  0.5532881E-04  0.1551643E+04  0.7818609E-02  0.8850819E-01
        1   -1    0    0  501    0  0.00000000000E+00  0.00000000000E+00  0.69715030380E+03  0.69715030382E+03  0.50400001928E-02 0.  1.
       -1   -1    0    0    0  501  0.00000000000E+00  0.00000000000E+00 -0.86337087319E+03  0.86337087320E+03  0.50400001928E-02 0. -1.
    10030    2    1    2    0    0  0.00000000000E+00  0.00000000000E+00 -0.16622056939E+03  0.15605211770E+04  0.15516433438E+04 0.  0.
        4    1    3    3  502    0  0.18996401660E+02  0.19838645181E+03 -0.83718661225E+03  0.86058182886E+03  0.12699999809E+01 0. -1.
       -4    1    3    3    0  502 -0.18996401660E+02 -0.19838645181E+03  0.67096604286E+03  0.69993934817E+03  0.12699999809E+01 0.  1.
</event>
<event>
 5   0  0.5532881E-04  0.1422252E+04  0.7818609E-02  0.8937867E-01
        1   -1    0    0  501    0  0.00000000000E+00  0.00000000000E+00  0.12088254604E+04  0.12088254604E+04  0.50400001928E-02 0. -1.
       -1   -1    0    0    0  501  0.00000000000E+00  0.00000000000E+00 -0.41834011846E+03  0.41834011849E+03  0.50400001928E-02 0.  1.
    10030    2    1    2    0    0  0.00000000000E+00  0.00000000000E+00  0.79048534193E+03  0.16271655789E+04  0.14222519978E+04 0.  0.
        4    1    3    3  502    0 -0.69630037474E+03  0.13795808407E+03  0.44421034412E+03  0.83737153495E+03  0.12699999809E+01 0. -1.
       -4    1    3    3    0  502  0.69630037474E+03 -0.13795808407E+03  0.34627499781E+03  0.78979404393E+03  0.12699999809E+01 0.  1.
</event>
<event>
 5   0  0.1000121E-03  0.1618379E+04  0.7818609E-02  0.8809336E-01
       -2   -1    0    0    0  501  0.00000000000E+00  0.00000000000E+00  0.39679859428E+03  0.39679859428E+03  0.25500000920E-02 0.  1.
        2   -1    0    0  501    0  0.00000000000E+00  0.00000000000E+00 -0.16501757614E+04  0.16501757614E+04  0.25500000920E-02 0. -1.
    10030    2    1    2    0    0  0.00000000000E+00  0.00000000000E+00 -0.12533771671E+04  0.20469743557E+04  0.16183787226E+04 0.  0.
        4    1    3    3  502    0  0.37288204846E+03  0.70371983176E+03 -0.44549006985E+03  0.91253802053E+03  0.12699999809E+01 0.  1.
       -4    1    3    3    0  502 -0.37288204846E+03 -0.70371983176E+03 -0.80788709725E+03  0.11344363351E+04  0.12699999809E+01 0. -1.
</event>
<event>
 5   0  0.5425525E-04  0.1589583E+04  0.7818609E-02  0.8826973E-01
        1   -1    0    0  501    0  0.00000000000E+00  0.00000000000E+00  0.14045681120E+04  0.14045681120E+04  0.50400001928E-02 0.  1.
       -1   -1    0    0    0  501  0.00000000000E+00  0.00000000000E+00 -0.44974246538E+03  0.44974246541E+03  0.50400001928E-02 0. -1.
    10030    2    1    2    0    0  0.00000000000E+00  0.00000000000E+00  0.95482564658E+03  0.18543105774E+04  0.15895834995E+04 0.  0.
        5    1    3    3  502    0  0.77007561360E+03 -0.86931164986E+02  0.27169692579E+03  0.82122761010E+03  0.46999998093E+01 0. -1.
       -5    1    3    3    0  502 -0.77007561360E+03  0.86931164986E+02  0.68312872079E+03  0.10330829673E+04  0.46999998093E+01 0.  1.
</event>
<event>
 5   0  0.5281116E-04  0.1212583E+04  0.7818609E-02  0.9101913E-01
        1   -1    0    0  501    0  0.00000000000E+00  0.00000000000E+00  0.41345505255E+03  0.41345505258E+03  0.50400001928E-02 0.  1.
       -1   -1    0    0    0  501  0.00000000000E+00  0.00000000000E+00 -0.88906793969E+03  0.88906793971E+03  0.50400001928E-02 0. -1.
    10030    2    1    2    0    0  0.00000000000E+00  0.00000000000E+00 -0.47561288714E+03  0.13025229923E+04  0.12125834103E+04 0.  0.
        2    1    3    3  502    0 -0.24772658064E+03  0.92025485800E+02  0.34833370745E+03  0.43723394258E+03  0.25500000920E-02 0.  1.
       -2    1    3    3    0  502  0.24772658064E+03 -0.92025485800E+02 -0.82394659459E+03  0.86528904970E+03  0.25500000920E-02 0. -1.
</event>
<event>
 5   0  0.5532881E-04  0.1603661E+04  0.7818609E-02  0.8818302E-01
       -1   -1    0    0    0  501  0.00000000000E+00  0.00000000000E+00  0.30100675690E+03  0.30100675694E+03  0.50400001928E-02 0. -1.
        1   -1    0    0  501    0  0.00000000000E+00  0.00000000000E+00 -0.21359404340E+04  0.21359404340E+04  0.50400001928E-02 0.  1.
    10030    2    1    2    0    0  0.00000000000E+00  0.00000000000E+00 -0.18349336771E+04  0.24369471910E+04  0.16036614394E+04 0.  0.
        4    1    3    3  502    0 -0.16529169912E+03  0.74277911425E+03 -0.53336572601E+03  0.92925925820E+03  0.12699999809E+01 0. -1.
       -4    1    3    3    0  502  0.16529169912E+03 -0.74277911425E+03 -0.13015679511E+04  0.15076879328E+04  0.12699999809E+01 0.  1.
</event>
<event>
 5   0  0.5532881E-04  0.1591396E+04  0.7818609E-02  0.8825851E-01
       -1   -1    0    0    0  501  0.00000000000E+00  0.00000000000E+00  0.56808100269E+03  0.56808100271E+03  0.50400001928E-02 0.  1.
        1   -1    0    0  501    0  0.00000000000E+00  0.00000000000E+00 -0.11145160858E+04  0.11145160858E+04  0.50400001928E-02 0. -1.
    10030    2    1    2    0    0  0.00000000000E+00  0.00000000000E+00 -0.54643508311E+03  0.16825970885E+04  0.15913961362E+04 0.  0.
        4    1    3    3  502    0 -0.47721915844E+03  0.26030318304E+03  0.34114884808E+03  0.64177879502E+03  0.12699999809E+01 0.  1.
       -4    1    3    3    0  502  0.47721915844E+03 -0.26030318304E+03 -0.88758393120E+03  0.10408182935E+04  0.12699999809E+01 0. -1.
</event>
<event>
 5   0  0.9844690E-04  0.1596785E+04  0.7818609E-02  0.8822525E-01
       -2   -1    0    0    0  501  0.00000000000E+00  0.00000000000E+00  0.46721110393E+03  0.46721110394E+03  0.25500000920E-02 0.  1.
        2   -1    0    0  501    0  0.00000000000E+00  0.00000000000E+00 -0.13643315351E+04  0.13643315351E+04  0.25500000920E-02 0. -1.
    10030    2    1    2    0    0  0.00000000000E+00  0.00000000000E+00 -0.89712043116E+03  0.18315426390E+04  0.15967853239E+04 0.  0.
        3    1    3    3  502    0  0.65209271723E+02  0.18117077254E+03 -0.13373004322E+04  0.13510912456E+04  0.10100000352E+00 0. -1.
       -3    1    3    3    0  502 -0.65209271723E+02 -0.18117077254E+03  0.44018000100E+03  0.48045139341E+03  0.10100000352E+00 0.  1.
</event>
<event>
 5   0  0.5281116E-04  0.1631666E+04  0.7818609E-02  0.8801327E-01
        1   -1    0    0  501    0  0.00000000000E+00  0.00000000000E+00  0.42284056955E+03  0.42284056958E+03  0.50400001928E-02 0. -1.
       -1   -1    0    0    0  501  0.00000000000E+00  0.00000000000E+00 -0.15740772151E+04  0.15740772151E+04  0.50400001928E-02 0.  1.
    10030    2    1    2    0    0  0.00000000000E+00  0.00000000000E+00 -0.11512366456E+04  0.19969177847E+04  0.16316662725E+04 0.  0.
        2    1    3    3  502    0 -0.49015033802E+03  0.61956500012E+03 -0.32637416172E+03  0.85476794318E+03  0.25500000920E-02 0. -1.
       -2    1    3    3    0  502  0.49015033802E+03 -0.61956500012E+03 -0.82486248387E+03  0.11421498415E+04  0.25500000920E-02 0.  1.
</event>
<event>
 5   0  0.9844690E-04  0.1582735E+04  0.7818609E-02  0.8831226E-01
       -2   -1    0    0    0  501  0.00000000000E+00  0.00000000000E+00  0.89663006946E+03  0.89663006946E+03  0.25500000920E-02 0. -1.
        2   -1    0    0  501    0  0.00000000000E+00  0.00000000000E+00 -0.69846214188E+03  0.69846214188E+03  0.25500000920E-02 0.  1.
    10030    2    1    2    0    0  0.00000000000E+00  0.00000000000E+00  0.19816792758E+03  0.15950922113E+04  0.15827345435E+04 0.  0.
        3    1    3    3  502    0  0.16739710343E+03 -0.52994359603E+03 -0.46869758181E+03  0.72700717920E+03  0.10100000352E+00 0.  1.
       -3    1    3    3    0  502 -0.16739710343E+03  0.52994359603E+03  0.66686550939E+03  0.86808503214E+03  0.10100000352E+00 0. -1.
</event>
<event>
 5   0  0.5425525E-04  0.1614321E+04  0.7818609E-02  0.8811798E-01
       -1   -1    0    0    0  501  0.00000000000E+00  0.00000000000E+00  0.85921473822E+03  0.85921473823E+03  0.50400001928E-02 0.  1.
        1   -1    0    0  501    0  0.00000000000E+00  0.00000000000E+00 -0.75825982332E+03  0.75825982333E+03  0.50400001928E-02 0. -1.
    10030    2    1    2    0    0  0.00000000000E+00  0.00000000000E+00  0.10095491490E+03  0.16174745616E+04  0.16143209292E+04 0.  0.
        5    1    3    3  502    0 -0.43818151123E+03 -0.64115259282E+03 -0.16996653283E+03  0.79497823640E+03  0.46999998093E+01 0.  1.
       -5    1    3    3    0  502  0.43818151123E+03  0.64115259282E+03  0.27092144773E+03  0.82249632516E+03  0.46999998093E+01 0. -1.
</event>
<event>
 5   0  0.9844690E-04  0.1565432E+04  0.7818609E-02  0.8842070E-01
        2   -1    0    0  501    0  0.00000000000E+00  0.00000000000E+00  0.81985425006E+03  0.81985425006E+03  0.25500000920E-02 0.  1.
       -2   -1    0    0    0  501  0.00000000000E+00  0.00000000000E+00 -0.74726016040E+03  0.74726016040E+03  0.25500000920E-02 0. -1.
    10030    2    1    2    0    0  0.00000000000E+00  0.00000000000E+00  0.72594089661E+02  0.15671144105E+04  0.15654321044E+04 0.  0.
        3    1    3    3  502    0  0.38052042797E+03  0.57387016455E+03 -0.33628788971E+03  0.76629779905E+03  0.10100000352E+00 0. -1.
       -3    1    3    3    0  502 -0.38052042797E+03 -0.57387016455E+03  0.40888197937E+03  0.80081661141E+03  0.10100000352E+00 0.  1.
</event>
<event>
 5   0  0.5288658E-04  0.1558701E+04  0.7818609E-02  0.8846329E-01
       -1   -1    0    0    0  501  0.00000000000E+00  0.00000000000E+00  0.45944784246E+03  0.45944784248E+03  0.50400001928E-02 0. -1.
        1   -1    0    0  501    0  0.00000000000E+00  0.00000000000E+00 -0.13219931958E+04  0.13219931958E+04  0.50400001928E-02 0.  1.
    10030    2    1    2    0    0  0.00000000000E+00  0.00000000000E+00 -0.86254535335E+03  0.17814410383E+04  0.15587006404E+04 0.  0.
        1    1    3    3  502    0  0.50237163795E+03  0.58751095847E+03 -0.31789748311E+03  0.83582605770E+03  0.50400001928E-02 0. -1.
       -1    1    3    3    0  502 -0.50237163795E+03 -0.58751095847E+03 -0.54464787024E+03  0.94561498060E+03  0.50400001928E-02 0.  1.
</event>
<event>
 5   0  0.5425525E-04  0.1580901E+04  0.7818609E-02  0.8832368E-01
       -1   -1    0    0    0  501  0.00000000000E+00  0.00000000000E+00  0.24834866997E+03  0.24834867002E+03  0.50400001928E-02 0.  1.
        1   -1    0    0  501    0  0.00000000000E+00  0.00000000000E+00 -0.25158646308E+04  0.25158646308E+04  0.50400001928E-02 0. -1.
    10030    2    1    2    0    0  0.00000000000E+00  0.00000000000E+00 -0.22675159608E+04  0.27642133008E+04  0.15809005471E+04 0.  0.
        5    1    3    3  502    0  0.41663975646E+03  0.83567366836E+02 -0.22991304731E+04  0.23380751086E+04  0.46999998093E+01 0. -1.
       -5    1    3    3    0  502 -0.41663975646E+03 -0.83567366836E+02  0.31614512231E+02  0.42613819219E+03  0.46999998093E+01 0.  1.
</event>
<event>
 5   0  0.1037321E-03  0.1659779E+04  0.7818609E-02  0.8784642E-01
       -2   -1    0    0    0  501  0.00000000000E+00  0.00000000000E+00  0.11784449279E+04  0.11784449279E+04  0.25500000920E-02 0. -1.
        2   -1    0    0  501    0  0.00000000000E+00  0.00000000000E+00 -0.58442852312E+03  0.58442852312E+03  0.25500000920E-02 0.  1.
    10030    2    1    2    0    0  0.00000000000E+00  0.00000000000E+00  0.59401640476E+03  0.17628734510E+04  0.16597792971E+04 0.  0.
        5    1    3    3  502    0  0.18650101896E+03 -0.80747690887E+03  0.34322111550E+03  0.89700859113E+03  0.46999998093E+01 0. -1.
       -5    1    3    3    0  502 -0.18650101896E+03  0.80747690887E+03  0.25079528925E+03  0.86586485987E+03  0.46999998093E+01 0.  1.
</event>
<event>
 5   0  0.5288658E-04  0.1609717E+04  0.7818609E-02  0.8814601E-01
        1   -1    0    0  501    0  0.00000000000E+00  0.00000000000E+00  0.75369031194E+03  0.75369031195E+03  0.50400001928E-02 0.  1.
       -1   -1    0    0    0  501  0.00000000000E+00  0.00000000000E+00 -0.85950009810E+03  0.85950009811E+03  0.50400001928E-02 0. -1.
    10030    2    1    2    0    0  0.00000000000E+00  0.00000000000E+00 -0.10580978616E+03  0.16131904101E+04  0.16097166174E+04 0.  0.
        1    1    3    3  502    0 -0.10244531172E+03  0.79697777101E+03 -0.99137817777E+02  0.80962764054E+03  0.50400001928E-02 0.  1.
       -1    1    3    3    0  502  0.10244531172E+03 -0.79697777101E+03 -0.66719683854E+01  0.80356276953E+03  0.50400001928E-02 0. -1.
</event>
<event>
 5   0  0.5281116E-04  0.1599929E+04  0.7818609E-02  0.8820592E-01
       -1   -1    0    0    0  501  0.00000000000E+00  0.00000000000E+00  0.53947462356E+03  0.53947462358E+03  0.50400001928E-02 0. -1.
        1   -1    0    0  501    0  0.00000000000E+00  0.00000000000E+00 -0.11862335336E+04  0.11862335336E+04  0.50400001928E-02 0.  1.
    10030    2    1    2    0    0  0.00000000000E+00  0.00000000000E+00 -0.64675891005E+03  0.17257081572E+04  0.15999286097E+04 0.  0.
        2    1    3    3  502    0  0.15199172864E+03 -0.77803837267E+03 -0.43903650814E+03  0.90619989539E+03  0.25500000920E-02 0.  1.
       -2    1    3    3    0  502 -0.15199172864E+03  0.77803837267E+03 -0.20772240191E+03  0.81950826182E+03  0.25500000920E-02 0. -1.
</event>
<event>
 5   0  0.1057872E-03  0.1601821E+04  0.7818609E-02  0.8819430E-01
       -2   -1    0    0    0  501  0.00000000000E+00  0.00000000000E+00  0.26059036005E+03  0.26059036006E+03  0.25500000920E-02 0. -1.
        2   -1    0    0  501    0  0.00000000000E+00  0.00000000000E+00 -0.24615560808E+04  0.24615560808E+04  0.25500000920E-02 0.  1.
    10030    2    1    2    0    0  0.00000000000E+00  0.00000000000E+00 -0.22009657208E+04  0.27221464409E+04  0.16018211952E+04 0.  0.
        2    1    3    3  502    0 -0.33262504588E+03  0.82586231019E+02 -0.23306445938E+04  0.23557088380E+04  0.25500000920E-02 0.  1.
       -2    1    3    3    0  502  0.33262504588E+03 -0.82586231019E+02  0.12967887303E+03  0.36643760290E+03  0.25500000920E-02 0. -1.
</event>
<event>
 5   0  0.1057872E-03  0.1601353E+04  0.7818609E-02  0.8819718E-01
       -2   -1    0    0    0  501  0.00000000000E+00  0.00000000000E+00  0.41508263714E+03  0.41508263715E+03  0.25500000920E-02 0. -1.
        2   -1    0    0  501    0  0.00000000000E+00  0.00000000000E+00 -0.15444695072E+04  0.15444695072E+04  0.25500000920E-02 0.  1.
    10030    2    1    2    0    0  0.00000000000E+00  0.00000000000E+00 -0.11293868701E+04  0.19595521444E+04  0.16013525234E+04 0.  0.
        2    1    3    3  502    0  0.29178273623E+03 -0.48263366273E+03 -0.12601626320E+04  0.13806093860E+04  0.25500000920E-02 0.  1.
       -2    1    3    3    0  502 -0.29178273623E+03  0.48263366273E+03  0.13077576193E+03  0.57894275838E+03  0.25500000920E-02 0. -1.
</event>
<event>
 5   0  0.1000121E-03  0.1584970E+04  0.7818609E-02  0.8829835E-01
        2   -1    0    0  501    0  0.00000000000E+00  0.00000000000E+00  0.10187047908E+04  0.10187047908E+04  0.25500000920E-02 0.  1.
       -2   -1    0    0    0  501  0.00000000000E+00  0.00000000000E+00 -0.61650129432E+03  0.61650129433E+03  0.25500000920E-02 0. -1.
    10030    2    1    2    0    0  0.00000000000E+00  0.00000000000E+00  0.40220349652E+03  0.16352060852E+04  0.15849704377E+04 0.  0.
        4    1    3    3  502    0 -0.51746980661E+03  0.40724416663E+03  0.65599431283E+03  0.92949070107E+03  0.12699999809E+01 0.  1.
       -4    1    3    3    0  502  0.51746980661E+03 -0.40724416663E+03 -0.25379081631E+03  0.70571538410E+03  0.12699999809E+01 0. -1.
</event>
<event>
 5   0  0.1030027E-03  0.1470304E+04  0.7818609E-02  0.8904444E-01
       -2   -1    0    0    0  501  0.00000000000E+00  0.00000000000E+00  0.32488881797E+03  0.32488881798E+03  0.25500000920E-02 0. -1.
        2   -1    0    0  501    0  0.00000000000E+00  0.00000000000E+00 -0.16634878052E+04  0.16634878052E+04  0.25500000920E-02 0.  1.
    10030    2    1    2    0    0  0.00000000000E+00  0.00000000000E+00 -0.13385989872E+04  0.19883766232E+04  0.14703041682E+04 0.  0.
        1    1    3    3  502    0  0.15592294396E+03  0.16421957236E+03 -0.16151461343E+04  0.16309436127E+04  0.50400001928E-02 0.  1.
       -1    1    3    3    0  502 -0.15592294396E+03 -0.16421957236E+03  0.27654714712E+03  0.35743301052E+03  0.50400001928E-02 0. -1.
</event>
<event>
 5   0  0.1037321E-03  0.1699161E+04  0.7818609E-02  0.8761843E-01
       -2   -1    0    0    0  501  0.00000000000E+00  0.00000000000E+00  0.51953623428E+03  0.51953623429E+03  0.25500000920E-02 0. -1.
        2   -1    0    0  501    0  0.00000000000E+00  0.00000000000E+00 -0.13892906163E+04  0.13892906163E+04  0.25500000920E-02 0.  1.
    10030    2    1    2    0    0  0.00000000000E+00  0.00000000000E+00 -0.86975438205E+03  0.19088268506E+04  0.16991607518E+04 0.  0.
        5    1    3    3  502    0  0.28206399818E+03 -0.26775505298E+03 -0.12834017274E+04  0.13410424868E+04  0.46999998093E+01 0.  1.
       -5    1    3    3    0  502 -0.28206399818E+03  0.26775505298E+03  0.41364734537E+03  0.56778436382E+03  0.46999998093E+01 0. -1.
</event>
<event>
 5   0  0.1000121E-03  0.1624187E+04  0.7818609E-02  0.8805825E-01
       -2   -1    0    0    0  501  0.00000000000E+00  0.00000000000E+00  0.86108967744E+03  0.86108967745E+03  0.25500000920E-02 0. -1.
        2   -1    0    0  501    0  0.00000000000E+00  0.00000000000E+00 -0.76588503659E+03  0.76588503659E+03  0.25500000920E-02 0.  1.
    10030    2    1    2    0    0  0.00000000000E+00  0.00000000000E+00  0.95204640856E+02  0.16269747140E+04  0.16241868108E+04 0.  0.
        4    1    3    3  502    0  0.73941967021E+03 -0.16240939457E+03  0.34200443890E+03  0.83071469787E+03  0.12699999809E+01 0. -1.
       -4    1    3    3    0  502 -0.73941967021E+03  0.16240939457E+03 -0.24679979804E+03  0.79626001617E+03  0.12699999809E+01 0.  1.
</event>
<event>
 5   0  0.9844690E-04  0.1581994E+04  0.7818609E-02  0.8831687E-01
       -2   -1    0    0    0  501  0.00000000000E+00  0.00000000000E+00  0.11958351729E+04  0.11958351729E+04  0.25500000920E-02 0.  1.
        2   -1    0    0  501    0  0.00000000000E+00  0.00000000000E+00 -0.52321256015E+03  0.52321256016E+03  0.25500000920E-02 0. -1.
    10030    2    1    2    0    0  0.00000000000E+00  0.00000000000E+00  0.67262261277E+03  0.17190477331E+04  0.15819936566E+04 0.  0.
        3    1    3    3  502    0 -0.47954914002E+03 -0.38601175065E+03 -0.20341162911E+03  0.64834308078E+03  0.10100000352E+00 0. -1.
       -3    1    3    3    0  502  0.47954914002E+03  0.38601175065E+03  0.87603424188E+03  0.10707046523E+04  0.10100000352E+00 0.  1.
</event>
<event>
 5   0  0.3832500E-04  0.1565028E+04  0.7818609E-02  0.8842326E-01
        3   -1    0    0  501    0  0.00000000000E+00  0.00000000000E+00  0.66289021159E+03  0.66289021928E+03  0.10100000352E+00 0. -1.
       -3   -1    0    0    0  501  0.00000000000E+00  0.00000000000E+00 -0.92372467711E+03  0.92372468264E+03  0.10100000352E+00 0.  1.
    10030    2    1    2    0    0  0.00000000000E+00  0.00000000000E+00 -0.26083446553E+03  0.15866149019E+04  0.15650278683E+04 0.  0.
        4    1    3    3  502    0  0.59618798144E+01 -0.31651860627E+03 -0.85590443451E+03  0.91257524952E+03  0.12699999809E+01 0.  1.
       -4    1    3    3    0  502 -0.59618798144E+01  0.31651860627E+03  0.59506996898E+03  0.67403965240E+03  0.12699999809E+01 0. -1.
</event>
<event>
 5   0  0.3832500E-04  0.1154430E+04  0.7818609E-02  0.9153707E-01
       -3   -1    0    0    0  501  0.00000000000E+00  0.00000000000E+00  0.88218439893E+03  0.88218440471E+03  0.10100000352E+00 0. -1.
        3   -1    0    0  501    0  0.00000000000E+00  0.00000000000E+00 -0.37767259104E+03  0.37767260455E+03  0.10100000352E+00 0.  1.
    10030    2    1    2    0    0  0.00000000000E+00  0.00000000000E+00  0.50451180789E+03  0.12598570093E+04  0.11544295212E+04 0.  0.
        4    1    3    3  502    0 -0.41163811951E+03  0.11212197356E+03  0.67655234072E+03  0.79983870938E+03  0.12699999809E+01 0. -1.
       -4    1    3    3    0  502  0.41163811951E+03 -0.11212197356E+03 -0.17204053283E+03  0.46001829988E+03  0.12699999809E+01 0.  1.
</event>
<event>
 5   0  0.5623061E-04  0.1599079E+04  0.7818609E-02  0.8821114E-01
        1   -1    0    0  501    0  0.00000000000E+00  0.00000000000E+00  0.11451371259E+04  0.11451371259E+04  0.50400001928E-02 0. -1.
       -1   -1    0    0    0  501  0.00000000000E+00  0.00000000000E+00 -0.55824202536E+03  0.55824202539E+03  0.50400001928E-02 0.  1.
    10030    2    1    2    0    0  0.00000000000E+00  0.00000000000E+00  0.58689510050E+03  0.17033791513E+04  0.15990793207E+04 0.  0.
        3    1    3    3  502    0 -0.68161524460E+03  0.30449422694E+03  0.59838403750E+03  0.95675469293E+03  0.10100000352E+00 0. -1.
       -3    1    3    3    0  502  0.68161524460E+03 -0.30449422694E+03 -0.11488936998E+02  0.74662445833E+03  0.10100000352E+00 0.  1.
</event>
<event>
 5   0  0.1037321E-03  0.1585147E+04  0.7818609E-02  0.8829725E-01
        2   -1    0    0  501    0  0.00000000000E+00  0.00000000000E+00  0.58325199673E+03  0.58325199674E+03  0.25500000920E-02 0.  1.
       -2   -1    0    0    0  501  0.00000000000E+00  0.00000000000E+00 -0.10770174266E+04  0.10770174266E+04  0.25500000920E-02 0. -1.
    10030    2    1    2    0    0  0.00000000000E+00  0.00000000000E+00 -0.49376542987E+03  0.16602694233E+04  0.15851467624E+04 0.  0.
        5    1    3    3  502    0 -0.63541197903E+03 -0.27058061398E+03  0.16037383025E+03  0.70901629542E+03  0.46999998093E+01 0. -1.
       -5    1    3    3    0  502  0.63541197903E+03  0.27058061398E+03 -0.65413926012E+03  0.95125312792E+03  0.46999998093E+01 0.  1.
</event>
<event>
 5   0  0.5532881E-04  0.1609199E+04  0.7818609E-02  0.8814917E-01
       -1   -1    0    0    0  501  0.00000000000E+00  0.00000000000E+00  0.40911052683E+03  0.40911052686E+03  0.50400001928E-02 0.  1.
        1   -1    0    0  501    0  0.00000000000E+00  0.00000000000E+00 -0.15824095479E+04  0.15824095479E+04  0.50400001928E-02 0. -1.
    10030    2    1    2    0    0  0.00000000000E+00  0.00000000000E+00 -0.11732990210E+04  0.19915200747E+04  0.16091990602E+04 0.  0.
        4    1    3    3  502    0  0.77443241962E+03  0.21191403252E+03 -0.65126116369E+03  0.10338258296E+04  0.12699999809E+01 0. -1.
       -4    1    3    3    0  502 -0.77443241962E+03 -0.21191403252E+03 -0.52203785733E+03  0.95769424511E+03  0.12699999809E+01 0.  1.
</event>
<event>
 5   0  0.1030027E-03  0.1608222E+04  0.7818609E-02  0.8815512E-01
       -2   -1    0    0    0  501  0.00000000000E+00  0.00000000000E+00  0.34199765014E+03  0.34199765015E+03  0.25500000920E-02 0. -1.
        2   -1    0    0  501    0  0.00000000000E+00  0.00000000000E+00 -0.18906413290E+04  0.18906413290E+04  0.25500000920E-02 0.  1.
    10030    2    1    2    0    0  0.00000000000E+00  0.00000000000E+00 -0.15486436789E+04  0.22326389791E+04  0.16082224868E+04 0.  0.
        1    1    3    3  502    0 -0.19475026651E+03 -0.16105875863E+03  0.28543213844E+03  0.38123364977E+03  0.50400001928E-02 0. -1.
       -1    1    3    3    0  502  0.19475026651E+03  0.16105875863E+03 -0.18340758173E+04  0.18514053294E+04  0.50400001928E-02 0.  1.
</event>
<event>
 5   0  0.3832500E-04  0.1640730E+04  0.7818609E-02  0.8795909E-01
        3   -1    0    0  501    0  0.00000000000E+00  0.00000000000E+00  0.15814472854E+04  0.15814472886E+04  0.10100000352E+00 0. -1.
       -3   -1    0    0    0  501  0.00000000000E+00  0.00000000000E+00 -0.42555875070E+03  0.42555876269E+03  0.10100000352E+00 0.  1.
    10030    2    1    2    0    0  0.00000000000E+00  0.00000000000E+00  0.11558885347E+04  0.20070060513E+04  0.16407300160E+04 0.  0.
        3    1    3    3  502    0  0.75239860522E+03  0.23303793915E+02  0.97686297745E+03  0.12332509943E+04  0.10100000352E+00 0. -1.
       -3    1    3    3    0  502 -0.75239860522E+03 -0.23303793915E+02  0.17902555723E+03  0.77375505704E+03  0.10100000352E+00 0.  1.
</event>
<event>
 5   0  0.1057872E-03  0.1578328E+04  0.7818609E-02  0.8833973E-01
        2   -1    0    0  501    0  0.00000000000E+00  0.00000000000E+00  0.23588708281E+04  0.23588708281E+04  0.25500000920E-02 0. -1.
       -2   -1    0    0    0  501  0.00000000000E+00  0.00000000000E+00 -0.26401622534E+03  0.26401622535E+03  0.25500000920E-02 0.  1.
    10030    2    1    2    0    0  0.00000000000E+00  0.00000000000E+00  0.20948546027E+04  0.26228870534E+04  0.15783284476E+04 0.  0.
        2    1    3    3  502    0 -0.61167208402E+03  0.36683679454E+03  0.16086878277E+04  0.17597126184E+04  0.25500000920E-02 0. -1.
       -2    1    3    3    0  502  0.61167208402E+03 -0.36683679454E+03  0.48616677500E+03  0.86317443504E+03  0.25500000920E-02 0.  1.
</event>
<event>
 5   0  0.5425525E-04  0.1642062E+04  0.7818609E-02  0.8795116E-01
       -1   -1    0    0    0  501  0.00000000000E+00  0.00000000000E+00  0.75555625648E+03  0.75555625649E+03  0.50400001928E-02 0.  1.
        1   -1    0    0  501    0  0.00000000000E+00  0.00000000000E+00 -0.89217981698E+03  0.89217981699E+03  0.50400001928E-02 0. -1.
    10030    2    1    2    0    0  0.00000000000E+00  0.00000000000E+00 -0.13662356050E+03  0.16477360735E+04  0.16420621701E+04 0.  0.
        5    1    3    3  502    0  0.74050282603E+03  0.83848982448E+02  0.27739987380E+03  0.79520303520E+03  0.46999998093E+01 0. -1.
       -5    1    3    3    0  502 -0.74050282603E+03 -0.83848982448E+02 -0.41402343431E+03  0.85253303828E+03  0.46999998093E+01 0.  1.
</event>
<event>
 5   0  0.1000121E-03  0.1570893E+04  0.7818609E-02  0.8838632E-01
       -2   -1    0    0    0  501  0.00000000000E+00  0.00000000000E+00  0.13455027147E+04  0.13455027147E+04  0.25500000920E-02 0. -1.
        2   -1    0    0  501    0  0.00000000000E+00  0.00000000000E+00 -0.45850955935E+03  0.45850955936E+03  0.25500000920E-02 0.  1.
    10030    2    1    2    0    0  0.00000000000E+00  0.00000000000E+00  0.88699315533E+03  0.18040122740E+04  0.15708925575E+04 0.  0.
        4    1    3    3  502    0 -0.10266537472E+03  0.72812322436E+03  0.76054769419E+03  0.10578931974E+04  0.12699999809E+01 0. -1.
       -4    1    3    3    0  502  0.10266537472E+03 -0.72812322436E+03  0.12644546115E+03  0.74611907667E+03  0.12699999809E+01 0.  1.
</event>
<event>
 5   0  0.1037321E-03  0.1563912E+04  0.7818609E-02  0.8843030E-01
       -2   -1    0    0    0  501  0.00000000000E+00  0.00000000000E+00  0.47671017984E+03  0.47671017984E+03  0.25500000920E-02 0.  1.
        2   -1    0    0  501    0  0.00000000000E+00  0.00000000000E+00 -0.12826563113E+04  0.12826563113E+04  0.25500000920E-02 0. -1.
    10030    2    1    2    0    0  0.00000000000E+00  0.00000000000E+00 -0.80594613150E+03  0.17593664912E+04  0.15639121725E+04 0.  0.
        5    1    3    3  502    0  0.49064024992E+03 -0.13859059535E+02  0.28179872105E+03  0.56599694129E+03  0.46999998093E+01 0. -1.
       -5    1    3    3    0  502 -0.49064024992E+03  0.13859059535E+02 -0.10877448526E+04  0.11933695499E+04  0.46999998093E+01 0.  1.
</event>
<event>
 5   0  0.5532881E-04  0.1476869E+04  0.7818609E-02  0.8899982E-01
        1   -1    0    0  501    0  0.00000000000E+00  0.00000000000E+00  0.89096454295E+03  0.89096454296E+03  0.50400001928E-02 0. -1.
       -1   -1    0    0    0  501  0.00000000000E+00  0.00000000000E+00 -0.61201697517E+03  0.61201697519E+03  0.50400001928E-02 0.  1.
    10030    2    1    2    0    0  0.00000000000E+00  0.00000000000E+00  0.27894756778E+03  0.15029815181E+04  0.14768688833E+04 0.  0.
        4    1    3    3  502    0 -0.68024377218E+03  0.91307362947E+02  0.41671519115E+03  0.80294569402E+03  0.12699999809E+01 0. -1.
       -4    1    3    3    0  502  0.68024377218E+03 -0.91307362947E+02 -0.13776762337E+03  0.70003582413E+03  0.12699999809E+01 0.  1.
</event>
<event>
 5   0  0.9844690E-04  0.1598227E+04  0.7818609E-02  0.8821638E-01
       -2   -1    0    0    0  501  0.00000000000E+00  0.00000000000E+00  0.41661239847E+03  0.41661239848E+03  0.25500000920E-02 0. -1.
        2   -1    0    0  501    0  0.00000000000E+00  0.00000000000E+00 -0.15327983195E+04  0.15327983195E+04  0.25500000920E-02 0.  1.
    10030    2    1    2    0    0  0.00000000000E+00  0.00000000000E+00 -0.11161859211E+04  0.19494107180E+04  0.15982274985E+04 0.  0.
        3    1    3    3  502    0 -0.30290099831E+02  0.78577280499E+03 -0.38462316660E+03  0.87538070672E+03  0.10100000352E+00 0. -1.
       -3    1    3    3    0  502  0.30290099831E+02 -0.78577280499E+03 -0.73156275446E+03  0.10740300113E+04  0.10100000352E+00 0.  1.
</event>
<event>
 5   0  0.5425525E-04  0.1623487E+04  0.7818609E-02  0.8806248E-01
       -1   -1    0    0    0  501  0.00000000000E+00  0.00000000000E+00  0.69613270144E+03  0.69613270146E+03  0.50400001928E-02 0.  1.
        1   -1    0    0  501    0  0.00000000000E+00  0.00000000000E+00 -0.94655401651E+03  0.94655401652E+03  0.50400001928E-02 0. -1.
    10030    2    1    2    0    0  0.00000000000E+00  0.00000000000E+00 -0.25042131507E+03  0.16426867180E+04  0.16234866240E+04 0.  0.
        5    1    3    3  502    0 -0.15286494401E+03 -0.20319867046E+03 -0.90520202162E+03  0.94025006287E+03  0.46999998093E+01 0. -1.
       -5    1    3    3    0  502  0.15286494401E+03  0.20319867046E+03  0.65478070655E+03  0.70243665512E+03  0.46999998093E+01 0.  1.
</event>
<event>
 5   0  0.5623061E-04  0.1580942E+04  0.7818609E-02  0.8832342E-01
        1   -1    0    0  501    0  0.00000000000E+00  0.00000000000E+00  0.11243480639E+04  0.11243480640E+04  0.50400001928E-02 0. -1.
       -1   -1    0    0    0  501  0.00000000000E+00  0.00000000000E+00 -0.55573955046E+03  0.55573955048E+03  0.50400001928E-02 0.  1.
    10030    2    1    2    0    0  0.00000000000E+00  0.00000000000E+00  0.56860851348E+03  0.16800876144E+04  0.15809423616E+04 0.  0.
        3    1    3    3  502    0 -0.15375235693E+03  0.60170634014E+02  0.11058192878E+04  0.11180771887E+04  0.10100000352E+00 0. -1.
       -3    1    3    3    0  502  0.15375235693E+03 -0.60170634014E+02 -0.53721077428E+03  0.56201042576E+03  0.10100000352E+00 0.  1.
</event>
<event>
 5   0  0.5623061E-04  0.1390344E+04  0.7818609E-02  0.8960838E-01
       -1   -1    0    0    0  501  0.00000000000E+00  0.00000000000E+00  0.53152803420E+03  0.53152803422E+03  0.50400001928E-02 0.  1.
        1   -1    0    0  501    0  0.00000000000E+00  0.00000000000E+00 -0.90919814969E+03  0.90919814970E+03  0.50400001928E-02 0. -1.
    10030    2    1    2    0    0  0.00000000000E+00  0.00000000000E+00 -0.37767011549E+03  0.14407261839E+04  0.13903442814E+04 0.  0.
        3    1    3    3  502    0 -0.56190941318E+03 -0.20600206590E+03 -0.55532507863E+03  0.81643431636E+03  0.10100000352E+00 0. -1.
       -3    1    3    3    0  502  0.56190941318E+03  0.20600206590E+03  0.17765496314E+03  0.62429186756E+03  0.10100000352E+00 0.  1.
</event>
<event>
 5   0  0.5532881E-04  0.1581289E+04  0.7818609E-02  0.8832126E-01
       -1   -1    0    0    0  501  0.00000000000E+00  0.00000000000E+00  0.83444662680E+03  0.83444662681E+03  0.50400001928E-02 0. -1.
        1   -1    0    0  501    0  0.00000000000E+00  0.00000000000E+00 -0.74914197040E+03  0.74914197041E+03  0.50400001928E-02 0.  1.
    10030    2    1    2    0    0  0.00000000000E+00  0.00000000000E+00  0.85304656398E+02  0.15835885972E+04  0.15812893350E+04 0.  0.
        4    1    3    3  502    0  0.41707363703E+03 -0.63309919481E+03  0.26737193924E+03  0.80389948126E+03  0.12699999809E+01 0. -1.
       -4    1    3    3    0  502 -0.41707363703E+03  0.63309919481E+03 -0.18206728284E+03  0.77968911597E+03  0.12699999809E+01 0.  1.
</event>
<event>
 5   0  0.9844690E-04  0.1578622E+04  0.7818609E-02  0.8833790E-01
       -2   -1    0    0    0  501  0.00000000000E+00  0.00000000000E+00  0.64077819007E+03  0.64077819007E+03  0.25500000920E-02 0. -1.
        2   -1    0    0  501    0  0.00000000000E+00  0.00000000000E+00 -0.97227378537E+03  0.97227378537E+03  0.25500000920E-02 0.  1.
    10030    2    1    2    0    0  0.00000000000E+00  0.00000000000E+00 -0.33149559530E+03  0.16130519754E+04  0.15786219769E+04 0.  0.
        3    1    3    3  502    0 -0.31151832441E+03 -0.42597309202E+03  0.43400783861E+03  0.68327121683E+03  0.10100000352E+00 0. -1.
       -3    1    3    3    0  502  0.31151832441E+03  0.42597309202E+03 -0.76550343391E+03  0.92978075862E+03  0.10100000352E+00 0.  1.
</event>
<event>
 5   0  0.5425525E-04  0.1485898E+04  0.7818609E-02  0.8893885E-01
        1   -1    0    0  501    0  0.00000000000E+00  0.00000000000E+00  0.10981325013E+04  0.10981325013E+04  0.50400001928E-02 0.  1.
       -1   -1    0    0    0  501  0.00000000000E+00  0.00000000000E+00 -0.50264711693E+03  0.50264711695E+03  0.50400001928E-02 0. -1.
    10030    2    1    2    0    0  0.00000000000E+00  0.00000000000E+00  0.59548538438E+03  0.16007796183E+04  0.14858978913E+04 0.  0.
        5    1    3    3  502    0 -0.44213492089E+03 -0.16749541475E+03  0.91512300793E+03  0.10300534995E+04  0.46999998093E+01 0.  1.
       -5    1    3    3    0  502  0.44213492089E+03  0.16749541475E+03 -0.31963762355E+03  0.57072611875E+03  0.46999998093E+01 0. -1.
</event>
<event>
 5   0  0.9844690E-04  0.1594001E+04  0.7818609E-02  0.8824242E-01
        2   -1    0    0  501    0  0.00000000000E+00  0.00000000000E+00  0.10023961496E+04  0.10023961496E+04  0.25500000920E-02 0. -1.
       -2   -1    0    0    0  501  0.00000000000E+00  0.00000000000E+00 -0.63369147119E+03  0.63369147120E+03  0.25500000920E-02 0.  1.
    10030    2    1    2    0    0  0.00000000000E+00  0.00000000000E+00  0.36870467844E+03  0.16360876208E+04  0.15940011177E+04 0.  0.
        3    1    3    3  502    0  0.32822055380E+03 -0.14043575704E+02 -0.56096324711E+03  0.65008132473E+03  0.10100000352E+00 0.  1.
       -3    1    3    3    0  502 -0.32822055380E+03  0.14043575704E+02  0.92966792555E+03  0.98600629611E+03  0.10100000352E+00 0. -1.
</event>
<event>
 5   0  0.1037321E-03  0.1585024E+04  0.7818609E-02  0.8829802E-01
       -2   -1    0    0    0  501  0.00000000000E+00  0.00000000000E+00  0.12152522640E+04  0.12152522640E+04  0.25500000920E-02 0. -1.
        2   -1    0    0  501    0  0.00000000000E+00  0.00000000000E+00 -0.51682703455E+03  0.51682703456E+03  0.25500000920E-02 0.  1.
    10030    2    1    2    0    0  0.00000000000E+00  0.00000000000E+00  0.69842522944E+03  0.17320792986E+04  0.15850239416E+04 0.  0.
        5    1    3    3  502    0 -0.48201035079E+03 -0.62405358954E+03  0.43578569221E+03  0.90094845603E+03  0.46999998093E+01 0. -1.
       -5    1    3    3    0  502  0.48201035079E+03  0.62405358954E+03  0.26263953723E+03  0.83113084253E+03  0.46999998093E+01 0.  1.
</event>
<event>
 5   0  0.5281116E-04  0.1535320E+04  0.7818609E-02  0.8861300E-01
       -1   -1    0    0    0  501  0.00000000000E+00  0.00000000000E+00  0.74963677890E+03  0.74963677891E+03  0.50400001928E-02 0. -1.
        1   -1    0    0  501    0  0.00000000000E+00  0.00000000000E+00 -0.78611635002E+03  0.78611635004E+03  0.50400001928E-02 0.  1.
    10030    2    1    2    0    0  0.00000000000E+00  0.00000000000E+00 -0.36479571128E+02  0.15357531290E+04  0.15353198084E+04 0.  0.
        2    1    3    3  502    0  0.45446063169E+03  0.57307811829E+03 -0.25143372974E+03  0.77341574581E+03  0.25500000920E-02 0.  1.
       -2    1    3    3    0  502 -0.45446063169E+03 -0.57307811829E+03  0.21495415861E+03  0.76233738314E+03  0.25500000920E-02 0. -1.
</event>
<event>
 5   0  0.5532881E-04  0.1641191E+04  0.7818609E-02  0.8795635E-01
        1   -1    0    0  501    0  0.00000000000E+00  0.00000000000E+00  0.11269148723E+04  0.11269148723E+04  0.50400001928E-02 0. -1.
       -1   -1    0    0    0  501  0.00000000000E+00  0.00000000000E+00 -0.59754005528E+03  0.59754005530E+03  0.50400001928E-02 0.  1.
    10030    2    1    2    0    0  0.00000000000E+00  0.00000000000E+00  0.52937481705E+03  0.17244549276E+04  0.16411907569E+04 0.  0.
        4    1    3    3  502    0 -0.12974102938E+02  0.40298906147E+03  0.10156547612E+04  0.10927601374E+04  0.12699999809E+01 0. -1.
       -4    1    3    3    0  502  0.12974102938E+02 -0.40298906147E+03 -0.48627994418E+03  0.63169479024E+03  0.12699999809E+01 0.  1.
</event>
<event>
 5   0  0.1057872E-03  0.1590045E+04  0.7818609E-02  0.8826687E-01
        2   -1    0    0  501    0  0.00000000000E+00  0.00000000000E+00  0.10439290651E+04  0.10439290651E+04  0.25500000920E-02 0.  1.
       -2   -1    0    0    0  501  0.00000000000E+00  0.00000000000E+00 -0.60546306011E+03  0.60546306012E+03  0.25500000920E-02 0. -1.
    10030    2    1    2    0    0  0.00000000000E+00  0.00000000000E+00  0.43846600494E+03  0.16493921252E+04  0.15900446362E+04 0.  0.
        2    1    3    3  502    0  0.55974205333E+03  0.44032357587E+03 -0.14731768394E+03  0.72725409435E+03  0.25500000920E-02 0. -1.
       -2    1    3    3    0  502 -0.55974205333E+03 -0.44032357587E+03  0.58578368888E+03  0.92213803083E+03  0.25500000920E-02 0.  1.
</event>
<event>
 5   0  0.9844690E-04  0.1589152E+04  0.7818609E-02  0.8827240E-01
        2   -1    0    0  501    0  0.00000000000E+00  0.00000000000E+00  0.22105813584E+04  0.22105813584E+04  0.25500000920E-02 0.  1.
       -2   -1    0    0    0  501  0.00000000000E+00  0.00000000000E+00 -0.28560420617E+03  0.28560420618E+03  0.25500000920E-02 0. -1.
    10030    2    1    2    0    0  0.00000000000E+00  0.00000000000E+00  0.19249771522E+04  0.24961855646E+04  0.15891523955E+04 0.  0.
        3    1    3    3  502    0 -0.45277189143E+03 -0.19187551535E+02  0.19876832013E+04  0.20386895464E+04  0.10100000352E+00 0.  1.
       -3    1    3    3    0  502  0.45277189143E+03  0.19187551535E+02 -0.62706049088E+02  0.45749601812E+03  0.10100000352E+00 0. -1.
</event>
<event>
 5   0  0.5288658E-04  0.1644463E+04  0.7818609E-02  0.8793689E-01
        1   -1    0    0  501    0  0.00000000000E+00  0.00000000000E+00  0.90961552538E+03  0.90961552539E+03  0.50400001928E-02 0. -1.
       -1   -1    0    0    0  501  0.00000000000E+00  0.00000000000E+00 -0.74324220330E+03  0.74324220332E+03  0.50400001928E-02 0.  1.
    10030    2    1    2    0    0  0.00000000000E+00  0.00000000000E+00  0.16637332207E+03  0.16528577287E+04  0.16444630093E+04 0.  0.
        1    1    3    3  502    0 -0.74874802932E+03  0.32892717012E+03  0.16875616921E+03  0.83504211829E+03  0.50400001928E-02 0.  1.
       -1    1    3    3    0  502  0.74874802932E+03 -0.32892717012E+03 -0.23828471346E+01  0.81781561042E+03  0.50400001928E-02 0. -1.
</event>
<event>
 5   0  0.1037321E-03  0.1582794E+04  0.7818609E-02  0.8831188E-01
       -2   -1    0    0    0  501  0.00000000000E+00  0.00000000000E+00  0.35971339623E+03  0.35971339624E+03  0.25500000920E-02 0.  1.
        2   -1    0    0  501    0  0.00000000000E+00  0.00000000000E+00 -0.17411348319E+04  0.17411348319E+04  0.25500000920E-02 0. -1.
    10030    2    1    2    0    0  0.00000000000E+00  0.00000000000E+00 -0.13814214357E+04  0.21008482281E+04  0.15827943943E+04 0.  0.
        5    1    3    3  502    0 -0.34746915806E+03  0.27800852482E+03  0.17790142816E+03  0.47926460731E+03  0.46999998093E+01 0.  1.
       -5    1    3    3    0  502  0.34746915806E+03 -0.27800852482E+03 -0.15593228638E+04  0.16215836208E+04  0.46999998093E+01 0. -1.
</event>
<event>
 5   0  0.5532881E-04  0.1314579E+04  0.7818609E-02  0.9018083E-01
        1   -1    0    0  501    0  0.00000000000E+00  0.00000000000E+00  0.58197924224E+03  0.58197924226E+03  0.50400001928E-02 0.  1.
       -1   -1    0    0    0  501  0.00000000000E+00  0.00000000000E+00 -0.74234506364E+03  0.74234506365E+03  0.50400001928E-02 0. -1.
    10030    2    1    2    0    0  0.00000000000E+00  0.00000000000E+00 -0.16036582139E+03  0.13243243059E+04  0.13145788948E+04 0.  0.
        4    1    3    3  502    0 -0.48877806492E+03  0.15532865538E+03 -0.49432269848E+03  0.71231140035E+03  0.12699999809E+01 0. -1.
       -4    1    3    3    0  502  0.48877806492E+03 -0.15532865538E+03  0.33395687709E+03  0.61201290557E+03  0.12699999809E+01 0.  1.
</event>
<event>
 5   0  0.5425525E-04  0.1631841E+04  0.7818609E-02  0.8801222E-01
       -1   -1    0    0    0  501  0.00000000000E+00  0.00000000000E+00  0.43839315636E+03  0.43839315639E+03  0.50400001928E-02 0. -1.
        1   -1    0    0  501    0  0.00000000000E+00  0.00000000000E+00 -0.15185602452E+04  0.15185602452E+04  0.50400001928E-02 0.  1.
    10030    2    1    2    0    0  0.00000000000E+00  0.00000000000E+00 -0.10801670888E+04  0.19569534016E+04  0.16318411921E+04 0.  0.
        5    1    3    3  502    0  0.61828703647E+03  0.42960480277E+03 -0.16301154819E+03  0.77034667577E+03  0.46999998093E+01 0. -1.
       -5    1    3    3    0  502 -0.61828703647E+03 -0.42960480277E+03 -0.91715554066E+03  0.11866067258E+04  0.46999998093E+01 0.  1.
</event>
<event>
 5   0  0.1057872E-03  0.1626452E+04  0.7818609E-02  0.8804460E-01
       -2   -1    0    0    0  501  0.00000000000E+00  0.00000000000E+00  0.44039296871E+03  0.44039296872E+03  0.25500000920E-02 0. -1.
        2   -1    0    0  501    0  0.00000000000E+00  0.00000000000E+00 -0.15016963078E+04  0.15016963078E+04  0.25500000920E-02 0.  1.
    10030    2    1    2    0    0  0.00000000000E+00  0.00000000000E+00 -0.10613033391E+04  0.19420892765E+04  0.16264519607E+04 0.  0.
        2    1    3    3  502    0  0.17514849685E+03 -0.48715386093E+03 -0.12795318658E+04  0.13802889827E+04  0.25500000920E-02 0.  1.
       -2    1    3    3    0  502 -0.17514849685E+03  0.48715386093E+03  0.21822852676E+03  0.56180029376E+03  0.25500000920E-02 0. -1.
</event>
<event>
 5   0  0.5288658E-04  0.1586038E+04  0.7818609E-02  0.8829172E-01
       -1   -1    0    0    0  501  0.00000000000E+00  0.00000000000E+00  0.88508101719E+03  0.88508101720E+03  0.50400001928E-02 0.  1.
        1   -1    0    0  501    0  0.00000000000E+00  0.00000000000E+00 -0.71053245847E+03  0.71053245849E+03  0.50400001928E-02 0. -1.
    10030    2    1    2    0    0  0.00000000000E+00  0.00000000000E+00  0.17454855872E+03  0.15956134757E+04  0.15860375672E+04 0.  0.
        1    1    3    3  502    0 -0.91112958526E+01  0.35750348825E+03  0.79935211410E+03  0.87570289606E+03  0.50400001928E-02 0.  1.
       -1    1    3    3    0  502  0.91112958526E+01 -0.35750348825E+03 -0.62480355538E+03  0.71991057963E+03  0.50400001928E-02 0. -1.
</event>
<event>
 5   0  0.5281116E-04  0.1599016E+04  0.7818609E-02  0.8821153E-01
       -1   -1    0    0    0  501  0.00000000000E+00  0.00000000000E+00  0.12255132349E+04  0.12255132349E+04  0.50400001928E-02 0. -1.
        1   -1    0    0  501    0  0.00000000000E+00  0.00000000000E+00 -0.52158772220E+03  0.52158772223E+03  0.50400001928E-02 0.  1.
    10030    2    1    2    0    0  0.00000000000E+00  0.00000000000E+00  0.70392551270E+03  0.17471009571E+04  0.15990155181E+04 0.  0.
        2    1    3    3  502    0 -0.23556009294E+03 -0.54434400902E+03 -0.23379635859E+03  0.63754191614E+03  0.25500000920E-02 0.  1.
       -2    1    3    3    0  502  0.23556009294E+03  0.54434400902E+03  0.93772187129E+03  0.11095590410E+04  0.25500000920E-02 0. -1.
</event>
<event>
 5   0  0.1037321E-03  0.1586740E+04  0.7818609E-02  0.8828736E-01
        2   -1    0    0  501    0  0.00000000000E+00  0.00000000000E+00  0.74220329050E+03  0.74220329051E+03  0.25500000920E-02 0.  1.
       -2   -1    0    0    0  501  0.00000000000E+00  0.00000000000E+00 -0.84806416170E+03  0.84806416171E+03  0.25500000920E-02 0. -1.
    10030    2    1    2    0    0  0.00000000000E+00  0.00000000000E+00 -0.10586087120E+03  0.15902674522E+04  0.15867400687E+04 0.  0.
        5    1    3    3  502    0 -0.25045422919E+03 -0.64872844668E+03  0.32980593647E+03  0.76965574394E+03  0.46999998093E+01 0.  1.
       -5    1    3    3    0  502  0.25045422919E+03  0.64872844668E+03 -0.43566680767E+03  0.82061170827E+03  0.46999998093E+01 0. -1.
</event>
<event>
 5   0  0.1000121E-03  0.1592882E+04  0.7818609E-02  0.8824933E-01
       -2   -1    0    0    0  501  0.00000000000E+00  0.00000000000E+00  0.48346947612E+03  0.48346947613E+03  0.25500000920E-02 0.  1.
        2   -1    0    0  501    0  0.00000000000E+00  0.00000000000E+00 -0.13120124996E+04  0.13120124996E+04  0.25500000920E-02 0. -1.
    10030    2    1    2    0    0  0.00000000000E+00  0.00000000000E+00 -0.82854302345E+03  0.17954819757E+04  0.15928816602E+04 0.  0.
        4    1    3    3  502    0  0.25120405899E+03  0.74065930961E+03 -0.24468004082E+03  0.81948131610E+03  0.12699999809E+01 0. -1.
       -4    1    3    3    0  502 -0.25120405899E+03 -0.74065930961E+03 -0.58386298263E+03  0.97600065960E+03  0.12699999809E+01 0.  1.
</event>
<event>
 5   0  0.5281116E-04  0.1701862E+04  0.7818609E-02  0.8760303E-01
        1   -1    0    0  501    0  0.00000000000E+00  0.00000000000E+00  0.10450485045E+04  0.10450485045E+04  0.50400001928E-02 0. -1.
       -1   -1    0    0    0  501  0.00000000000E+00  0.00000000000E+00 -0.69287077118E+03  0.69287077119E+03  0.50400001928E-02 0.  1.
    10030    2    1    2    0    0  0.00000000000E+00  0.00000000000E+00  0.35217773334E+03  0.17379192757E+04  0.17018619959E+04 0.  0.
        2    1    3    3  502    0  0.41391435163E+03  0.41220264906E+03 -0.45576716946E+03  0.74091823242E+03  0.25500000920E-02 0.  1.
       -2    1    3    3    0  502 -0.41391435163E+03 -0.41220264906E+03  0.80794490280E+03  0.99700104330E+03  0.25500000920E-02 0. -1.
</event>
<event>
 5   0  0.5623061E-04  0.1514333E+04  0.7818609E-02  0.8874977E-01
       -1   -1    0    0    0  501  0.00000000000E+00  0.00000000000E+00  0.99202428637E+03  0.99202428638E+03  0.50400001928E-02 0. -1.
        1   -1    0    0  501    0  0.00000000000E+00  0.00000000000E+00 -0.57791054292E+03  0.57791054295E+03  0.50400001928E-02 0.  1.
    10030    2    1    2    0    0  0.00000000000E+00  0.00000000000E+00  0.41411374344E+03  0.15699348293E+04  0.15143332446E+04 0.  0.
        3    1    3    3  502    0 -0.38644303771E+02 -0.67525933116E+03  0.55989525822E+03  0.87803830037E+03  0.10100000352E+00 0. -1.
       -3    1    3    3    0  502  0.38644303771E+02  0.67525933116E+03 -0.14578151477E+03  0.69189652896E+03  0.10100000352E+00 0.  1.
</event>
<event>
 5   0  0.5281116E-04  0.1618911E+04  0.7818609E-02  0.8809014E-01
       -1   -1    0    0    0  501  0.00000000000E+00  0.00000000000E+00  0.16656955061E+04  0.16656955061E+04  0.50400001928E-02 0.  1.
        1   -1    0    0  501    0  0.00000000000E+00  0.00000000000E+00 -0.39336006692E+03  0.39336006695E+03  0.50400001928E-02 0. -1.
    10030    2    1    2    0    0  0.00000000000E+00  0.00000000000E+00  0.12723354392E+04  0.20590555731E+04  0.16189108633E+04 0.  0.
        2    1    3    3  502    0 -0.12287267209E+03 -0.21222150113E+02  0.16534070192E+04  0.16581021815E+04  0.25500000920E-02 0.  1.
       -2    1    3    3    0  502  0.12287267209E+03  0.21222150113E+02 -0.38107157994E+03  0.40095339162E+03  0.25500000920E-02 0. -1.
</event>
<event>
 5   0  0.9844690E-04  0.1671980E+04  0.7818609E-02  0.8777509E-01
       -2   -1    0    0    0  501  0.00000000000E+00  0.00000000000E+00  0.25064349345E+03  0.25064349346E+03  0.25500000920E-02 0.  1.
        2   -1    0    0  501    0  0.00000000000E+00  0.00000000000E+00 -0.27883398957E+04  0.27883398957E+04  0.25500000920E-02 0. -1.
    10030    2    1    2    0    0  0.00000000000E+00  0.00000000000E+00 -0.25376964022E+04  0.30389833892E+04  0.16719799669E+04 0.  0.
        3    1    3    3  502    0  0.28054432602E+03  0.56341082534E+03 -0.26877024059E+03  0.68437879088E+03  0.10100000352E+00 0.  1.
       -3    1    3    3    0  502 -0.28054432602E+03 -0.56341082534E+03 -0.22689261617E+04  0.23546045983E+04  0.10100000352E+00 0. -1.
</event>
<event>
 5   0  0.5425525E-04  0.1613187E+04  0.7818609E-02  0.8812488E-01
        1   -1    0    0  501    0  0.00000000000E+00  0.00000000000E+00  0.57866335828E+03  0.57866335831E+03  0.50400001928E-02 0.  1.
       -1   -1    0    0    0  501  0.00000000000E+00  0.00000000000E+00 -0.11243028565E+04  0.11243028565E+04  0.50400001928E-02 0. -1.
    10030    2    1    2    0    0  0.00000000000E+00  0.00000000000E+00 -0.54563949825E+03  0.17029662149E+04  0.16131867427E+04 0.  0.
        5    1    3    3  502    0  0.34180372128E+03  0.31816812277E+03  0.42143599821E+03  0.62903984676E+03  0.46999998093E+01 0.  1.
       -5    1    3    3    0  502 -0.34180372128E+03 -0.31816812277E+03 -0.96707549646E+03  0.10739263681E+04  0.46999998093E+01 0. -1.
</event>
<event>
 5   0  0.5532881E-04  0.1614486E+04  0.7818609E-02  0.8811698E-01
       -1   -1    0    0    0  501  0.00000000000E+00  0.00000000000E+00  0.17998993271E+04  0.17998993271E+04  0.50400001928E-02 0. -1.
        1   -1    0    0  501    0  0.00000000000E+00  0.00000000000E+00 -0.36204327927E+03  0.36204327930E+03  0.50400001928E-02 0.  1.
    10030    2    1    2    0    0  0.00000000000E+00  0.00000000000E+00  0.14378560479E+04  0.21619426064E+04  0.16144862400E+04 0.  0.
        4    1    3    3  502    0 -0.65915101840E+02  0.57363094379E+03  0.14743488556E+04  0.15833835358E+04  0.12699999809E+01 0. -1.
       -4    1    3    3    0  502  0.65915101840E+02 -0.57363094379E+03 -0.36492807781E+02  0.57855907066E+03  0.12699999809E+01 0.  1.
</event>
<event>
 5   0  0.5288658E-04  0.1562658E+04  0.7818609E-02  0.8843823E-01
       -1   -1    0    0    0  501  0.00000000000E+00  0.00000000000E+00  0.39425499322E+03  0.39425499325E+03  0.50400001928E-02 0.  1.
        1   -1    0    0  501    0  0.00000000000E+00  0.00000000000E+00 -0.15484271165E+04  0.15484271166E+04  0.50400001928E-02 0. -1.
    10030    2    1    2    0    0  0.00000000000E+00  0.00000000000E+00 -0.11541721233E+04  0.19426821098E+04  0.15626581486E+04 0.  0.
        1    1    3    3  502    0  0.28851509967E+03 -0.32007861466E+03 -0.13873411240E+04  0.14527238818E+04  0.50400001928E-02 0. -1.
       -1    1    3    3    0  502 -0.28851509967E+03  0.32007861466E+03  0.23316900069E+03  0.48995822802E+03  0.50400001928E-02 0.  1.
</event>
<event>
 5   0  0.1030027E-03  0.1089074E+04  0.7818609E-02  0.9215907E-01
        2   -1    0    0  501    0  0.00000000000E+00  0.00000000000E+00  0.12181219471E+04  0.12181219472E+04  0.25500000920E-02 0.  1.
       -2   -1    0    0    0  501  0.00000000000E+00  0.00000000000E+00 -0.24342455318E+03  0.24342455319E+03  0.25500000920E-02 0. -1.
    10030    2    1    2    0    0  0.00000000000E+00  0.00000000000E+00  0.97469739397E+03  0.14615465003E+04  0.10890744524E+04 0.  0.
        1    1    3    3  502    0 -0.50235426841E+03 -0.13109185965E+03  0.70776467372E+03  0.87776746354E+03  0.50400001928E-02 0. -1.
       -1    1    3    3    0  502  0.50235426841E+03  0.13109185965E+03  0.26693272025E+03  0.58377903681E+03  0.50400001928E-02 0.  1.
</event>
<event>
 5   0  0.5288658E-04  0.1621054E+04  0.7818609E-02  0.8807717E-01
        1   -1    0    0  501    0  0.00000000000E+00  0.00000000000E+00  0.79735437844E+03  0.79735437846E+03  0.50400001928E-02 0. -1.
       -1   -1    0    0    0  501  0.00000000000E+00  0.00000000000E+00 -0.82391689287E+03  0.82391689289E+03  0.50400001928E-02 0.  1.
    10030    2    1    2    0    0  0.00000000000E+00  0.00000000000E+00 -0.26562514433E+02  0.16212712713E+04  0.16210536598E+04 0.  0.
        1    1    3    3  502    0  0.78271063226E+03  0.31681959578E+02  0.19486698659E+03  0.80722538544E+03  0.50400001928E-02 0. -1.
       -1    1    3    3    0  502 -0.78271063226E+03 -0.31681959578E+02 -0.22142950102E+03  0.81404588590E+03  0.50400001928E-02 0.  1.
</event>
<event>
 5   0  0.9844690E-04  0.1625988E+04  0.7818609E-02  0.8804740E-01
       -2   -1    0    0    0  501  0.00000000000E+00  0.00000000000E+00  0.49267776375E+03  0.49267776376E+03  0.25500000920E-02 0. -1.
        2   -1    0    0  501    0  0.00000000000E+00  0.00000000000E+00 -0.13415645035E+04  0.13415645035E+04  0.25500000920E-02 0.  1.
    10030    2    1    2    0    0  0.00000000000E+00  0.00000000000E+00 -0.84888673978E+03  0.18342422673E+04  0.16259876993E+04 0.  0.
        3    1    3    3  502    0  0.33707083732E+03  0.20259605190E+03 -0.12271228344E+04  0.12886009354E+04  0.10100000352E+00 0.  1.
       -3    1    3    3    0  502 -0.33707083732E+03 -0.20259605190E+03  0.37823609465E+03  0.54564133194E+03  0.10100000352E+00 0. -1.
</event>
<event>
 5   0  0.9844690E-04  0.1577880E+04  0.7818609E-02  0.8834254E-01
       -2   -1    0    0    0  501  0.00000000000E+00  0.00000000000E+00  0.21879741161E+03  0.21879741163E+03  0.25500000920E-02 0.  1.
        2   -1    0    0  501    0  0.00000000000E+00  0.00000000000E+00 -0.28447600533E+04  0.28447600533E+04  0.25500000920E-02 0. -1.
    10030    2    1    2    0    0  0.00000000000E+00  0.00000000000E+00 -0.26259626417E+04  0.30635574650E+04  0.15778797627E+04 0.  0.
        3    1    3    3  502    0 -0.11595144173E+03  0.21894435247E+03  0.14130821817E+03  0.28521814290E+03  0.10100000352E+00 0.  1.
       -3    1    3    3    0  502  0.11595144173E+03 -0.21894435247E+03 -0.27672708599E+04  0.27783393221E+04  0.10100000352E+00 0. -1.
</event>
<event>
 5   0  0.1000121E-03  0.1603847E+04  0.7818609E-02  0.8818188E-01
       -2   -1    0    0    0  501  0.00000000000E+00  0.00000000000E+00  0.13053604522E+04  0.13053604522E+04  0.25500000920E-02 0. -1.
        2   -1    0    0  501    0  0.00000000000E+00  0.00000000000E+00 -0.49264649034E+03  0.49264649034E+03  0.25500000920E-02 0.  1.
    10030    2    1    2    0    0  0.00000000000E+00  0.00000000000E+00  0.81271396185E+03  0.17980069425E+04  0.16038469321E+04 0.  0.
        4    1    3    3  502    0  0.15789554761E+03 -0.73052046534E+03  0.73221408278E+03  0.10462935679E+04  0.12699999809E+01 0. -1.
       -4    1    3    3    0  502 -0.15789554761E+03  0.73052046534E+03  0.80499879070E+02  0.75171337467E+03  0.12699999809E+01 0.  1.
</event>
<event>
 5   0  0.5623061E-04  0.1567886E+04  0.7818609E-02  0.8840523E-01
       -1   -1    0    0    0  501  0.00000000000E+00  0.00000000000E+00  0.60985812751E+03  0.60985812753E+03  0.50400001928E-02 0. -1.
        1   -1    0    0  501    0  0.00000000000E+00  0.00000000000E+00 -0.10077206435E+04  0.10077206435E+04  0.50400001928E-02 0.  1.
    10030    2    1    2    0    0  0.00000000000E+00  0.00000000000E+00 -0.39786251600E+03  0.16175787711E+04  0.15678859968E+04 0.  0.
        3    1    3    3  502    0 -0.38019199584E+03 -0.27641352775E+03 -0.84620419901E+03  0.96799377511E+03  0.10100000352E+00 0.  1.
       -3    1    3    3    0  502  0.38019199584E+03  0.27641352775E+03  0.44834168301E+03  0.64958499594E+03  0.10100000352E+00 0. -1.
</event>
<event>
 5   0  0.1000121E-03  0.1598281E+04  0.7818609E-02  0.8821605E-01
       -2   -1    0    0    0  501  0.00000000000E+00  0.00000000000E+00  0.35399566750E+03  0.35399566751E+03  0.25500000920E-02 0.  1.
        2   -1    0    0  501    0  0.00000000000E+00  0.00000000000E+00 -0.18040479264E+04  0.18040479264E+04  0.25500000920E-02 0. -1.
    10030    2    1    2    0    0  0.00000000000E+00  0.00000000000E+00 -0.14500522589E+04  0.21580435939E+04  0.15982805134E+04 0.  0.
        4    1    3    3  502    0 -0.13628107715E+03  0.60150816499E+03 -0.14111745498E+04  0.15400648777E+04  0.12699999809E+01 0. -1.
       -4    1    3    3    0  502  0.13628107715E+03 -0.60150816499E+03 -0.38877709084E+02  0.61797871622E+03  0.12699999809E+01 0.  1.
</event>
<event>
 5   0  0.5425525E-04  0.1652499E+04  0.7818609E-02  0.8788929E-01
        1   -1    0    0  501    0  0.00000000000E+00  0.00000000000E+00  0.13059309225E+04  0.13059309225E+04  0.50400001928E-02 0. -1.
       -1   -1    0    0    0  501  0.00000000000E+00  0.00000000000E+00 -0.52275999866E+03  0.52275999869E+03  0.50400001928E-02 0.  1.
    10030    2    1    2    0    0  0.00000000000E+00  0.00000000000E+00  0.78317092382E+03  0.18286909212E+04  0.16524992555E+04 0.  0.
        5    1    3    3  502    0  0.10793555294E+03 -0.79081187050E+03  0.15519068488E+03  0.81310499739E+03  0.46999998093E+01 0.  1.
       -5    1    3    3    0  502 -0.10793555294E+03  0.79081187050E+03  0.62798023893E+03  0.10155859238E+04  0.46999998093E+01 0. -1.
</event>
<event>
 5   0  0.1030027E-03  0.1603099E+04  0.7818609E-02  0.8818647E-01
        2   -1    0    0  501    0  0.00000000000E+00  0.00000000000E+00  0.10230118629E+04  0.10230118629E+04  0.25500000920E-02 0. -1.
       -2   -1    0    0    0  501  0.00000000000E+00  0.00000000000E+00 -0.62802915904E+03  0.62802915904E+03  0.25500000920E-02 0.  1.
    10030    2    1    2    0    0  0.00000000000E+00  0.00000000000E+00  0.39498270389E+03  0.16510410220E+04  0.16030985995E+04 0.  0.
        1    1    3    3  502    0  0.63621939962E+03  0.13707488594E+03  0.67936925005E+03  0.94080137476E+03  0.50400001928E-02 0. -1.
       -1    1    3    3    0  502 -0.63621939962E+03 -0.13707488594E+03 -0.28438654617E+03  0.71023964721E+03  0.50400001928E-02 0.  1.
</event>
<event>
 5   0  0.5281116E-04  0.1591526E+04  0.7818609E-02  0.8825771E-01
       -1   -1    0    0    0  501  0.00000000000E+00  0.00000000000E+00  0.55426589069E+03  0.55426589072E+03  0.50400001928E-02 0.  1.
        1   -1    0    0  501    0  0.00000000000E+00  0.00000000000E+00 -0.11424814484E+04  0.11424814485E+04  0.50400001928E-02 0. -1.
    10030    2    1    2    0    0  0.00000000000E+00  0.00000000000E+00 -0.58821555775E+03  0.16967473392E+04  0.15915256802E+04 0.  0.
        2    1    3    3  502    0  0.59724817065E+03  0.36640894984E+03  0.10802714752E+03  0.70896456927E+03  0.25500000920E-02 0.  1.
       -2    1    3    3    0  502 -0.59724817065E+03 -0.36640894984E+03 -0.69624270527E+03  0.98778276991E+03  0.25500000920E-02 0. -1.
</event>
<event>
 5   0  0.1037321E-03  0.1606637E+04  0.7818609E-02  0.8816481E-01
        2   -1    0    0  501    0  0.00000000000E+00  0.00000000000E+00  0.23006187299E+04  0.23006187299E+04  0.25500000920E-02 0.  1.
       -2   -1    0    0    0  501  0.00000000000E+00  0.00000000000E+00 -0.28049864873E+03  0.28049864874E+03  0.25500000920E-02 0. -1.
    10030    2    1    2    0    0  0.00000000000E+00  0.00000000000E+00  0.20201200812E+04  0.25811173786E+04  0.16066367915E+04 0.  0.
        5    1    3    3  502    0 -0.44756805181E+03  0.40498080354E+03  0.15848804777E+03  0.62407304341E+03  0.46999998093E+01 0. -1.
       -5    1    3    3    0  502  0.44756805181E+03 -0.40498080354E+03  0.18616320334E+04  0.19570443352E+04  0.46999998093E+01 0.  1.
</event>
<event>
 5   0  0.5623061E-04  0.1608156E+04  0.7818609E-02  0.8815553E-01
        1   -1    0    0  501    0  0.00000000000E+00  0.00000000000E+00  0.20341033143E+04  0.20341033143E+04  0.50400001928E-02 0. -1.
       -1   -1    0    0    0  501  0.00000000000E+00  0.00000000000E+00 -0.31785087650E+03  0.31785087654E+03  0.50400001928E-02 0.  1.
    10030    2    1    2    0    0  0.00000000000E+00  0.00000000000E+00  0.17162524378E+04  0.23519541908E+04  0.16081561135E+04 0.  0.
        3    1    3    3  502    0 -0.34170304911E+03 -0.63148390504E+03  0.13874855592E+04  0.15622576879E+04  0.10100000352E+00 0. -1.
       -3    1    3    3    0  502  0.34170304911E+03  0.63148390504E+03  0.32876687852E+03  0.78969650291E+03  0.10100000352E+00 0.  1.
</event>
<event>
 5   0  0.5623061E-04  0.1616798E+04  0.7818609E-02  0.8810294E-01
       -1   -1    0    0    0  501  0.00000000000E+00  0.00000000000E+00  0.39350806979E+03  0.39350806982E+03  0.50400001928E-02 0.  1.
        1   -1    0    0  501    0  0.00000000000E+00  0.00000000000E+00 -0.16607256239E+04  0.16607256239E+04  0.50400001928E-02 0. -1.
    10030    2    1    2    0    0  0.00000000000E+00  0.00000000000E+00 -0.12672175541E+04  0.20542336937E+04  0.16167979895E+04 0.  0.
        3    1    3    3  502    0  0.25860996069E+03 -0.59117355319E+03 -0.14880689958E+02  0.64543530032E+03  0.10100000352E+00 0.  1.
       -3    1    3    3    0  502 -0.25860996069E+03  0.59117355319E+03 -0.12523368641E+04  0.14087983934E+04  0.10100000352E+00 0. -1.
</event>
<event>
 5   0  0.3832500E-04  0.1566645E+04  0.7818609E-02  0.8841306E-01
        3   -1    0    0  501    0  0.00000000000E+00  0.00000000000E+00  0.50914597154E+03  0.50914598155E+03  0.10100000352E+00 0.  1.
       -3   -1    0    0    0  501  0.00000000000E+00  0.00000000000E+00 -0.12051432544E+04  0.12051432587E+04  0.10100000352E+00 0. -1.
    10030    2    1    2    0    0  0.00000000000E+00  0.00000000000E+00 -0.69599728291E+03  0.17142892402E+04  0.15666446251E+04 0.  0.
        2    1    3    3  502    0  0.76176309057E+03 -0.11310280565E+03 -0.50474137301E+03  0.92078178981E+03  0.25500000920E-02 0. -1.
       -2    1    3    3    0  502 -0.76176309057E+03  0.11310280565E+03 -0.19125590990E+03  0.79350745042E+03  0.25500000920E-02 0.  1.
</event>
<event>
 5   0  0.5288658E-04  0.1516172E+04  0.7818609E-02  0.8873770E-01
       -1   -1    0    0    0  501  0.00000000000E+00  0.00000000000E+00  0.52075046629E+03  0.52075046632E+03  0.50400001928E-02 0.  1.
        1   -1    0    0  501    0  0.00000000000E+00  0.00000000000E+00 -0.11035883483E+04  0.11035883483E+04  0.50400001928E-02 0. -1.
    10030    2    1    2    0    0  0.00000000000E+00  0.00000000000E+00 -0.58283788197E+03  0.16243388146E+04  0.15161716881E+04 0.  0.
        1    1    3    3  502    0 -0.48236186216E+03 -0.10389839578E+03 -0.90800066667E+03  0.10334084640E+04  0.50400001928E-02 0. -1.
       -1    1    3    3    0  502  0.48236186216E+03  0.10389839578E+03  0.32516278469E+03  0.59093035062E+03  0.50400001928E-02 0.  1.
</event>
<event>
 5   0  0.5281116E-04  0.1651907E+04  0.7818609E-02  0.8789279E-01
       -1   -1    0    0    0  501  0.00000000000E+00  0.00000000000E+00  0.79979645170E+03  0.79979645172E+03  0.50400001928E-02 0. -1.
        1   -1    0    0  501    0  0.00000000000E+00  0.00000000000E+00 -0.85296574221E+03  0.85296574223E+03  0.50400001928E-02 0.  1.
    10030    2    1    2    0    0  0.00000000000E+00  0.00000000000E+00 -0.53169290510E+02  0.16527621939E+04  0.16519067456E+04 0.  0.
        2    1    3    3  502    0  0.41357256775E+02 -0.22194720378E+03 -0.82149465817E+03  0.85195331877E+03  0.25500000920E-02 0.  1.
       -2    1    3    3    0  502 -0.41357256775E+02  0.22194720378E+03  0.76832536766E+03  0.80080887517E+03  0.25500000920E-02 0. -1.
</event>
<event>
 5   0  0.5425525E-04  0.1618624E+04  0.7818609E-02  0.8809188E-01
        1   -1    0    0  501    0  0.00000000000E+00  0.00000000000E+00  0.82793646595E+03  0.82793646597E+03  0.50400001928E-02 0. -1.
       -1   -1    0    0    0  501  0.00000000000E+00  0.00000000000E+00 -0.79110611610E+03  0.79110611612E+03  0.50400001928E-02 0.  1.
    10030    2    1    2    0    0  0.00000000000E+00  0.00000000000E+00  0.36830349851E+02  0.16190425821E+04  0.16186236153E+04 0.  0.
        5    1    3    3  502    0 -0.44234952618E+03  0.56874831929E+03 -0.35021211185E+03  0.80113567346E+03  0.46999998093E+01 0.  1.
       -5    1    3    3    0  502  0.44234952618E+03 -0.56874831929E+03  0.38704246170E+03  0.81790690862E+03  0.46999998093E+01 0. -1.
</event>
<event>
 5   0  0.1037321E-03  0.1559848E+04  0.7818609E-02  0.8845602E-01
       -2   -1    0    0    0  501  0.00000000000E+00  0.00000000000E+00  0.75735595927E+03  0.75735595928E+03  0.25500000920E-02 0.  1.
        2   -1    0    0  501    0  0.00000000000E+00  0.00000000000E+00 -0.80316420656E+03  0.80316420656E+03  0.25500000920E-02 0. -1.
    10030    2    1    2    0    0  0.00000000000E+00  0.00000000000E+00 -0.45808247288E+02  0.15605201658E+04  0.15598476825E+04 0.  0.
        5    1    3    3  502    0  0.15405441051E+03 -0.20218969326E+03 -0.76054531694E+03  0.80191315151E+03  0.46999998093E+01 0. -1.
       -5    1    3    3    0  502 -0.15405441051E+03  0.20218969326E+03  0.71473706965E+03  0.75860701433E+03  0.46999998093E+01 0.  1.
</event>
<event>
 5   0  0.5425525E-04  0.1640386E+04  0.7818609E-02  0.8796114E-01
        1   -1    0    0  501    0  0.00000000000E+00  0.00000000000E+00  0.59242374270E+03  0.59242374272E+03  0.50400001928E-02 0.  1.
       -1   -1    0    0    0  501  0.00000000000E+00  0.00000000000E+00 -0.11355326454E+04  0.11355326454E+04  0.50400001928E-02 0. -1.
    10030    2    1    2    0    0  0.00000000000E+00  0.00000000000E+00 -0.54310890268E+03  0.17279563881E+04  0.16403859299E+04 0.  0.
        5    1    3    3  502    0 -0.43579843212E+03  0.47021594535E+03 -0.81040040068E+03  0.10333412835E+04  0.46999998093E+01 0. -1.
       -5    1    3    3    0  502  0.43579843212E+03 -0.47021594535E+03  0.26729149799E+03  0.69461510465E+03  0.46999998093E+01 0.  1.
</event>
<event>
 5   0  0.1030027E-03  0.1599498E+04  0.7818609E-02  0.8820856E-01
        2   -1    0    0  501    0  0.00000000000E+00  0.00000000000E+00  0.19959959422E+04  0.19959959422E+04  0.25500000920E-02 0. -1.
       -2   -1    0    0    0  501  0.00000000000E+00  0.00000000000E+00 -0.32044077954E+03  0.32044077955E+03  0.25500000920E-02 0.  1.
    10030    2    1    2    0    0  0.00000000000E+00  0.00000000000E+00  0.16755551626E+04  0.23164367217E+04  0.15994980409E+04 0.  0.
        1    1    3    3  502    0  0.14976174378E+03  0.52621549002E+03 -0.70085111543E+01  0.54715668788E+03  0.50400001928E-02 0.  1.
       -1    1    3    3    0  502 -0.14976174378E+03 -0.52621549002E+03  0.16825636738E+04  0.17692800339E+04  0.50400001928E-02 0. -1.
</event>
<event>
 5   0  0.5288658E-04  0.1632475E+04  0.7818609E-02  0.8800842E-01
        1   -1    0    0  501    0  0.00000000000E+00  0.00000000000E+00  0.15821446011E+04  0.15821446011E+04  0.50400001928E-02 0.  1.
       -1   -1    0    0    0  501  0.00000000000E+00  0.00000000000E+00 -0.42110141592E+03  0.42110141595E+03  0.50400001928E-02 0. -1.
    10030    2    1    2    0    0  0.00000000000E+00  0.00000000000E+00  0.11610431852E+04  0.20032460170E+04  0.16324746022E+04 0.  0.
        1    1    3    3  502    0  0.10796767924E+02  0.78148219725E+03  0.86938404071E+03  0.11690421742E+04  0.50400001928E-02 0.  1.
       -1    1    3    3    0  502 -0.10796767924E+02 -0.78148219725E+03  0.29165914444E+03  0.83420384283E+03  0.50400001928E-02 0. -1.
</event>
<event>
 5   0  0.1000121E-03  0.1612763E+04  0.7818609E-02  0.8812746E-01
        2   -1    0    0  501    0  0.00000000000E+00  0.00000000000E+00  0.80485939076E+03  0.80485939076E+03  0.25500000920E-02 0. -1.
       -2   -1    0    0    0  501  0.00000000000E+00  0.00000000000E+00 -0.80790612949E+03  0.80790612950E+03  0.25500000920E-02 0.  1.
    10030    2    1    2    0    0  0.00000000000E+00  0.00000000000E+00 -0.30467387358E+01  0.16127655203E+04  0.16127626424E+04 0.  0.
        4    1    3    3  502    0 -0.57812596019E+03  0.46464259879E+03  0.31490546807E+03  0.80578498197E+03  0.12699999809E+01 0. -1.
       -4    1    3    3    0  502  0.57812596019E+03 -0.46464259879E+03 -0.31795220681E+03  0.80698053828E+03  0.12699999809E+01 0.  1.
</event>
<event>
 5   0  0.9844690E-04  0.1410978E+04  0.7818609E-02  0.8945911E-01
        2   -1    0    0  501    0  0.00000000000E+00  0.00000000000E+00  0.89649233129E+03  0.89649233129E+03  0.25500000920E-02 0.  1.
       -2   -1    0    0    0  501  0.00000000000E+00  0.00000000000E+00 -0.55517978010E+03  0.55517978010E+03  0.25500000920E-02 0. -1.
    10030    2    1    2    0    0  0.00000000000E+00  0.00000000000E+00  0.34131255119E+03  0.14516721114E+04  0.14109775552E+04 0.  0.
        3    1    3    3  502    0 -0.51209765845E+03  0.26600555065E+03  0.58820802797E+03  0.82400950185E+03  0.10100000352E+00 0.  1.
       -3    1    3    3    0  502  0.51209765845E+03 -0.26600555065E+03 -0.24689547678E+03  0.62766260955E+03  0.10100000352E+00 0. -1.
</event>
<event>
 5   0  0.5623061E-04  0.1607468E+04  0.7818609E-02  0.8815973E-01
        1   -1    0    0  501    0  0.00000000000E+00  0.00000000000E+00  0.15785897417E+04  0.15785897417E+04  0.50400001928E-02 0.  1.
       -1   -1    0    0    0  501  0.00000000000E+00  0.00000000000E+00 -0.40921862028E+03  0.40921862032E+03  0.50400001928E-02 0. -1.
    10030    2    1    2    0    0  0.00000000000E+00  0.00000000000E+00  0.11693711214E+04  0.19878083620E+04  0.16074679669E+04 0.  0.
        3    1    3    3  502    0  0.81227782054E+02  0.45553529509E+02 -0.40252395815E+03  0.41315689964E+03  0.10100000352E+00 0. -1.
       -3    1    3    3    0  502 -0.81227782054E+02 -0.45553529509E+02  0.15718950795E+04  0.15746514623E+04  0.10100000352E+00 0.  1.
</event>
<event>
 5   0  0.5425525E-04  0.1601780E+04  0.7818609E-02  0.8819455E-01
        1   -1    0    0  501    0  0.00000000000E+00  0.00000000000E+00  0.17152149351E+04  0.17152149352E+04  0.50400001928E-02 0. -1.
       -1   -1    0    0    0  501  0.00000000000E+00  0.00000000000E+00 -0.37396195913E+03  0.37396195916E+03  0.50400001928E-02 0.  1.
    10030    2    1    2    0    0  0.00000000000E+00  0.00000000000E+00  0.13412529760E+04  0.20891768943E+04  0.16017804313E+04 0.  0.
        5    1    3    3  502    0  0.73657476098E+03  0.14126767515E+03  0.10369982990E+04  0.12797993971E+04  0.46999998093E+01 0.  1.
       -5    1    3    3    0  502 -0.73657476098E+03 -0.14126767515E+03  0.30425467697E+03  0.80937749723E+03  0.46999998093E+01 0. -1.
</event>
<event>
 5   0  0.3832500E-04  0.1621637E+04  0.7818609E-02  0.8807365E-01
        3   -1    0    0  501    0  0.00000000000E+00  0.00000000000E+00  0.96223749536E+03  0.96223750066E+03  0.10100000352E+00 0.  1.
       -3   -1    0    0    0  501  0.00000000000E+00  0.00000000000E+00 -0.68322732485E+03  0.68322733231E+03  0.10100000352E+00 0. -1.
    10030    2    1    2    0    0  0.00000000000E+00  0.00000000000E+00  0.27901017051E+03  0.16454648330E+04  0.16216373951E+04 0.  0.
        4    1    3    3  502    0  0.14739742461E+03 -0.42094294305E+03  0.82658546715E+03  0.93923591791E+03  0.12699999809E+01 0.  1.
       -4    1    3    3    0  502 -0.14739742461E+03  0.42094294305E+03 -0.54757529664E+03  0.70622891507E+03  0.12699999809E+01 0. -1.
</event>
<event>
 5   0  0.5281116E-04  0.1592101E+04  0.7818609E-02  0.8825415E-01
       -1   -1    0    0    0  501  0.00000000000E+00  0.00000000000E+00  0.88390933595E+03  0.88390933596E+03  0.50400001928E-02 0.  1.
        1   -1    0    0  501    0  0.00000000000E+00  0.00000000000E+00 -0.71692502823E+03  0.71692502825E+03  0.50400001928E-02 0. -1.
    10030    2    1    2    0    0  0.00000000000E+00  0.00000000000E+00  0.16698430772E+03  0.16008343642E+04  0.15921014109E+04 0.  0.
        2    1    3    3  502    0  0.35868002031E+03  0.22163228628E+03  0.76241767720E+03  0.87123644426E+03  0.25500000920E-02 0.  1.
       -2    1    3    3    0  502 -0.35868002031E+03 -0.22163228628E+03 -0.59543336949E+03  0.72959791995E+03  0.25500000920E-02 0. -1.
</event>
<event>
 5   0  0.9844690E-04  0.1609892E+04  0.7818609E-02  0.8814494E-01
       -2   -1    0    0    0  501  0.00000000000E+00  0.00000000000E+00  0.33389509788E+03  0.33389509789E+03  0.25500000920E-02 0. -1.
        2   -1    0    0  501    0  0.00000000000E+00  0.00000000000E+00 -0.19405431831E+04  0.19405431831E+04  0.25500000920E-02 0.  1.
    10030    2    1    2    0    0  0.00000000000E+00  0.00000000000E+00 -0.16066480852E+04  0.22744382810E+04  0.16098917430E+04 0.  0.
        3    1    3    3  502    0 -0.45213247521E+03  0.17829986252E+03  0.10320175762E+03  0.49685534021E+03  0.10100000352E+00 0. -1.
       -3    1    3    3    0  502  0.45213247521E+03 -0.17829986252E+03 -0.17098498428E+04  0.17775829408E+04  0.10100000352E+00 0.  1.
</event>
<event>
 5   0  0.1057872E-03  0.1570841E+04  0.7818609E-02  0.8838665E-01
        2   -1    0    0  501    0  0.00000000000E+00  0.00000000000E+00  0.45479220868E+03  0.45479220868E+03  0.25500000920E-02 0. -1.
       -2   -1    0    0    0  501  0.00000000000E+00  0.00000000000E+00 -0.13564108734E+04  0.13564108734E+04  0.25500000920E-02 0.  1.
    10030    2    1    2    0    0  0.00000000000E+00  0.00000000000E+00 -0.90161866468E+03  0.18112030820E+04  0.15708406628E+04 0.  0.
        2    1    3    3  502    0 -0.45407422288E+03 -0.63514804647E+03 -0.54924641747E+03  0.95460361822E+03  0.25500000920E-02 0.  1.
       -2    1    3    3    0  502  0.45407422288E+03  0.63514804647E+03 -0.35237224721E+03  0.85659946382E+03  0.25500000920E-02 0. -1.
</event>
<event>
 5   0  0.9844690E-04  0.1646535E+04  0.7818609E-02  0.8792459E-01
        2   -1    0    0  501    0  0.00000000000E+00  0.00000000000E+00  0.20989586221E+04  0.20989586221E+04  0.25500000920E-02 0. -1.
       -2   -1    0    0    0  501  0.00000000000E+00  0.00000000000E+00 -0.32290731317E+03  0.32290731318E+03  0.25500000920E-02 0.  1.
    10030    2    1    2    0    0  0.00000000000E+00  0.00000000000E+00  0.17760513089E+04  0.24218659352E+04  0.16465346508E+04 0.  0.
        3    1    3    3  502    0  0.47899095679E+03  0.15844563031E+03  0.18449295683E+04  0.19126689407E+04  0.10100000352E+00 0. -1.
       -3    1    3    3    0  502 -0.47899095679E+03 -0.15844563031E+03 -0.68878259398E+02  0.50919699456E+03  0.10100000352E+00 0.  1.
</event>
<event>
 5   0  0.1057872E-03  0.9981379E+03  0.7818609E-02  0.9310589E-01
        2   -1    0    0  501    0  0.00000000000E+00  0.00000000000E+00  0.62636170020E+03  0.62636170020E+03  0.25500000920E-02 0.  1.
       -2   -1    0    0    0  501  0.00000000000E+00  0.00000000000E+00 -0.39764537723E+03  0.39764537723E+03  0.25500000920E-02 0. -1.
    10030    2    1    2    0    0  0.00000000000E+00  0.00000000000E+00  0.22871632297E+03  0.10240070774E+04  0.99813793548E+03 0.  0.
        2    1    3    3  502    0  0.28867964567E+03  0.20170891970E+03 -0.24842719120E+03  0.43097389183E+03  0.25500000920E-02 0. -1.
       -2    1    3    3    0  502 -0.28867964567E+03 -0.20170891970E+03  0.47714351417E+03  0.59303318560E+03  0.25500000920E-02 0.  1.
</event>
<event>
 5   0  0.9844690E-04  0.1604457E+04  0.7818609E-02  0.8817815E-01
        2   -1    0    0  501    0  0.00000000000E+00  0.00000000000E+00  0.67310189967E+03  0.67310189967E+03  0.25500000920E-02 0.  1.
       -2   -1    0    0    0  501  0.00000000000E+00  0.00000000000E+00 -0.95612590889E+03  0.95612590889E+03  0.25500000920E-02 0. -1.
    10030    2    1    2    0    0  0.00000000000E+00  0.00000000000E+00 -0.28302400922E+03  0.16292278086E+04  0.16044565006E+04 0.  0.
        3    1    3    3  502    0  0.44827558680E+03 -0.62173555612E+03 -0.38194613009E+03  0.85638131691E+03  0.10100000352E+00 0.  1.
       -3    1    3    3    0  502 -0.44827558680E+03  0.62173555612E+03  0.98922120868E+02  0.77284649166E+03  0.10100000352E+00 0. -1.
</event>
<event>
 5   0  0.1037321E-03  0.1588322E+04  0.7818609E-02  0.8827755E-01
        2   -1    0    0  501    0  0.00000000000E+00  0.00000000000E+00  0.66137339852E+03  0.66137339852E+03  0.25500000920E-02 0. -1.
       -2   -1    0    0    0  501  0.00000000000E+00  0.00000000000E+00 -0.95360879432E+03  0.95360879432E+03  0.25500000920E-02 0.  1.
    10030    2    1    2    0    0  0.00000000000E+00  0.00000000000E+00 -0.29223539580E+03  0.16149821928E+04  0.15883217422E+04 0.  0.
        5    1    3    3  502    0  0.49629348087E+03 -0.39375439744E+03 -0.63302904611E+03  0.89559902182E+03  0.46999998093E+01 0.  1.
       -5    1    3    3    0  502 -0.49629348087E+03  0.39375439744E+03  0.34079365031E+03  0.71938317102E+03  0.46999998093E+01 0. -1.
</event>
<event>
 5   0  0.1000121E-03  0.1539058E+04  0.7818609E-02  0.8858888E-01
        2   -1    0    0  501    0  0.00000000000E+00  0.00000000000E+00  0.17148246740E+04  0.17148246740E+04  0.25500000920E-02 0.  1.
       -2   -1    0    0    0  501  0.00000000000E+00  0.00000000000E+00 -0.34532656035E+03  0.34532656036E+03  0.25500000920E-02 0. -1.
    10030    2    1    2    0    0  0.00000000000E+00  0.00000000000E+00  0.13694981136E+04  0.20601512344E+04  0.15390575120E+04 0.  0.
        4    1    3    3  502    0 -0.12689883620E+02 -0.65312295405E+03  0.14028716203E+03  0.66814124778E+03  0.12699999809E+01 0. -1.
       -4    1    3    3    0  502  0.12689883620E+02  0.65312295405E+03  0.12292109516E+04  0.13920099866E+04  0.12699999809E+01 0.  1.
</event>
<event>
 5   0  0.1000121E-03  0.1605180E+04  0.7818609E-02  0.8817372E-01
        2   -1    0    0  501    0  0.00000000000E+00  0.00000000000E+00  0.86750000302E+03  0.86750000302E+03  0.25500000920E-02 0. -1.
       -2   -1    0    0    0  501  0.00000000000E+00  0.00000000000E+00 -0.74253707307E+03  0.74253707307E+03  0.25500000920E-02 0.  1.
    10030    2    1    2    0    0  0.00000000000E+00  0.00000000000E+00  0.12496292995E+03  0.16100370761E+04  0.16051802555E+04 0.  0.
        4    1    3    3  502    0 -0.15002823631E+02 -0.41133489938E+03  0.75357114505E+03  0.85865742162E+03  0.12699999809E+01 0. -1.
       -4    1    3    3    0  502  0.15002823631E+02  0.41133489938E+03 -0.62860821510E+03  0.75137965447E+03  0.12699999809E+01 0.  1.
</event>
<event>
 5   0  0.5288658E-04  0.1586259E+04  0.7818609E-02  0.8829034E-01
       -1   -1    0    0    0  501  0.00000000000E+00  0.00000000000E+00  0.49481074005E+03  0.49481074008E+03  0.50400001928E-02 0. -1.
        1   -1    0    0  501    0  0.00000000000E+00  0.00000000000E+00 -0.12713036191E+04  0.12713036191E+04  0.50400001928E-02 0.  1.
    10030    2    1    2    0    0  0.00000000000E+00  0.00000000000E+00 -0.77649287908E+03  0.17661143592E+04  0.15862593541E+04 0.  0.
        1    1    3    3  502    0 -0.38801384451E+03 -0.69150029128E+03 -0.40838877530E+03  0.89191299362E+03  0.50400001928E-02 0.  1.
       -1    1    3    3    0  502  0.38801384451E+03  0.69150029128E+03 -0.36810410378E+03  0.87420136560E+03  0.50400001928E-02 0. -1.
</event>
<event>
 5   0  0.1057872E-03  0.1385705E+04  0.7818609E-02  0.8964232E-01
        2   -1    0    0  501    0  0.00000000000E+00  0.00000000000E+00  0.27152316604E+04  0.27152316604E+04  0.25500000920E-02 0.  1.
       -2   -1    0    0    0  501  0.00000000000E+00  0.00000000000E+00 -0.17679689727E+03  0.17679689729E+03  0.25500000920E-02 0. -1.
    10030    2    1    2    0    0  0.00000000000E+00  0.00000000000E+00  0.25384347631E+04  0.28920285577E+04  0.13857049224E+04 0.  0.
        2    1    3    3  502    0 -0.28146924201E+03 -0.88028631130E+02 -0.39262578311E+02  0.29751558641E+03  0.25500000920E-02 0. -1.
       -2    1    3    3    0  502  0.28146924201E+03  0.88028631130E+02  0.25776973414E+04  0.25945129712E+04  0.25500000920E-02 0.  1.
</event>
<event>
 5   0  0.5425525E-04  0.1586387E+04  0.7818609E-02  0.8828955E-01
       -1   -1    0    0    0  501  0.00000000000E+00  0.00000000000E+00  0.56838634129E+03  0.56838634131E+03  0.50400001928E-02 0. -1.
        1   -1    0    0  501    0  0.00000000000E+00  0.00000000000E+00 -0.11069157959E+04  0.11069157959E+04  0.50400001928E-02 0.  1.
    10030    2    1    2    0    0  0.00000000000E+00  0.00000000000E+00 -0.53852945459E+03  0.16753021372E+04  0.15863868625E+04 0.  0.
        5    1    3    3  502    0 -0.53275308129E+03  0.49816914669E+03 -0.59839874476E+03  0.94345190236E+03  0.46999998093E+01 0.  1.
       -5    1    3    3    0  502  0.53275308129E+03 -0.49816914669E+03  0.59869290169E+02  0.73185023484E+03  0.46999998093E+01 0. -1.
</event>
<event>
 5   0  0.5532881E-04  0.1567565E+04  0.7818609E-02  0.8840725E-01
        1   -1    0    0  501    0  0.00000000000E+00  0.00000000000E+00  0.12778262449E+04  0.12778262449E+04  0.50400001928E-02 0. -1.
       -1   -1    0    0    0  501  0.00000000000E+00  0.00000000000E+00 -0.48075017017E+03  0.48075017020E+03  0.50400001928E-02 0.  1.
    10030    2    1    2    0    0  0.00000000000E+00  0.00000000000E+00  0.79707607475E+03  0.17585764151E+04  0.15675652264E+04 0.  0.
        4    1    3    3  502    0  0.53491334833E+03  0.43836363679E+02  0.10393303746E+04  0.11697278134E+04  0.12699999809E+01 0. -1.
       -4    1    3    3    0  502 -0.53491334833E+03 -0.43836363679E+02 -0.24225429987E+03  0.58884860169E+03  0.12699999809E+01 0.  1.
</event>
<event>
 5   0  0.5425525E-04  0.1576613E+04  0.7818609E-02  0.8835046E-01
       -1   -1    0    0    0  501  0.00000000000E+00  0.00000000000E+00  0.14653414536E+04  0.14653414536E+04  0.50400001928E-02 0.  1.
        1   -1    0    0  501    0  0.00000000000E+00  0.00000000000E+00 -0.42408351823E+03  0.42408351826E+03  0.50400001928E-02 0. -1.
    10030    2    1    2    0    0  0.00000000000E+00  0.00000000000E+00  0.10412579354E+04  0.18894249719E+04  0.15766130268E+04 0.  0.
        5    1    3    3  502    0 -0.25725851198E+03  0.24012244474E+03  0.13659645763E+04  0.14105750757E+04  0.46999998093E+01 0.  1.
       -5    1    3    3    0  502  0.25725851198E+03 -0.24012244474E+03 -0.32470664090E+03  0.47884989620E+03  0.46999998093E+01 0. -1.
</event>
<event>
 5   0  0.1030027E-03  0.1620467E+04  0.7818609E-02  0.8808072E-01
       -2   -1    0    0    0  501  0.00000000000E+00  0.00000000000E+00  0.35483961014E+03  0.35483961015E+03  0.25500000920E-02 0. -1.
        2   -1    0    0  501    0  0.00000000000E+00  0.00000000000E+00 -0.18500701580E+04  0.18500701580E+04  0.25500000920E-02 0.  1.
    10030    2    1    2    0    0  0.00000000000E+00  0.00000000000E+00 -0.14952305479E+04  0.22049097682E+04  0.16204668138E+04 0.  0.
        1    1    3    3  502    0 -0.16849133656E+03 -0.37075597713E+03  0.20546003926E+03  0.45613940066E+03  0.50400001928E-02 0. -1.
       -1    1    3    3    0  502  0.16849133656E+03  0.37075597713E+03 -0.17006905872E+04  0.17487703675E+04  0.50400001928E-02 0.  1.
</event>
<event>
 5   0  0.9844690E-04  0.1569645E+04  0.7818609E-02  0.8839417E-01
        2   -1    0    0  501    0  0.00000000000E+00  0.00000000000E+00  0.16612304636E+04  0.16612304636E+04  0.25500000920E-02 0. -1.
       -2   -1    0    0    0  501  0.00000000000E+00  0.00000000000E+00 -0.37077700899E+03  0.37077700900E+03  0.25500000920E-02 0.  1.
    10030    2    1    2    0    0  0.00000000000E+00  0.00000000000E+00  0.12904534546E+04  0.20320074726E+04  0.15696446255E+04 0.  0.
        3    1    3    3  502    0  0.68189076104E+02 -0.65243147182E+03  0.12029868150E+04  0.13702167211E+04  0.10100000352E+00 0. -1.
       -3    1    3    3    0  502 -0.68189076104E+02  0.65243147182E+03  0.87466639605E+02  0.66179075150E+03  0.10100000352E+00 0.  1.
</event>
<event>
 5   0  0.1037321E-03  0.1597825E+04  0.7818609E-02  0.8821885E-01
        2   -1    0    0  501    0  0.00000000000E+00  0.00000000000E+00  0.58574931653E+03  0.58574931653E+03  0.25500000920E-02 0. -1.
       -2   -1    0    0    0  501  0.00000000000E+00  0.00000000000E+00 -0.10896489217E+04  0.10896489217E+04  0.25500000920E-02 0.  1.
    10030    2    1    2    0    0  0.00000000000E+00  0.00000000000E+00 -0.50389960517E+03  0.16753982382E+04  0.15978249105E+04 0.  0.
        5    1    3    3  502    0  0.17535505595E+03  0.39587103740E+03 -0.95594409440E+03  0.10494353127E+04  0.46999998093E+01 0.  1.
       -5    1    3    3    0  502 -0.17535505595E+03 -0.39587103740E+03  0.45204448924E+03  0.62596292554E+03  0.46999998093E+01 0. -1.
</event>
<event>
 5   0  0.5425525E-04  0.1620066E+04  0.7818609E-02  0.8808314E-01
       -1   -1    0    0    0  501  0.00000000000E+00  0.00000000000E+00  0.13924052302E+04  0.13924052302E+04  0.50400001928E-02 0. -1.
        1   -1    0    0  501    0  0.00000000000E+00  0.00000000000E+00 -0.47123770719E+03  0.47123770722E+03  0.50400001928E-02 0.  1.
    10030    2    1    2    0    0  0.00000000000E+00  0.00000000000E+00  0.92116752302E+03  0.18636429374E+04  0.16200664779E+04 0.  0.
        5    1    3    3  502    0 -0.12134376588E+03 -0.69839939541E+03  0.91149402858E+03  0.11546988695E+04  0.46999998093E+01 0. -1.
       -5    1    3    3    0  502  0.12134376588E+03  0.69839939541E+03  0.96734944436E+01  0.70894406797E+03  0.46999998093E+01 0.  1.
</event>
<event>
 5   0  0.9844690E-04  0.1575483E+04  0.7818609E-02  0.8835753E-01
       -2   -1    0    0    0  501  0.00000000000E+00  0.00000000000E+00  0.29493731384E+03  0.29493731385E+03  0.25500000920E-02 0.  1.
        2   -1    0    0  501    0  0.00000000000E+00  0.00000000000E+00 -0.21039606172E+04  0.21039606172E+04  0.25500000920E-02 0. -1.
    10030    2    1    2    0    0  0.00000000000E+00  0.00000000000E+00 -0.18090233034E+04  0.23988979311E+04  0.15754827741E+04 0.  0.
        3    1    3    3  502    0  0.65777223652E+03  0.29856030801E+03 -0.42606746853E+03  0.83865134031E+03  0.10100000352E+00 0.  1.
       -3    1    3    3    0  502 -0.65777223652E+03 -0.29856030801E+03 -0.13829558348E+04  0.15602465908E+04  0.10100000352E+00 0. -1.
</event>
<event>
 5   0  0.1000121E-03  0.1596186E+04  0.7818609E-02  0.8822894E-01
        2   -1    0    0  501    0  0.00000000000E+00  0.00000000000E+00  0.77273005996E+03  0.77273005996E+03  0.25500000920E-02 0. -1.
       -2   -1    0    0    0  501  0.00000000000E+00  0.00000000000E+00 -0.82428892220E+03  0.82428892220E+03  0.25500000920E-02 0.  1.
    10030    2    1    2    0    0  0.00000000000E+00  0.00000000000E+00 -0.51558862242E+02  0.15970189822E+04  0.15961864907E+04 0.  0.
        4    1    3    3  502    0 -0.74028737397E+03 -0.46334354698E+02  0.26895687417E+03  0.78899409475E+03  0.12699999809E+01 0. -1.
       -4    1    3    3    0  502  0.74028737397E+03  0.46334354698E+02 -0.32051573641E+03  0.80802488741E+03  0.12699999809E+01 0.  1.
</event>
<event>
 5   0  0.1037321E-03  0.1593118E+04  0.7818609E-02  0.8824787E-01
        2   -1    0    0  501    0  0.00000000000E+00  0.00000000000E+00  0.16058254697E+04  0.16058254697E+04  0.25500000920E-02 0.  1.
       -2   -1    0    0    0  501  0.00000000000E+00  0.00000000000E+00 -0.39512797910E+03  0.39512797911E+03  0.25500000920E-02 0. -1.
    10030    2    1    2    0    0  0.00000000000E+00  0.00000000000E+00  0.12106974906E+04  0.20009534488E+04  0.15931184170E+04 0.  0.
        5    1    3    3  502    0  0.64509982422E+03 -0.33795105861E+03  0.10106290983E+04  0.12456957757E+04  0.46999998093E+01 0. -1.
       -5    1    3    3    0  502 -0.64509982422E+03  0.33795105861E+03  0.20006839228E+03  0.75525767312E+03  0.46999998093E+01 0.  1.
</event>
<event>
 5   0  0.5425525E-04  0.1673394E+04  0.7818609E-02  0.8776686E-01
        1   -1    0    0  501    0  0.00000000000E+00  0.00000000000E+00  0.13649438670E+04  0.13649438670E+04  0.50400001928E-02 0. -1.
       -1   -1    0    0    0  501  0.00000000000E+00  0.00000000000E+00 -0.51288709936E+03  0.51288709938E+03  0.50400001928E-02 0.  1.
    10030    2    1    2    0    0  0.00000000000E+00  0.00000000000E+00  0.85205676767E+03  0.18778309664E+04  0.16733942760E+04 0.  0.
        5    1    3    3  502    0  0.73444912657E+03  0.29363320872E+03  0.11993323482E+03  0.80002628182E+03  0.46999998093E+01 0.  1.
       -5    1    3    3    0  502 -0.73444912657E+03 -0.29363320872E+03  0.73212353285E+03  0.10778046846E+04  0.46999998093E+01 0. -1.
</event>
<event>
 5   0  0.9844690E-04  0.1568434E+04  0.7818609E-02  0.8840178E-01
        2   -1    0    0  501    0  0.00000000000E+00  0.00000000000E+00  0.19756804615E+04  0.19756804615E+04  0.25500000920E-02 0. -1.
       -2   -1    0    0    0  501  0.00000000000E+00  0.00000000000E+00 -0.31128318628E+03  0.31128318629E+03  0.25500000920E-02 0.  1.
    10030    2    1    2    0    0  0.00000000000E+00  0.00000000000E+00  0.16643972752E+04  0.22869636478E+04  0.15684337527E+04 0.  0.
        3    1    3    3  502    0 -0.27356580268E+03 -0.22975025663E+03  0.18501421238E+04  0.18843166711E+04  0.10100000352E+00 0. -1.
       -3    1    3    3    0  502  0.27356580268E+03  0.22975025663E+03 -0.18574484857E+03  0.40264697662E+03  0.10100000352E+00 0.  1.
</event>
<event>
 5   0  0.1030027E-03  0.1607044E+04  0.7818609E-02  0.8816233E-01
       -2   -1    0    0    0  501  0.00000000000E+00  0.00000000000E+00  0.17419926085E+04  0.17419926085E+04  0.25500000920E-02 0.  1.
        2   -1    0    0  501    0  0.00000000000E+00  0.00000000000E+00 -0.37063720219E+03  0.37063720220E+03  0.25500000920E-02 0. -1.
    10030    2    1    2    0    0  0.00000000000E+00  0.00000000000E+00  0.13713554063E+04  0.21126298107E+04  0.16070435795E+04 0.  0.
        1    1    3    3  502    0  0.58110239587E+03  0.47895224374E+03  0.10541710999E+04  0.12955122362E+04  0.50400001928E-02 0. -1.
       -1    1    3    3    0  502 -0.58110239587E+03 -0.47895224374E+03  0.31718430640E+03  0.81711757448E+03  0.50400001928E-02 0.  1.
</event>
<event>
 5   0  0.1000121E-03  0.1621665E+04  0.7818609E-02  0.8807348E-01
       -2   -1    0    0    0  501  0.00000000000E+00  0.00000000000E+00  0.11544559448E+04  0.11544559448E+04  0.25500000920E-02 0. -1.
        2   -1    0    0  501    0  0.00000000000E+00  0.00000000000E+00 -0.56948877089E+03  0.56948877090E+03  0.25500000920E-02 0.  1.
    10030    2    1    2    0    0  0.00000000000E+00  0.00000000000E+00  0.58496717389E+03  0.17239447157E+04  0.16216654366E+04 0.  0.
        4    1    3    3  502    0  0.62364744811E+03  0.47142770245E+03  0.63817474414E+02  0.78438160427E+03  0.12699999809E+01 0.  1.
       -4    1    3    3    0  502 -0.62364744811E+03 -0.47142770245E+03  0.52114969948E+03  0.93956311142E+03  0.12699999809E+01 0. -1.
</event>
<event>
 5   0  0.1030027E-03  0.1493286E+04  0.7818609E-02  0.8888930E-01
       -2   -1    0    0    0  501  0.00000000000E+00  0.00000000000E+00  0.34501680994E+03  0.34501680995E+03  0.25500000920E-02 0. -1.
        2   -1    0    0  501    0  0.00000000000E+00  0.00000000000E+00 -0.16157927635E+04  0.16157927635E+04  0.25500000920E-02 0.  1.
    10030    2    1    2    0    0  0.00000000000E+00  0.00000000000E+00 -0.12707759536E+04  0.19608095735E+04  0.14932858598E+04 0.  0.
        1    1    3    3  502    0  0.69642992032E+03 -0.26330455929E+03 -0.56190524211E+03  0.93278155320E+03  0.50400001928E-02 0.  1.
       -1    1    3    3    0  502 -0.69642992032E+03  0.26330455929E+03 -0.70887071145E+03  0.10280280203E+04  0.50400001928E-02 0. -1.
</event>
<event>
 5   0  0.9844690E-04  0.1632038E+04  0.7818609E-02  0.8801104E-01
        2   -1    0    0  501    0  0.00000000000E+00  0.00000000000E+00  0.73950531374E+03  0.73950531375E+03  0.25500000920E-02 0. -1.
       -2   -1    0    0    0  501  0.00000000000E+00  0.00000000000E+00 -0.90044961272E+03  0.90044961273E+03  0.25500000920E-02 0.  1.
    10030    2    1    2    0    0  0.00000000000E+00  0.00000000000E+00 -0.16094429898E+03  0.16399549265E+04  0.16320383248E+04 0.  0.
        3    1    3    3  502    0  0.34423733145E+03  0.56023006383E+03  0.40512159447E+03  0.77232155303E+03  0.10100000352E+00 0. -1.
       -3    1    3    3    0  502 -0.34423733145E+03 -0.56023006383E+03 -0.56606589345E+03  0.86763337344E+03  0.10100000352E+00 0.  1.
</event>
<event>
 5   0  0.1057872E-03  0.1507030E+04  0.7818609E-02  0.8879791E-01
       -2   -1    0    0    0  501  0.00000000000E+00  0.00000000000E+00  0.49031694130E+03  0.49031694131E+03  0.25500000920E-02 0.  1.
        2   -1    0    0  501    0  0.00000000000E+00  0.00000000000E+00 -0.11579957434E+04  0.11579957434E+04  0.25500000920E-02 0. -1.
    10030    2    1    2    0    0  0.00000000000E+00  0.00000000000E+00 -0.66767880211E+03  0.16483126847E+04  0.15070301005E+04 0.  0.
        2    1    3    3  502    0 -0.11980761949E+03 -0.28959369887E+03  0.41565130580E+03  0.52056160455E+03  0.25500000920E-02 0.  1.
       -2    1    3    3    0  502  0.11980761949E+03  0.28959369887E+03 -0.10833301079E+04  0.11277510802E+04  0.25500000920E-02 0. -1.
</event>
<event>
 5   0  0.1030027E-03  0.1626155E+04  0.7818609E-02  0.8804639E-01
       -2   -1    0    0    0  501  0.00000000000E+00  0.00000000000E+00  0.15433159573E+04  0.15433159573E+04  0.25500000920E-02 0.  1.
        2   -1    0    0  501    0  0.00000000000E+00  0.00000000000E+00 -0.42836008161E+03  0.42836008162E+03  0.25500000920E-02 0. -1.
    10030    2    1    2    0    0  0.00000000000E+00  0.00000000000E+00  0.11149558757E+04  0.19716760390E+04  0.16261549120E+04 0.  0.
        1    1    3    3  502    0  0.10691684181E+03 -0.52158487272E+03  0.13025479573E+04  0.14071649411E+04  0.50400001928E-02 0.  1.
       -1    1    3    3    0  502 -0.10691684181E+03  0.52158487272E+03 -0.18759208153E+03  0.56451109785E+03  0.50400001928E-02 0. -1.
</event>
<event>
 5   0  0.1057872E-03  0.1076567E+04  0.7818609E-02  0.9228337E-01
        2   -1    0    0  501    0  0.00000000000E+00  0.00000000000E+00  0.12856444165E+04  0.12856444165E+04  0.25500000920E-02 0. -1.
       -2   -1    0    0    0  501  0.00000000000E+00  0.00000000000E+00 -0.22537275081E+03  0.22537275083E+03  0.25500000920E-02 0.  1.
    10030    2    1    2    0    0  0.00000000000E+00  0.00000000000E+00  0.10602716657E+04  0.15110171674E+04  0.10765671716E+04 0.  0.
        2    1    3    3  502    0 -0.12459748991E+03  0.11176371208E+02 -0.20468693488E+03  0.23988786355E+03  0.25500000920E-02 0.  1.
       -2    1    3    3    0  502  0.12459748991E+03 -0.11176371208E+02  0.12649586006E+04  0.12711293038E+04  0.25500000920E-02 0. -1.
</event>
<event>
 5   0  0.5288658E-04  0.1674729E+04  0.7818609E-02  0.8775910E-01
        1   -1    0    0  501    0  0.00000000000E+00  0.00000000000E+00  0.15261806453E+04  0.15261806453E+04  0.50400001928E-02 0.  1.
       -1   -1    0    0    0  501  0.00000000000E+00  0.00000000000E+00 -0.45943384595E+03  0.45943384597E+03  0.50400001928E-02 0. -1.
    10030    2    1    2    0    0  0.00000000000E+00  0.00000000000E+00  0.10667467994E+04  0.19856144913E+04  0.16747286867E+04 0.  0.
        1    1    3    3  502    0  0.43444975250E+03  0.11003541562E+02  0.13820016302E+04  0.14487222547E+04  0.50400001928E-02 0.  1.
       -1    1    3    3    0  502 -0.43444975250E+03 -0.11003541562E+02 -0.31525483081E+03  0.53689223662E+03  0.50400001928E-02 0. -1.
</event>
<event>
 5   0  0.5281116E-04  0.1610064E+04  0.7818609E-02  0.8814389E-01
        1   -1    0    0  501    0  0.00000000000E+00  0.00000000000E+00  0.84387891501E+03  0.84387891502E+03  0.50400001928E-02 0.  1.
       -1   -1    0    0    0  501  0.00000000000E+00  0.00000000000E+00 -0.76797354720E+03  0.76797354721E+03  0.50400001928E-02 0. -1.
    10030    2    1    2    0    0  0.00000000000E+00  0.00000000000E+00  0.75905367808E+02  0.16118524622E+04  0.16100642022E+04 0.  0.
        2    1    3    3  502    0  0.51614339113E+03  0.47346335977E+03  0.43526263751E+03  0.82463635433E+03  0.25500000920E-02 0.  1.
       -2    1    3    3    0  502 -0.51614339113E+03 -0.47346335977E+03 -0.35935726971E+03  0.78721610791E+03  0.25500000920E-02 0. -1.
</event>
<event>
 5   0  0.5532881E-04  0.1594664E+04  0.7818609E-02  0.8823833E-01
        1   -1    0    0  501    0  0.00000000000E+00  0.00000000000E+00  0.11171292888E+04  0.11171292888E+04  0.50400001928E-02 0. -1.
       -1   -1    0    0    0  501  0.00000000000E+00  0.00000000000E+00 -0.56908216950E+03  0.56908216952E+03  0.50400001928E-02 0.  1.
    10030    2    1    2    0    0  0.00000000000E+00  0.00000000000E+00  0.54804711933E+03  0.16862114584E+04  0.15946640515E+04 0.  0.
        4    1    3    3  502    0 -0.47224168441E+02 -0.31901253348E+03  0.10450895163E+04  0.10937151496E+04  0.12699999809E+01 0. -1.
       -4    1    3    3    0  502  0.47224168441E+02  0.31901253348E+03 -0.49704239694E+03  0.59249630873E+03  0.12699999809E+01 0.  1.
</event>
<event>
 5   0  0.5425525E-04  0.1665099E+04  0.7818609E-02  0.8781524E-01
        1   -1    0    0  501    0  0.00000000000E+00  0.00000000000E+00  0.11083147033E+04  0.11083147033E+04  0.50400001928E-02 0.  1.
       -1   -1    0    0    0  501  0.00000000000E+00  0.00000000000E+00 -0.62539847455E+03  0.62539847457E+03  0.50400001928E-02 0. -1.
    10030    2    1    2    0    0  0.00000000000E+00  0.00000000000E+00  0.48291622875E+03  0.17337131779E+04  0.16650985854E+04 0.  0.
        5    1    3    3  502    0 -0.33052249695E+02 -0.70203077921E+03  0.70614072596E+03  0.99629136352E+03  0.46999998093E+01 0.  1.
       -5    1    3    3    0  502  0.33052249695E+02  0.70203077921E+03 -0.22322449720E+03  0.73742181437E+03  0.46999998093E+01 0. -1.
</event>
<event>
 5   0  0.9844690E-04  0.1611027E+04  0.7818609E-02  0.8813802E-01
        2   -1    0    0  501    0  0.00000000000E+00  0.00000000000E+00  0.16363749485E+04  0.16363749485E+04  0.25500000920E-02 0. -1.
       -2   -1    0    0    0  501  0.00000000000E+00  0.00000000000E+00 -0.39651792080E+03  0.39651792081E+03  0.25500000920E-02 0.  1.
    10030    2    1    2    0    0  0.00000000000E+00  0.00000000000E+00  0.12398570277E+04  0.20328928693E+04  0.16110269920E+04 0.  0.
        3    1    3    3  502    0  0.49830042783E+03  0.59309079518E+03  0.34119712960E+03  0.84644875754E+03  0.10100000352E+00 0.  1.
       -3    1    3    3    0  502 -0.49830042783E+03 -0.59309079518E+03  0.89865989811E+03  0.11864441118E+04  0.10100000352E+00 0. -1.
</event>
<event>
 5   0  0.3832500E-04  0.1596518E+04  0.7818609E-02  0.8822690E-01
       -3   -1    0    0    0  501  0.00000000000E+00  0.00000000000E+00  0.98451022558E+03  0.98451023076E+03  0.10100000352E+00 0. -1.
        3   -1    0    0  501    0  0.00000000000E+00  0.00000000000E+00 -0.64724270271E+03  0.64724271059E+03  0.10100000352E+00 0.  1.
    10030    2    1    2    0    0  0.00000000000E+00  0.00000000000E+00  0.33726752287E+03  0.16317529413E+04  0.15965175475E+04 0.  0.
        1    1    3    3  502    0 -0.26443427343E+03  0.13690239888E+03  0.92562098177E+03  0.97233839464E+03  0.50400001928E-02 0. -1.
       -1    1    3    3    0  502  0.26443427343E+03 -0.13690239888E+03 -0.58835345890E+03  0.65941454670E+03  0.50400001928E-02 0.  1.
</event>
<event>
 5   0  0.9844690E-04  0.1411495E+04  0.7818609E-02  0.8945540E-01
        2   -1    0    0  501    0  0.00000000000E+00  0.00000000000E+00  0.99008351605E+03  0.99008351605E+03  0.25500000920E-02 0.  1.
       -2   -1    0    0    0  501  0.00000000000E+00  0.00000000000E+00 -0.50306789855E+03  0.50306789855E+03  0.25500000920E-02 0. -1.
    10030    2    1    2    0    0  0.00000000000E+00  0.00000000000E+00  0.48701561750E+03  0.14931514146E+04  0.14114945750E+04 0.  0.
        3    1    3    3  502    0  0.33467981825E+03 -0.52133286440E+03 -0.11410334738E+03  0.62993501278E+03  0.10100000352E+00 0. -1.
       -3    1    3    3    0  502 -0.33467981825E+03  0.52133286440E+03  0.60111896488E+03  0.86321640182E+03  0.10100000352E+00 0.  1.
</event>
<event>
 5   0  0.5623061E-04  0.1650950E+04  0.7818609E-02  0.8789845E-01
       -1   -1    0    0    0  501  0.00000000000E+00  0.00000000000E+00  0.38899675414E+03  0.38899675418E+03  0.50400001928E-02 0.  1.
        1   -1    0    0  501    0  0.00000000000E+00  0.00000000000E+00 -0.17517078267E+04  0.17517078267E+04  0.50400001928E-02 0. -1.
    10030    2    1    2    0    0  0.00000000000E+00  0.00000000000E+00 -0.13627110725E+04  0.21407045809E+04  0.16509496162E+04 0.  0.
        3    1    3    3  502    0 -0.26699355145E+03  0.77448034840E+03 -0.54973892245E+03  0.98656893303E+03  0.10100000352E+00 0.  1.
       -3    1    3    3    0  502  0.26699355145E+03 -0.77448034840E+03 -0.81297215007E+03  0.11541356478E+04  0.10100000352E+00 0. -1.
</event>
<event>
 5   0  0.5532881E-04  0.1595353E+04  0.7818609E-02  0.8823408E-01
       -1   -1    0    0    0  501  0.00000000000E+00  0.00000000000E+00  0.38528609173E+03  0.38528609176E+03  0.50400001928E-02 0. -1.
        1   -1    0    0  501    0  0.00000000000E+00  0.00000000000E+00 -0.16514692896E+04  0.16514692896E+04  0.50400001928E-02 0.  1.
    10030    2    1    2    0    0  0.00000000000E+00  0.00000000000E+00 -0.12661831979E+04  0.20367553814E+04  0.15953534383E+04 0.  0.
        4    1    3    3  502    0  0.44068289676E+03 -0.65000871082E+03 -0.45447595841E+03  0.90733827722E+03  0.12699999809E+01 0. -1.
       -4    1    3    3    0  502 -0.44068289676E+03  0.65000871082E+03 -0.81170723947E+03  0.11294171041E+04  0.12699999809E+01 0.  1.
</event>
<event>
 5   0  0.5425525E-04  0.1589642E+04  0.7818609E-02  0.8826937E-01
        1   -1    0    0  501    0  0.00000000000E+00  0.00000000000E+00  0.63256917281E+03  0.63256917283E+03  0.50400001928E-02 0.  1.
       -1   -1    0    0    0  501  0.00000000000E+00  0.00000000000E+00 -0.99869008726E+03  0.99869008727E+03  0.50400001928E-02 0. -1.
    10030    2    1    2    0    0  0.00000000000E+00  0.00000000000E+00 -0.36612091445E+03  0.16312592601E+04  0.15896421766E+04 0.  0.
        5    1    3    3  502    0  0.72511967091E+03 -0.25642519467E+03 -0.38872205303E+03  0.86178845555E+03  0.46999998093E+01 0. -1.
       -5    1    3    3    0  502 -0.72511967091E+03  0.25642519467E+03  0.22601138586E+02  0.76947080456E+03  0.46999998093E+01 0.  1.
</event>
<event>
 5   0  0.1000121E-03  0.1509759E+04  0.7818609E-02  0.8877989E-01
        2   -1    0    0  501    0  0.00000000000E+00  0.00000000000E+00  0.55410884885E+03  0.55410884886E+03  0.25500000920E-02 0.  1.
       -2   -1    0    0    0  501  0.00000000000E+00  0.00000000000E+00 -0.10283956892E+04  0.10283956892E+04  0.25500000920E-02 0. -1.
    10030    2    1    2    0    0  0.00000000000E+00  0.00000000000E+00 -0.47428684035E+03  0.15825045381E+04  0.15097591219E+04 0.  0.
        4    1    3    3  502    0  0.33296718572E+03 -0.67746833877E+03 -0.23366038801E+03  0.79020838177E+03  0.12699999809E+01 0.  1.
       -4    1    3    3    0  502 -0.33296718572E+03  0.67746833877E+03 -0.24062645234E+03  0.79229615629E+03  0.12699999809E+01 0. -1.
</event>
<event>
 5   0  0.1000121E-03  0.1588561E+04  0.7818609E-02  0.8827606E-01
       -2   -1    0    0    0  501  0.00000000000E+00  0.00000000000E+00  0.52224171361E+03  0.52224171361E+03  0.25500000920E-02 0. -1.
        2   -1    0    0  501    0  0.00000000000E+00  0.00000000000E+00 -0.12080260848E+04  0.12080260848E+04  0.25500000920E-02 0.  1.
    10030    2    1    2    0    0  0.00000000000E+00  0.00000000000E+00 -0.68578437119E+03  0.17302677984E+04  0.15885611258E+04 0.  0.
        4    1    3    3  502    0 -0.14800317711E+03 -0.43307700311E+03  0.36418470071E+03  0.58488694650E+03  0.12699999809E+01 0. -1.
       -4    1    3    3    0  502  0.14800317711E+03  0.43307700311E+03 -0.10499690719E+04  0.11453808519E+04  0.12699999809E+01 0.  1.
</event>
<event>
 5   0  0.9844690E-04  0.1613518E+04  0.7818609E-02  0.8812286E-01
       -2   -1    0    0    0  501  0.00000000000E+00  0.00000000000E+00  0.32446785081E+03  0.32446785082E+03  0.25500000920E-02 0.  1.
        2   -1    0    0  501    0  0.00000000000E+00  0.00000000000E+00 -0.20059314267E+04  0.20059314267E+04  0.25500000920E-02 0. -1.
    10030    2    1    2    0    0  0.00000000000E+00  0.00000000000E+00 -0.16814635759E+04  0.23303992775E+04  0.16135182167E+04 0.  0.
        3    1    3    3  502    0  0.12777170551E+03 -0.13688945480E+03 -0.19741100183E+04  0.19829711814E+04  0.10100000352E+00 0. -1.
       -3    1    3    3    0  502 -0.12777170551E+03  0.13688945480E+03  0.29264644240E+03  0.34742809618E+03  0.10100000352E+00 0.  1.
</event>
<event>
 5   0  0.5288658E-04  0.1702956E+04  0.7818609E-02  0.8759680E-01
       -1   -1    0    0    0  501  0.00000000000E+00  0.00000000000E+00  0.13460066240E+04  0.13460066240E+04  0.50400001928E-02 0. -1.
        1   -1    0    0  501    0  0.00000000000E+00  0.00000000000E+00 -0.53864147174E+03  0.53864147176E+03  0.50400001928E-02 0.  1.
    10030    2    1    2    0    0  0.00000000000E+00  0.00000000000E+00  0.80736515227E+03  0.18846480958E+04  0.17029562401E+04 0.  0.
        1    1    3    3  502    0 -0.46639338213E+03 -0.31978358931E+03  0.11081775988E+04  0.12441229527E+04  0.50400001928E-02 0. -1.
       -1    1    3    3    0  502  0.46639338213E+03  0.31978358931E+03 -0.30081244656E+03  0.64052514308E+03  0.50400001928E-02 0.  1.
</event>
<event>
 5   0  0.1000121E-03  0.1608331E+04  0.7818609E-02  0.8815446E-01
       -2   -1    0    0    0  501  0.00000000000E+00  0.00000000000E+00  0.84282915788E+03  0.84282915788E+03  0.25500000920E-02 0.  1.
        2   -1    0    0  501    0  0.00000000000E+00  0.00000000000E+00 -0.76727569624E+03  0.76727569625E+03  0.25500000920E-02 0. -1.
    10030    2    1    2    0    0  0.00000000000E+00  0.00000000000E+00  0.75553461636E+02  0.16101048541E+04  0.16083312208E+04 0.  0.
        4    1    3    3  502    0  0.44076125443E+03  0.45150171672E+03  0.53688086841E+03  0.82847266905E+03  0.12699999809E+01 0.  1.
       -4    1    3    3    0  502 -0.44076125443E+03 -0.45150171672E+03 -0.46132740677E+03  0.78163218507E+03  0.12699999809E+01 0. -1.
</event>
<event>
 5   0  0.5532881E-04  0.1657567E+04  0.7818609E-02  0.8785943E-01
        1   -1    0    0  501    0  0.00000000000E+00  0.00000000000E+00  0.10408438045E+04  0.10408438045E+04  0.50400001928E-02 0.  1.
       -1   -1    0    0    0  501  0.00000000000E+00  0.00000000000E+00 -0.65992788358E+03  0.65992788360E+03  0.50400001928E-02 0. -1.
    10030    2    1    2    0    0  0.00000000000E+00  0.00000000000E+00  0.38091592095E+03  0.17007716881E+04  0.16575667095E+04 0.  0.
        4    1    3    3  502    0  0.37367652216E+03  0.45079464476E+03  0.79228727391E+03  0.98517546268E+03  0.12699999809E+01 0.  1.
       -4    1    3    3    0  502 -0.37367652216E+03 -0.45079464476E+03 -0.41137135296E+03  0.71559622546E+03  0.12699999809E+01 0. -1.
</event>
<event>
 5   0  0.1030027E-03  0.1602196E+04  0.7818609E-02  0.8819200E-01
       -2   -1    0    0    0  501  0.00000000000E+00  0.00000000000E+00  0.38147198669E+03  0.38147198670E+03  0.25500000920E-02 0.  1.
        2   -1    0    0  501    0  0.00000000000E+00  0.00000000000E+00 -0.16823208775E+04  0.16823208775E+04  0.25500000920E-02 0. -1.
    10030    2    1    2    0    0  0.00000000000E+00  0.00000000000E+00 -0.13008488908E+04  0.20637928642E+04  0.16021963518E+04 0.  0.
        1    1    3    3  502    0 -0.11470761084E+03  0.33958742585E+03  0.27241870038E+03  0.45021039984E+03  0.50400001928E-02 0.  1.
       -1    1    3    3    0  502  0.11470761084E+03 -0.33958742585E+03 -0.15732675912E+04  0.16135824643E+04  0.50400001928E-02 0. -1.
</event>
<event>
 5   0  0.1037321E-03  0.1587942E+04  0.7818609E-02  0.8827990E-01
        2   -1    0    0  501    0  0.00000000000E+00  0.00000000000E+00  0.11134169693E+04  0.11134169693E+04  0.25500000920E-02 0. -1.
       -2   -1    0    0    0  501  0.00000000000E+00  0.00000000000E+00 -0.56617600177E+03  0.56617600177E+03  0.25500000920E-02 0.  1.
    10030    2    1    2    0    0  0.00000000000E+00  0.00000000000E+00  0.54724096749E+03  0.16795929710E+04  0.15879420241E+04 0.  0.
        5    1    3    3  502    0  0.60174041697E+03 -0.51250109154E+03  0.19433418608E+03  0.81396361351E+03  0.46999998093E+01 0. -1.
       -5    1    3    3    0  502 -0.60174041697E+03  0.51250109154E+03  0.35290678140E+03  0.86562935752E+03  0.46999998093E+01 0.  1.
</event>
<event>
 5   0  0.5532881E-04  0.1600587E+04  0.7818609E-02  0.8820188E-01
       -1   -1    0    0    0  501  0.00000000000E+00  0.00000000000E+00  0.55363590744E+03  0.55363590747E+03  0.50400001928E-02 0.  1.
        1   -1    0    0  501    0  0.00000000000E+00  0.00000000000E+00 -0.11568422982E+04  0.11568422982E+04  0.50400001928E-02 0. -1.
    10030    2    1    2    0    0  0.00000000000E+00  0.00000000000E+00 -0.60320639073E+03  0.17104782057E+04  0.16005866869E+04 0.  0.
        4    1    3    3  502    0  0.12913170409E+03 -0.68386726436E+03 -0.72384903301E+03  0.10041456407E+04  0.12699999809E+01 0. -1.
       -4    1    3    3    0  502 -0.12913170409E+03  0.68386726436E+03  0.12064264228E+03  0.70633256494E+03  0.12699999809E+01 0.  1.
</event>
<event>
 5   0  0.5288658E-04  0.1595576E+04  0.7818609E-02  0.8823270E-01
       -1   -1    0    0    0  501  0.00000000000E+00  0.00000000000E+00  0.63610627634E+03  0.63610627636E+03  0.50400001928E-02 0. -1.
        1   -1    0    0  501    0  0.00000000000E+00  0.00000000000E+00 -0.10005654121E+04  0.10005654121E+04  0.50400001928E-02 0.  1.
    10030    2    1    2    0    0  0.00000000000E+00  0.00000000000E+00 -0.36445913573E+03  0.16366716884E+04  0.15955763078E+04 0.  0.
        1    1    3    3  502    0 -0.47077961565E+03 -0.60436318985E+03  0.46165571807E+02  0.76747610504E+03  0.50400001928E-02 0. -1.
       -1    1    3    3    0  502  0.47077961565E+03  0.60436318985E+03 -0.41062470754E+03  0.86919558341E+03  0.50400001928E-02 0.  1.
</event>
<event>
 5   0  0.5532881E-04  0.1616607E+04  0.7818609E-02  0.8810410E-01
        1   -1    0    0  501    0  0.00000000000E+00  0.00000000000E+00  0.48422573026E+03  0.48422573029E+03  0.50400001928E-02 0.  1.
       -1   -1    0    0    0  501  0.00000000000E+00  0.00000000000E+00 -0.13492760118E+04  0.13492760118E+04  0.50400001928E-02 0. -1.
    10030    2    1    2    0    0  0.00000000000E+00  0.00000000000E+00 -0.86505028149E+03  0.18335017421E+04  0.16166065225E+04 0.  0.
        4    1    3    3  502    0  0.10281953319E+03 -0.79528363847E+03 -0.31739391109E+03  0.86243169568E+03  0.12699999809E+01 0. -1.
       -4    1    3    3    0  502 -0.10281953319E+03  0.79528363847E+03 -0.54765637039E+03  0.97107004637E+03  0.12699999809E+01 0.  1.
</event>
<event>
 5   0  0.1000121E-03  0.1614765E+04  0.7818609E-02  0.8811528E-01
        2   -1    0    0  501    0  0.00000000000E+00  0.00000000000E+00  0.16120339194E+04  0.16120339194E+04  0.25500000920E-02 0.  1.
       -2   -1    0    0    0  501  0.00000000000E+00  0.00000000000E+00 -0.40437541270E+03  0.40437541270E+03  0.25500000920E-02 0. -1.
    10030    2    1    2    0    0  0.00000000000E+00  0.00000000000E+00  0.12076585067E+04  0.20164093321E+04  0.16147654708E+04 0.  0.
        4    1    3    3  502    0 -0.18834572550E+03 -0.49990293645E+03 -0.15213149926E+03  0.55544816513E+03  0.12699999809E+01 0. -1.
       -4    1    3    3    0  502  0.18834572550E+03  0.49990293645E+03  0.13597900060E+04  0.14609611670E+04  0.12699999809E+01 0.  1.
</event>
<event>
 5   0  0.5288658E-04  0.1615300E+04  0.7818609E-02  0.8811204E-01
       -1   -1    0    0    0  501  0.00000000000E+00  0.00000000000E+00  0.83176533847E+03  0.83176533848E+03  0.50400001928E-02 0. -1.
        1   -1    0    0  501    0  0.00000000000E+00  0.00000000000E+00 -0.78423355913E+03  0.78423355915E+03  0.50400001928E-02 0.  1.
    10030    2    1    2    0    0  0.00000000000E+00  0.00000000000E+00  0.47531779331E+02  0.16159988976E+04  0.16152997143E+04 0.  0.
        1    1    3    3  502    0  0.75677408550E+03 -0.18166511997E+03 -0.19217252836E+03  0.80164799818E+03  0.50400001928E-02 0.  1.
       -1    1    3    3    0  502 -0.75677408550E+03  0.18166511997E+03  0.23970430769E+03  0.81435089946E+03  0.50400001928E-02 0. -1.
</event>
<event>
 5   0  0.1030027E-03  0.1466212E+04  0.7818609E-02  0.8907238E-01
        2   -1    0    0  501    0  0.00000000000E+00  0.00000000000E+00  0.12339200087E+04  0.12339200087E+04  0.25500000920E-02 0. -1.
       -2   -1    0    0    0  501  0.00000000000E+00  0.00000000000E+00 -0.43555854783E+03  0.43555854784E+03  0.25500000920E-02 0.  1.
    10030    2    1    2    0    0  0.00000000000E+00  0.00000000000E+00  0.79836146090E+03  0.16694785566E+04  0.14662119999E+04 0.  0.
        1    1    3    3  502    0  0.67676697374E+03  0.35788426533E+02  0.80871868060E+02  0.68252077425E+03  0.50400001928E-02 0.  1.
       -1    1    3    3    0  502 -0.67676697374E+03 -0.35788426533E+02  0.71748959284E+03  0.98695778232E+03  0.50400001928E-02 0. -1.
</event>
<event>
 5   0  0.3832500E-04  0.1669062E+04  0.7818609E-02  0.8779209E-01
        3   -1    0    0  501    0  0.00000000000E+00  0.00000000000E+00  0.70276463807E+03  0.70276464533E+03  0.10100000352E+00 0. -1.
       -3   -1    0    0    0  501  0.00000000000E+00  0.00000000000E+00 -0.99100267224E+03  0.99100267738E+03  0.10100000352E+00 0.  1.
    10030    2    1    2    0    0  0.00000000000E+00  0.00000000000E+00 -0.28823803417E+03  0.16937673227E+04  0.16690615864E+04 0.  0.
        4    1    3    3  502    0  0.26726327326E+03  0.63685801547E+03  0.33123997420E+03  0.76598911384E+03  0.12699999809E+01 0. -1.
       -4    1    3    3    0  502 -0.26726327326E+03 -0.63685801547E+03 -0.61947800837E+03  0.92777820887E+03  0.12699999809E+01 0.  1.
</event>
<event>
 5   0  0.5425525E-04  0.1035919E+04  0.7818609E-02  0.9270004E-01
        1   -1    0    0  501    0  0.00000000000E+00  0.00000000000E+00  0.15540062187E+04  0.15540062187E+04  0.50400001928E-02 0. -1.
       -1   -1    0    0    0  501  0.00000000000E+00  0.00000000000E+00 -0.17263903369E+03  0.17263903376E+03  0.50400001928E-02 0.  1.
    10030    2    1    2    0    0  0.00000000000E+00  0.00000000000E+00  0.13813671850E+04  0.17266452525E+04  0.10359191706E+04 0.  0.
        5    1    3    3  502    0 -0.24928199205E+00 -0.18391944395E+03 -0.11634178887E+03  0.21767849191E+03  0.46999998093E+01 0.  1.
       -5    1    3    3    0  502  0.24928199205E+00  0.18391944395E+03  0.14977089739E+04  0.15089667605E+04  0.46999998093E+01 0. -1.
</event>
<event>
 5   0  0.9844690E-04  0.1467362E+04  0.7818609E-02  0.8906452E-01
        2   -1    0    0  501    0  0.00000000000E+00  0.00000000000E+00  0.12361454449E+04  0.12361454449E+04  0.25500000920E-02 0.  1.
       -2   -1    0    0    0  501  0.00000000000E+00  0.00000000000E+00 -0.43545647628E+03  0.43545647629E+03  0.25500000920E-02 0. -1.
    10030    2    1    2    0    0  0.00000000000E+00  0.00000000000E+00  0.80068896859E+03  0.16716019212E+04  0.14673616318E+04 0.  0.
        3    1    3    3  502    0 -0.45160846342E+03  0.26337361388E+03 -0.18605748437E+03  0.55491734737E+03  0.10100000352E+00 0. -1.
       -3    1    3    3    0  502  0.45160846342E+03 -0.26337361388E+03  0.98674645296E+03  0.11166845738E+04  0.10100000352E+00 0.  1.
</event>
<event>
 5   0  0.5288658E-04  0.1626678E+04  0.7818609E-02  0.8804325E-01
        1   -1    0    0  501    0  0.00000000000E+00  0.00000000000E+00  0.11116566961E+04  0.11116566961E+04  0.50400001928E-02 0. -1.
       -1   -1    0    0    0  501  0.00000000000E+00  0.00000000000E+00 -0.59507576132E+03  0.59507576134E+03  0.50400001928E-02 0.  1.
    10030    2    1    2    0    0  0.00000000000E+00  0.00000000000E+00  0.51658093474E+03  0.17067324574E+04  0.16266775400E+04 0.  0.
        1    1    3    3  502    0  0.65597916280E+03  0.26830455130E+03  0.67695694488E+03  0.98008504709E+03  0.50400001928E-02 0. -1.
       -1    1    3    3    0  502 -0.65597916280E+03 -0.26830455130E+03 -0.16037601014E+03  0.72664741033E+03  0.50400001928E-02 0.  1.
</event>
<event>
 5   0  0.5425525E-04  0.1578646E+04  0.7818609E-02  0.8833775E-01
       -1   -1    0    0    0  501  0.00000000000E+00  0.00000000000E+00  0.29001052235E+03  0.29001052239E+03  0.50400001928E-02 0. -1.
        1   -1    0    0  501    0  0.00000000000E+00  0.00000000000E+00 -0.21483039753E+04  0.21483039753E+04  0.50400001928E-02 0.  1.
    10030    2    1    2    0    0  0.00000000000E+00  0.00000000000E+00 -0.18582934529E+04  0.24383144977E+04  0.15786459490E+04 0.  0.
        5    1    3    3  502    0 -0.30327045274E+02 -0.35290533019E+03 -0.20186334327E+04  0.20494791844E+04  0.46999998093E+01 0.  1.
       -5    1    3    3    0  502  0.30327045274E+02  0.35290533019E+03  0.16033997975E+03  0.38883531329E+03  0.46999998093E+01 0. -1.
</event>
<event>
 5   0  0.3832500E-04  0.1618458E+04  0.7818609E-02  0.8809288E-01
        3   -1    0    0  501    0  0.00000000000E+00  0.00000000000E+00  0.80287379209E+03  0.80287379845E+03  0.10100000352E+00 0.  1.
       -3   -1    0    0    0  501  0.00000000000E+00  0.00000000000E+00 -0.81563456495E+03  0.81563457120E+03  0.10100000352E+00 0. -1.
    10030    2    1    2    0    0  0.00000000000E+00  0.00000000000E+00 -0.12760772852E+02  0.16185083696E+04  0.16184580641E+04 0.  0.
        3    1    3    3  502    0 -0.57391115509E+02  0.11527299124E+03 -0.80532324546E+03  0.81555327387E+03  0.10100000352E+00 0. -1.
       -3    1    3    3    0  502  0.57391115509E+02 -0.11527299124E+03  0.79256247260E+03  0.80295509578E+03  0.10100000352E+00 0.  1.
</event>
<event>
 5   0  0.1037321E-03  0.1646804E+04  0.7818609E-02  0.8792300E-01
        2   -1    0    0  501    0  0.00000000000E+00  0.00000000000E+00  0.25204531815E+04  0.25204531815E+04  0.25500000920E-02 0.  1.
       -2   -1    0    0    0  501  0.00000000000E+00  0.00000000000E+00 -0.26899549012E+03  0.26899549013E+03  0.25500000920E-02 0. -1.
    10030    2    1    2    0    0  0.00000000000E+00  0.00000000000E+00  0.22514576914E+04  0.27894486716E+04  0.16468036178E+04 0.  0.
        5    1    3    3  502    0 -0.68285983128E+03  0.31115504021E+03  0.55168037146E+03  0.93139053596E+03  0.46999998093E+01 0. -1.
       -5    1    3    3    0  502  0.68285983128E+03 -0.31115504021E+03  0.16997773199E+04  0.18580581357E+04  0.46999998093E+01 0.  1.
</event>
<event>
 5   0  0.5288658E-04  0.1588677E+04  0.7818609E-02  0.8827535E-01
       -1   -1    0    0    0  501  0.00000000000E+00  0.00000000000E+00  0.45044791208E+03  0.45044791211E+03  0.50400001928E-02 0.  1.
        1   -1    0    0  501    0  0.00000000000E+00  0.00000000000E+00 -0.14007692701E+04  0.14007692701E+04  0.50400001928E-02 0. -1.
    10030    2    1    2    0    0  0.00000000000E+00  0.00000000000E+00 -0.95032135804E+03  0.18512171822E+04  0.15886769251E+04 0.  0.
        1    1    3    3  502    0 -0.22001528692E+03 -0.52841385842E+03  0.16662597019E+03  0.59614775535E+03  0.50400001928E-02 0.  1.
       -1    1    3    3    0  502  0.22001528692E+03  0.52841385842E+03 -0.11169473282E+04  0.12550694269E+04  0.50400001928E-02 0. -1.
</event>
<event>
 5   0  0.5425525E-04  0.1556887E+04  0.7818609E-02  0.8847481E-01
       -1   -1    0    0    0  501  0.00000000000E+00  0.00000000000E+00  0.45877828550E+03  0.45877828553E+03  0.50400001928E-02 0. -1.
        1   -1    0    0  501    0  0.00000000000E+00  0.00000000000E+00 -0.13208432323E+04  0.13208432324E+04  0.50400001928E-02 0.  1.
    10030    2    1    2    0    0  0.00000000000E+00  0.00000000000E+00 -0.86206494684E+03  0.17796215179E+04  0.15568868855E+04 0.  0.
        5    1    3    3  502    0  0.59691059879E+03  0.49928850994E+03 -0.45274541074E+03  0.90032870445E+03  0.46999998093E+01 0.  1.
       -5    1    3    3    0  502 -0.59691059879E+03 -0.49928850994E+03 -0.40931953610E+03  0.87929281343E+03  0.46999998093E+01 0. -1.
</event>
<event>
 5   0  0.5623061E-04  0.1556356E+04  0.7818609E-02  0.8847818E-01
        1   -1    0    0  501    0  0.00000000000E+00  0.00000000000E+00  0.20051569064E+04  0.20051569064E+04  0.50400001928E-02 0.  1.
       -1   -1    0    0    0  501  0.00000000000E+00  0.00000000000E+00 -0.30200165458E+03  0.30200165462E+03  0.50400001928E-02 0. -1.
    10030    2    1    2    0    0  0.00000000000E+00  0.00000000000E+00  0.17031552518E+04  0.23071585610E+04  0.15563556194E+04 0.  0.
        3    1    3    3  502    0 -0.11437829560E+03 -0.24052026274E+02 -0.28891557570E+03  0.31166185932E+03  0.10100000352E+00 0. -1.
       -3    1    3    3    0  502  0.11437829560E+03  0.24052026274E+02  0.19920708275E+04  0.19954967017E+04  0.10100000352E+00 0.  1.
</event>
<event>
 5   0  0.1000121E-03  0.1596846E+04  0.7818609E-02  0.8822488E-01
       -2   -1    0    0    0  501  0.00000000000E+00  0.00000000000E+00  0.83588798878E+03  0.83588798878E+03  0.25500000920E-02 0. -1.
        2   -1    0    0  501    0  0.00000000000E+00  0.00000000000E+00 -0.76263736628E+03  0.76263736629E+03  0.25500000920E-02 0.  1.
    10030    2    1    2    0    0  0.00000000000E+00  0.00000000000E+00  0.73250622496E+02  0.15985253551E+04  0.15968461595E+04 0.  0.
        4    1    3    3  502    0  0.17486014907E+03 -0.41914944950E+03 -0.62073520779E+03  0.76913987274E+03  0.12699999809E+01 0.  1.
       -4    1    3    3    0  502 -0.17486014907E+03  0.41914944950E+03  0.69398583029E+03  0.82938548233E+03  0.12699999809E+01 0. -1.
</event>
<event>
 5   0  0.5281116E-04  0.1559834E+04  0.7818609E-02  0.8845611E-01
        1   -1    0    0  501    0  0.00000000000E+00  0.00000000000E+00  0.77099643311E+03  0.77099643313E+03  0.50400001928E-02 0.  1.
       -1   -1    0    0    0  501  0.00000000000E+00  0.00000000000E+00 -0.78894069263E+03  0.78894069264E+03  0.50400001928E-02 0. -1.
    10030    2    1    2    0    0  0.00000000000E+00  0.00000000000E+00 -0.17944259520E+02  0.15599371258E+04  0.15598339142E+04 0.  0.
        2    1    3    3  502    0  0.35566601064E+03  0.23803782913E+03 -0.66101998095E+03  0.78746919587E+03  0.25500000920E-02 0. -1.
       -2    1    3    3    0  502 -0.35566601064E+03 -0.23803782913E+03  0.64307572143E+03  0.77246792990E+03  0.25500000920E-02 0.  1.
</event>
<event>
 5   0  0.3832500E-04  0.1583872E+04  0.7818609E-02  0.8830517E-01
       -3   -1    0    0    0  501  0.00000000000E+00  0.00000000000E+00  0.82930607783E+03  0.82930608398E+03  0.10100000352E+00 0.  1.
        3   -1    0    0  501    0  0.00000000000E+00  0.00000000000E+00 -0.75625032453E+03  0.75625033127E+03  0.10100000352E+00 0. -1.
    10030    2    1    2    0    0  0.00000000000E+00  0.00000000000E+00  0.73055753298E+02  0.15855564152E+04  0.15838724705E+04 0.  0.
        2    1    3    3  502    0 -0.47608891075E+03 -0.25431344338E+03  0.61664984003E+03  0.81950778131E+03  0.25500000920E-02 0.  1.
       -2    1    3    3    0  502  0.47608891075E+03  0.25431344338E+03 -0.54359408673E+03  0.76604863394E+03  0.25500000920E-02 0. -1.
</event>
<event>
 5   0  0.1030027E-03  0.1599829E+04  0.7818609E-02  0.8820653E-01
        2   -1    0    0  501    0  0.00000000000E+00  0.00000000000E+00  0.13431809799E+04  0.13431809799E+04  0.25500000920E-02 0.  1.
       -2   -1    0    0    0  501  0.00000000000E+00  0.00000000000E+00 -0.47637899059E+03  0.47637899060E+03  0.25500000920E-02 0. -1.
    10030    2    1    2    0    0  0.00000000000E+00  0.00000000000E+00  0.86680198934E+03  0.18195599705E+04  0.15998289901E+04 0.  0.
        1    1    3    3  502    0  0.16343491510E+03 -0.75882493047E+03  0.65316787697E+03  0.10144725339E+04  0.50400001928E-02 0. -1.
       -1    1    3    3    0  502 -0.16343491510E+03  0.75882493047E+03  0.21363411237E+03  0.80508743660E+03  0.50400001928E-02 0.  1.
</event>
<event>
 5   0  0.1000121E-03  0.1599940E+04  0.7818609E-02  0.8820585E-01
       -2   -1    0    0    0  501  0.00000000000E+00  0.00000000000E+00  0.50963728206E+03  0.50963728206E+03  0.25500000920E-02 0. -1.
        2   -1    0    0  501    0  0.00000000000E+00  0.00000000000E+00 -0.12557016696E+04  0.12557016696E+04  0.25500000920E-02 0.  1.
    10030    2    1    2    0    0  0.00000000000E+00  0.00000000000E+00 -0.74606438751E+03  0.17653389516E+04  0.15999404813E+04 0.  0.
        4    1    3    3  502    0  0.25531561575E+03 -0.11118652490E+03  0.45442932863E+03  0.53296916851E+03  0.12699999809E+01 0. -1.
       -4    1    3    3    0  502 -0.25531561575E+03  0.11118652490E+03 -0.12004937161E+04  0.12323697831E+04  0.12699999809E+01 0.  1.
</event>
<event>
 5   0  0.1000121E-03  0.1597412E+04  0.7818609E-02  0.8822139E-01
        2   -1    0    0  501    0  0.00000000000E+00  0.00000000000E+00  0.10386728120E+04  0.10386728120E+04  0.25500000920E-02 0.  1.
       -2   -1    0    0    0  501  0.00000000000E+00  0.00000000000E+00 -0.61417925883E+03  0.61417925883E+03  0.25500000920E-02 0. -1.
    10030    2    1    2    0    0  0.00000000000E+00  0.00000000000E+00  0.42449355318E+03  0.16528520708E+04  0.15974120293E+04 0.  0.
        4    1    3    3  502    0 -0.12565800611E+03  0.36197474949E+03  0.93736397644E+03  0.10126541813E+04  0.12699999809E+01 0.  1.
       -4    1    3    3    0  502  0.12565800611E+03 -0.36197474949E+03 -0.51287042326E+03  0.64019788950E+03  0.12699999809E+01 0. -1.
</event>
<event>
 5   0  0.1057872E-03  0.1716389E+04  0.7818609E-02  0.8752072E-01
       -2   -1    0    0    0  501  0.00000000000E+00  0.00000000000E+00  0.81863652494E+03  0.81863652495E+03  0.25500000920E-02 0. -1.
        2   -1    0    0  501    0  0.00000000000E+00  0.00000000000E+00 -0.89966415085E+03  0.89966415085E+03  0.25500000920E-02 0.  1.
    10030    2    1    2    0    0  0.00000000000E+00  0.00000000000E+00 -0.81027625907E+02  0.17183006758E+04  0.17163891564E+04 0.  0.
        2    1    3    3  502    0  0.61373670600E+03  0.39575066895E+02  0.55870019273E+03  0.83089399780E+03  0.25500000920E-02 0. -1.
       -2    1    3    3    0  502 -0.61373670600E+03 -0.39575066895E+02 -0.63972781864E+03  0.88740667800E+03  0.25500000920E-02 0.  1.
</event>
<event>
 5   0  0.9844690E-04  0.1588881E+04  0.7818609E-02  0.8827408E-01
       -2   -1    0    0    0  501  0.00000000000E+00  0.00000000000E+00  0.57734248086E+03  0.57734248087E+03  0.25500000920E-02 0.  1.
        2   -1    0    0  501    0  0.00000000000E+00  0.00000000000E+00 -0.10931742805E+04  0.10931742805E+04  0.25500000920E-02 0. -1.
    10030    2    1    2    0    0  0.00000000000E+00  0.00000000000E+00 -0.51583179969E+03  0.16705167614E+04  0.15888813060E+04 0.  0.
        3    1    3    3  502    0  0.70423567718E+03 -0.29070179917E+03 -0.21225907436E+02  0.76217187983E+03  0.10100000352E+00 0.  1.
       -3    1    3    3    0  502 -0.70423567718E+03  0.29070179917E+03 -0.49460589225E+03  0.90834488159E+03  0.10100000352E+00 0. -1.
</event>
<event>
 5   0  0.5623061E-04  0.1625966E+04  0.7818609E-02  0.8804753E-01
        1   -1    0    0  501    0  0.00000000000E+00  0.00000000000E+00  0.61552223240E+03  0.61552223242E+03  0.50400001928E-02 0. -1.
       -1   -1    0    0    0  501  0.00000000000E+00  0.00000000000E+00 -0.10737894140E+04  0.10737894140E+04  0.50400001928E-02 0.  1.
    10030    2    1    2    0    0  0.00000000000E+00  0.00000000000E+00 -0.45826718159E+03  0.16893116464E+04  0.16259658757E+04 0.  0.
        3    1    3    3  502    0  0.76968826008E+03  0.21807976831E+02 -0.50015182149E+03  0.91817615973E+03  0.10100000352E+00 0.  1.
       -3    1    3    3    0  502 -0.76968826008E+03 -0.21807976831E+02  0.41884639896E+02  0.77113548668E+03  0.10100000352E+00 0. -1.
</event>
<event>
 5   0  0.5532881E-04  0.1575010E+04  0.7818609E-02  0.8836049E-01
       -1   -1    0    0    0  501  0.00000000000E+00  0.00000000000E+00  0.94542064296E+03  0.94542064298E+03  0.50400001928E-02 0.  1.
        1   -1    0    0  501    0  0.00000000000E+00  0.00000000000E+00 -0.65596632657E+03  0.65596632659E+03  0.50400001928E-02 0. -1.
    10030    2    1    2    0    0  0.00000000000E+00  0.00000000000E+00  0.28945431640E+03  0.16013869696E+04  0.15750099762E+04 0.  0.
        4    1    3    3  502    0  0.13719542129E+03 -0.45181084250E+03  0.78552546912E+03  0.91651922869E+03  0.12699999809E+01 0.  1.
       -4    1    3    3    0  502 -0.13719542129E+03  0.45181084250E+03 -0.49607115272E+03  0.68486774087E+03  0.12699999809E+01 0. -1.
</event>
<event>
 5   0  0.9844690E-04  0.1543426E+04  0.7818609E-02  0.8856078E-01
        2   -1    0    0  501    0  0.00000000000E+00  0.00000000000E+00  0.55814473237E+03  0.55814473238E+03  0.25500000920E-02 0.  1.
       -2   -1    0    0    0  501  0.00000000000E+00  0.00000000000E+00 -0.10670015460E+04  0.10670015460E+04  0.25500000920E-02 0. -1.
    10030    2    1    2    0    0  0.00000000000E+00  0.00000000000E+00 -0.50885681358E+03  0.16251462783E+04  0.15434264379E+04 0.  0.
        3    1    3    3  502    0  0.45241505599E+03 -0.20219989952E+03 -0.87733988914E+03  0.10076157370E+04  0.10100000352E+00 0. -1.
       -3    1    3    3    0  502 -0.45241505599E+03  0.20219989952E+03  0.36848307556E+03  0.61753054129E+03  0.10100000352E+00 0.  1.
</event>
<event>
 5   0  0.1057872E-03  0.1572410E+04  0.7818609E-02  0.8837679E-01
        2   -1    0    0  501    0  0.00000000000E+00  0.00000000000E+00  0.10020629355E+04  0.10020629355E+04  0.25500000920E-02 0.  1.
       -2   -1    0    0    0  501  0.00000000000E+00  0.00000000000E+00 -0.61684615683E+03  0.61684615684E+03  0.25500000920E-02 0. -1.
    10030    2    1    2    0    0  0.00000000000E+00  0.00000000000E+00  0.38521677867E+03  0.16189090923E+04  0.15724104689E+04 0.  0.
        2    1    3    3  502    0 -0.17929073208E+03  0.65352464009E+03  0.60299185164E+03  0.90710462184E+03  0.25500000920E-02 0.  1.
       -2    1    3    3    0  502  0.17929073208E+03 -0.65352464009E+03 -0.21777507297E+03  0.71180447051E+03  0.25500000920E-02 0. -1.
</event>
<event>
 5   0  0.5288658E-04  0.1600487E+04  0.7818609E-02  0.8820249E-01
       -1   -1    0    0    0  501  0.00000000000E+00  0.00000000000E+00  0.47088031090E+03  0.47088031093E+03  0.50400001928E-02 0.  1.
        1   -1    0    0  501    0  0.00000000000E+00  0.00000000000E+00 -0.13599832892E+04  0.13599832892E+04  0.50400001928E-02 0. -1.
    10030    2    1    2    0    0  0.00000000000E+00  0.00000000000E+00 -0.88910297827E+03  0.18308636001E+04  0.16004866186E+04 0.  0.
        1    1    3    3  502    0 -0.41346991467E+03  0.14358462292E+03 -0.12109203274E+04  0.12875954154E+04  0.50400001928E-02 0. -1.
       -1    1    3    3    0  502  0.41346991467E+03 -0.14358462292E+03  0.32181734918E+03  0.54326818472E+03  0.50400001928E-02 0.  1.
</event>
<event>
 5   0  0.1030027E-03  0.1594455E+04  0.7818609E-02  0.8823962E-01
       -2   -1    0    0    0  501  0.00000000000E+00  0.00000000000E+00  0.51136035266E+03  0.51136035267E+03  0.25500000920E-02 0.  1.
        2   -1    0    0  501    0  0.00000000000E+00  0.00000000000E+00 -0.12429033097E+04  0.12429033097E+04  0.25500000920E-02 0. -1.
    10030    2    1    2    0    0  0.00000000000E+00  0.00000000000E+00 -0.73154295708E+03  0.17542636624E+04  0.15944547341E+04 0.  0.
        1    1    3    3  502    0  0.50758351234E+03  0.60522742590E+03 -0.24711907010E+03  0.82765276167E+03  0.50400001928E-02 0.  1.
       -1    1    3    3    0  502 -0.50758351234E+03 -0.60522742590E+03 -0.48442388698E+03  0.92661090074E+03  0.50400001928E-02 0. -1.
</event>
<event>
 5   0  0.5281116E-04  0.1509369E+04  0.7818609E-02  0.8878247E-01
       -1   -1    0    0    0  501  0.00000000000E+00  0.00000000000E+00  0.38288498736E+03  0.38288498740E+03  0.50400001928E-02 0. -1.
        1   -1    0    0  501    0  0.00000000000E+00  0.00000000000E+00 -0.14875182179E+04  0.14875182179E+04  0.50400001928E-02 0.  1.
    10030    2    1    2    0    0  0.00000000000E+00  0.00000000000E+00 -0.11046332306E+04  0.18704032053E+04  0.15093686019E+04 0.  0.
        2    1    3    3  502    0  0.41962124626E+03  0.20854551301E+03  0.18077549390E+03  0.50224794724E+03  0.25500000920E-02 0. -1.
       -2    1    3    3    0  502 -0.41962124626E+03 -0.20854551301E+03 -0.12854087244E+04  0.13681552581E+04  0.25500000920E-02 0.  1.
</event>
<event>
 5   0  0.1037321E-03  0.1570388E+04  0.7818609E-02  0.8838949E-01
        2   -1    0    0  501    0  0.00000000000E+00  0.00000000000E+00  0.12925842449E+04  0.12925842449E+04  0.25500000920E-02 0. -1.
       -2   -1    0    0    0  501  0.00000000000E+00  0.00000000000E+00 -0.47697420503E+03  0.47697420503E+03  0.25500000920E-02 0.  1.
    10030    2    1    2    0    0  0.00000000000E+00  0.00000000000E+00  0.81561003983E+03  0.17695584499E+04  0.15703876498E+04 0.  0.
        5    1    3    3  502    0 -0.45044714578E+03 -0.17941543644E+03 -0.28811089357E+03  0.56402349860E+03  0.46999998093E+01 0.  1.
       -5    1    3    3    0  502  0.45044714578E+03  0.17941543644E+03  0.11037209334E+04  0.12055349513E+04  0.46999998093E+01 0. -1.
</event>
<event>
 5   0  0.5281116E-04  0.1563566E+04  0.7818609E-02  0.8843249E-01
        1   -1    0    0  501    0  0.00000000000E+00  0.00000000000E+00  0.94599246587E+03  0.94599246588E+03  0.50400001928E-02 0. -1.
       -1   -1    0    0    0  501  0.00000000000E+00  0.00000000000E+00 -0.64607774820E+03  0.64607774822E+03  0.50400001928E-02 0.  1.
    10030    2    1    2    0    0  0.00000000000E+00  0.00000000000E+00  0.29991471767E+03  0.15920702141E+04  0.15635660295E+04 0.  0.
        2    1    3    3  502    0  0.94193222110E+02 -0.36661524052E+03  0.84646374903E+03  0.92724321302E+03  0.25500000920E-02 0. -1.
       -2    1    3    3    0  502 -0.94193222110E+02  0.36661524052E+03 -0.54654903136E+03  0.66482700108E+03  0.25500000920E-02 0.  1.
</event>
<event>
 5   0  0.5288658E-04  0.1619636E+04  0.7818609E-02  0.8808575E-01
       -1   -1    0    0    0  501  0.00000000000E+00  0.00000000000E+00  0.40125435983E+03  0.40125435986E+03  0.50400001928E-02 0.  1.
        1   -1    0    0  501    0  0.00000000000E+00  0.00000000000E+00 -0.16343883554E+04  0.16343883555E+04  0.50400001928E-02 0. -1.
    10030    2    1    2    0    0  0.00000000000E+00  0.00000000000E+00 -0.12331339956E+04  0.20356427153E+04  0.16196363213E+04 0.  0.
        1    1    3    3  502    0 -0.32575999545E+03 -0.11570937400E+03  0.30385464159E+03  0.46025631675E+03  0.50400001928E-02 0.  1.
       -1    1    3    3    0  502  0.32575999545E+03  0.11570937400E+03 -0.15369886372E+04  0.15753863986E+04  0.50400001928E-02 0. -1.
</event>
<event>
 5   0  0.5425525E-04  0.1568104E+04  0.7818609E-02  0.8840386E-01
        1   -1    0    0  501    0  0.00000000000E+00  0.00000000000E+00  0.64786569700E+03  0.64786569702E+03  0.50400001928E-02 0. -1.
       -1   -1    0    0    0  501  0.00000000000E+00  0.00000000000E+00 -0.94886594074E+03  0.94886594075E+03  0.50400001928E-02 0.  1.
    10030    2    1    2    0    0  0.00000000000E+00  0.00000000000E+00 -0.30100024374E+03  0.15967316378E+04  0.15681041982E+04 0.  0.
        5    1    3    3  502    0  0.20646911562E+03 -0.17698152108E+03  0.59829112363E+03  0.65721101111E+03  0.46999998093E+01 0. -1.
       -5    1    3    3    0  502 -0.20646911562E+03  0.17698152108E+03 -0.89929136737E+03  0.93952062666E+03  0.46999998093E+01 0.  1.
</event>
<event>
 5   0  0.1030027E-03  0.1313859E+04  0.7818609E-02  0.9018647E-01
       -2   -1    0    0    0  501  0.00000000000E+00  0.00000000000E+00  0.52470865058E+03  0.52470865059E+03  0.25500000920E-02 0.  1.
        2   -1    0    0  501    0  0.00000000000E+00  0.00000000000E+00 -0.82246847432E+03  0.82246847433E+03  0.25500000920E-02 0. -1.
    10030    2    1    2    0    0  0.00000000000E+00  0.00000000000E+00 -0.29775982374E+03  0.13471771249E+04  0.13138589320E+04 0.  0.
        1    1    3    3  502    0 -0.42403806947E+03  0.48499459532E+03 -0.28070249319E+03  0.70272464847E+03  0.50400001928E-02 0. -1.
       -1    1    3    3    0  502  0.42403806947E+03 -0.48499459532E+03 -0.17057330550E+02  0.64445247645E+03  0.50400001928E-02 0.  1.
</event>
<event>
 5   0  0.5623061E-04  0.1576603E+04  0.7818609E-02  0.8835052E-01
       -1   -1    0    0    0  501  0.00000000000E+00  0.00000000000E+00  0.91804367119E+03  0.91804367121E+03  0.50400001928E-02 0.  1.
        1   -1    0    0  501    0  0.00000000000E+00  0.00000000000E+00 -0.67689550313E+03  0.67689550315E+03  0.50400001928E-02 0. -1.
    10030    2    1    2    0    0  0.00000000000E+00  0.00000000000E+00  0.24114816806E+03  0.15949391744E+04  0.15766034793E+04 0.  0.
        3    1    3    3  502    0  0.65958923108E+02 -0.38897361296E+03  0.81098354603E+03  0.90185662566E+03  0.10100000352E+00 0.  1.
       -3    1    3    3    0  502 -0.65958923108E+02  0.38897361296E+03 -0.56983537797E+03  0.69308254870E+03  0.10100000352E+00 0. -1.
</event>
<event>
 5   0  0.1057872E-03  0.1668666E+04  0.7818609E-02  0.8779440E-01
       -2   -1    0    0    0  501  0.00000000000E+00  0.00000000000E+00  0.11946946766E+04  0.11946946766E+04  0.25500000920E-02 0. -1.
        2   -1    0    0  501    0  0.00000000000E+00  0.00000000000E+00 -0.58266896024E+03  0.58266896025E+03  0.25500000920E-02 0.  1.
    10030    2    1    2    0    0  0.00000000000E+00  0.00000000000E+00  0.61202571634E+03  0.17773636368E+04  0.16686659402E+04 0.  0.
        2    1    3    3  502    0 -0.50463635578E+03 -0.41688753311E+03 -0.24504520181E+03  0.69892790599E+03  0.25500000920E-02 0.  1.
       -2    1    3    3    0  502  0.50463635578E+03  0.41688753311E+03  0.85707091815E+03  0.10784357308E+04  0.25500000920E-02 0. -1.
</event>
<event>
 5   0  0.5532881E-04  0.1603951E+04  0.7818609E-02  0.8818124E-01
       -1   -1    0    0    0  501  0.00000000000E+00  0.00000000000E+00  0.32168091693E+03  0.32168091697E+03  0.50400001928E-02 0.  1.
        1   -1    0    0  501    0  0.00000000000E+00  0.00000000000E+00 -0.19993874508E+04  0.19993874508E+04  0.50400001928E-02 0. -1.
    10030    2    1    2    0    0  0.00000000000E+00  0.00000000000E+00 -0.16777065339E+04  0.23210683678E+04  0.16039511071E+04 0.  0.
        4    1    3    3  502    0  0.37482608806E+03 -0.37271092613E+03  0.33919887940E+02  0.52967933926E+03  0.12699999809E+01 0.  1.
       -4    1    3    3    0  502 -0.37482608806E+03  0.37271092613E+03 -0.17116264218E+04  0.17913890285E+04  0.12699999809E+01 0. -1.
</event>
<event>
 5   0  0.5425525E-04  0.1610611E+04  0.7818609E-02  0.8814056E-01
        1   -1    0    0  501    0  0.00000000000E+00  0.00000000000E+00  0.69472327914E+03  0.69472327915E+03  0.50400001928E-02 0. -1.
       -1   -1    0    0    0  501  0.00000000000E+00  0.00000000000E+00 -0.93348954655E+03  0.93348954656E+03  0.50400001928E-02 0.  1.
    10030    2    1    2    0    0  0.00000000000E+00  0.00000000000E+00 -0.23876626741E+03  0.16282128257E+04  0.16106109634E+04 0.  0.
        5    1    3    3  502    0 -0.17621836461E+03  0.78211096510E+03 -0.42763308074E+02  0.80287063981E+03  0.46999998093E+01 0. -1.
       -5    1    3    3    0  502  0.17621836461E+03 -0.78211096510E+03 -0.19600295934E+03  0.82534218590E+03  0.46999998093E+01 0.  1.
</event>
<event>
 5   0  0.1037321E-03  0.1560638E+04  0.7818609E-02  0.8845101E-01
       -2   -1    0    0    0  501  0.00000000000E+00  0.00000000000E+00  0.85842058193E+03  0.85842058193E+03  0.25500000920E-02 0.  1.
        2   -1    0    0  501    0  0.00000000000E+00  0.00000000000E+00 -0.70932319853E+03  0.70932319854E+03  0.25500000920E-02 0. -1.
    10030    2    1    2    0    0  0.00000000000E+00  0.00000000000E+00  0.14909738340E+03  0.15677437805E+04  0.15606378604E+04 0.  0.
        5    1    3    3  502    0  0.17122239753E+03 -0.74443612491E+03  0.23456392692E+03  0.79908984432E+03  0.46999998093E+01 0.  1.
       -5    1    3    3    0  502 -0.17122239753E+03  0.74443612491E+03 -0.85466543525E+02  0.76865393614E+03  0.46999998093E+01 0. -1.
</event>
<event>
 5   0  0.5425525E-04  0.1608556E+04  0.7818609E-02  0.8815309E-01
       -1   -1    0    0    0  501  0.00000000000E+00  0.00000000000E+00  0.42296472594E+03  0.42296472597E+03  0.50400001928E-02 0.  1.
        1   -1    0    0  501    0  0.00000000000E+00  0.00000000000E+00 -0.15293551694E+04  0.15293551694E+04  0.50400001928E-02 0. -1.
    10030    2    1    2    0    0  0.00000000000E+00  0.00000000000E+00 -0.11063904435E+04  0.19523198954E+04  0.16085562348E+04 0.  0.
        5    1    3    3  502    0 -0.28980549184E+02  0.36858647709E+03 -0.14200806289E+04  0.14674286851E+04  0.46999998093E+01 0. -1.
       -5    1    3    3    0  502  0.28980549184E+02 -0.36858647709E+03  0.31369018545E+03  0.48489121024E+03  0.46999998093E+01 0.  1.
</event>
<event>
 5   0  0.5281116E-04  0.1583781E+04  0.7818609E-02  0.8830574E-01
       -1   -1    0    0    0  501  0.00000000000E+00  0.00000000000E+00  0.60689288370E+03  0.60689288372E+03  0.50400001928E-02 0.  1.
        1   -1    0    0  501    0  0.00000000000E+00  0.00000000000E+00 -0.10332806583E+04  0.10332806583E+04  0.50400001928E-02 0. -1.
    10030    2    1    2    0    0  0.00000000000E+00  0.00000000000E+00 -0.42638777462E+03  0.16401735421E+04  0.15837811445E+04 0.  0.
        2    1    3    3  502    0 -0.69288368563E+03  0.78400328785E+02 -0.60186540656E+03  0.92112777669E+03  0.25500000920E-02 0. -1.
       -2    1    3    3    0  502  0.69288368563E+03 -0.78400328785E+02  0.17547763195E+03  0.71904576536E+03  0.25500000920E-02 0.  1.
</event>
<event>
 5   0  0.1030027E-03  0.1597498E+04  0.7818609E-02  0.8822087E-01
       -2   -1    0    0    0  501  0.00000000000E+00  0.00000000000E+00  0.42276942610E+03  0.42276942610E+03  0.25500000920E-02 0. -1.
        2   -1    0    0  501    0  0.00000000000E+00  0.00000000000E+00 -0.15090962127E+04  0.15090962127E+04  0.25500000920E-02 0.  1.
    10030    2    1    2    0    0  0.00000000000E+00  0.00000000000E+00 -0.10863267866E+04  0.19318656388E+04  0.15974977180E+04 0.  0.
        1    1    3    3  502    0  0.68447473273E+02  0.24033949829E+03  0.37427900714E+03  0.45003656101E+03  0.50400001928E-02 0. -1.
       -1    1    3    3    0  502 -0.68447473273E+02 -0.24033949829E+03 -0.14606057937E+04  0.14818290778E+04  0.50400001928E-02 0.  1.
</event>
<event>
 5   0  0.5532881E-04  0.1595266E+04  0.7818609E-02  0.8823462E-01
        1   -1    0    0  501    0  0.00000000000E+00  0.00000000000E+00  0.10504861822E+04  0.10504861822E+04  0.50400001928E-02 0.  1.
       -1   -1    0    0    0  501  0.00000000000E+00  0.00000000000E+00 -0.60564154798E+03  0.60564154800E+03  0.50400001928E-02 0. -1.
    10030    2    1    2    0    0  0.00000000000E+00  0.00000000000E+00  0.44484463418E+03  0.16561277302E+04  0.15952655923E+04 0.  0.
        4    1    3    3  502    0  0.27883924578E+03 -0.53782200527E+03  0.76107465172E+03  0.97274872024E+03  0.12699999809E+01 0.  1.
       -4    1    3    3    0  502 -0.27883924578E+03  0.53782200527E+03 -0.31623001754E+03  0.68337900994E+03  0.12699999809E+01 0. -1.
</event>
<event>
 5   0  0.1030027E-03  0.1550557E+04  0.7818609E-02  0.8851512E-01
        2   -1    0    0  501    0  0.00000000000E+00  0.00000000000E+00  0.19107550766E+04  0.19107550766E+04  0.25500000920E-02 0. -1.
       -2   -1    0    0    0  501  0.00000000000E+00  0.00000000000E+00 -0.31456515318E+03  0.31456515319E+03  0.25500000920E-02 0.  1.
    10030    2    1    2    0    0  0.00000000000E+00  0.00000000000E+00  0.15961899234E+04  0.22253202298E+04  0.15505572719E+04 0.  0.
        1    1    3    3  502    0  0.71079762709E+03 -0.99019369664E+02  0.12190168868E+04  0.14145813064E+04  0.50400001928E-02 0. -1.
       -1    1    3    3    0  502 -0.71079762709E+03  0.99019369664E+02  0.37717303662E+03  0.81073892334E+03  0.50400001928E-02 0.  1.
</event>
<event>
 5   0  0.1030027E-03  0.1540733E+04  0.7818609E-02  0.8857809E-01
       -2   -1    0    0    0  501  0.00000000000E+00  0.00000000000E+00  0.21286664198E+04  0.21286664198E+04  0.25500000920E-02 0. -1.
        2   -1    0    0  501    0  0.00000000000E+00  0.00000000000E+00 -0.27879635769E+03  0.27879635770E+03  0.25500000920E-02 0.  1.
    10030    2    1    2    0    0  0.00000000000E+00  0.00000000000E+00  0.18498700621E+04  0.24074627775E+04  0.15407328705E+04 0.  0.
        1    1    3    3  502    0  0.44991964929E+03 -0.58324188078E+02  0.18977802493E+04  0.19512558203E+04  0.50400001928E-02 0. -1.
       -1    1    3    3    0  502 -0.44991964929E+03  0.58324188078E+02 -0.47910187164E+02  0.45620695719E+03  0.50400001928E-02 0.  1.
</event>
<event>
 5   0  0.5532881E-04  0.1627875E+04  0.7818609E-02  0.8803604E-01
        1   -1    0    0  501    0  0.00000000000E+00  0.00000000000E+00  0.12698074713E+04  0.12698074713E+04  0.50400001928E-02 0.  1.
       -1   -1    0    0    0  501  0.00000000000E+00  0.00000000000E+00 -0.52172818779E+03  0.52172818781E+03  0.50400001928E-02 0. -1.
    10030    2    1    2    0    0  0.00000000000E+00  0.00000000000E+00  0.74807928348E+03  0.17915356591E+04  0.16278751191E+04 0.  0.
        4    1    3    3  502    0 -0.25299547713E+03 -0.42156272793E+03 -0.33984364804E+03  0.59767647021E+03  0.12699999809E+01 0. -1.
       -4    1    3    3    0  502  0.25299547713E+03  0.42156272793E+03  0.10879229315E+04  0.11938591889E+04  0.12699999809E+01 0.  1.
</event>
<event>
 5   0  0.5623061E-04  0.1648709E+04  0.7818609E-02  0.8791171E-01
        1   -1    0    0  501    0  0.00000000000E+00  0.00000000000E+00  0.20814957780E+04  0.20814957780E+04  0.50400001928E-02 0.  1.
       -1   -1    0    0    0  501  0.00000000000E+00  0.00000000000E+00 -0.32647697154E+03  0.32647697158E+03  0.50400001928E-02 0. -1.
    10030    2    1    2    0    0  0.00000000000E+00  0.00000000000E+00  0.17550188065E+04  0.24079727496E+04  0.16487091168E+04 0.  0.
        3    1    3    3  502    0  0.65499974664E+03 -0.61666487195E+02  0.15203657422E+03  0.67523518410E+03  0.10100000352E+00 0. -1.
       -3    1    3    3    0  502 -0.65499974664E+03  0.61666487195E+02  0.16029822323E+04  0.17327375655E+04  0.10100000352E+00 0.  1.
</event>
<event>
 5   0  0.1000121E-03  0.1600194E+04  0.7818609E-02  0.8820429E-01
        2   -1    0    0  501    0  0.00000000000E+00  0.00000000000E+00  0.67386613363E+03  0.67386613363E+03  0.25500000920E-02 0. -1.
       -2   -1    0    0    0  501  0.00000000000E+00  0.00000000000E+00 -0.94997385025E+03  0.94997385025E+03  0.25500000920E-02 0.  1.
    10030    2    1    2    0    0  0.00000000000E+00  0.00000000000E+00 -0.27610771662E+03  0.16238399839E+04  0.16001939951E+04 0.  0.
        4    1    3    3  502    0 -0.17765956878E+03 -0.18627611590E+03  0.63069703609E+03  0.68120634022E+03  0.12699999809E+01 0. -1.
       -4    1    3    3    0  502  0.17765956878E+03  0.18627611590E+03 -0.90680475271E+03  0.94263364366E+03  0.12699999809E+01 0.  1.
</event>
<event>
 5   0  0.5532881E-04  0.1600438E+04  0.7818609E-02  0.8820279E-01
       -1   -1    0    0    0  501  0.00000000000E+00  0.00000000000E+00  0.67158723850E+03  0.67158723852E+03  0.50400001928E-02 0. -1.
        1   -1    0    0  501    0  0.00000000000E+00  0.00000000000E+00 -0.95348762961E+03  0.95348762962E+03  0.50400001928E-02 0.  1.
    10030    2    1    2    0    0  0.00000000000E+00  0.00000000000E+00 -0.28190039111E+03  0.16250748681E+04  0.16004375953E+04 0.  0.
        4    1    3    3  502    0 -0.34005191760E+02  0.62334546595E+03 -0.64928915874E+03  0.90071857289E+03  0.12699999809E+01 0.  1.
       -4    1    3    3    0  502  0.34005191760E+02 -0.62334546595E+03  0.36738876764E+03  0.72435629525E+03  0.12699999809E+01 0. -1.
</event>
<event>
 5   0  0.5288658E-04  0.1586374E+04  0.7818609E-02  0.8828963E-01
       -1   -1    0    0    0  501  0.00000000000E+00  0.00000000000E+00  0.10594582537E+04  0.10594582537E+04  0.50400001928E-02 0. -1.
        1   -1    0    0  501    0  0.00000000000E+00  0.00000000000E+00 -0.59383742339E+03  0.59383742341E+03  0.50400001928E-02 0.  1.
    10030    2    1    2    0    0  0.00000000000E+00  0.00000000000E+00  0.46562083030E+03  0.16532956771E+04  0.15863744320E+04 0.  0.
        1    1    3    3  502    0  0.42584021891E+02  0.72115208126E+03 -0.10853061583E+03  0.73051530978E+03  0.50400001928E-02 0.  1.
       -1    1    3    3    0  502 -0.42584021891E+02 -0.72115208126E+03  0.57415144613E+03  0.92278036734E+03  0.50400001928E-02 0. -1.
</event>
<event>
 5   0  0.5425525E-04  0.1609059E+04  0.7818609E-02  0.8815002E-01
       -1   -1    0    0    0  501  0.00000000000E+00  0.00000000000E+00  0.62863784519E+03  0.62863784521E+03  0.50400001928E-02 0.  1.
        1   -1    0    0  501    0  0.00000000000E+00  0.00000000000E+00 -0.10296350739E+04  0.10296350739E+04  0.50400001928E-02 0. -1.
    10030    2    1    2    0    0  0.00000000000E+00  0.00000000000E+00 -0.40099722871E+03  0.16582729191E+04  0.16090588233E+04 0.  0.
        5    1    3    3  502    0 -0.28579199069E+03  0.15565309755E+03  0.55776350674E+03  0.64577640726E+03  0.46999998093E+01 0.  1.
       -5    1    3    3    0  502  0.28579199069E+03 -0.15565309755E+03 -0.95876073545E+03  0.10124965119E+04  0.46999998093E+01 0. -1.
</event>
<event>
 5   0  0.1000121E-03  0.1682354E+04  0.7818609E-02  0.8771493E-01
        2   -1    0    0  501    0  0.00000000000E+00  0.00000000000E+00  0.68566165404E+03  0.68566165405E+03  0.25500000920E-02 0. -1.
       -2   -1    0    0    0  501  0.00000000000E+00  0.00000000000E+00 -0.10319650831E+04  0.10319650831E+04  0.25500000920E-02 0.  1.
    10030    2    1    2    0    0  0.00000000000E+00  0.00000000000E+00 -0.34630342908E+03  0.17176267372E+04  0.16823541670E+04 0.  0.
        4    1    3    3  502    0  0.10443970636E+03  0.39429066022E+03 -0.92424185583E+03  0.10102462066E+04  0.12699999809E+01 0.  1.
       -4    1    3    3    0  502 -0.10443970636E+03 -0.39429066022E+03  0.57793842675E+03  0.70738053056E+03  0.12699999809E+01 0. -1.
</event>
<event>
 5   0  0.1057872E-03  0.1576823E+04  0.7818609E-02  0.8834914E-01
        2   -1    0    0  501    0  0.00000000000E+00  0.00000000000E+00  0.20132849595E+04  0.20132849595E+04  0.25500000920E-02 0.  1.
       -2   -1    0    0    0  501  0.00000000000E+00  0.00000000000E+00 -0.30874544130E+03  0.30874544131E+03  0.25500000920E-02 0. -1.
    10030    2    1    2    0    0  0.00000000000E+00  0.00000000000E+00  0.17045395182E+04  0.23220304008E+04  0.15768228224E+04 0.  0.
        2    1    3    3  502    0  0.69762772202E+03 -0.31513562461E+03  0.57442917323E+03  0.95705996442E+03  0.25500000920E-02 0. -1.
       -2    1    3    3    0  502 -0.69762772202E+03  0.31513562461E+03  0.11301103449E+04  0.13649704364E+04  0.25500000920E-02 0.  1.
</event>
<event>
 5   0  0.5425525E-04  0.1624501E+04  0.7818609E-02  0.8805636E-01
        1   -1    0    0  501    0  0.00000000000E+00  0.00000000000E+00  0.86978561460E+03  0.86978561461E+03  0.50400001928E-02 0. -1.
       -1   -1    0    0    0  501  0.00000000000E+00  0.00000000000E+00 -0.75852161854E+03  0.75852161856E+03  0.50400001928E-02 0.  1.
    10030    2    1    2    0    0  0.00000000000E+00  0.00000000000E+00  0.11126399606E+03  0.16283072332E+04  0.16245013908E+04 0.  0.
        5    1    3    3  502    0  0.10515650599E+03 -0.43236313405E+03 -0.62546956655E+03  0.76761320932E+03  0.46999998093E+01 0.  1.
       -5    1    3    3    0  502 -0.10515650599E+03  0.43236313405E+03  0.73673356261E+03  0.86069402386E+03  0.46999998093E+01 0. -1.
</event>
<event>
 5   0  0.5288658E-04  0.1673820E+04  0.7818609E-02  0.8776438E-01
       -1   -1    0    0    0  501  0.00000000000E+00  0.00000000000E+00  0.10103727172E+04  0.10103727172E+04  0.50400001928E-02 0. -1.
        1   -1    0    0  501    0  0.00000000000E+00  0.00000000000E+00 -0.69322760080E+03  0.69322760081E+03  0.50400001928E-02 0.  1.
    10030    2    1    2    0    0  0.00000000000E+00  0.00000000000E+00  0.31714511643E+03  0.17036003181E+04  0.16738198884E+04 0.  0.
        1    1    3    3  502    0 -0.43302126068E+02 -0.87315257771E+02  0.10045769696E+04  0.10092937711E+04  0.50400001928E-02 0. -1.
       -1    1    3    3    0  502  0.43302126068E+02  0.87315257771E+02 -0.68743185321E+03  0.69430654699E+03  0.50400001928E-02 0.  1.
</event>
<event>
 5   0  0.9844690E-04  0.1635166E+04  0.7818609E-02  0.8799231E-01
        2   -1    0    0  501    0  0.00000000000E+00  0.00000000000E+00  0.97206768781E+03  0.97206768782E+03  0.25500000920E-02 0. -1.
       -2   -1    0    0    0  501  0.00000000000E+00  0.00000000000E+00 -0.68764936875E+03  0.68764936875E+03  0.25500000920E-02 0.  1.
    10030    2    1    2    0    0  0.00000000000E+00  0.00000000000E+00  0.28441831907E+03  0.16597170566E+04  0.16351657187E+04 0.  0.
        3    1    3    3  502    0 -0.72335543497E+03  0.17503614075E+03 -0.20134139568E+03  0.77098579992E+03  0.10100000352E+00 0.  1.
       -3    1    3    3    0  502  0.72335543497E+03 -0.17503614075E+03  0.48575971474E+03  0.88873125665E+03  0.10100000352E+00 0. -1.
</event>
<event>
 5   0  0.1000121E-03  0.1607312E+04  0.7818609E-02  0.8816069E-01
       -2   -1    0    0    0  501  0.00000000000E+00  0.00000000000E+00  0.46941172570E+03  0.46941172571E+03  0.25500000920E-02 0.  1.
        2   -1    0    0  501    0  0.00000000000E+00  0.00000000000E+00 -0.13758979966E+04  0.13758979966E+04  0.25500000920E-02 0. -1.
    10030    2    1    2    0    0  0.00000000000E+00  0.00000000000E+00 -0.90648627093E+03  0.18453097223E+04  0.16073116101E+04 0.  0.
        4    1    3    3  502    0  0.43827314320E+03 -0.24911097753E+03  0.26530827185E+03  0.56967509967E+03  0.12699999809E+01 0.  1.
       -4    1    3    3    0  502 -0.43827314320E+03  0.24911097753E+03 -0.11717945428E+04  0.12756346227E+04  0.12699999809E+01 0. -1.
</event>
<event>
 5   0  0.1000121E-03  0.1617116E+04  0.7818609E-02  0.8810101E-01
        2   -1    0    0  501    0  0.00000000000E+00  0.00000000000E+00  0.16990840572E+04  0.16990840572E+04  0.25500000920E-02 0.  1.
       -2   -1    0    0    0  501  0.00000000000E+00  0.00000000000E+00 -0.38477564888E+03  0.38477564888E+03  0.25500000920E-02 0. -1.
    10030    2    1    2    0    0  0.00000000000E+00  0.00000000000E+00  0.13143084083E+04  0.20838597060E+04  0.16171161623E+04 0.  0.
        4    1    3    3  502    0 -0.48926310167E+03 -0.63402032397E+03  0.80067512350E+03  0.11324497429E+04  0.12699999809E+01 0. -1.
       -4    1    3    3    0  502  0.48926310167E+03  0.63402032397E+03  0.51363328478E+03  0.95140996316E+03  0.12699999809E+01 0.  1.
</event>
<event>
 5   0  0.5623061E-04  0.1599237E+04  0.7818609E-02  0.8821017E-01
        1   -1    0    0  501    0  0.00000000000E+00  0.00000000000E+00  0.70700583459E+03  0.70700583461E+03  0.50400001928E-02 0.  1.
       -1   -1    0    0    0  501  0.00000000000E+00  0.00000000000E+00 -0.90436276271E+03  0.90436276273E+03  0.50400001928E-02 0. -1.
    10030    2    1    2    0    0  0.00000000000E+00  0.00000000000E+00 -0.19735692812E+03  0.16113685973E+04  0.15992370054E+04 0.  0.
        3    1    3    3  502    0 -0.18046746018E+03  0.16067301862E+03 -0.86669780303E+03  0.89974964022E+03  0.10100000352E+00 0. -1.
       -3    1    3    3    0  502  0.18046746018E+03 -0.16067301862E+03  0.66934087491E+03  0.71161895711E+03  0.10100000352E+00 0.  1.
</event>
<event>
 5   0  0.5623061E-04  0.1607196E+04  0.7818609E-02  0.8816139E-01
        1   -1    0    0  501    0  0.00000000000E+00  0.00000000000E+00  0.14931891119E+04  0.14931891119E+04  0.50400001928E-02 0.  1.
       -1   -1    0    0    0  501  0.00000000000E+00  0.00000000000E+00 -0.43247677984E+03  0.43247677987E+03  0.50400001928E-02 0. -1.
    10030    2    1    2    0    0  0.00000000000E+00  0.00000000000E+00  0.10607123320E+04  0.19256658918E+04  0.16071958422E+04 0.  0.
        3    1    3    3  502    0 -0.16856263222E+03  0.68073484200E+03  0.60233811880E+02  0.70387598936E+03  0.10100000352E+00 0. -1.
       -3    1    3    3    0  502  0.16856263222E+03 -0.68073484200E+03  0.10004785202E+04  0.12217899024E+04  0.10100000352E+00 0.  1.
</event>
<event>
 5   0  0.5288658E-04  0.1584476E+04  0.7818609E-02  0.8830142E-01
        1   -1    0    0  501    0  0.00000000000E+00  0.00000000000E+00  0.15630246673E+04  0.15630246674E+04  0.50400001928E-02 0. -1.
       -1   -1    0    0    0  501  0.00000000000E+00  0.00000000000E+00 -0.40155523619E+03  0.40155523623E+03  0.50400001928E-02 0.  1.
    10030    2    1    2    0    0  0.00000000000E+00  0.00000000000E+00  0.11614694311E+04  0.19645799036E+04  0.15844756098E+04 0.  0.
        1    1    3    3  502    0  0.29103633009E+03  0.15795914167E+03  0.14731022878E+04  0.15098621084E+04  0.50400001928E-02 0. -1.
       -1    1    3    3    0  502 -0.29103633009E+03 -0.15795914167E+03 -0.31163285669E+03  0.45471779519E+03  0.50400001928E-02 0.  1.
</event>
<event>
 5   0  0.5281116E-04  0.1545448E+04  0.7818609E-02  0.8854781E-01
       -1   -1    0    0    0  501  0.00000000000E+00  0.00000000000E+00  0.91331592963E+03  0.91331592964E+03  0.50400001928E-02 0.  1.
        1   -1    0    0  501    0  0.00000000000E+00  0.00000000000E+00 -0.65377412181E+03  0.65377412183E+03  0.50400001928E-02 0. -1.
    10030    2    1    2    0    0  0.00000000000E+00  0.00000000000E+00  0.25954180782E+03  0.15670900515E+04  0.15454479219E+04 0.  0.
        2    1    3    3  502    0  0.29359022414E+02  0.86402817428E+02  0.90783294830E+03  0.91240783704E+03  0.25500000920E-02 0.  1.
       -2    1    3    3    0  502 -0.29359022414E+02 -0.86402817428E+02 -0.64829114049E+03  0.65468221443E+03  0.25500000920E-02 0. -1.
</event>
<event>
 5   0  0.9844690E-04  0.1568219E+04  0.7818609E-02  0.8840314E-01
        2   -1    0    0  501    0  0.00000000000E+00  0.00000000000E+00  0.19552616263E+04  0.19552616263E+04  0.25500000920E-02 0.  1.
       -2   -1    0    0    0  501  0.00000000000E+00  0.00000000000E+00 -0.31444762101E+03  0.31444762102E+03  0.25500000920E-02 0. -1.
    10030    2    1    2    0    0  0.00000000000E+00  0.00000000000E+00  0.16408140053E+04  0.22697092473E+04  0.15682185649E+04 0.  0.
        3    1    3    3  502    0  0.21001473246E+02 -0.10027212320E+03 -0.30471950996E+03  0.32148024904E+03  0.10100000352E+00 0. -1.
       -3    1    3    3    0  502 -0.21001473246E+02  0.10027212320E+03  0.19455335152E+04  0.19482289983E+04  0.10100000352E+00 0.  1.
</event>
<event>
 5   0  0.9844690E-04  0.1558169E+04  0.7818609E-02  0.8846666E-01
        2   -1    0    0  501    0  0.00000000000E+00  0.00000000000E+00  0.10204062995E+04  0.10204062995E+04  0.25500000920E-02 0. -1.
       -2   -1    0    0    0  501  0.00000000000E+00  0.00000000000E+00 -0.59483457305E+03  0.59483457306E+03  0.25500000920E-02 0.  1.
    10030    2    1    2    0    0  0.00000000000E+00  0.00000000000E+00  0.42557172646E+03  0.16152408726E+04  0.15581693689E+04 0.  0.
        3    1    3    3  502    0 -0.53438846899E+03  0.56298958866E+03  0.14367599299E+03  0.78941187849E+03  0.10100000352E+00 0. -1.
       -3    1    3    3    0  502  0.53438846899E+03 -0.56298958866E+03  0.28189573347E+03  0.82582899409E+03  0.10100000352E+00 0.  1.
</event>
<event>
 5   0  0.5623061E-04  0.1695796E+04  0.7818609E-02  0.8763766E-01
       -1   -1    0    0    0  501  0.00000000000E+00  0.00000000000E+00  0.28097736471E+03  0.28097736476E+03  0.50400001928E-02 0.  1.
        1   -1    0    0  501    0  0.00000000000E+00  0.00000000000E+00 -0.25586802044E+04  0.25586802044E+04  0.50400001928E-02 0. -1.
    10030    2    1    2    0    0  0.00000000000E+00  0.00000000000E+00 -0.22777028397E+04  0.28396575692E+04  0.16957962390E+04 0.  0.
        3    1    3    3  502    0 -0.41640771898E+02 -0.75800330741E+03 -0.17712560930E+04  0.19270835802E+04  0.10100000352E+00 0. -1.
       -3    1    3    3    0  502  0.41640771898E+02  0.75800330741E+03 -0.50644674676E+03  0.91257398902E+03  0.10100000352E+00 0.  1.
</event>
<event>
 5   0  0.1057872E-03  0.1579940E+04  0.7818609E-02  0.8832967E-01
       -2   -1    0    0    0  501  0.00000000000E+00  0.00000000000E+00  0.61195507813E+03  0.61195507814E+03  0.25500000920E-02 0. -1.
        2   -1    0    0  501    0  0.00000000000E+00  0.00000000000E+00 -0.10197681794E+04  0.10197681794E+04  0.25500000920E-02 0.  1.
    10030    2    1    2    0    0  0.00000000000E+00  0.00000000000E+00 -0.40781310123E+03  0.16317232575E+04  0.15799396392E+04 0.  0.
        2    1    3    3  502    0  0.51686038345E+03  0.25662906388E+03 -0.76107844503E+03  0.95511440776E+03  0.25500000920E-02 0.  1.
       -2    1    3    3    0  502 -0.51686038345E+03 -0.25662906388E+03  0.35326534381E+03  0.67660884974E+03  0.25500000920E-02 0. -1.
</event>
<event>
 5   0  0.1030027E-03  0.1579587E+04  0.7818609E-02  0.8833188E-01
        2   -1    0    0  501    0  0.00000000000E+00  0.00000000000E+00  0.15987264318E+04  0.15987264318E+04  0.25500000920E-02 0.  1.
       -2   -1    0    0    0  501  0.00000000000E+00  0.00000000000E+00 -0.39016895320E+03  0.39016895320E+03  0.25500000920E-02 0. -1.
    10030    2    1    2    0    0  0.00000000000E+00  0.00000000000E+00  0.12085574786E+04  0.19888953850E+04  0.15795865514E+04 0.  0.
        1    1    3    3  502    0 -0.37062325694E+03 -0.69590193175E+03  0.66242138883E+03  0.10297782254E+04  0.50400001928E-02 0.  1.
       -1    1    3    3    0  502  0.37062325694E+03  0.69590193175E+03  0.54613608978E+03  0.95911715957E+03  0.50400001928E-02 0. -1.
</event>
<event>
 5   0  0.1000121E-03  0.1613489E+04  0.7818609E-02  0.8812304E-01
        2   -1    0    0  501    0  0.00000000000E+00  0.00000000000E+00  0.11863228124E+04  0.11863228124E+04  0.25500000920E-02 0.  1.
       -2   -1    0    0    0  501  0.00000000000E+00  0.00000000000E+00 -0.54861677243E+03  0.54861677243E+03  0.25500000920E-02 0. -1.
    10030    2    1    2    0    0  0.00000000000E+00  0.00000000000E+00  0.63770603998E+03  0.17349395848E+04  0.16134888812E+04 0.  0.
        4    1    3    3  502    0 -0.72271549273E+03  0.59040577730E+02 -0.61360985791E+02  0.72771578018E+03  0.12699999809E+01 0. -1.
       -4    1    3    3    0  502  0.72271549273E+03 -0.59040577730E+02  0.69906702577E+03  0.10072238047E+04  0.12699999809E+01 0.  1.
</event>
<event>
 5   0  0.5425525E-04  0.1555087E+04  0.7818609E-02  0.8848625E-01
        1   -1    0    0  501    0  0.00000000000E+00  0.00000000000E+00  0.80568946866E+03  0.80568946867E+03  0.50400001928E-02 0.  1.
       -1   -1    0    0    0  501  0.00000000000E+00  0.00000000000E+00 -0.75038101827E+03  0.75038101829E+03  0.50400001928E-02 0. -1.
    10030    2    1    2    0    0  0.00000000000E+00  0.00000000000E+00  0.55308450387E+02  0.15560704870E+04  0.15550872438E+04 0.  0.
        5    1    3    3  502    0 -0.39384650754E+03  0.57203699411E+03 -0.32215313628E+03  0.76560180730E+03  0.46999998093E+01 0. -1.
       -5    1    3    3    0  502  0.39384650754E+03 -0.57203699411E+03  0.37746158667E+03  0.79046867967E+03  0.46999998093E+01 0.  1.
</event>
<event>
 5   0  0.1030027E-03  0.1662737E+04  0.7818609E-02  0.8782907E-01
        2   -1    0    0  501    0  0.00000000000E+00  0.00000000000E+00  0.14415836842E+04  0.14415836842E+04  0.25500000920E-02 0. -1.
       -2   -1    0    0    0  501  0.00000000000E+00  0.00000000000E+00 -0.47945456915E+03  0.47945456916E+03  0.25500000920E-02 0.  1.
    10030    2    1    2    0    0  0.00000000000E+00  0.00000000000E+00  0.96212911500E+03  0.19210382533E+04  0.16627373625E+04 0.  0.
        1    1    3    3  502    0  0.10762182616E+03 -0.57020239537E+03 -0.20678961354E+03  0.61601556267E+03  0.50400001928E-02 0.  1.
       -1    1    3    3    0  502 -0.10762182616E+03  0.57020239537E+03  0.11689187285E+04  0.13050226907E+04  0.50400001928E-02 0. -1.
</event>
<event>
 5   0  0.9844690E-04  0.1630641E+04  0.7818609E-02  0.8801942E-01
       -2   -1    0    0    0  501  0.00000000000E+00  0.00000000000E+00  0.48263321606E+03  0.48263321606E+03  0.25500000920E-02 0. -1.
        2   -1    0    0  501    0  0.00000000000E+00  0.00000000000E+00 -0.13773355915E+04  0.13773355915E+04  0.25500000920E-02 0.  1.
    10030    2    1    2    0    0  0.00000000000E+00  0.00000000000E+00 -0.89470237544E+03  0.18599688076E+04  0.16306414764E+04 0.  0.
        3    1    3    3  502    0 -0.49892616775E+03  0.37154663655E+03 -0.10485148427E+04  0.12191626674E+04  0.10100000352E+00 0.  1.
       -3    1    3    3    0  502  0.49892616775E+03 -0.37154663655E+03  0.15381246725E+03  0.64080614017E+03  0.10100000352E+00 0. -1.
</event>
<event>
 5   0  0.5532881E-04  0.1591330E+04  0.7818609E-02  0.8825892E-01
        1   -1    0    0  501    0  0.00000000000E+00  0.00000000000E+00  0.92942632996E+03  0.92942632998E+03  0.50400001928E-02 0.  1.
       -1   -1    0    0    0  501  0.00000000000E+00  0.00000000000E+00 -0.68115417524E+03  0.68115417526E+03  0.50400001928E-02 0. -1.
    10030    2    1    2    0    0  0.00000000000E+00  0.00000000000E+00  0.24827215472E+03  0.16105805052E+04  0.15913297902E+04 0.  0.
        4    1    3    3  502    0 -0.36675318825E+03 -0.63633599055E+03  0.43386035667E+03  0.85303447524E+03  0.12699999809E+01 0.  1.
       -4    1    3    3    0  502  0.36675318825E+03  0.63633599055E+03 -0.18558820195E+03  0.75754603000E+03  0.12699999809E+01 0. -1.
</event>
<event>
 5   0  0.1037321E-03  0.1596742E+04  0.7818609E-02  0.8822552E-01
        2   -1    0    0  501    0  0.00000000000E+00  0.00000000000E+00  0.22483864158E+04  0.22483864158E+04  0.25500000920E-02 0. -1.
       -2   -1    0    0    0  501  0.00000000000E+00  0.00000000000E+00 -0.28349057013E+03  0.28349057014E+03  0.25500000920E-02 0.  1.
    10030    2    1    2    0    0  0.00000000000E+00  0.00000000000E+00  0.19648958457E+04  0.25318769860E+04  0.15967421168E+04 0.  0.
        5    1    3    3  502    0  0.46152362822E+02 -0.78589122910E+03  0.11929230685E+04  0.14292804490E+04  0.46999998093E+01 0. -1.
       -5    1    3    3    0  502 -0.46152362822E+02  0.78589122910E+03  0.77197277719E+03  0.11025965370E+04  0.46999998093E+01 0.  1.
</event>
<event>
 5   0  0.1057872E-03  0.1568759E+04  0.7818609E-02  0.8839974E-01
        2   -1    0    0  501    0  0.00000000000E+00  0.00000000000E+00  0.55699949184E+03  0.55699949184E+03  0.25500000920E-02 0.  1.
       -2   -1    0    0    0  501  0.00000000000E+00  0.00000000000E+00 -0.11045814431E+04  0.11045814431E+04  0.25500000920E-02 0. -1.
    10030    2    1    2    0    0  0.00000000000E+00  0.00000000000E+00 -0.54758195125E+03  0.16615809349E+04  0.15687591307E+04 0.  0.
        2    1    3    3  502    0 -0.46309398242E+03  0.47714954456E+02  0.39484463701E+03  0.61043840050E+03  0.25500000920E-02 0.  1.
       -2    1    3    3    0  502  0.46309398242E+03 -0.47714954456E+02 -0.94242658826E+03  0.10511425344E+04  0.25500000920E-02 0. -1.
</event>
<event>
 5   0  0.1057872E-03  0.1649055E+04  0.7818609E-02  0.8790966E-01
        2   -1    0    0  501    0  0.00000000000E+00  0.00000000000E+00  0.70455640538E+03  0.70455640539E+03  0.25500000920E-02 0.  1.
       -2   -1    0    0    0  501  0.00000000000E+00  0.00000000000E+00 -0.96492714490E+03  0.96492714490E+03  0.25500000920E-02 0. -1.
    10030    2    1    2    0    0  0.00000000000E+00  0.00000000000E+00 -0.26037073951E+03  0.16694835503E+04  0.16490550029E+04 0.  0.
        2    1    3    3  502    0  0.52272758547E+03  0.40517796908E+03  0.36828830866E+03  0.75700039203E+03  0.25500000920E-02 0.  1.
       -2    1    3    3    0  502 -0.52272758547E+03 -0.40517796908E+03 -0.62865904818E+03  0.91248315825E+03  0.25500000920E-02 0. -1.
</event>
<event>
 5   0  0.5623061E-04  0.1630248E+04  0.7818609E-02  0.8802178E-01
       -1   -1    0    0    0  501  0.00000000000E+00  0.00000000000E+00  0.60881309133E+03  0.60881309135E+03  0.50400001928E-02 0.  1.
        1   -1    0    0  501    0  0.00000000000E+00  0.00000000000E+00 -0.10913487052E+04  0.10913487053E+04  0.50400001928E-02 0. -1.
    10030    2    1    2    0    0  0.00000000000E+00  0.00000000000E+00 -0.48253561392E+03  0.17001617966E+04  0.16302482989E+04 0.  0.
        3    1    3    3  502    0 -0.60518048383E+03 -0.23683762206E+03 -0.75439687715E+03  0.99571589104E+03  0.10100000352E+00 0. -1.
       -3    1    3    3    0  502  0.60518048383E+03  0.23683762206E+03  0.27186126323E+03  0.70444590557E+03  0.10100000352E+00 0.  1.
</event>
<event>
 5   0  0.5281116E-04  0.1039501E+04  0.7818609E-02  0.9266251E-01
        1   -1    0    0  501    0  0.00000000000E+00  0.00000000000E+00  0.42298700412E+03  0.42298700415E+03  0.50400001928E-02 0. -1.
       -1   -1    0    0    0  501  0.00000000000E+00  0.00000000000E+00 -0.63864999532E+03  0.63864999534E+03  0.50400001928E-02 0.  1.
    10030    2    1    2    0    0  0.00000000000E+00  0.00000000000E+00 -0.21566299120E+03  0.10616369995E+04  0.10395011269E+04 0.  0.
        2    1    3    3  502    0 -0.15220567115E+03  0.19494329583E+03 -0.57469969461E+03  0.62565900770E+03  0.25500000920E-02 0.  1.
       -2    1    3    3    0  502  0.15220567115E+03 -0.19494329583E+03  0.35903670341E+03  0.43597799179E+03  0.25500000920E-02 0. -1.
</event>
<event>
 5   0  0.1030027E-03  0.1593761E+04  0.7818609E-02  0.8824390E-01
        2   -1    0    0  501    0  0.00000000000E+00  0.00000000000E+00  0.16039118340E+04  0.16039118340E+04  0.25500000920E-02 0.  1.
       -2   -1    0    0    0  501  0.00000000000E+00  0.00000000000E+00 -0.39591884552E+03  0.39591884553E+03  0.25500000920E-02 0. -1.
    10030    2    1    2    0    0  0.00000000000E+00  0.00000000000E+00  0.12079929884E+04  0.19998306795E+04  0.15937614898E+04 0.  0.
        1    1    3    3  502    0 -0.71353618353E+03 -0.24698966662E+03  0.28438003411E+03  0.80685177353E+03  0.50400001928E-02 0. -1.
       -1    1    3    3    0  502  0.71353618353E+03  0.24698966662E+03  0.92361295432E+03  0.11929789060E+04  0.50400001928E-02 0.  1.
</event>
<event>
 5   0  0.3832500E-04  0.1687226E+04  0.7818609E-02  0.8768683E-01
        4   -1    0    0  501    0  0.00000000000E+00  0.00000000000E+00  0.86651900837E+03  0.86651993905E+03  0.12699999809E+01 0. -1.
       -4   -1    0    0    0  501  0.00000000000E+00  0.00000000000E+00 -0.82131100522E+03  0.82131198712E+03  0.12699999809E+01 0.  1.
    10030    2    1    2    0    0  0.00000000000E+00  0.00000000000E+00  0.45208003152E+02  0.16878319262E+04  0.16872263771E+04 0.  0.
        1    1    3    3  502    0 -0.22412921789E+02  0.84322666509E+03  0.34842118266E+02  0.84424375687E+03  0.50400001928E-02 0. -1.
       -1    1    3    3    0  502  0.22412921789E+02 -0.84322666509E+03  0.10365884886E+02  0.84358816930E+03  0.50400001928E-02 0.  1.
</event>
<event>
 5   0  0.5425525E-04  0.1603071E+04  0.7818609E-02  0.8818663E-01
        1   -1    0    0  501    0  0.00000000000E+00  0.00000000000E+00  0.22599669382E+03  0.22599669388E+03  0.50400001928E-02 0.  1.
       -1   -1    0    0    0  501  0.00000000000E+00  0.00000000000E+00 -0.28427828457E+04  0.28427828457E+04  0.50400001928E-02 0. -1.
    10030    2    1    2    0    0  0.00000000000E+00  0.00000000000E+00 -0.26167861519E+04  0.30687795396E+04  0.16030714575E+04 0.  0.
        5    1    3    3  502    0 -0.44883072624E+03  0.30694409099E+03 -0.24356837358E+04  0.24956444151E+04  0.46999998093E+01 0. -1.
       -5    1    3    3    0  502  0.44883072624E+03 -0.30694409099E+03 -0.18110241608E+03  0.57313512449E+03  0.46999998093E+01 0.  1.
</event>
<event>
 5   0  0.1037321E-03  0.1595248E+04  0.7818609E-02  0.8823473E-01
       -2   -1    0    0    0  501  0.00000000000E+00  0.00000000000E+00  0.28722126401E+03  0.28722126402E+03  0.25500000920E-02 0. -1.
        2   -1    0    0  501    0  0.00000000000E+00  0.00000000000E+00 -0.22150313666E+04  0.22150313666E+04  0.25500000920E-02 0.  1.
    10030    2    1    2    0    0  0.00000000000E+00  0.00000000000E+00 -0.19278101026E+04  0.25022526307E+04  0.15952480797E+04 0.  0.
        5    1    3    3  502    0  0.31216298497E+03  0.46882398645E+03 -0.18497498993E+04  0.19336076229E+04  0.46999998093E+01 0.  1.
       -5    1    3    3    0  502 -0.31216298497E+03 -0.46882398645E+03 -0.78060203296E+02  0.56864500771E+03  0.46999998093E+01 0. -1.
</event>
<event>
 5   0  0.3832500E-04  0.1584336E+04  0.7818609E-02  0.8830229E-01
       -4   -1    0    0    0  501  0.00000000000E+00  0.00000000000E+00  0.42934674833E+03  0.42934862664E+03  0.12699999809E+01 0. -1.
        4   -1    0    0  501    0  0.00000000000E+00  0.00000000000E+00 -0.14615877964E+04  0.14615883481E+04  0.12699999809E+01 0.  1.
    10030    2    1    2    0    0  0.00000000000E+00  0.00000000000E+00 -0.10322410480E+04  0.18909369748E+04  0.15843361579E+04 0.  0.
        5    1    3    3  502    0  0.61970220193E+03 -0.32539961487E+03 -0.95883835816E+03  0.11871431319E+04  0.46999998093E+01 0.  1.
       -5    1    3    3    0  502 -0.61970220193E+03  0.32539961487E+03 -0.73402689877E+02  0.70379384291E+03  0.46999998093E+01 0. -1.
</event>
<event>
 5   0  0.5623061E-04  0.1490376E+04  0.7818609E-02  0.8890878E-01
        1   -1    0    0  501    0  0.00000000000E+00  0.00000000000E+00  0.11015192112E+04  0.11015192112E+04  0.50400001928E-02 0. -1.
       -1   -1    0    0    0  501  0.00000000000E+00  0.00000000000E+00 -0.50412664042E+03  0.50412664044E+03  0.50400001928E-02 0.  1.
    10030    2    1    2    0    0  0.00000000000E+00  0.00000000000E+00  0.59739257078E+03  0.16056458517E+04  0.14903760322E+04 0.  0.
        3    1    3    3  502    0  0.36216670539E+03 -0.29576543225E+03 -0.32640697393E+03  0.57024857408E+03  0.10100000352E+00 0.  1.
       -3    1    3    3    0  502 -0.36216670539E+03  0.29576543225E+03  0.92379954471E+03  0.10353972776E+04  0.10100000352E+00 0. -1.
</event>
<event>
 5   0  0.5623061E-04  0.1486948E+04  0.7818609E-02  0.8893179E-01
        1   -1    0    0  501    0  0.00000000000E+00  0.00000000000E+00  0.59391489153E+03  0.59391489155E+03  0.50400001928E-02 0. -1.
       -1   -1    0    0    0  501  0.00000000000E+00  0.00000000000E+00 -0.93069529180E+03  0.93069529181E+03  0.50400001928E-02 0.  1.
    10030    2    1    2    0    0  0.00000000000E+00  0.00000000000E+00 -0.33678040027E+03  0.15246101834E+04  0.14869482752E+04 0.  0.
        3    1    3    3  502    0 -0.43317488613E+03  0.19650619376E+03 -0.75426339405E+03  0.89172217869E+03  0.10100000352E+00 0.  1.
       -3    1    3    3    0  502  0.43317488613E+03 -0.19650619376E+03  0.41748299378E+03  0.63288800467E+03  0.10100000352E+00 0. -1.
</event>
<event>
 5   0  0.1057872E-03  0.1578696E+04  0.7818609E-02  0.8833744E-01
        2   -1    0    0  501    0  0.00000000000E+00  0.00000000000E+00  0.20292633506E+04  0.20292633506E+04  0.25500000920E-02 0. -1.
       -2   -1    0    0    0  501  0.00000000000E+00  0.00000000000E+00 -0.30704245200E+03  0.30704245201E+03  0.25500000920E-02 0.  1.
    10030    2    1    2    0    0  0.00000000000E+00  0.00000000000E+00  0.17222208986E+04  0.23363058026E+04  0.15786956577E+04 0.  0.
        2    1    3    3  502    0  0.35482047073E+03 -0.19175383539E+03  0.18652643881E+04  0.19083705975E+04  0.25500000920E-02 0. -1.
       -2    1    3    3    0  502 -0.35482047073E+03  0.19175383539E+03 -0.14304348954E+03  0.42793520508E+03  0.25500000920E-02 0.  1.
</event>
<event>
 5   0  0.1030027E-03  0.1609510E+04  0.7818609E-02  0.8814727E-01
       -2   -1    0    0    0  501  0.00000000000E+00  0.00000000000E+00  0.81868960978E+03  0.81868960978E+03  0.25500000920E-02 0. -1.
        2   -1    0    0  501    0  0.00000000000E+00  0.00000000000E+00 -0.79105740052E+03  0.79105740052E+03  0.25500000920E-02 0.  1.
    10030    2    1    2    0    0  0.00000000000E+00  0.00000000000E+00  0.27632209260E+02  0.16097470103E+04  0.16095098317E+04 0.  0.
        1    1    3    3  502    0 -0.74373616755E+03  0.13742057129E+03  0.28881584563E+03  0.80959402977E+03  0.50400001928E-02 0. -1.
       -1    1    3    3    0  502  0.74373616755E+03 -0.13742057129E+03 -0.26118363637E+03  0.80015298054E+03  0.50400001928E-02 0.  1.
</event>
<event>
 5   0  0.5288658E-04  0.1686075E+04  0.7818609E-02  0.8769347E-01
        1   -1    0    0  501    0  0.00000000000E+00  0.00000000000E+00  0.23821973754E+04  0.23821973754E+04  0.50400001928E-02 0. -1.
       -1   -1    0    0    0  501  0.00000000000E+00  0.00000000000E+00 -0.29834297427E+03  0.29834297431E+03  0.50400001928E-02 0.  1.
    10030    2    1    2    0    0  0.00000000000E+00  0.00000000000E+00  0.20838544011E+04  0.26805403497E+04  0.16860745539E+04 0.  0.
        1    1    3    3  502    0 -0.10287615201E+03 -0.36900715704E+03 -0.15197986173E+03  0.41212578540E+03  0.50400001928E-02 0.  1.
       -1    1    3    3    0  502  0.10287615201E+03  0.36900715704E+03  0.22358342629E+04  0.22684145643E+04  0.50400001928E-02 0. -1.
</event>
<event>
 5   0  0.1030027E-03  0.1599151E+04  0.7818609E-02  0.8821070E-01
       -2   -1    0    0    0  501  0.00000000000E+00  0.00000000000E+00  0.45606950250E+03  0.45606950251E+03  0.25500000920E-02 0. -1.
        2   -1    0    0  501    0  0.00000000000E+00  0.00000000000E+00 -0.14018063227E+04  0.14018063227E+04  0.25500000920E-02 0.  1.
    10030    2    1    2    0    0  0.00000000000E+00  0.00000000000E+00 -0.94573682021E+03  0.18578758252E+04  0.15991511651E+04 0.  0.
        1    1    3    3  502    0 -0.59048436620E+03 -0.40143253428E+03 -0.54783841470E+02  0.71611530889E+03  0.50400001928E-02 0. -1.
       -1    1    3    3    0  502  0.59048436620E+03  0.40143253428E+03 -0.89095297874E+03  0.11417605163E+04  0.50400001928E-02 0.  1.
</event>
<event>
 5   0  0.1030027E-03  0.1624865E+04  0.7818609E-02  0.8805416E-01
        2   -1    0    0  501    0  0.00000000000E+00  0.00000000000E+00  0.62010998831E+03  0.62010998831E+03  0.25500000920E-02 0.  1.
       -2   -1    0    0    0  501  0.00000000000E+00  0.00000000000E+00 -0.10644026035E+04  0.10644026035E+04  0.25500000920E-02 0. -1.
    10030    2    1    2    0    0  0.00000000000E+00  0.00000000000E+00 -0.44429261517E+03  0.16845125918E+04  0.16248651464E+04 0.  0.
        1    1    3    3  502    0  0.39475916787E+03 -0.56549591997E+03 -0.66735978864E+03  0.95968199088E+03  0.50400001928E-02 0. -1.
       -1    1    3    3    0  502 -0.39475916787E+03  0.56549591997E+03  0.22306717347E+03  0.72483060091E+03  0.50400001928E-02 0.  1.
</event>
<event>
 5   0  0.1037321E-03  0.1588748E+04  0.7818609E-02  0.8827490E-01
       -2   -1    0    0    0  501  0.00000000000E+00  0.00000000000E+00  0.11971437041E+04  0.11971437041E+04  0.25500000920E-02 0. -1.
        2   -1    0    0  501    0  0.00000000000E+00  0.00000000000E+00 -0.52711307041E+03  0.52711307042E+03  0.25500000920E-02 0.  1.
    10030    2    1    2    0    0  0.00000000000E+00  0.00000000000E+00  0.67003063368E+03  0.17242567745E+04  0.15887480525E+04 0.  0.
        5    1    3    3  502    0 -0.35717266737E+03 -0.69755627537E+03  0.47589840813E+03  0.91687428608E+03  0.46999998093E+01 0. -1.
       -5    1    3    3    0  502  0.35717266737E+03  0.69755627537E+03  0.19413222556E+03  0.80738248843E+03  0.46999998093E+01 0.  1.
</event>
<event>
 5   0  0.9844690E-04  0.1622150E+04  0.7818609E-02  0.8807055E-01
        2   -1    0    0  501    0  0.00000000000E+00  0.00000000000E+00  0.12995239541E+04  0.12995239541E+04  0.25500000920E-02 0. -1.
       -2   -1    0    0    0  501  0.00000000000E+00  0.00000000000E+00 -0.50621841315E+03  0.50621841315E+03  0.25500000920E-02 0.  1.
    10030    2    1    2    0    0  0.00000000000E+00  0.00000000000E+00  0.79330554096E+03  0.18057423673E+04  0.16221503678E+04 0.  0.
        3    1    3    3  502    0  0.53951229550E+03 -0.32209526997E+03 -0.17425035441E+03  0.65205987160E+03  0.10100000352E+00 0.  1.
       -3    1    3    3    0  502 -0.53951229550E+03  0.32209526997E+03  0.96755589538E+03  0.11536824957E+04  0.10100000352E+00 0. -1.
</event>
<event>
 5   0  0.5532881E-04  0.1559384E+04  0.7818609E-02  0.8845896E-01
       -1   -1    0    0    0  501  0.00000000000E+00  0.00000000000E+00  0.11912506011E+04  0.11912506011E+04  0.50400001928E-02 0. -1.
        1   -1    0    0  501    0  0.00000000000E+00  0.00000000000E+00 -0.51032082735E+03  0.51032082738E+03  0.50400001928E-02 0.  1.
    10030    2    1    2    0    0  0.00000000000E+00  0.00000000000E+00  0.68092977372E+03  0.17015714285E+04  0.15593844841E+04 0.  0.
        4    1    3    3  502    0 -0.71756693713E+03  0.27572377589E+03  0.48270602767E+03  0.90770734926E+03  0.12699999809E+01 0. -1.
       -4    1    3    3    0  502  0.71756693713E+03 -0.27572377589E+03  0.19822374605E+03  0.79386407920E+03  0.12699999809E+01 0.  1.
</event>
<event>
 5   0  0.5288658E-04  0.1620352E+04  0.7818609E-02  0.8808142E-01
       -1   -1    0    0    0  501  0.00000000000E+00  0.00000000000E+00  0.71637844153E+03  0.71637844155E+03  0.50400001928E-02 0. -1.
        1   -1    0    0  501    0  0.00000000000E+00  0.00000000000E+00 -0.91625420692E+03  0.91625420693E+03  0.50400001928E-02 0.  1.
    10030    2    1    2    0    0  0.00000000000E+00  0.00000000000E+00 -0.19987576539E+03  0.16326326485E+04  0.16203515184E+04 0.  0.
        1    1    3    3  502    0 -0.30757554371E+03  0.20717133246E+03  0.62584246549E+03  0.72746234798E+03  0.50400001928E-02 0. -1.
       -1    1    3    3    0  502  0.30757554371E+03 -0.20717133246E+03 -0.82571823088E+03  0.90517030051E+03  0.50400001928E-02 0.  1.
</event>
<event>
 5   0  0.5288658E-04  0.1991699E+04  0.7818609E-02  0.8610511E-01
       -1   -1    0    0    0  501  0.00000000000E+00  0.00000000000E+00  0.61760596754E+03  0.61760596756E+03  0.50400001928E-02 0. -1.
        1   -1    0    0  501    0  0.00000000000E+00  0.00000000000E+00 -0.16057430134E+04  0.16057430134E+04  0.50400001928E-02 0.  1.
    10030    2    1    2    0    0  0.00000000000E+00  0.00000000000E+00 -0.98813704586E+03  0.22233489810E+04  0.19916992418E+04 0.  0.
        1    1    3    3  502    0 -0.95209260497E+03 -0.28873060745E+03 -0.44578547343E+03  0.10902157495E+04  0.50400001928E-02 0.  1.
       -1    1    3    3    0  502  0.95209260497E+03  0.28873060745E+03 -0.54235157243E+03  0.11331332315E+04  0.50400001928E-02 0. -1.
</event>
<event>
 5   0  0.1037321E-03  0.1373775E+04  0.7818609E-02  0.8973023E-01
        2   -1    0    0  501    0  0.00000000000E+00  0.00000000000E+00  0.15278797543E+04  0.15278797543E+04  0.25500000920E-02 0.  1.
       -2   -1    0    0    0  501  0.00000000000E+00  0.00000000000E+00 -0.30880340184E+03  0.30880340185E+03  0.25500000920E-02 0. -1.
    10030    2    1    2    0    0  0.00000000000E+00  0.00000000000E+00  0.12190763525E+04  0.18366831562E+04  0.13737750409E+04 0.  0.
        5    1    3    3  502    0  0.45375856578E+03  0.43030696145E+03  0.22966378145E+03  0.66620451784E+03  0.46999998093E+01 0. -1.
       -5    1    3    3    0  502 -0.45375856578E+03 -0.43030696145E+03  0.98941257102E+03  0.11704786383E+04  0.46999998093E+01 0.  1.
</event>
<event>
 5   0  0.1030027E-03  0.1605225E+04  0.7818609E-02  0.8817344E-01
       -2   -1    0    0    0  501  0.00000000000E+00  0.00000000000E+00  0.82601828980E+03  0.82601828981E+03  0.25500000920E-02 0. -1.
        2   -1    0    0  501    0  0.00000000000E+00  0.00000000000E+00 -0.77987040486E+03  0.77987040487E+03  0.25500000920E-02 0.  1.
    10030    2    1    2    0    0  0.00000000000E+00  0.00000000000E+00  0.46147884941E+02  0.16058886947E+04  0.16052254896E+04 0.  0.
        1    1    3    3  502    0 -0.10401284573E+03  0.25634462626E+03  0.77681470293E+03  0.82460434283E+03  0.50400001928E-02 0. -1.
       -1    1    3    3    0  502  0.10401284573E+03 -0.25634462626E+03 -0.73066681799E+03  0.78128435184E+03  0.50400001928E-02 0.  1.
</event>
<event>
 5   0  0.5425525E-04  0.1616467E+04  0.7818609E-02  0.8810495E-01
       -1   -1    0    0    0  501  0.00000000000E+00  0.00000000000E+00  0.63094835407E+03  0.63094835409E+03  0.50400001928E-02 0.  1.
        1   -1    0    0  501    0  0.00000000000E+00  0.00000000000E+00 -0.10353322291E+04  0.10353322291E+04  0.50400001928E-02 0. -1.
    10030    2    1    2    0    0  0.00000000000E+00  0.00000000000E+00 -0.40438387507E+03  0.16662805832E+04  0.16164667221E+04 0.  0.
        5    1    3    3  502    0 -0.36822492638E+03 -0.68960845653E+03 -0.41362156604E+03  0.88445141733E+03  0.46999998093E+01 0. -1.
       -5    1    3    3    0  502  0.36822492638E+03  0.68960845653E+03  0.92376909741E+01  0.78182916591E+03  0.46999998093E+01 0.  1.
</event>
<event>
 5   0  0.5623061E-04  0.1546736E+04  0.7818609E-02  0.8853955E-01
        1   -1    0    0  501    0  0.00000000000E+00  0.00000000000E+00  0.89790525036E+03  0.89790525037E+03  0.50400001928E-02 0.  1.
       -1   -1    0    0    0  501  0.00000000000E+00  0.00000000000E+00 -0.66610370436E+03  0.66610370438E+03  0.50400001928E-02 0. -1.
    10030    2    1    2    0    0  0.00000000000E+00  0.00000000000E+00  0.23180154600E+03  0.15640089547E+04  0.15467359354E+04 0.  0.
        3    1    3    3  502    0 -0.65289564086E+03 -0.38788993801E+03  0.26370661393E+03  0.80391076016E+03  0.10100000352E+00 0. -1.
       -3    1    3    3    0  502  0.65289564086E+03  0.38788993801E+03 -0.31905067927E+02  0.76009819459E+03  0.10100000352E+00 0.  1.
</event>
<event>
 5   0  0.1030027E-03  0.1593818E+04  0.7818609E-02  0.8824355E-01
        2   -1    0    0  501    0  0.00000000000E+00  0.00000000000E+00  0.10026742856E+04  0.10026742856E+04  0.25500000920E-02 0.  1.
       -2   -1    0    0    0  501  0.00000000000E+00  0.00000000000E+00 -0.63337000629E+03  0.63337000629E+03  0.25500000920E-02 0. -1.
    10030    2    1    2    0    0  0.00000000000E+00  0.00000000000E+00  0.36930427929E+03  0.16360442919E+04  0.15938178297E+04 0.  0.
        1    1    3    3  502    0  0.26274337620E+03 -0.65073449006E+03 -0.20294190171E+03  0.73053054268E+03  0.50400001928E-02 0. -1.
       -1    1    3    3    0  502 -0.26274337620E+03  0.65073449006E+03  0.57224618100E+03  0.90551374920E+03  0.50400001928E-02 0.  1.
</event>
<event>
 5   0  0.5288658E-04  0.1589397E+04  0.7818609E-02  0.8827088E-01
        1   -1    0    0  501    0  0.00000000000E+00  0.00000000000E+00  0.76050059374E+03  0.76050059376E+03  0.50400001928E-02 0.  1.
       -1   -1    0    0    0  501  0.00000000000E+00  0.00000000000E+00 -0.83043412387E+03  0.83043412388E+03  0.50400001928E-02 0. -1.
    10030    2    1    2    0    0  0.00000000000E+00  0.00000000000E+00 -0.69933530128E+02  0.15909347176E+04  0.15893969225E+04 0.  0.
        1    1    3    3  502    0  0.42357116798E+02 -0.63121737640E+03  0.44645194203E+03  0.77430539077E+03  0.50400001928E-02 0.  1.
       -1    1    3    3    0  502 -0.42357116798E+02  0.63121737640E+03 -0.51638547216E+03  0.81662932687E+03  0.50400001928E-02 0. -1.
</event>
<event>
 5   0  0.5281116E-04  0.1598751E+04  0.7818609E-02  0.8821316E-01
       -1   -1    0    0    0  501  0.00000000000E+00  0.00000000000E+00  0.14185463564E+04  0.14185463564E+04  0.50400001928E-02 0.  1.
        1   -1    0    0  501    0  0.00000000000E+00  0.00000000000E+00 -0.45046201879E+03  0.45046201882E+03  0.50400001928E-02 0. -1.
    10030    2    1    2    0    0  0.00000000000E+00  0.00000000000E+00  0.96808433763E+03  0.18690083752E+04  0.15987510819E+04 0.  0.
        2    1    3    3  502    0  0.23753811266E+02 -0.70350935353E+03  0.41174576130E+02  0.70511346589E+03  0.25500000920E-02 0. -1.
       -2    1    3    3    0  502 -0.23753811266E+02  0.70350935353E+03  0.92690976150E+03  0.11638949094E+04  0.25500000920E-02 0.  1.
</event>
<event>
 5   0  0.5532881E-04  0.1583370E+04  0.7818609E-02  0.8830830E-01
        1   -1    0    0  501    0  0.00000000000E+00  0.00000000000E+00  0.92536651039E+03  0.92536651040E+03  0.50400001928E-02 0.  1.
       -1   -1    0    0    0  501  0.00000000000E+00  0.00000000000E+00 -0.67731542915E+03  0.67731542917E+03  0.50400001928E-02 0. -1.
    10030    2    1    2    0    0  0.00000000000E+00  0.00000000000E+00  0.24805108124E+03  0.16026819396E+04  0.15833698433E+04 0.  0.
        4    1    3    3  502    0 -0.22819031560E+03  0.75242068144E+03  0.30400341651E+02  0.78685036422E+03  0.12699999809E+01 0.  1.
       -4    1    3    3    0  502  0.22819031560E+03 -0.75242068144E+03  0.21765073959E+03  0.81583157535E+03  0.12699999809E+01 0. -1.
</event>
<event>
 5   0  0.5281116E-04  0.1593524E+04  0.7818609E-02  0.8824537E-01
       -1   -1    0    0    0  501  0.00000000000E+00  0.00000000000E+00  0.90448398029E+03  0.90448398030E+03  0.50400001928E-02 0.  1.
        1   -1    0    0  501    0  0.00000000000E+00  0.00000000000E+00 -0.70186912050E+03  0.70186912051E+03  0.50400001928E-02 0. -1.
    10030    2    1    2    0    0  0.00000000000E+00  0.00000000000E+00  0.20261485979E+03  0.16063531008E+04  0.15935236123E+04 0.  0.
        2    1    3    3  502    0  0.35325728974E+03 -0.61981919576E+03 -0.25632035683E+03  0.75806772357E+03  0.25500000920E-02 0. -1.
       -2    1    3    3    0  502 -0.35325728974E+03  0.61981919576E+03  0.45893521663E+03  0.84828537725E+03  0.25500000920E-02 0.  1.
</event>
<event>
 5   0  0.5288658E-04  0.1444476E+04  0.7818609E-02  0.8922239E-01
        1   -1    0    0  501    0  0.00000000000E+00  0.00000000000E+00  0.13529386470E+04  0.13529386470E+04  0.50400001928E-02 0.  1.
       -1   -1    0    0    0  501  0.00000000000E+00  0.00000000000E+00 -0.38555188539E+03  0.38555188543E+03  0.50400001928E-02 0. -1.
    10030    2    1    2    0    0  0.00000000000E+00  0.00000000000E+00  0.96738676163E+03  0.17384905325E+04  0.14444764397E+04 0.  0.
        1    1    3    3  502    0 -0.29829685665E+03 -0.27203691739E+03  0.12044572610E+04  0.12703158633E+04  0.50400001928E-02 0.  1.
       -1    1    3    3    0  502  0.29829685665E+03  0.27203691739E+03 -0.23707049935E+03  0.46817466911E+03  0.50400001928E-02 0. -1.
</event>
<event>
 5   0  0.5623061E-04  0.1581049E+04  0.7818609E-02  0.8832276E-01
       -1   -1    0    0    0  501  0.00000000000E+00  0.00000000000E+00  0.13438732743E+04  0.13438732743E+04  0.50400001928E-02 0. -1.
        1   -1    0    0  501    0  0.00000000000E+00  0.00000000000E+00 -0.46502068218E+03  0.46502068220E+03  0.50400001928E-02 0.  1.
    10030    2    1    2    0    0  0.00000000000E+00  0.00000000000E+00  0.87885259210E+03  0.18088939565E+04  0.15810488504E+04 0.  0.
        3    1    3    3  502    0 -0.76296446670E+03 -0.12190398833E+03  0.63071348739E+03  0.99738401490E+03  0.10100000352E+00 0.  1.
       -3    1    3    3    0  502  0.76296446670E+03  0.12190398833E+03  0.24813910472E+03  0.81150994159E+03  0.10100000352E+00 0. -1.
</event>
<event>
 5   0  0.5532881E-04  0.1597356E+04  0.7818609E-02  0.8822174E-01
        1   -1    0    0  501    0  0.00000000000E+00  0.00000000000E+00  0.17169194714E+04  0.17169194715E+04  0.50400001928E-02 0.  1.
       -1   -1    0    0    0  501  0.00000000000E+00  0.00000000000E+00 -0.37152962437E+03  0.37152962440E+03  0.50400001928E-02 0. -1.
    10030    2    1    2    0    0  0.00000000000E+00  0.00000000000E+00  0.13453898471E+04  0.20884490959E+04  0.15973558731E+04 0.  0.
        4    1    3    3  502    0 -0.59160053876E+03 -0.38966175866E+03  0.19043273249E+03  0.73354871831E+03  0.12699999809E+01 0.  1.
       -4    1    3    3    0  502  0.59160053876E+03  0.38966175866E+03  0.11549571146E+04  0.13549003775E+04  0.12699999809E+01 0. -1.
</event>
<event>
 5   0  0.9844690E-04  0.1598225E+04  0.7818609E-02  0.8821639E-01
        2   -1    0    0  501    0  0.00000000000E+00  0.00000000000E+00  0.13877591604E+04  0.13877591604E+04  0.25500000920E-02 0.  1.
       -2   -1    0    0    0  501  0.00000000000E+00  0.00000000000E+00 -0.46015241932E+03  0.46015241933E+03  0.25500000920E-02 0. -1.
    10030    2    1    2    0    0  0.00000000000E+00  0.00000000000E+00  0.92760674103E+03  0.18479115797E+04  0.15982249342E+04 0.  0.
        3    1    3    3  502    0 -0.93906351283E+02  0.41205665949E+03 -0.32036407515E+03  0.53032277369E+03  0.10100000352E+00 0. -1.
       -3    1    3    3    0  502  0.93906351283E+02 -0.41205665949E+03  0.12479708162E+04  0.13175888060E+04  0.10100000352E+00 0.  1.
</event>
<event>
 5   0  0.5281116E-04  0.1574085E+04  0.7818609E-02  0.8836629E-01
        1   -1    0    0  501    0  0.00000000000E+00  0.00000000000E+00  0.16616586476E+04  0.16616586476E+04  0.50400001928E-02 0.  1.
       -1   -1    0    0    0  501  0.00000000000E+00  0.00000000000E+00 -0.37278144134E+03  0.37278144137E+03  0.50400001928E-02 0. -1.
    10030    2    1    2    0    0  0.00000000000E+00  0.00000000000E+00  0.12888772063E+04  0.20344400890E+04  0.15740845031E+04 0.  0.
        2    1    3    3  502    0  0.66949575866E+03 -0.22686275374E+03  0.10916822211E+04  0.13005619369E+04  0.25500000920E-02 0.  1.
       -2    1    3    3    0  502 -0.66949575866E+03  0.22686275374E+03  0.19719498518E+03  0.73387815207E+03  0.25500000920E-02 0. -1.
</event>
<event>
 5   0  0.5623061E-04  0.1594028E+04  0.7818609E-02  0.8824225E-01
        1   -1    0    0  501    0  0.00000000000E+00  0.00000000000E+00  0.12856173602E+04  0.12856173602E+04  0.50400001928E-02 0.  1.
       -1   -1    0    0    0  501  0.00000000000E+00  0.00000000000E+00 -0.49410622630E+03  0.49410622632E+03  0.50400001928E-02 0. -1.
    10030    2    1    2    0    0  0.00000000000E+00  0.00000000000E+00  0.79151113387E+03  0.17797235865E+04  0.15940282837E+04 0.  0.
        3    1    3    3  502    0  0.30272122521E+03  0.55987602533E+03 -0.13984788473E+03  0.65165845732E+03  0.10100000352E+00 0. -1.
       -3    1    3    3    0  502 -0.30272122521E+03 -0.55987602533E+03  0.93135901860E+03  0.11280651292E+04  0.10100000352E+00 0.  1.
</event>
<event>
 5   0  0.5281116E-04  0.1580764E+04  0.7818609E-02  0.8832453E-01
        1   -1    0    0  501    0  0.00000000000E+00  0.00000000000E+00  0.14408895744E+04  0.14408895744E+04  0.50400001928E-02 0.  1.
       -1   -1    0    0    0  501  0.00000000000E+00  0.00000000000E+00 -0.43355415972E+03  0.43355415975E+03  0.50400001928E-02 0. -1.
    10030    2    1    2    0    0  0.00000000000E+00  0.00000000000E+00  0.10073354147E+04  0.18744437342E+04  0.15807639529E+04 0.  0.
        2    1    3    3  502    0  0.56777559444E+03 -0.43740952434E+03  0.10859097777E+03  0.72490566151E+03  0.25500000920E-02 0. -1.
       -2    1    3    3    0  502 -0.56777559444E+03  0.43740952434E+03  0.89874443692E+03  0.11495380727E+04  0.25500000920E-02 0.  1.
</event>
<event>
 5   0  0.1030027E-03  0.1592027E+04  0.7818609E-02  0.8825461E-01
       -2   -1    0    0    0  501  0.00000000000E+00  0.00000000000E+00  0.82459756571E+03  0.82459756572E+03  0.25500000920E-02 0. -1.
        2   -1    0    0  501    0  0.00000000000E+00  0.00000000000E+00 -0.76842060964E+03  0.76842060964E+03  0.25500000920E-02 0.  1.
    10030    2    1    2    0    0  0.00000000000E+00  0.00000000000E+00  0.56176956076E+02  0.15930181754E+04  0.15920273417E+04 0.  0.
        1    1    3    3  502    0  0.24818488202E+03 -0.53554469938E+02  0.78299419656E+03  0.82313044458E+03  0.50400001928E-02 0. -1.
       -1    1    3    3    0  502 -0.24818488202E+03  0.53554469938E+02 -0.72681724049E+03  0.76988773078E+03  0.50400001928E-02 0.  1.
</event>
<event>
 5   0  0.5288658E-04  0.1603034E+04  0.7818609E-02  0.8818686E-01
        1   -1    0    0  501    0  0.00000000000E+00  0.00000000000E+00  0.85775125603E+03  0.85775125604E+03  0.50400001928E-02 0.  1.
       -1   -1    0    0    0  501  0.00000000000E+00  0.00000000000E+00 -0.74896966891E+03  0.74896966893E+03  0.50400001928E-02 0. -1.
    10030    2    1    2    0    0  0.00000000000E+00  0.00000000000E+00  0.10878158711E+03  0.16067209250E+04  0.16030342158E+04 0.  0.
        1    1    3    3  502    0  0.26220672671E+03  0.73447087895E+03  0.23982935876E+03  0.81591541283E+03  0.50400001928E-02 0.  1.
       -1    1    3    3    0  502 -0.26220672671E+03 -0.73447087895E+03 -0.13104777165E+03  0.79080551214E+03  0.50400001928E-02 0. -1.
</event>
<event>
 5   0  0.1057872E-03  0.1558166E+04  0.7818609E-02  0.8846668E-01
        2   -1    0    0  501    0  0.00000000000E+00  0.00000000000E+00  0.99039250389E+03  0.99039250389E+03  0.25500000920E-02 0. -1.
       -2   -1    0    0    0  501  0.00000000000E+00  0.00000000000E+00 -0.61285870025E+03  0.61285870025E+03  0.25500000920E-02 0.  1.
    10030    2    1    2    0    0  0.00000000000E+00  0.00000000000E+00  0.37753380364E+03  0.16032512041E+04  0.15581664387E+04 0.  0.
        2    1    3    3  502    0 -0.15706389649E+03 -0.76169891281E+03  0.23610192954E+03  0.81277206060E+03  0.25500000920E-02 0. -1.
       -2    1    3    3    0  502  0.15706389649E+03  0.76169891281E+03  0.14143187411E+03  0.79047914354E+03  0.25500000920E-02 0.  1.
</event>
<event>
 5   0  0.5425525E-04  0.1808894E+04  0.7818609E-02  0.8701584E-01
        1   -1    0    0  501    0  0.00000000000E+00  0.00000000000E+00  0.14583639658E+04  0.14583639658E+04  0.50400001928E-02 0.  1.
       -1   -1    0    0    0  501  0.00000000000E+00  0.00000000000E+00 -0.56091924648E+03  0.56091924650E+03  0.50400001928E-02 0. -1.
    10030    2    1    2    0    0  0.00000000000E+00  0.00000000000E+00  0.89744471928E+03  0.20192832123E+04  0.18088940453E+04 0.  0.
        5    1    3    3  502    0 -0.11187997445E+03 -0.20539922198E+03 -0.52656074463E+03  0.57618944528E+03  0.46999998093E+01 0. -1.
       -5    1    3    3    0  502  0.11187997445E+03  0.20539922198E+03  0.14240054639E+04  0.14430937670E+04  0.46999998093E+01 0.  1.
</event>
<event>
 5   0  0.5532881E-04  0.1617368E+04  0.7818609E-02  0.8809949E-01
        1   -1    0    0  501    0  0.00000000000E+00  0.00000000000E+00  0.41832010297E+03  0.41832010300E+03  0.50400001928E-02 0. -1.
       -1   -1    0    0    0  501  0.00000000000E+00  0.00000000000E+00 -0.15633238363E+04  0.15633238363E+04  0.50400001928E-02 0.  1.
    10030    2    1    2    0    0  0.00000000000E+00  0.00000000000E+00 -0.11450037333E+04  0.19816439393E+04  0.16173679707E+04 0.  0.
        4    1    3    3  502    0 -0.57734759192E+03  0.51129682249E+03 -0.87064658784E+03  0.11630914738E+04  0.12699999809E+01 0.  1.
       -4    1    3    3    0  502  0.57734759192E+03 -0.51129682249E+03 -0.27435714546E+03  0.81855246548E+03  0.12699999809E+01 0. -1.
</event>
<event>
 5   0  0.5623061E-04  0.1614996E+04  0.7818609E-02  0.8811388E-01
        1   -1    0    0  501    0  0.00000000000E+00  0.00000000000E+00  0.11001787855E+04  0.11001787855E+04  0.50400001928E-02 0.  1.
       -1   -1    0    0    0  501  0.00000000000E+00  0.00000000000E+00 -0.59267891020E+03  0.59267891022E+03  0.50400001928E-02 0. -1.
    10030    2    1    2    0    0  0.00000000000E+00  0.00000000000E+00  0.50749987528E+03  0.16928576957E+04  0.16149956825E+04 0.  0.
        3    1    3    3  502    0 -0.67480194821E+03  0.36618775958E+03 -0.85159665203E+01  0.76780445197E+03  0.10100000352E+00 0. -1.
       -3    1    3    3    0  502  0.67480194821E+03 -0.36618775958E+03  0.51601584180E+03  0.92505324375E+03  0.10100000352E+00 0.  1.
</event>
<event>
 5   0  0.3832500E-04  0.1601925E+04  0.7818609E-02  0.8819367E-01
        3   -1    0    0  501    0  0.00000000000E+00  0.00000000000E+00  0.48088368305E+03  0.48088369365E+03  0.10100000352E+00 0. -1.
       -3   -1    0    0    0  501  0.00000000000E+00  0.00000000000E+00 -0.13340868451E+04  0.13340868489E+04  0.10100000352E+00 0.  1.
    10030    2    1    2    0    0  0.00000000000E+00  0.00000000000E+00 -0.85320316204E+03  0.18149705426E+04  0.16019246033E+04 0.  0.
        3    1    3    3  502    0 -0.30924948017E+03  0.45718817435E+03  0.23100767113E+03  0.59834841194E+03  0.10100000352E+00 0. -1.
       -3    1    3    3    0  502  0.30924948017E+03 -0.45718817435E+03 -0.10842108332E+04  0.12166221306E+04  0.10100000352E+00 0.  1.
</event>
<event>
 5   0  0.9844690E-04  0.1582784E+04  0.7818609E-02  0.8831195E-01
        2   -1    0    0  501    0  0.00000000000E+00  0.00000000000E+00  0.75874305815E+03  0.75874305816E+03  0.25500000920E-02 0. -1.
       -2   -1    0    0    0  501  0.00000000000E+00  0.00000000000E+00 -0.82544545468E+03  0.82544545469E+03  0.25500000920E-02 0.  1.
    10030    2    1    2    0    0  0.00000000000E+00  0.00000000000E+00 -0.66702396532E+02  0.15841885128E+04  0.15827836348E+04 0.  0.
        3    1    3    3  502    0 -0.73710446233E+03  0.11967050518E+03  0.22890614506E+03  0.78105188794E+03  0.10100000352E+00 0. -1.
       -3    1    3    3    0  502  0.73710446233E+03 -0.11967050518E+03 -0.29560854159E+03  0.80313662491E+03  0.10100000352E+00 0.  1.
</event>
<event>
 5   0  0.1000121E-03  0.1567895E+04  0.7818609E-02  0.8840518E-01
        2   -1    0    0  501    0  0.00000000000E+00  0.00000000000E+00  0.80623681756E+03  0.80623681757E+03  0.25500000920E-02 0. -1.
       -2   -1    0    0    0  501  0.00000000000E+00  0.00000000000E+00 -0.76227403038E+03  0.76227403039E+03  0.25500000920E-02 0.  1.
    10030    2    1    2    0    0  0.00000000000E+00  0.00000000000E+00  0.43962787180E+02  0.15685108480E+04  0.15678946245E+04 0.  0.
        4    1    3    3  502    0 -0.48968920661E+03  0.57036439250E+03  0.24446645491E+03  0.79049131544E+03  0.12699999809E+01 0. -1.
       -4    1    3    3    0  502  0.48968920661E+03 -0.57036439250E+03 -0.20050366773E+03  0.77801953252E+03  0.12699999809E+01 0.  1.
</event>
<event>
 5   0  0.5532881E-04  0.1108937E+04  0.7818609E-02  0.9196524E-01
       -1   -1    0    0    0  501  0.00000000000E+00  0.00000000000E+00  0.51595241344E+03  0.51595241347E+03  0.50400001928E-02 0.  1.
        1   -1    0    0  501    0  0.00000000000E+00  0.00000000000E+00 -0.59586023223E+03  0.59586023225E+03  0.50400001928E-02 0. -1.
    10030    2    1    2    0    0  0.00000000000E+00  0.00000000000E+00 -0.79907818791E+02  0.11118126457E+04  0.11089373741E+04 0.  0.
        4    1    3    3  502    0 -0.53490531366E+03  0.14218485287E+03 -0.67972531136E+01  0.55352329898E+03  0.12699999809E+01 0.  1.
       -4    1    3    3    0  502  0.53490531366E+03 -0.14218485287E+03 -0.73110565678E+02  0.55828934674E+03  0.12699999809E+01 0. -1.
</event>
<event>
 5   0  0.5425525E-04  0.1567367E+04  0.7818609E-02  0.8840850E-01
        1   -1    0    0  501    0  0.00000000000E+00  0.00000000000E+00  0.16070054687E+04  0.16070054687E+04  0.50400001928E-02 0.  1.
       -1   -1    0    0    0  501  0.00000000000E+00  0.00000000000E+00 -0.38217664949E+03  0.38217664953E+03  0.50400001928E-02 0. -1.
    10030    2    1    2    0    0  0.00000000000E+00  0.00000000000E+00  0.12248288192E+04  0.19891821182E+04  0.15673671756E+04 0.  0.
        5    1    3    3  502    0  0.68168799491E+02 -0.39887778832E+03  0.14641345470E+04  0.15190334220E+04  0.46999998093E+01 0.  1.
       -5    1    3    3    0  502 -0.68168799491E+02  0.39887778832E+03 -0.23930572782E+03  0.47014869627E+03  0.46999998093E+01 0. -1.
</event>
<event>
 5   0  0.9844690E-04  0.1601960E+04  0.7818609E-02  0.8819345E-01
       -2   -1    0    0    0  501  0.00000000000E+00  0.00000000000E+00  0.21829891454E+04  0.21829891454E+04  0.25500000920E-02 0. -1.
        2   -1    0    0  501    0  0.00000000000E+00  0.00000000000E+00 -0.29389487157E+03  0.29389487158E+03  0.25500000920E-02 0.  1.
    10030    2    1    2    0    0  0.00000000000E+00  0.00000000000E+00  0.18890942738E+04  0.24768840170E+04  0.16019604421E+04 0.  0.
        3    1    3    3  502    0  0.77937677096E+03  0.18462957012E+03  0.95581130541E+03  0.12470330754E+04  0.10100000352E+00 0.  1.
       -3    1    3    3    0  502 -0.77937677096E+03 -0.18462957012E+03  0.93328296839E+03  0.12298509416E+04  0.10100000352E+00 0. -1.
</event>
<event>
 5   0  0.5532881E-04  0.1530053E+04  0.7818609E-02  0.8864710E-01
       -1   -1    0    0    0  501  0.00000000000E+00  0.00000000000E+00  0.13082428608E+04  0.13082428608E+04  0.50400001928E-02 0. -1.
        1   -1    0    0  501    0  0.00000000000E+00  0.00000000000E+00 -0.44736792814E+03  0.44736792817E+03  0.50400001928E-02 0.  1.
    10030    2    1    2    0    0  0.00000000000E+00  0.00000000000E+00  0.86087493264E+03  0.17556107890E+04  0.15300534607E+04 0.  0.
        4    1    3    3  502    0  0.16803171663E+03 -0.14014676297E+03 -0.41069776650E+03  0.46534937550E+03  0.12699999809E+01 0.  1.
       -4    1    3    3    0  502 -0.16803171663E+03  0.14014676297E+03  0.12715726991E+04  0.12902614135E+04  0.12699999809E+01 0. -1.
</event>
<event>
 5   0  0.9844690E-04  0.1637569E+04  0.7818609E-02  0.8797795E-01
       -2   -1    0    0    0  501  0.00000000000E+00  0.00000000000E+00  0.94205327315E+03  0.94205327316E+03  0.25500000920E-02 0.  1.
        2   -1    0    0  501    0  0.00000000000E+00  0.00000000000E+00 -0.71164525490E+03  0.71164525490E+03  0.25500000920E-02 0. -1.
    10030    2    1    2    0    0  0.00000000000E+00  0.00000000000E+00  0.23040801825E+03  0.16536985281E+04  0.16375686144E+04 0.  0.
        3    1    3    3  502    0  0.52245208491E+03 -0.10091686586E+03 -0.51323374540E+03  0.73928971484E+03  0.10100000352E+00 0. -1.
       -3    1    3    3    0  502 -0.52245208491E+03  0.10091686586E+03  0.74364176366E+03  0.91440881322E+03  0.10100000352E+00 0.  1.
</event>
<event>
 5   0  0.5425525E-04  0.1616905E+04  0.7818609E-02  0.8810230E-01
        1   -1    0    0  501    0  0.00000000000E+00  0.00000000000E+00  0.12365521665E+04  0.12365521665E+04  0.50400001928E-02 0. -1.
       -1   -1    0    0    0  501  0.00000000000E+00  0.00000000000E+00 -0.52856244846E+03  0.52856244848E+03  0.50400001928E-02 0.  1.
    10030    2    1    2    0    0  0.00000000000E+00  0.00000000000E+00  0.70798971802E+03  0.17651146150E+04  0.16169045003E+04 0.  0.
        5    1    3    3  502    0 -0.13886527015E+03 -0.49385145987E+03  0.10360877356E+04  0.11561456282E+04  0.46999998093E+01 0. -1.
       -5    1    3    3    0  502  0.13886527015E+03  0.49385145987E+03 -0.32809801763E+03  0.60896898676E+03  0.46999998093E+01 0.  1.
</event>
<event>
 5   0  0.5281116E-04  0.1590191E+04  0.7818609E-02  0.8826597E-01
       -1   -1    0    0    0  501  0.00000000000E+00  0.00000000000E+00  0.92267023575E+03  0.92267023577E+03  0.50400001928E-02 0.  1.
        1   -1    0    0  501    0  0.00000000000E+00  0.00000000000E+00 -0.68515975142E+03  0.68515975144E+03  0.50400001928E-02 0. -1.
    10030    2    1    2    0    0  0.00000000000E+00  0.00000000000E+00  0.23751048433E+03  0.16078299872E+04  0.15901905664E+04 0.  0.
        2    1    3    3  502    0  0.23988924638E+03 -0.30311329612E+03 -0.58375552881E+03  0.70013929917E+03  0.25500000920E-02 0. -1.
       -2    1    3    3    0  502 -0.23988924638E+03  0.30311329612E+03  0.82126601314E+03  0.90769068804E+03  0.25500000920E-02 0.  1.
</event>
<event>
 5   0  0.1037321E-03  0.1617119E+04  0.7818609E-02  0.8810100E-01
       -2   -1    0    0    0  501  0.00000000000E+00  0.00000000000E+00  0.63744935406E+03  0.63744935407E+03  0.25500000920E-02 0.  1.
        2   -1    0    0  501    0  0.00000000000E+00  0.00000000000E+00 -0.10256002556E+04  0.10256002556E+04  0.25500000920E-02 0. -1.
    10030    2    1    2    0    0  0.00000000000E+00  0.00000000000E+00 -0.38815090155E+03  0.16630496097E+04  0.16171186975E+04 0.  0.
        5    1    3    3  502    0  0.43200616129E+03 -0.36867497858E+03  0.39776625252E+03  0.69339068703E+03  0.46999998093E+01 0.  1.
       -5    1    3    3    0  502 -0.43200616129E+03  0.36867497858E+03 -0.78591715407E+03  0.96965892266E+03  0.46999998093E+01 0. -1.
</event>
<event>
 5   0  0.5288658E-04  0.1666888E+04  0.7818609E-02  0.8780478E-01
        1   -1    0    0  501    0  0.00000000000E+00  0.00000000000E+00  0.74350857253E+03  0.74350857255E+03  0.50400001928E-02 0.  1.
       -1   -1    0    0    0  501  0.00000000000E+00  0.00000000000E+00 -0.93425819798E+03  0.93425819800E+03  0.50400001928E-02 0. -1.
    10030    2    1    2    0    0  0.00000000000E+00  0.00000000000E+00 -0.19074962545E+03  0.16777667705E+04  0.16668880936E+04 0.  0.
        1    1    3    3  502    0  0.15252083547E+03 -0.54774218180E+03 -0.70873256972E+03  0.90861760845E+03  0.50400001928E-02 0. -1.
       -1    1    3    3    0  502 -0.15252083547E+03  0.54774218180E+03  0.51798294426E+03  0.76914916210E+03  0.50400001928E-02 0.  1.
</event>
<event>
 5   0  0.5288658E-04  0.1598106E+04  0.7818609E-02  0.8821712E-01
        1   -1    0    0  501    0  0.00000000000E+00  0.00000000000E+00  0.90564822987E+03  0.90564822989E+03  0.50400001928E-02 0. -1.
       -1   -1    0    0    0  501  0.00000000000E+00  0.00000000000E+00 -0.70500417889E+03  0.70500417891E+03  0.50400001928E-02 0.  1.
    10030    2    1    2    0    0  0.00000000000E+00  0.00000000000E+00  0.20064405098E+03  0.16106524088E+04  0.15981061125E+04 0.  0.
        1    1    3    3  502    0  0.61124174645E+03  0.29068127030E+03  0.52836052867E+03  0.85864831088E+03  0.50400001928E-02 0. -1.
       -1    1    3    3    0  502 -0.61124174645E+03 -0.29068127030E+03 -0.32771647768E+03  0.75200409791E+03  0.50400001928E-02 0.  1.
</event>
<event>
 5   0  0.9844690E-04  0.1600890E+04  0.7818609E-02  0.8820001E-01
        2   -1    0    0  501    0  0.00000000000E+00  0.00000000000E+00  0.58206025996E+03  0.58206025996E+03  0.25500000920E-02 0. -1.
       -2   -1    0    0    0  501  0.00000000000E+00  0.00000000000E+00 -0.11007660187E+04  0.11007660187E+04  0.25500000920E-02 0.  1.
    10030    2    1    2    0    0  0.00000000000E+00  0.00000000000E+00 -0.51870575872E+03  0.16828262786E+04  0.16008899462E+04 0.  0.
        3    1    3    3  502    0 -0.31895189728E+02  0.63528021531E+03 -0.77013839787E+03  0.99885505313E+03  0.10100000352E+00 0.  1.
       -3    1    3    3    0  502  0.31895189728E+02 -0.63528021531E+03  0.25143263915E+03  0.68397122551E+03  0.10100000352E+00 0. -1.
</event>
<event>
 5   0  0.5532881E-04  0.1473094E+04  0.7818609E-02  0.8902545E-01
       -1   -1    0    0    0  501  0.00000000000E+00  0.00000000000E+00  0.37731613643E+03  0.37731613647E+03  0.50400001928E-02 0. -1.
        1   -1    0    0  501    0  0.00000000000E+00  0.00000000000E+00 -0.14377899197E+04  0.14377899197E+04  0.50400001928E-02 0.  1.
    10030    2    1    2    0    0  0.00000000000E+00  0.00000000000E+00 -0.10604737833E+04  0.18151060562E+04  0.14730938022E+04 0.  0.
        4    1    3    3  502    0  0.33422755128E+03 -0.31264753108E+02 -0.13380520068E+04  0.13795181501E+04  0.12699999809E+01 0.  1.
       -4    1    3    3    0  502 -0.33422755128E+03  0.31264753108E+02  0.27757822351E+03  0.43558790604E+03  0.12699999809E+01 0. -1.
</event>
<event>
 5   0  0.5288658E-04  0.1626243E+04  0.7818609E-02  0.8804586E-01
        1   -1    0    0  501    0  0.00000000000E+00  0.00000000000E+00  0.90753082106E+03  0.90753082108E+03  0.50400001928E-02 0.  1.
       -1   -1    0    0    0  501  0.00000000000E+00  0.00000000000E+00 -0.72853315138E+03  0.72853315140E+03  0.50400001928E-02 0. -1.
    10030    2    1    2    0    0  0.00000000000E+00  0.00000000000E+00  0.17899766968E+03  0.16360639725E+04  0.16262426499E+04 0.  0.
        1    1    3    3  502    0 -0.50626177234E+03 -0.43581700173E+03 -0.37690519040E+03  0.76700388767E+03  0.50400001928E-02 0. -1.
       -1    1    3    3    0  502  0.50626177234E+03  0.43581700173E+03  0.55590286008E+03  0.86906008480E+03  0.50400001928E-02 0.  1.
</event>
<event>
 5   0  0.1037321E-03  0.1589380E+04  0.7818609E-02  0.8827099E-01
        2   -1    0    0  501    0  0.00000000000E+00  0.00000000000E+00  0.15324249252E+04  0.15324249252E+04  0.25500000920E-02 0.  1.
       -2   -1    0    0    0  501  0.00000000000E+00  0.00000000000E+00 -0.41211275015E+03  0.41211275016E+03  0.25500000920E-02 0. -1.
    10030    2    1    2    0    0  0.00000000000E+00  0.00000000000E+00  0.11203121750E+04  0.19445376754E+04  0.15893795649E+04 0.  0.
        5    1    3    3  502    0 -0.17995417489E+03 -0.13193673576E+03  0.14932929457E+04  0.15098797034E+04  0.46999998093E+01 0.  1.
       -5    1    3    3    0  502  0.17995417489E+03  0.13193673576E+03 -0.37298077062E+03  0.43465797192E+03  0.46999998093E+01 0. -1.
</event>
<event>
 5   0  0.5425525E-04  0.1537647E+04  0.7818609E-02  0.8859797E-01
        1   -1    0    0  501    0  0.00000000000E+00  0.00000000000E+00  0.84058759295E+03  0.84058759297E+03  0.50400001928E-02 0. -1.
       -1   -1    0    0    0  501  0.00000000000E+00  0.00000000000E+00 -0.70318582908E+03  0.70318582910E+03  0.50400001928E-02 0.  1.
    10030    2    1    2    0    0  0.00000000000E+00  0.00000000000E+00  0.13740176387E+03  0.15437734221E+04  0.15376466219E+04 0.  0.
        5    1    3    3  502    0 -0.68225336958E+03 -0.33507824843E+03  0.18457348781E+03  0.78219981800E+03  0.46999998093E+01 0. -1.
       -5    1    3    3    0  502  0.68225336958E+03  0.33507824843E+03 -0.47171723938E+02  0.76157360407E+03  0.46999998093E+01 0.  1.
</event>
<event>
 5   0  0.9844690E-04  0.1591009E+04  0.7818609E-02  0.8826091E-01
       -2   -1    0    0    0  501  0.00000000000E+00  0.00000000000E+00  0.30048187582E+03  0.30048187583E+03  0.25500000920E-02 0.  1.
        2   -1    0    0  501    0  0.00000000000E+00  0.00000000000E+00 -0.21060421070E+04  0.21060421070E+04  0.25500000920E-02 0. -1.
    10030    2    1    2    0    0  0.00000000000E+00  0.00000000000E+00 -0.18055602311E+04  0.24065239828E+04  0.15910090922E+04 0.  0.
        3    1    3    3  502    0 -0.31912485412E+03  0.92233852247E+02  0.19055236482E+03  0.38295948866E+03  0.10100000352E+00 0.  1.
       -3    1    3    3    0  502  0.31912485412E+03 -0.92233852247E+02 -0.19961125959E+04  0.20235644941E+04  0.10100000352E+00 0. -1.
</event>
<event>
 5   0  0.5281116E-04  0.1473122E+04  0.7818609E-02  0.8902526E-01
       -1   -1    0    0    0  501  0.00000000000E+00  0.00000000000E+00  0.80399573251E+03  0.80399573253E+03  0.50400001928E-02 0. -1.
        1   -1    0    0  501    0  0.00000000000E+00  0.00000000000E+00 -0.67478244468E+03  0.67478244470E+03  0.50400001928E-02 0.  1.
    10030    2    1    2    0    0  0.00000000000E+00  0.00000000000E+00  0.12921328782E+03  0.14787781772E+04  0.14731221347E+04 0.  0.
        2    1    3    3  502    0  0.62046386734E+03 -0.52355752312E+02  0.45957082356E+03  0.77390043116E+03  0.25500000920E-02 0. -1.
       -2    1    3    3    0  502 -0.62046386734E+03  0.52355752312E+02 -0.33035753573E+03  0.70487774607E+03  0.25500000920E-02 0.  1.
</event>
<event>
 5   0  0.5532881E-04  0.1571748E+04  0.7818609E-02  0.8838094E-01
       -1   -1    0    0    0  501  0.00000000000E+00  0.00000000000E+00  0.51699925670E+03  0.51699925673E+03  0.50400001928E-02 0.  1.
        1   -1    0    0  501    0  0.00000000000E+00  0.00000000000E+00 -0.11945826244E+04  0.11945826245E+04  0.50400001928E-02 0. -1.
    10030    2    1    2    0    0  0.00000000000E+00  0.00000000000E+00 -0.67758336775E+03  0.17115818812E+04  0.15717484900E+04 0.  0.
        4    1    3    3  502    0 -0.65579350020E+03  0.42609636207E+03 -0.25462722242E+03  0.82247179889E+03  0.12699999809E+01 0.  1.
       -4    1    3    3    0  502  0.65579350020E+03 -0.42609636207E+03 -0.42295614533E+03  0.88911008230E+03  0.12699999809E+01 0. -1.
</event>
<event>
 5   0  0.5288658E-04  0.1451585E+04  0.7818609E-02  0.8917302E-01
        1   -1    0    0  501    0  0.00000000000E+00  0.00000000000E+00  0.10440599457E+04  0.10440599457E+04  0.50400001928E-02 0.  1.
       -1   -1    0    0    0  501  0.00000000000E+00  0.00000000000E+00 -0.50454485206E+03  0.50454485209E+03  0.50400001928E-02 0. -1.
    10030    2    1    2    0    0  0.00000000000E+00  0.00000000000E+00  0.53951509366E+03  0.15486047978E+04  0.14515854379E+04 0.  0.
        1    1    3    3  502    0  0.42588436008E+03  0.33588216855E+01  0.89673301988E+03  0.99273303502E+03  0.50400001928E-02 0.  1.
       -1    1    3    3    0  502 -0.42588436008E+03 -0.33588216855E+01 -0.35721792622E+03  0.55587176281E+03  0.50400001928E-02 0. -1.
</event>
<event>
 5   0  0.5532881E-04  0.1618827E+04  0.7818609E-02  0.8809065E-01
        1   -1    0    0  501    0  0.00000000000E+00  0.00000000000E+00  0.15982725791E+04  0.15982725791E+04  0.50400001928E-02 0. -1.
       -1   -1    0    0    0  501  0.00000000000E+00  0.00000000000E+00 -0.40991135313E+03  0.40991135316E+03  0.50400001928E-02 0.  1.
    10030    2    1    2    0    0  0.00000000000E+00  0.00000000000E+00  0.11883612260E+04  0.20081839323E+04  0.16188268291E+04 0.  0.
        4    1    3    3  502    0 -0.28498556734E+03 -0.54656794176E+03 -0.56583359269E+02  0.61899642809E+03  0.12699999809E+01 0.  1.
       -4    1    3    3    0  502  0.28498556734E+03  0.54656794176E+03  0.12449445853E+04  0.13891875042E+04  0.12699999809E+01 0. -1.
</event>
<event>
 5   0  0.1057872E-03  0.1516144E+04  0.7818609E-02  0.8873788E-01
        2   -1    0    0  501    0  0.00000000000E+00  0.00000000000E+00  0.11506108163E+04  0.11506108163E+04  0.25500000920E-02 0.  1.
       -2   -1    0    0    0  501  0.00000000000E+00  0.00000000000E+00 -0.49945038578E+03  0.49945038578E+03  0.25500000920E-02 0. -1.
    10030    2    1    2    0    0  0.00000000000E+00  0.00000000000E+00  0.65116043055E+03  0.16500612021E+04  0.15161438139E+04 0.  0.
        2    1    3    3  502    0  0.13415289453E+03 -0.50593932555E+03 -0.27121782871E+03  0.58951735417E+03  0.25500000920E-02 0. -1.
       -2    1    3    3    0  502 -0.13415289453E+03  0.50593932555E+03  0.92237825926E+03  0.10605438479E+04  0.25500000920E-02 0.  1.
</event>
<event>
 5   0  0.1030027E-03  0.1581896E+04  0.7818609E-02  0.8831748E-01
       -2   -1    0    0    0  501  0.00000000000E+00  0.00000000000E+00  0.10241527382E+04  0.10241527383E+04  0.25500000920E-02 0.  1.
        2   -1    0    0  501    0  0.00000000000E+00  0.00000000000E+00 -0.61084540972E+03  0.61084540972E+03  0.25500000920E-02 0. -1.
    10030    2    1    2    0    0  0.00000000000E+00  0.00000000000E+00  0.41330732853E+03  0.16349981480E+04  0.15818963291E+04 0.  0.
        1    1    3    3  502    0 -0.91175453897E+01 -0.31743061816E+03 -0.54206212176E+03  0.62823297498E+03  0.50400001928E-02 0. -1.
       -1    1    3    3    0  502  0.91175453897E+01  0.31743061816E+03  0.95536945029E+03  0.10067651730E+04  0.50400001928E-02 0.  1.
</event>
<event>
 5   0  0.9844690E-04  0.1602082E+04  0.7818609E-02  0.8819270E-01
        2   -1    0    0  501    0  0.00000000000E+00  0.00000000000E+00  0.14053635521E+04  0.14053635521E+04  0.25500000920E-02 0. -1.
       -2   -1    0    0    0  501  0.00000000000E+00  0.00000000000E+00 -0.45658419308E+03  0.45658419309E+03  0.25500000920E-02 0.  1.
    10030    2    1    2    0    0  0.00000000000E+00  0.00000000000E+00  0.94877935902E+03  0.18619477452E+04  0.16020821245E+04 0.  0.
        3    1    3    3  502    0  0.40874380605E+03  0.49236370226E+03  0.10343906924E+04  0.12163295725E+04  0.10100000352E+00 0. -1.
       -3    1    3    3    0  502 -0.40874380605E+03 -0.49236370226E+03 -0.85611333371E+02  0.64561817267E+03  0.10100000352E+00 0.  1.
</event>
<event>
 5   0  0.1030027E-03  0.1589181E+04  0.7818609E-02  0.8827222E-01
        2   -1    0    0  501    0  0.00000000000E+00  0.00000000000E+00  0.97274449398E+03  0.97274449399E+03  0.25500000920E-02 0.  1.
       -2   -1    0    0    0  501  0.00000000000E+00  0.00000000000E+00 -0.64906429100E+03  0.64906429101E+03  0.25500000920E-02 0. -1.
    10030    2    1    2    0    0  0.00000000000E+00  0.00000000000E+00  0.32368020298E+03  0.16218087850E+04  0.15891805628E+04 0.  0.
        1    1    3    3  502    0  0.23527340157E+03 -0.39366614401E+03 -0.50036382080E+03  0.67874189470E+03  0.50400001928E-02 0. -1.
       -1    1    3    3    0  502 -0.23527340157E+03  0.39366614401E+03  0.82404402378E+03  0.94306689030E+03  0.50400001928E-02 0.  1.
</event>
<event>
 5   0  0.1000121E-03  0.1606413E+04  0.7818609E-02  0.8816618E-01
       -2   -1    0    0    0  501  0.00000000000E+00  0.00000000000E+00  0.97459674064E+03  0.97459674064E+03  0.25500000920E-02 0. -1.
        2   -1    0    0  501    0  0.00000000000E+00  0.00000000000E+00 -0.66195619465E+03  0.66195619465E+03  0.25500000920E-02 0.  1.
    10030    2    1    2    0    0  0.00000000000E+00  0.00000000000E+00  0.31264054599E+03  0.16365529353E+04  0.16064125868E+04 0.  0.
        4    1    3    3  502    0  0.61796954778E+03  0.30295517524E+03 -0.26553910951E+03  0.73768613364E+03  0.12699999809E+01 0.  1.
       -4    1    3    3    0  502 -0.61796954778E+03 -0.30295517524E+03  0.57817965550E+03  0.89886680166E+03  0.12699999809E+01 0. -1.
</event>
<event>
 5   0  0.5623061E-04  0.1490077E+04  0.7818609E-02  0.8891079E-01
        1   -1    0    0  501    0  0.00000000000E+00  0.00000000000E+00  0.97568713209E+03  0.97568713210E+03  0.50400001928E-02 0.  1.
       -1   -1    0    0    0  501  0.00000000000E+00  0.00000000000E+00 -0.56891403518E+03  0.56891403521E+03  0.50400001928E-02 0. -1.
    10030    2    1    2    0    0  0.00000000000E+00  0.00000000000E+00  0.40677309691E+03  0.15446011673E+04  0.14900766469E+04 0.  0.
        3    1    3    3  502    0  0.27582065185E+03 -0.48868287410E+03  0.71141604324E+03  0.90609093374E+03  0.10100000352E+00 0.  1.
       -3    1    3    3    0  502 -0.27582065185E+03  0.48868287410E+03 -0.30464294634E+03  0.63851023357E+03  0.10100000352E+00 0. -1.
</event>
<event>
 5   0  0.5288658E-04  0.1526756E+04  0.7818609E-02  0.8866853E-01
       -1   -1    0    0    0  501  0.00000000000E+00  0.00000000000E+00  0.86899997512E+03  0.86899997514E+03  0.50400001928E-02 0. -1.
        1   -1    0    0  501    0  0.00000000000E+00  0.00000000000E+00 -0.67059364930E+03  0.67059364932E+03  0.50400001928E-02 0.  1.
    10030    2    1    2    0    0  0.00000000000E+00  0.00000000000E+00  0.19840632583E+03  0.15395936245E+04  0.15267558607E+04 0.  0.
        1    1    3    3  502    0 -0.44802076290E+03 -0.26399486472E+03 -0.46436096212E+03  0.69717070775E+03  0.50400001928E-02 0.  1.
       -1    1    3    3    0  502  0.44802076290E+03  0.26399486472E+03  0.66276728794E+03  0.84242291670E+03  0.50400001928E-02 0. -1.
</event>
<event>
 5   0  0.5425525E-04  0.1566126E+04  0.7818609E-02  0.8841633E-01
        1   -1    0    0  501    0  0.00000000000E+00  0.00000000000E+00  0.16113387090E+04  0.16113387090E+04  0.50400001928E-02 0.  1.
       -1   -1    0    0    0  501  0.00000000000E+00  0.00000000000E+00 -0.38054552814E+03  0.38054552817E+03  0.50400001928E-02 0. -1.
    10030    2    1    2    0    0  0.00000000000E+00  0.00000000000E+00  0.12307931808E+04  0.19918842371E+04  0.15661260997E+04 0.  0.
        5    1    3    3  502    0 -0.54977667346E+03  0.42356942689E+03  0.15418461608E+03  0.71095740795E+03  0.46999998093E+01 0. -1.
       -5    1    3    3    0  502  0.54977667346E+03 -0.42356942689E+03  0.10766085647E+04  0.12809268292E+04  0.46999998093E+01 0.  1.
</event>
<event>
 5   0  0.5288658E-04  0.1584732E+04  0.7818609E-02  0.8829983E-01
       -1   -1    0    0    0  501  0.00000000000E+00  0.00000000000E+00  0.67010880000E+03  0.67010880002E+03  0.50400001928E-02 0.  1.
        1   -1    0    0  501    0  0.00000000000E+00  0.00000000000E+00 -0.93692794057E+03  0.93692794059E+03  0.50400001928E-02 0. -1.
    10030    2    1    2    0    0  0.00000000000E+00  0.00000000000E+00 -0.26681914057E+03  0.16070367406E+04  0.15847317224E+04 0.  0.
        1    1    3    3  502    0  0.31093485452E+03 -0.14550942503E+03  0.59077782552E+03  0.68328026144E+03  0.50400001928E-02 0.  1.
       -1    1    3    3    0  502 -0.31093485452E+03  0.14550942503E+03 -0.85759696609E+03  0.92375647917E+03  0.50400001928E-02 0. -1.
</event>
<event>
 5   0  0.5532881E-04  0.1067864E+04  0.7818609E-02  0.9237093E-01
        1   -1    0    0  501    0  0.00000000000E+00  0.00000000000E+00  0.15181798392E+04  0.15181798392E+04  0.50400001928E-02 0. -1.
       -1   -1    0    0    0  501  0.00000000000E+00  0.00000000000E+00 -0.18777958588E+03  0.18777958595E+03  0.50400001928E-02 0.  1.
    10030    2    1    2    0    0  0.00000000000E+00  0.00000000000E+00  0.13304002533E+04  0.17059594252E+04  0.10678636272E+04 0.  0.
        4    1    3    3  502    0 -0.32420308517E+03  0.17042012718E+03  0.44556933641E+02  0.36896828240E+03  0.12699999809E+01 0.  1.
       -4    1    3    3    0  502  0.32420308517E+03 -0.17042012718E+03  0.12858433197E+04  0.13369911428E+04  0.12699999809E+01 0. -1.
</event>
<event>
 5   0  0.5623061E-04  0.1593613E+04  0.7818609E-02  0.8824482E-01
       -1   -1    0    0    0  501  0.00000000000E+00  0.00000000000E+00  0.52250952351E+03  0.52250952354E+03  0.50400001928E-02 0.  1.
        1   -1    0    0  501    0  0.00000000000E+00  0.00000000000E+00 -0.12150981754E+04  0.12150981754E+04  0.50400001928E-02 0. -1.
    10030    2    1    2    0    0  0.00000000000E+00  0.00000000000E+00 -0.69258865187E+03  0.17376076989E+04  0.15936127116E+04 0.  0.
        3    1    3    3  502    0  0.30151739929E+03 -0.23578874646E+03  0.41570203804E+03  0.56508164866E+03  0.10100000352E+00 0.  1.
       -3    1    3    3    0  502 -0.30151739929E+03  0.23578874646E+03 -0.11082906899E+04  0.11725260503E+04  0.10100000352E+00 0. -1.
</event>
<event>
 5   0  0.1000121E-03  0.1611631E+04  0.7818609E-02  0.8813434E-01
       -2   -1    0    0    0  501  0.00000000000E+00  0.00000000000E+00  0.32864759005E+03  0.32864759006E+03  0.25500000920E-02 0.  1.
        2   -1    0    0  501    0  0.00000000000E+00  0.00000000000E+00 -0.19757908382E+04  0.19757908382E+04  0.25500000920E-02 0. -1.
    10030    2    1    2    0    0  0.00000000000E+00  0.00000000000E+00 -0.16471432481E+04  0.23044384282E+04  0.16116313442E+04 0.  0.
        4    1    3    3  502    0 -0.77754382361E+03  0.83208418757E+02 -0.11017162288E+04  0.13510286082E+04  0.12699999809E+01 0.  1.
       -4    1    3    3    0  502  0.77754382361E+03 -0.83208418757E+02 -0.54542701936E+03  0.95340982003E+03  0.12699999809E+01 0. -1.
</event>
<event>
 5   0  0.5281116E-04  0.1596214E+04  0.7818609E-02  0.8822877E-01
       -1   -1    0    0    0  501  0.00000000000E+00  0.00000000000E+00  0.37129348135E+03  0.37129348138E+03  0.50400001928E-02 0.  1.
        1   -1    0    0  501    0  0.00000000000E+00  0.00000000000E+00 -0.17155554904E+04  0.17155554904E+04  0.50400001928E-02 0. -1.
    10030    2    1    2    0    0  0.00000000000E+00  0.00000000000E+00 -0.13442620090E+04  0.20868489717E+04  0.15962137332E+04 0.  0.
        2    1    3    3  502    0  0.32050356242E+03  0.56973962025E+03 -0.73517969782E+02  0.65782266630E+03  0.25500000920E-02 0.  1.
       -2    1    3    3    0  502 -0.32050356242E+03 -0.56973962025E+03 -0.12707440392E+04  0.14290263054E+04  0.25500000920E-02 0. -1.
</event>
<event>
 5   0  0.5623061E-04  0.1637919E+04  0.7818609E-02  0.8797586E-01
        1   -1    0    0  501    0  0.00000000000E+00  0.00000000000E+00  0.10764796355E+04  0.10764796355E+04  0.50400001928E-02 0.  1.
       -1   -1    0    0    0  501  0.00000000000E+00  0.00000000000E+00 -0.62304451993E+03  0.62304451995E+03  0.50400001928E-02 0. -1.
    10030    2    1    2    0    0  0.00000000000E+00  0.00000000000E+00  0.45343511556E+03  0.16995241554E+04  0.16379190917E+04 0.  0.
        3    1    3    3  502    0 -0.19042256554E+03  0.76989581481E+03  0.14845441525E+02  0.79323433894E+03  0.10100000352E+00 0.  1.
       -3    1    3    3    0  502  0.19042256554E+03 -0.76989581481E+03  0.43858967403E+03  0.90628981651E+03  0.10100000352E+00 0. -1.
</event>
<event>
 5   0  0.1037321E-03  0.1582027E+04  0.7818609E-02  0.8831666E-01
       -2   -1    0    0    0  501  0.00000000000E+00  0.00000000000E+00  0.84907786274E+03  0.84907786275E+03  0.25500000920E-02 0. -1.
        2   -1    0    0  501    0  0.00000000000E+00  0.00000000000E+00 -0.73691972736E+03  0.73691972737E+03  0.25500000920E-02 0.  1.
    10030    2    1    2    0    0  0.00000000000E+00  0.00000000000E+00  0.11215813538E+03  0.15859975901E+04  0.15820268356E+04 0.  0.
        5    1    3    3  502    0 -0.10563946948E+03 -0.72035350968E+03  0.36606586662E+03  0.81492035507E+03  0.46999998093E+01 0. -1.
       -5    1    3    3    0  502  0.10563946948E+03  0.72035350968E+03 -0.25390773124E+03  0.77107723504E+03  0.46999998093E+01 0.  1.
</event>
<event>
 5   0  0.5281116E-04  0.1554063E+04  0.7818609E-02  0.8849277E-01
        1   -1    0    0  501    0  0.00000000000E+00  0.00000000000E+00  0.11674715039E+04  0.11674715039E+04  0.50400001928E-02 0.  1.
       -1   -1    0    0    0  501  0.00000000000E+00  0.00000000000E+00 -0.51716702642E+03  0.51716702644E+03  0.50400001928E-02 0. -1.
    10030    2    1    2    0    0  0.00000000000E+00  0.00000000000E+00  0.65030447752E+03  0.16846385304E+04  0.15540627608E+04 0.  0.
        2    1    3    3  502    0  0.74557349528E+03  0.18654107583E+03  0.20107853990E+03  0.79442431298E+03  0.25500000920E-02 0. -1.
       -2    1    3    3    0  502 -0.74557349528E+03 -0.18654107583E+03  0.44922593762E+03  0.89021421741E+03  0.25500000920E-02 0.  1.
</event>
<event>
 5   0  0.5623061E-04  0.1552013E+04  0.7818609E-02  0.8850583E-01
        1   -1    0    0  501    0  0.00000000000E+00  0.00000000000E+00  0.57034818162E+03  0.57034818165E+03  0.50400001928E-02 0. -1.
       -1   -1    0    0    0  501  0.00000000000E+00  0.00000000000E+00 -0.10558217324E+04  0.10558217324E+04  0.50400001928E-02 0.  1.
    10030    2    1    2    0    0  0.00000000000E+00  0.00000000000E+00 -0.48547355079E+03  0.16261699141E+04  0.15520128933E+04 0.  0.
        3    1    3    3  502    0 -0.68691968846E+03 -0.24685136444E+03  0.33273015109E+02  0.73068553992E+03  0.10100000352E+00 0. -1.
       -3    1    3    3    0  502  0.68691968846E+03  0.24685136444E+03 -0.51874656590E+03  0.89548437415E+03  0.10100000352E+00 0.  1.
</event>
<event>
 5   0  0.5425525E-04  0.1598671E+04  0.7818609E-02  0.8821365E-01
       -1   -1    0    0    0  501  0.00000000000E+00  0.00000000000E+00  0.12066930628E+04  0.12066930629E+04  0.50400001928E-02 0.  1.
        1   -1    0    0  501    0  0.00000000000E+00  0.00000000000E+00 -0.52949428619E+03  0.52949428621E+03  0.50400001928E-02 0. -1.
    10030    2    1    2    0    0  0.00000000000E+00  0.00000000000E+00  0.67719877665E+03  0.17361873491E+04  0.15986708004E+04 0.  0.
        5    1    3    3  502    0  0.74775541743E+03 -0.28241345738E+03  0.33380774371E+03  0.86622469658E+03  0.46999998093E+01 0.  1.
       -5    1    3    3    0  502 -0.74775541743E+03  0.28241345738E+03  0.34339103295E+03  0.86996265248E+03  0.46999998093E+01 0. -1.
</event>
<event>
 5   0  0.1057872E-03  0.1633861E+04  0.7818609E-02  0.8800012E-01
       -2   -1    0    0    0  501  0.00000000000E+00  0.00000000000E+00  0.83698454164E+03  0.83698454165E+03  0.25500000920E-02 0. -1.
        2   -1    0    0  501    0  0.00000000000E+00  0.00000000000E+00 -0.79735699849E+03  0.79735699849E+03  0.25500000920E-02 0.  1.
    10030    2    1    2    0    0  0.00000000000E+00  0.00000000000E+00  0.39627543158E+02  0.16343415401E+04  0.16338610491E+04 0.  0.
        2    1    3    3  502    0  0.24052573269E+02  0.54329905541E+03  0.62960201382E+03  0.83195618015E+03  0.25500000920E-02 0. -1.
       -2    1    3    3    0  502 -0.24052573269E+02 -0.54329905541E+03 -0.58997447066E+03  0.80238535999E+03  0.25500000920E-02 0.  1.
</event>
<event>
 5   0  0.1057872E-03  0.1615502E+04  0.7818609E-02  0.8811081E-01
       -2   -1    0    0    0  501  0.00000000000E+00  0.00000000000E+00  0.27192715043E+03  0.27192715045E+03  0.25500000920E-02 0. -1.
        2   -1    0    0  501    0  0.00000000000E+00  0.00000000000E+00 -0.23993978259E+04  0.23993978259E+04  0.25500000920E-02 0.  1.
    10030    2    1    2    0    0  0.00000000000E+00  0.00000000000E+00 -0.21274706755E+04  0.26713249764E+04  0.16155016726E+04 0.  0.
        2    1    3    3  502    0  0.27573700695E+03 -0.47311687588E+03 -0.20456073617E+04  0.21176354629E+04  0.25500000920E-02 0.  1.
       -2    1    3    3    0  502 -0.27573700695E+03  0.47311687588E+03 -0.81863313793E+02  0.55368951353E+03  0.25500000920E-02 0. -1.
</event>
<event>
 5   0  0.9844690E-04  0.1552726E+04  0.7818609E-02  0.8850128E-01
       -2   -1    0    0    0  501  0.00000000000E+00  0.00000000000E+00  0.47925130128E+03  0.47925130129E+03  0.25500000920E-02 0. -1.
        2   -1    0    0  501    0  0.00000000000E+00  0.00000000000E+00 -0.12576695203E+04  0.12576695203E+04  0.25500000920E-02 0.  1.
    10030    2    1    2    0    0  0.00000000000E+00  0.00000000000E+00 -0.77841821901E+03  0.17369208216E+04  0.15527263174E+04 0.  0.
        3    1    3    3  502    0  0.16284158926E+03  0.75436541272E+03 -0.48383185341E+03  0.91086652791E+03  0.10100000352E+00 0.  1.
       -3    1    3    3    0  502 -0.16284158926E+03 -0.75436541272E+03 -0.29458636560E+03  0.82605429368E+03  0.10100000352E+00 0. -1.
</event>
<event>
 5   0  0.1000121E-03  0.1609053E+04  0.7818609E-02  0.8815005E-01
        2   -1    0    0  501    0  0.00000000000E+00  0.00000000000E+00  0.63860454686E+03  0.63860454687E+03  0.25500000920E-02 0.  1.
       -2   -1    0    0    0  501  0.00000000000E+00  0.00000000000E+00 -0.10135585882E+04  0.10135585882E+04  0.25500000920E-02 0. -1.
    10030    2    1    2    0    0  0.00000000000E+00  0.00000000000E+00 -0.37495404134E+03  0.16521631351E+04  0.16090532905E+04 0.  0.
        4    1    3    3  502    0  0.63719643011E+03  0.10716796897E+03 -0.67964925329E+03  0.93777875031E+03  0.12699999809E+01 0. -1.
       -4    1    3    3    0  502 -0.63719643011E+03 -0.10716796897E+03  0.30469521195E+03  0.71438438477E+03  0.12699999809E+01 0.  1.
</event>
<event>
 5   0  0.5288658E-04  0.1647153E+04  0.7818609E-02  0.8792092E-01
       -1   -1    0    0    0  501  0.00000000000E+00  0.00000000000E+00  0.11642137464E+04  0.11642137464E+04  0.50400001928E-02 0.  1.
        1   -1    0    0  501    0  0.00000000000E+00  0.00000000000E+00 -0.58260653963E+03  0.58260653966E+03  0.50400001928E-02 0. -1.
    10030    2    1    2    0    0  0.00000000000E+00  0.00000000000E+00  0.58160720674E+03  0.17468202860E+04  0.16471533532E+04 0.  0.
        1    1    3    3  502    0  0.32566076907E+02 -0.21544265559E+03  0.11330921195E+04  0.11538517403E+04  0.50400001928E-02 0.  1.
       -1    1    3    3    0  502 -0.32566076907E+02  0.21544265559E+03 -0.55148491278E+03  0.59296854576E+03  0.50400001928E-02 0. -1.
</event>
<event>
 5   0  0.1000121E-03  0.1586546E+04  0.7818609E-02  0.8828856E-01
        2   -1    0    0  501    0  0.00000000000E+00  0.00000000000E+00  0.17790094895E+04  0.17790094895E+04  0.25500000920E-02 0. -1.
       -2   -1    0    0    0  501  0.00000000000E+00  0.00000000000E+00 -0.35372590281E+03  0.35372590281E+03  0.25500000920E-02 0.  1.
    10030    2    1    2    0    0  0.00000000000E+00  0.00000000000E+00  0.14252835867E+04  0.21327353924E+04  0.15865456033E+04 0.  0.
        4    1    3    3  502    0 -0.63208217134E+02  0.37242524440E+03 -0.22505721087E+03  0.43971377332E+03  0.12699999809E+01 0.  1.
       -4    1    3    3    0  502  0.63208217134E+02 -0.37242524440E+03  0.16503407976E+04  0.16930216190E+04  0.12699999809E+01 0. -1.
</event>
<event>
 5   0  0.5532881E-04  0.1575215E+04  0.7818609E-02  0.8835921E-01
       -1   -1    0    0    0  501  0.00000000000E+00  0.00000000000E+00  0.46318908012E+03  0.46318908015E+03  0.50400001928E-02 0.  1.
        1   -1    0    0  501    0  0.00000000000E+00  0.00000000000E+00 -0.13392495848E+04  0.13392495849E+04  0.50400001928E-02 0. -1.
    10030    2    1    2    0    0  0.00000000000E+00  0.00000000000E+00 -0.87606050472E+03  0.18024386650E+04  0.15752152657E+04 0.  0.
        4    1    3    3  502    0 -0.31801377806E+03 -0.24384574319E+03  0.33781001727E+03  0.52412854356E+03  0.12699999809E+01 0.  1.
       -4    1    3    3    0  502  0.31801377806E+03  0.24384574319E+03 -0.12138705220E+04  0.12783101214E+04  0.12699999809E+01 0. -1.
</event>
<event>
 5   0  0.1030027E-03  0.1505742E+04  0.7818609E-02  0.8880644E-01
        2   -1    0    0  501    0  0.00000000000E+00  0.00000000000E+00  0.10759847137E+04  0.10759847137E+04  0.25500000920E-02 0. -1.
       -2   -1    0    0    0  501  0.00000000000E+00  0.00000000000E+00 -0.52678690037E+03  0.52678690037E+03  0.25500000920E-02 0.  1.
    10030    2    1    2    0    0  0.00000000000E+00  0.00000000000E+00  0.54919781331E+03  0.16027716141E+04  0.15057418798E+04 0.  0.
        1    1    3    3  502    0  0.58446642448E+02  0.74292803646E+01 -0.52432926644E+03  0.52762902109E+03  0.50400001928E-02 0.  1.
       -1    1    3    3    0  502 -0.58446642448E+02 -0.74292803646E+01  0.10735270798E+04  0.10751425930E+04  0.50400001928E-02 0. -1.
</event>
<event>
 5   0  0.5623061E-04  0.1580230E+04  0.7818609E-02  0.8832786E-01
        1   -1    0    0  501    0  0.00000000000E+00  0.00000000000E+00  0.12058590129E+04  0.12058590129E+04  0.50400001928E-02 0.  1.
       -1   -1    0    0    0  501  0.00000000000E+00  0.00000000000E+00 -0.51770716327E+03  0.51770716330E+03  0.50400001928E-02 0. -1.
    10030    2    1    2    0    0  0.00000000000E+00  0.00000000000E+00  0.68815184961E+03  0.17235661762E+04  0.15802301717E+04 0.  0.
        3    1    3    3  502    0  0.72447089036E+03 -0.12868851122E+03  0.30106013249E+02  0.73642731218E+03  0.10100000352E+00 0. -1.
       -3    1    3    3    0  502 -0.72447089036E+03  0.12868851122E+03  0.65804583636E+03  0.98713886401E+03  0.10100000352E+00 0.  1.
</event>
<event>
 5   0  0.9844690E-04  0.2066016E+04  0.7818609E-02  0.8576363E-01
       -2   -1    0    0    0  501  0.00000000000E+00  0.00000000000E+00  0.10949844445E+04  0.10949844445E+04  0.25500000920E-02 0. -1.
        2   -1    0    0  501    0  0.00000000000E+00  0.00000000000E+00 -0.97453943573E+03  0.97453943573E+03  0.25500000920E-02 0.  1.
    10030    2    1    2    0    0  0.00000000000E+00  0.00000000000E+00  0.12044500879E+03  0.20695238803E+04  0.20660159948E+04 0.  0.
        3    1    3    3  502    0 -0.10587788387E+03 -0.45768157204E+03  0.98179707300E+03  0.10883970096E+04  0.10100000352E+00 0. -1.
       -3    1    3    3    0  502  0.10587788387E+03  0.45768157204E+03 -0.86135206421E+03  0.98112687069E+03  0.10100000352E+00 0.  1.
</event>
<event>
 5   0  0.5425525E-04  0.1731820E+04  0.7818609E-02  0.8743422E-01
        1   -1    0    0  501    0  0.00000000000E+00  0.00000000000E+00  0.90226040571E+03  0.90226040573E+03  0.50400001928E-02 0.  1.
       -1   -1    0    0    0  501  0.00000000000E+00  0.00000000000E+00 -0.83102384362E+03  0.83102384364E+03  0.50400001928E-02 0. -1.
    10030    2    1    2    0    0  0.00000000000E+00  0.00000000000E+00  0.71236562091E+02  0.17332842494E+04  0.17318197485E+04 0.  0.
        5    1    3    3  502    0  0.65178716912E+03  0.17985311522E+03  0.57700469562E+03  0.88889266261E+03  0.46999998093E+01 0.  1.
       -5    1    3    3    0  502 -0.65178716912E+03 -0.17985311522E+03 -0.50576813353E+03  0.84439158675E+03  0.46999998093E+01 0. -1.
</event>
<event>
 5   0  0.1030027E-03  0.1519414E+04  0.7818609E-02  0.8871645E-01
        2   -1    0    0  501    0  0.00000000000E+00  0.00000000000E+00  0.70738139660E+03  0.70738139660E+03  0.25500000920E-02 0.  1.
       -2   -1    0    0    0  501  0.00000000000E+00  0.00000000000E+00 -0.81590269888E+03  0.81590269888E+03  0.25500000920E-02 0. -1.
    10030    2    1    2    0    0  0.00000000000E+00  0.00000000000E+00 -0.10852130228E+03  0.15232840955E+04  0.15194135587E+04 0.  0.
        1    1    3    3  502    0  0.31224187200E+03  0.68983714714E+03 -0.11593251001E+03  0.76603565393E+03  0.50400001928E-02 0.  1.
       -1    1    3    3    0  502 -0.31224187200E+03 -0.68983714714E+03  0.74112077280E+01  0.75724844154E+03  0.50400001928E-02 0. -1.
</event>
<event>
 5   0  0.9844690E-04  0.1611069E+04  0.7818609E-02  0.8813776E-01
        2   -1    0    0  501    0  0.00000000000E+00  0.00000000000E+00  0.16511770720E+04  0.16511770720E+04  0.25500000920E-02 0. -1.
       -2   -1    0    0    0  501  0.00000000000E+00  0.00000000000E+00 -0.39298389670E+03  0.39298389671E+03  0.25500000920E-02 0.  1.
    10030    2    1    2    0    0  0.00000000000E+00  0.00000000000E+00  0.12581931753E+04  0.20441609687E+04  0.16110692100E+04 0.  0.
        3    1    3    3  502    0  0.72233009159E+03 -0.41196883068E+02  0.17973264533E+03  0.74549431814E+03  0.10100000352E+00 0.  1.
       -3    1    3    3    0  502 -0.72233009159E+03  0.41196883068E+02  0.10784605299E+04  0.12986666505E+04  0.10100000352E+00 0. -1.
</event>
<event>
 5   0  0.5425525E-04  0.1629484E+04  0.7818609E-02  0.8802637E-01
        1   -1    0    0  501    0  0.00000000000E+00  0.00000000000E+00  0.12443388825E+04  0.12443388825E+04  0.50400001928E-02 0.  1.
       -1   -1    0    0    0  501  0.00000000000E+00  0.00000000000E+00 -0.53345935005E+03  0.53345935007E+03  0.50400001928E-02 0. -1.
    10030    2    1    2    0    0  0.00000000000E+00  0.00000000000E+00  0.71087953247E+03  0.17777982326E+04  0.16294836133E+04 0.  0.
        5    1    3    3  502    0  0.46731486693E+03 -0.13760958174E+03 -0.35704062647E+03  0.60400304700E+03  0.46999998093E+01 0. -1.
       -5    1    3    3    0  502 -0.46731486693E+03  0.13760958174E+03  0.10679201589E+04  0.11737951856E+04  0.46999998093E+01 0.  1.
</event>
<event>
 5   0  0.5532881E-04  0.1645406E+04  0.7818609E-02  0.8793129E-01
        1   -1    0    0  501    0  0.00000000000E+00  0.00000000000E+00  0.12375859192E+04  0.12375859192E+04  0.50400001928E-02 0.  1.
       -1   -1    0    0    0  501  0.00000000000E+00  0.00000000000E+00 -0.54690393721E+03  0.54690393723E+03  0.50400001928E-02 0. -1.
    10030    2    1    2    0    0  0.00000000000E+00  0.00000000000E+00  0.69068198203E+03  0.17844898565E+04  0.16454064688E+04 0.  0.
        4    1    3    3  502    0 -0.15643796780E+03  0.12960291329E+03  0.12099551046E+04  0.12268914870E+04  0.12699999809E+01 0.  1.
       -4    1    3    3    0  502  0.15643796780E+03 -0.12960291329E+03 -0.51927312256E+03  0.55759836946E+03  0.12699999809E+01 0. -1.
</event>
<event>
 5   0  0.5281116E-04  0.1254966E+04  0.7818609E-02  0.9066060E-01
        1   -1    0    0  501    0  0.00000000000E+00  0.00000000000E+00  0.14901067294E+03  0.14901067303E+03  0.50400001928E-02 0. -1.
       -1   -1    0    0    0  501  0.00000000000E+00  0.00000000000E+00 -0.26423272251E+04  0.26423272251E+04  0.50400001928E-02 0.  1.
    10030    2    1    2    0    0  0.00000000000E+00  0.00000000000E+00 -0.24933165522E+04  0.27913378981E+04  0.12549660682E+04 0.  0.
        2    1    3    3  502    0  0.45828029264E+03  0.41986134936E+03 -0.10549275356E+04  0.12244086265E+04  0.25500000920E-02 0. -1.
       -2    1    3    3    0  502 -0.45828029264E+03 -0.41986134936E+03 -0.14383890166E+04  0.15669292717E+04  0.25500000920E-02 0.  1.
</event>
<event>
 5   0  0.1000121E-03  0.1614090E+04  0.7818609E-02  0.8811938E-01
       -2   -1    0    0    0  501  0.00000000000E+00  0.00000000000E+00  0.28125585758E+03  0.28125585759E+03  0.25500000920E-02 0.  1.
        2   -1    0    0  501    0  0.00000000000E+00  0.00000000000E+00 -0.23157619316E+04  0.23157619316E+04  0.25500000920E-02 0. -1.
    10030    2    1    2    0    0  0.00000000000E+00  0.00000000000E+00 -0.20345060740E+04  0.25970177892E+04  0.16140899703E+04 0.  0.
        4    1    3    3  502    0 -0.62923916102E+03  0.48923094914E+03 -0.12209711049E+04  0.14581018124E+04  0.12699999809E+01 0. -1.
       -4    1    3    3    0  502  0.62923916102E+03 -0.48923094914E+03 -0.81353496910E+03  0.11389159768E+04  0.12699999809E+01 0.  1.
</event>
<event>
 5   0  0.1030027E-03  0.1585674E+04  0.7818609E-02  0.8829398E-01
       -2   -1    0    0    0  501  0.00000000000E+00  0.00000000000E+00  0.49712475405E+03  0.49712475406E+03  0.25500000920E-02 0. -1.
        2   -1    0    0  501    0  0.00000000000E+00  0.00000000000E+00 -0.12644522666E+04  0.12644522666E+04  0.25500000920E-02 0.  1.
    10030    2    1    2    0    0  0.00000000000E+00  0.00000000000E+00 -0.76732751253E+03  0.17615770206E+04  0.15856740170E+04 0.  0.
        1    1    3    3  502    0  0.25934911188E+03 -0.16181561037E+03  0.42902296869E+03  0.52678929495E+03  0.50400001928E-02 0. -1.
       -1    1    3    3    0  502 -0.25934911188E+03  0.16181561037E+03 -0.11963504812E+04  0.12347877257E+04  0.50400001928E-02 0.  1.
</event>
<event>
 5   0  0.5288658E-04  0.1463006E+04  0.7818609E-02  0.8909433E-01
       -1   -1    0    0    0  501  0.00000000000E+00  0.00000000000E+00  0.66042960609E+03  0.66042960611E+03  0.50400001928E-02 0. -1.
        1   -1    0    0  501    0  0.00000000000E+00  0.00000000000E+00 -0.81022503807E+03  0.81022503809E+03  0.50400001928E-02 0.  1.
    10030    2    1    2    0    0  0.00000000000E+00  0.00000000000E+00 -0.14979543199E+03  0.14706546442E+04  0.14630059504E+04 0.  0.
        1    1    3    3  502    0  0.13941958343E+03 -0.37555334534E+03 -0.69015844759E+03  0.79799550013E+03  0.50400001928E-02 0.  1.
       -1    1    3    3    0  502 -0.13941958343E+03  0.37555334534E+03  0.54036301560E+03  0.67265914406E+03  0.50400001928E-02 0. -1.
</event>
<event>
 5   0  0.1037321E-03  0.1656574E+04  0.7818609E-02  0.8786527E-01
        2   -1    0    0  501    0  0.00000000000E+00  0.00000000000E+00  0.12404339827E+04  0.12404339827E+04  0.25500000920E-02 0.  1.
       -2   -1    0    0    0  501  0.00000000000E+00  0.00000000000E+00 -0.55307990367E+03  0.55307990367E+03  0.25500000920E-02 0. -1.
    10030    2    1    2    0    0  0.00000000000E+00  0.00000000000E+00  0.68735407902E+03  0.17935138864E+04  0.16565737021E+04 0.  0.
        5    1    3    3  502    0 -0.35483568921E+03  0.48130311154E+03  0.96418274651E+03  0.11345622549E+04  0.46999998093E+01 0.  1.
       -5    1    3    3    0  502  0.35483568921E+03 -0.48130311154E+03 -0.27682866749E+03  0.65895163149E+03  0.46999998093E+01 0. -1.
</event>
<event>
 5   0  0.5532881E-04  0.1071328E+04  0.7818609E-02  0.9233597E-01
       -1   -1    0    0    0  501  0.00000000000E+00  0.00000000000E+00  0.74075793771E+03  0.74075793773E+03  0.50400001928E-02 0.  1.
        1   -1    0    0  501    0  0.00000000000E+00  0.00000000000E+00 -0.38735452302E+03  0.38735452305E+03  0.50400001928E-02 0. -1.
    10030    2    1    2    0    0  0.00000000000E+00  0.00000000000E+00  0.35340341470E+03  0.11281124608E+04  0.10713280313E+04 0.  0.
        4    1    3    3  502    0  0.36496938376E+03 -0.37247934413E+03  0.30562829999E+03  0.60444502111E+03  0.12699999809E+01 0.  1.
       -4    1    3    3    0  502 -0.36496938376E+03  0.37247934413E+03  0.47775114706E+02  0.52366743967E+03  0.12699999809E+01 0. -1.
</event>
<event>
 5   0  0.5623061E-04  0.1591005E+04  0.7818609E-02  0.8826093E-01
       -1   -1    0    0    0  501  0.00000000000E+00  0.00000000000E+00  0.44490299463E+03  0.44490299466E+03  0.50400001928E-02 0. -1.
        1   -1    0    0  501    0  0.00000000000E+00  0.00000000000E+00 -0.14223866277E+04  0.14223866277E+04  0.50400001928E-02 0.  1.
    10030    2    1    2    0    0  0.00000000000E+00  0.00000000000E+00 -0.97748363306E+03  0.18672896224E+04  0.15910048023E+04 0.  0.
        3    1    3    3  502    0 -0.23552653715E+03  0.57547210896E+03  0.93588453806E+02  0.62880816373E+03  0.10100000352E+00 0.  1.
       -3    1    3    3    0  502  0.23552653715E+03 -0.57547210896E+03 -0.10710720869E+04  0.12384814586E+04  0.10100000352E+00 0. -1.
</event>
<event>
 5   0  0.3832500E-04  0.1225754E+04  0.7818609E-02  0.9090608E-01
       -3   -1    0    0    0  501  0.00000000000E+00  0.00000000000E+00  0.39218414778E+03  0.39218416078E+03  0.10100000352E+00 0.  1.
        3   -1    0    0  501    0  0.00000000000E+00  0.00000000000E+00 -0.95775984003E+03  0.95775984536E+03  0.10100000352E+00 0. -1.
    10030    2    1    2    0    0  0.00000000000E+00  0.00000000000E+00 -0.56557569226E+03  0.13499440061E+04  0.12257540357E+04 0.  0.
        3    1    3    3  502    0 -0.50597028036E+03  0.77139998239E+02  0.88507532971E+02  0.51941322425E+03  0.10100000352E+00 0.  1.
       -3    1    3    3    0  502  0.50597028036E+03 -0.77139998239E+02 -0.65408322523E+03  0.83053078189E+03  0.10100000352E+00 0. -1.
</event>
<event>
 5   0  0.5281116E-04  0.1632734E+04  0.7818609E-02  0.8800687E-01
       -1   -1    0    0    0  501  0.00000000000E+00  0.00000000000E+00  0.36390564301E+03  0.36390564304E+03  0.50400001928E-02 0.  1.
        1   -1    0    0  501    0  0.00000000000E+00  0.00000000000E+00 -0.18313943057E+04  0.18313943057E+04  0.50400001928E-02 0. -1.
    10030    2    1    2    0    0  0.00000000000E+00  0.00000000000E+00 -0.14674886627E+04  0.21952999488E+04  0.16327335636E+04 0.  0.
        2    1    3    3  502    0 -0.10576025641E+03 -0.78768452228E+03 -0.48283948847E+03  0.92992801340E+03  0.25500000920E-02 0.  1.
       -2    1    3    3    0  502  0.10576025641E+03  0.78768452228E+03 -0.98464917423E+03  0.12653719354E+04  0.25500000920E-02 0. -1.
</event>
<event>
 5   0  0.1000121E-03  0.1671097E+04  0.7818609E-02  0.8778022E-01
        2   -1    0    0  501    0  0.00000000000E+00  0.00000000000E+00  0.53813993897E+03  0.53813993897E+03  0.25500000920E-02 0.  1.
       -2   -1    0    0    0  501  0.00000000000E+00  0.00000000000E+00 -0.12973236037E+04  0.12973236037E+04  0.25500000920E-02 0. -1.
    10030    2    1    2    0    0  0.00000000000E+00  0.00000000000E+00 -0.75918366471E+03  0.18354635427E+04  0.16710974178E+04 0.  0.
        4    1    3    3  502    0  0.45239614813E+03  0.68794585356E+03 -0.22345388987E+03  0.85315006070E+03  0.12699999809E+01 0. -1.
       -4    1    3    3    0  502 -0.45239614813E+03 -0.68794585356E+03 -0.53572977484E+03  0.98231348195E+03  0.12699999809E+01 0.  1.
</event>
<event>
 5   0  0.5288658E-04  0.1574880E+04  0.7818609E-02  0.8836130E-01
       -1   -1    0    0    0  501  0.00000000000E+00  0.00000000000E+00  0.79276848795E+03  0.79276848797E+03  0.50400001928E-02 0.  1.
        1   -1    0    0  501    0  0.00000000000E+00  0.00000000000E+00 -0.78214751992E+03  0.78214751994E+03  0.50400001928E-02 0. -1.
    10030    2    1    2    0    0  0.00000000000E+00  0.00000000000E+00  0.10620968028E+02  0.15749160079E+04  0.15748801945E+04 0.  0.
        1    1    3    3  502    0  0.54277918419E+03 -0.11979626075E+03 -0.55246695292E+03  0.78369644696E+03  0.50400001928E-02 0. -1.
       -1    1    3    3    0  502 -0.54277918419E+03  0.11979626075E+03  0.56308792095E+03  0.79121956095E+03  0.50400001928E-02 0.  1.
</event>
<event>
 5   0  0.5623061E-04  0.1617795E+04  0.7818609E-02  0.8809690E-01
        1   -1    0    0  501    0  0.00000000000E+00  0.00000000000E+00  0.52991330634E+03  0.52991330636E+03  0.50400001928E-02 0. -1.
       -1   -1    0    0    0  501  0.00000000000E+00  0.00000000000E+00 -0.12347595311E+04  0.12347595311E+04  0.50400001928E-02 0.  1.
    10030    2    1    2    0    0  0.00000000000E+00  0.00000000000E+00 -0.70484622480E+03  0.17646728375E+04  0.16177954206E+04 0.  0.
        3    1    3    3  502    0  0.49924408639E+03  0.44087117859E+03 -0.85312175482E+03  0.10823256408E+04  0.10100000352E+00 0.  1.
       -3    1    3    3    0  502 -0.49924408639E+03 -0.44087117859E+03  0.14827553002E+03  0.68234719675E+03  0.10100000352E+00 0. -1.
</event>
<event>
 5   0  0.1057872E-03  0.1344239E+04  0.7818609E-02  0.8995201E-01
        2   -1    0    0  501    0  0.00000000000E+00  0.00000000000E+00  0.41375924481E+03  0.41375924482E+03  0.25500000920E-02 0.  1.
       -2   -1    0    0    0  501  0.00000000000E+00  0.00000000000E+00 -0.10918050357E+04  0.10918050357E+04  0.25500000920E-02 0. -1.
    10030    2    1    2    0    0  0.00000000000E+00  0.00000000000E+00 -0.67804579089E+03  0.15055642805E+04  0.13442387095E+04 0.  0.
        2    1    3    3  502    0 -0.61369225704E+03  0.17046038059E+03 -0.98625559003E+02  0.64451681793E+03  0.25500000920E-02 0.  1.
       -2    1    3    3    0  502  0.61369225704E+03 -0.17046038059E+03 -0.57942023189E+03  0.86104746259E+03  0.25500000920E-02 0. -1.
</event>
<event>
 5   0  0.1000121E-03  0.1585993E+04  0.7818609E-02  0.8829200E-01
        2   -1    0    0  501    0  0.00000000000E+00  0.00000000000E+00  0.60200623332E+03  0.60200623332E+03  0.25500000920E-02 0. -1.
       -2   -1    0    0    0  501  0.00000000000E+00  0.00000000000E+00 -0.10445792058E+04  0.10445792058E+04  0.25500000920E-02 0.  1.
    10030    2    1    2    0    0  0.00000000000E+00  0.00000000000E+00 -0.44257297250E+03  0.16465854391E+04  0.15859926773E+04 0.  0.
        4    1    3    3  502    0  0.80376589488E-01 -0.15028441746E+03  0.58708535646E+03  0.60601670048E+03  0.12699999809E+01 0. -1.
       -4    1    3    3    0  502 -0.80376589488E-01  0.15028441746E+03 -0.10296583290E+04  0.10405687387E+04  0.12699999809E+01 0.  1.
</event>
<event>
 5   0  0.5425525E-04  0.1362095E+04  0.7818609E-02  0.8981723E-01
       -1   -1    0    0    0  501  0.00000000000E+00  0.00000000000E+00  0.50368618133E+03  0.50368618136E+03  0.50400001928E-02 0. -1.
        1   -1    0    0  501    0  0.00000000000E+00  0.00000000000E+00 -0.92086205746E+03  0.92086205747E+03  0.50400001928E-02 0.  1.
    10030    2    1    2    0    0  0.00000000000E+00  0.00000000000E+00 -0.41717587612E+03  0.14245482388E+04  0.13620947005E+04 0.  0.
        5    1    3    3  502    0 -0.15193919563E+02 -0.52498173091E+03  0.24484216600E+03  0.57948809240E+03  0.46999998093E+01 0. -1.
       -5    1    3    3    0  502  0.15193919563E+02  0.52498173091E+03 -0.66201804212E+03  0.84506014643E+03  0.46999998093E+01 0.  1.
</event>
<event>
 5   0  0.1000121E-03  0.1278411E+04  0.7818609E-02  0.9046863E-01
        2   -1    0    0  501    0  0.00000000000E+00  0.00000000000E+00  0.15592003141E+04  0.15592003141E+04  0.25500000920E-02 0. -1.
       -2   -1    0    0    0  501  0.00000000000E+00  0.00000000000E+00 -0.26204695419E+03  0.26204695420E+03  0.25500000920E-02 0.  1.
    10030    2    1    2    0    0  0.00000000000E+00  0.00000000000E+00  0.12971533599E+04  0.18212472683E+04  0.12784110345E+04 0.  0.
        4    1    3    3  502    0  0.30345755707E+02 -0.18766069684E+03  0.15179960054E+04  0.15298532241E+04  0.12699999809E+01 0. -1.
       -4    1    3    3    0  502 -0.30345755707E+02  0.18766069684E+03 -0.22084264548E+03  0.29139404419E+03  0.12699999809E+01 0.  1.
</event>
<event>
 5   0  0.5281116E-04  0.9943904E+03  0.7818609E-02  0.9314719E-01
        1   -1    0    0  501    0  0.00000000000E+00  0.00000000000E+00  0.21043443214E+04  0.21043443214E+04  0.50400001928E-02 0. -1.
       -1   -1    0    0    0  501  0.00000000000E+00  0.00000000000E+00 -0.11747271938E+03  0.11747271949E+03  0.50400001928E-02 0.  1.
    10030    2    1    2    0    0  0.00000000000E+00  0.00000000000E+00  0.19868716020E+04  0.22218170409E+04  0.99439036615E+03 0.  0.
        2    1    3    3  502    0 -0.30435420946E+03  0.16830729274E+03  0.17873199628E+04  0.18208436174E+04  0.25500000920E-02 0. -1.
       -2    1    3    3    0  502  0.30435420946E+03 -0.16830729274E+03  0.19955163918E+03  0.40097342345E+03  0.25500000920E-02 0.  1.
</event>
<event>
 5   0  0.1037321E-03  0.1620313E+04  0.7818609E-02  0.8808165E-01
       -2   -1    0    0    0  501  0.00000000000E+00  0.00000000000E+00  0.52596609746E+03  0.52596609747E+03  0.25500000920E-02 0.  1.
        2   -1    0    0  501    0  0.00000000000E+00  0.00000000000E+00 -0.12479003019E+04  0.12479003019E+04  0.25500000920E-02 0. -1.
    10030    2    1    2    0    0  0.00000000000E+00  0.00000000000E+00 -0.72193420448E+03  0.17738663994E+04  0.16203126264E+04 0.  0.
        5    1    3    3  502    0  0.12054982644E+03 -0.79789298655E+03 -0.43965101999E+03  0.91895624924E+03  0.46999998093E+01 0.  1.
       -5    1    3    3    0  502 -0.12054982644E+03  0.79789298655E+03 -0.28228318449E+03  0.85491015018E+03  0.46999998093E+01 0. -1.
</event>
<event>
 5   0  0.5281116E-04  0.1143397E+04  0.7818609E-02  0.9163897E-01
        1   -1    0    0  501    0  0.00000000000E+00  0.00000000000E+00  0.77845074018E+03  0.77845074020E+03  0.50400001928E-02 0.  1.
       -1   -1    0    0    0  501  0.00000000000E+00  0.00000000000E+00 -0.41985852459E+03  0.41985852462E+03  0.50400001928E-02 0. -1.
    10030    2    1    2    0    0  0.00000000000E+00  0.00000000000E+00  0.35859221559E+03  0.11983092648E+04  0.11433970076E+04 0.  0.
        2    1    3    3  502    0  0.20585074960E+03 -0.50244622550E+03 -0.82168331274E+01  0.54304167150E+03  0.25500000920E-02 0.  1.
       -2    1    3    3    0  502 -0.20585074960E+03  0.50244622550E+03  0.36680904871E+03  0.65526759332E+03  0.25500000920E-02 0. -1.
</event>
<event>
 5   0  0.9844690E-04  0.1480526E+04  0.7818609E-02  0.8897507E-01
        2   -1    0    0  501    0  0.00000000000E+00  0.00000000000E+00  0.18009389334E+04  0.18009389334E+04  0.25500000920E-02 0.  1.
       -2   -1    0    0    0  501  0.00000000000E+00  0.00000000000E+00 -0.30427961257E+03  0.30427961258E+03  0.25500000920E-02 0. -1.
    10030    2    1    2    0    0  0.00000000000E+00  0.00000000000E+00  0.14966593208E+04  0.21052185460E+04  0.14805255836E+04 0.  0.
        3    1    3    3  502    0 -0.12410439215E+03 -0.41982106110E+03  0.15971425274E+04  0.16560543126E+04  0.10100000352E+00 0.  1.
       -3    1    3    3    0  502  0.12410439215E+03  0.41982106110E+03 -0.10048320655E+03  0.44916423332E+03  0.10100000352E+00 0. -1.
</event>
<event>
 5   0  0.3832500E-04  0.1650078E+04  0.7818609E-02  0.8790360E-01
        4   -1    0    0  501    0  0.00000000000E+00  0.00000000000E+00  0.10273190932E+04  0.10273198782E+04  0.12699999809E+01 0.  1.
       -4   -1    0    0    0  501  0.00000000000E+00  0.00000000000E+00 -0.66258652681E+03  0.66258774393E+03  0.12699999809E+01 0. -1.
    10030    2    1    2    0    0  0.00000000000E+00  0.00000000000E+00  0.36473256642E+03  0.16899076222E+04  0.16500781577E+04 0.  0.
        2    1    3    3  502    0  0.93494202881E+01  0.47380038984E+03  0.87403120505E+03  0.99423577107E+03  0.25500000920E-02 0.  1.
       -2    1    3    3    0  502 -0.93494202881E+01 -0.47380038984E+03 -0.50929863863E+03  0.69567185109E+03  0.25500000920E-02 0. -1.
</event>
<event>
 5   0  0.1057872E-03  0.1614840E+04  0.7818609E-02  0.8811483E-01
       -2   -1    0    0    0  501  0.00000000000E+00  0.00000000000E+00  0.12963254417E+04  0.12963254417E+04  0.25500000920E-02 0. -1.
        2   -1    0    0  501    0  0.00000000000E+00  0.00000000000E+00 -0.50290387673E+03  0.50290387674E+03  0.25500000920E-02 0.  1.
    10030    2    1    2    0    0  0.00000000000E+00  0.00000000000E+00  0.79342156500E+03  0.17992293185E+04  0.16148400418E+04 0.  0.
        2    1    3    3  502    0  0.46291063520E+02  0.78516638081E+03  0.19339739945E+03  0.80995781510E+03  0.25500000920E-02 0.  1.
       -2    1    3    3    0  502 -0.46291063520E+02 -0.78516638081E+03  0.60002416556E+03  0.98927150337E+03  0.25500000920E-02 0. -1.
</event>
<event>
 5   0  0.3832500E-04  0.1588869E+04  0.7818609E-02  0.8827415E-01
       -3   -1    0    0    0  501  0.00000000000E+00  0.00000000000E+00  0.12311747491E+04  0.12311747532E+04  0.10100000352E+00 0. -1.
        3   -1    0    0  501    0  0.00000000000E+00  0.00000000000E+00 -0.51262120803E+03  0.51262121798E+03  0.10100000352E+00 0.  1.
    10030    2    1    2    0    0  0.00000000000E+00  0.00000000000E+00  0.71855354102E+03  0.17437959712E+04  0.15888691569E+04 0.  0.
        2    1    3    3  502    0 -0.57607195125E+03  0.52338451370E+03  0.53397039322E+03  0.94388273798E+03  0.25500000920E-02 0. -1.
       -2    1    3    3    0  502  0.57607195125E+03 -0.52338451370E+03  0.18458314779E+03  0.79991323321E+03  0.25500000920E-02 0.  1.
</event>
<event>
 5   0  0.1000121E-03  0.1615655E+04  0.7818609E-02  0.8810988E-01
       -2   -1    0    0    0  501  0.00000000000E+00  0.00000000000E+00  0.57628035134E+03  0.57628035135E+03  0.25500000920E-02 0.  1.
        2   -1    0    0  501    0  0.00000000000E+00  0.00000000000E+00 -0.11324087313E+04  0.11324087313E+04  0.25500000920E-02 0. -1.
    10030    2    1    2    0    0  0.00000000000E+00  0.00000000000E+00 -0.55612837993E+03  0.17086890826E+04  0.16156545442E+04 0.  0.
        4    1    3    3  502    0  0.21105251163E+03 -0.69308915278E+03  0.99816590852E+02  0.73135538630E+03  0.12699999809E+01 0.  1.
       -4    1    3    3    0  502 -0.21105251163E+03  0.69308915278E+03 -0.65594497079E+03  0.97733369632E+03  0.12699999809E+01 0. -1.
</event>
<event>
 5   0  0.1037321E-03  0.1592560E+04  0.7818609E-02  0.8825131E-01
       -2   -1    0    0    0  501  0.00000000000E+00  0.00000000000E+00  0.77305615506E+03  0.77305615506E+03  0.25500000920E-02 0. -1.
        2   -1    0    0  501    0  0.00000000000E+00  0.00000000000E+00 -0.82020196582E+03  0.82020196582E+03  0.25500000920E-02 0.  1.
    10030    2    1    2    0    0  0.00000000000E+00  0.00000000000E+00 -0.47145810757E+02  0.15932581209E+04  0.15925604266E+04 0.  0.
        5    1    3    3  502    0 -0.64505663987E+02 -0.71988571492E+03  0.31070468519E+03  0.78673751317E+03  0.46999998093E+01 0. -1.
       -5    1    3    3    0  502  0.64505663987E+02  0.71988571492E+03 -0.35785049594E+03  0.80652060772E+03  0.46999998093E+01 0.  1.
</event>
<event>
 5   0  0.5532881E-04  0.1602582E+04  0.7818609E-02  0.8818963E-01
       -1   -1    0    0    0  501  0.00000000000E+00  0.00000000000E+00  0.55298479315E+03  0.55298479317E+03  0.50400001928E-02 0. -1.
        1   -1    0    0  501    0  0.00000000000E+00  0.00000000000E+00 -0.11610939319E+04  0.11610939319E+04  0.50400001928E-02 0.  1.
    10030    2    1    2    0    0  0.00000000000E+00  0.00000000000E+00 -0.60810913872E+03  0.17140787250E+04  0.16025820263E+04 0.  0.
        4    1    3    3  502    0  0.23403561374E+03  0.75824415249E+03 -0.42295922307E+03  0.89922354316E+03  0.12699999809E+01 0. -1.
       -4    1    3    3    0  502 -0.23403561374E+03 -0.75824415249E+03 -0.18514991565E+03  0.81485518189E+03  0.12699999809E+01 0.  1.
</event>
<event>
 5   0  0.3832500E-04  0.1555016E+04  0.7818609E-02  0.8848670E-01
        4   -1    0    0  501    0  0.00000000000E+00  0.00000000000E+00  0.63971331459E+03  0.63971457524E+03  0.12699999809E+01 0. -1.
       -4   -1    0    0    0  501  0.00000000000E+00  0.00000000000E+00 -0.94498135013E+03  0.94498220353E+03  0.12699999809E+01 0.  1.
    10030    2    1    2    0    0  0.00000000000E+00  0.00000000000E+00 -0.30526803554E+03  0.15846967788E+04  0.15550161758E+04 0.  0.
        1    1    3    3  502    0 -0.26165276778E+03  0.10608476136E+03 -0.89089392851E+03  0.93456307404E+03  0.50400001928E-02 0.  1.
       -1    1    3    3    0  502  0.26165276778E+03 -0.10608476136E+03  0.58562589297E+03  0.65013370473E+03  0.50400001928E-02 0. -1.
</event>
<event>
 5   0  0.1037321E-03  0.1586822E+04  0.7818609E-02  0.8828685E-01
        2   -1    0    0  501    0  0.00000000000E+00  0.00000000000E+00  0.86218028208E+03  0.86218028209E+03  0.25500000920E-02 0. -1.
       -2   -1    0    0    0  501  0.00000000000E+00  0.00000000000E+00 -0.73012691502E+03  0.73012691503E+03  0.25500000920E-02 0.  1.
    10030    2    1    2    0    0  0.00000000000E+00  0.00000000000E+00  0.13205336706E+03  0.15923071971E+04  0.15868220184E+04 0.  0.
        5    1    3    3  502    0 -0.77771194570E+03 -0.15398469753E+03  0.96657304295E+02  0.79869386002E+03  0.46999998093E+01 0. -1.
       -5    1    3    3    0  502  0.77771194570E+03  0.15398469753E+03  0.35396062766E+02  0.79361333710E+03  0.46999998093E+01 0.  1.
</event>
<event>
 5   0  0.5623061E-04  0.1608326E+04  0.7818609E-02  0.8815449E-01
       -1   -1    0    0    0  501  0.00000000000E+00  0.00000000000E+00  0.12392270954E+04  0.12392270954E+04  0.50400001928E-02 0.  1.
        1   -1    0    0  501    0  0.00000000000E+00  0.00000000000E+00 -0.52183979361E+03  0.52183979363E+03  0.50400001928E-02 0. -1.
    10030    2    1    2    0    0  0.00000000000E+00  0.00000000000E+00  0.71738730175E+03  0.17610668890E+04  0.16083258522E+04 0.  0.
        3    1    3    3  502    0  0.32105573230E+03 -0.52360672817E+03  0.92706293177E+03  0.11120640623E+04  0.10100000352E+00 0.  1.
       -3    1    3    3    0  502 -0.32105573230E+03  0.52360672817E+03 -0.20967563002E+03  0.64900282669E+03  0.10100000352E+00 0. -1.
</event>
<event>
 5   0  0.1030027E-03  0.1589615E+04  0.7818609E-02  0.8826953E-01
        2   -1    0    0  501    0  0.00000000000E+00  0.00000000000E+00  0.10264619554E+04  0.10264619554E+04  0.25500000920E-02 0.  1.
       -2   -1    0    0    0  501  0.00000000000E+00  0.00000000000E+00 -0.61543350656E+03  0.61543350657E+03  0.25500000920E-02 0. -1.
    10030    2    1    2    0    0  0.00000000000E+00  0.00000000000E+00  0.41102844882E+03  0.16418954620E+04  0.15896151491E+04 0.  0.
        1    1    3    3  502    0 -0.51562697612E+03  0.39120204425E+03  0.68199827151E+03  0.94022968486E+03  0.50400001928E-02 0.  1.
       -1    1    3    3    0  502  0.51562697612E+03 -0.39120204425E+03 -0.27096982268E+03  0.70166577710E+03  0.50400001928E-02 0. -1.
</event>
<event>
 5   0  0.5288658E-04  0.1612765E+04  0.7818609E-02  0.8812744E-01
        1   -1    0    0  501    0  0.00000000000E+00  0.00000000000E+00  0.13947080364E+04  0.13947080364E+04  0.50400001928E-02 0. -1.
       -1   -1    0    0    0  501  0.00000000000E+00  0.00000000000E+00 -0.46622832304E+03  0.46622832307E+03  0.50400001928E-02 0.  1.
    10030    2    1    2    0    0  0.00000000000E+00  0.00000000000E+00  0.92847971337E+03  0.18609363595E+04  0.16127645693E+04 0.  0.
        1    1    3    3  502    0 -0.54934541566E+03 -0.10123256819E+03  0.11353019993E+04  0.12652822010E+04  0.50400001928E-02 0. -1.
       -1    1    3    3    0  502  0.54934541566E+03  0.10123256819E+03 -0.20682228590E+03  0.59565415850E+03  0.50400001928E-02 0.  1.
</event>
<event>
 5   0  0.1030027E-03  0.1600768E+04  0.7818609E-02  0.8820076E-01
       -2   -1    0    0    0  501  0.00000000000E+00  0.00000000000E+00  0.50691728693E+03  0.50691728693E+03  0.25500000920E-02 0. -1.
        2   -1    0    0  501    0  0.00000000000E+00  0.00000000000E+00 -0.12637454612E+04  0.12637454612E+04  0.25500000920E-02 0.  1.
    10030    2    1    2    0    0  0.00000000000E+00  0.00000000000E+00 -0.75682817432E+03  0.17706627482E+04  0.16007678415E+04 0.  0.
        1    1    3    3  502    0 -0.40237601646E+03 -0.51714215148E+03  0.13001270395E+03  0.66801629222E+03  0.50400001928E-02 0. -1.
       -1    1    3    3    0  502  0.40237601646E+03  0.51714215148E+03 -0.88684087827E+03  0.11026464560E+04  0.50400001928E-02 0.  1.
</event>
<event>
 5   0  0.1030027E-03  0.1602434E+04  0.7818609E-02  0.8819054E-01
        2   -1    0    0  501    0  0.00000000000E+00  0.00000000000E+00  0.15630090611E+04  0.15630090611E+04  0.25500000920E-02 0. -1.
       -2   -1    0    0    0  501  0.00000000000E+00  0.00000000000E+00 -0.41071344453E+03  0.41071344453E+03  0.25500000920E-02 0.  1.
    10030    2    1    2    0    0  0.00000000000E+00  0.00000000000E+00  0.11522956165E+04  0.19737225056E+04  0.16024341925E+04 0.  0.
        1    1    3    3  502    0  0.23765901734E+03 -0.74875524163E+03  0.77024404573E+03  0.11001782176E+04  0.50400001928E-02 0. -1.
       -1    1    3    3    0  502 -0.23765901734E+03  0.74875524163E+03  0.38205157081E+03  0.87354428804E+03  0.50400001928E-02 0.  1.
</event>
<event>
 5   0  0.1037321E-03  0.1713806E+04  0.7818609E-02  0.8753529E-01
        2   -1    0    0  501    0  0.00000000000E+00  0.00000000000E+00  0.48493113370E+03  0.48493113371E+03  0.25500000920E-02 0.  1.
       -2   -1    0    0    0  501  0.00000000000E+00  0.00000000000E+00 -0.15142005844E+04  0.15142005844E+04  0.25500000920E-02 0. -1.
    10030    2    1    2    0    0  0.00000000000E+00  0.00000000000E+00 -0.10292694507E+04  0.19991317181E+04  0.17138062972E+04 0.  0.
        5    1    3    3  502    0  0.72018478648E+03 -0.36110526303E+03 -0.17415299718E+03  0.82426603356E+03  0.46999998093E+01 0.  1.
       -5    1    3    3    0  502 -0.72018478648E+03  0.36110526303E+03 -0.85511645353E+03  0.11748656846E+04  0.46999998093E+01 0. -1.
</event>
<event>
 5   0  0.9844690E-04  0.1596222E+04  0.7818609E-02  0.8822872E-01
       -2   -1    0    0    0  501  0.00000000000E+00  0.00000000000E+00  0.48922122229E+03  0.48922122230E+03  0.25500000920E-02 0.  1.
        2   -1    0    0  501    0  0.00000000000E+00  0.00000000000E+00 -0.13020311287E+04  0.13020311287E+04  0.25500000920E-02 0. -1.
    10030    2    1    2    0    0  0.00000000000E+00  0.00000000000E+00 -0.81280990638E+03  0.17912523510E+04  0.15962221152E+04 0.  0.
        3    1    3    3  502    0 -0.30103206167E+03 -0.30220354363E+03  0.35057670713E+03  0.55213342746E+03  0.10100000352E+00 0.  1.
       -3    1    3    3    0  502  0.30103206167E+03  0.30220354363E+03 -0.11633866135E+04  0.12391189235E+04  0.10100000352E+00 0. -1.
</event>
<event>
 5   0  0.5281116E-04  0.1590148E+04  0.7818609E-02  0.8826624E-01
       -1   -1    0    0    0  501  0.00000000000E+00  0.00000000000E+00  0.15659459983E+04  0.15659459983E+04  0.50400001928E-02 0.  1.
        1   -1    0    0  501    0  0.00000000000E+00  0.00000000000E+00 -0.40368089207E+03  0.40368089210E+03  0.50400001928E-02 0. -1.
    10030    2    1    2    0    0  0.00000000000E+00  0.00000000000E+00  0.11622651062E+04  0.19696268904E+04  0.15901477637E+04 0.  0.
        2    1    3    3  502    0  0.32427716903E+03 -0.37485513696E+03 -0.18889206933E+03  0.53042649814E+03  0.25500000920E-02 0. -1.
       -2    1    3    3    0  502 -0.32427716903E+03  0.37485513696E+03  0.13511571755E+04  0.14392003923E+04  0.25500000920E-02 0.  1.
</event>
<event>
 5   0  0.5623061E-04  0.1530594E+04  0.7818609E-02  0.8864359E-01
       -1   -1    0    0    0  501  0.00000000000E+00  0.00000000000E+00  0.56186929975E+03  0.56186929977E+03  0.50400001928E-02 0.  1.
        1   -1    0    0  501    0  0.00000000000E+00  0.00000000000E+00 -0.10423765863E+04  0.10423765863E+04  0.50400001928E-02 0. -1.
    10030    2    1    2    0    0  0.00000000000E+00  0.00000000000E+00 -0.48050728653E+03  0.16042458861E+04  0.15305938751E+04 0.  0.
        3    1    3    3  502    0 -0.64168869707E+03 -0.12330164134E+03  0.17730305389E+03  0.67705543482E+03  0.10100000352E+00 0.  1.
       -3    1    3    3    0  502  0.64168869707E+03  0.12330164134E+03 -0.65781034042E+03  0.92719045124E+03  0.10100000352E+00 0. -1.
</event>
<event>
 5   0  0.3832500E-04  0.1689280E+04  0.7818609E-02  0.8767502E-01
       -3   -1    0    0    0  501  0.00000000000E+00  0.00000000000E+00  0.65668849104E+03  0.65668849881E+03  0.10100000352E+00 0. -1.
        3   -1    0    0  501    0  0.00000000000E+00  0.00000000000E+00 -0.10863848662E+04  0.10863848709E+04  0.10100000352E+00 0.  1.
    10030    2    1    2    0    0  0.00000000000E+00  0.00000000000E+00 -0.42969637516E+03  0.17430733697E+04  0.16892796682E+04 0.  0.
        4    1    3    3  502    0 -0.67633106167E+03  0.37053156232E+03 -0.57034432443E+03  0.95917235415E+03  0.12699999809E+01 0.  1.
       -4    1    3    3    0  502  0.67633106167E+03 -0.37053156232E+03  0.14064794927E+03  0.78390101556E+03  0.12699999809E+01 0. -1.
</event>
<event>
 5   0  0.5281116E-04  0.1519189E+04  0.7818609E-02  0.8871792E-01
        1   -1    0    0  501    0  0.00000000000E+00  0.00000000000E+00  0.15108620669E+04  0.15108620669E+04  0.50400001928E-02 0.  1.
       -1   -1    0    0    0  501  0.00000000000E+00  0.00000000000E+00 -0.38189060526E+03  0.38189060529E+03  0.50400001928E-02 0. -1.
    10030    2    1    2    0    0  0.00000000000E+00  0.00000000000E+00  0.11289714617E+04  0.18927526722E+04  0.15191892960E+04 0.  0.
        2    1    3    3  502    0 -0.54542694067E+03  0.42269421613E+03  0.16888056029E+03  0.71040945349E+03  0.25500000920E-02 0. -1.
       -2    1    3    3    0  502  0.54542694067E+03 -0.42269421613E+03  0.96009090138E+03  0.11823432187E+04  0.25500000920E-02 0.  1.
</event>
<event>
 5   0  0.5288658E-04  0.1606911E+04  0.7818609E-02  0.8816314E-01
        1   -1    0    0  501    0  0.00000000000E+00  0.00000000000E+00  0.12327620605E+04  0.12327620605E+04  0.50400001928E-02 0. -1.
       -1   -1    0    0    0  501  0.00000000000E+00  0.00000000000E+00 -0.52365377815E+03  0.52365377817E+03  0.50400001928E-02 0.  1.
    10030    2    1    2    0    0  0.00000000000E+00  0.00000000000E+00  0.70910828230E+03  0.17564158386E+04  0.16069107138E+04 0.  0.
        1    1    3    3  502    0  0.63230976944E+03  0.49180244486E+03  0.28668689136E+03  0.85080824102E+03  0.50400001928E-02 0.  1.
       -1    1    3    3    0  502 -0.63230976944E+03 -0.49180244486E+03  0.42242139095E+03  0.90560759761E+03  0.50400001928E-02 0. -1.
</event>
<event>
 5   0  0.1030027E-03  0.1619947E+04  0.7818609E-02  0.8808386E-01
        2   -1    0    0  501    0  0.00000000000E+00  0.00000000000E+00  0.24160459222E+04  0.24160459222E+04  0.25500000920E-02 0.  1.
       -2   -1    0    0    0  501  0.00000000000E+00  0.00000000000E+00 -0.27154176041E+03  0.27154176042E+03  0.25500000920E-02 0. -1.
    10030    2    1    2    0    0  0.00000000000E+00  0.00000000000E+00  0.21445041618E+04  0.26875876826E+04  0.16199473608E+04 0.  0.
        1    1    3    3  502    0 -0.38551268546E+03 -0.16204972359E+03  0.22230902792E+04  0.22620810183E+04  0.50400001928E-02 0.  1.
       -1    1    3    3    0  502  0.38551268546E+03  0.16204972359E+03 -0.78586117404E+02  0.42550666439E+03  0.50400001928E-02 0. -1.
</event>
<event>
 5   0  0.5623061E-04  0.1590638E+04  0.7818609E-02  0.8826320E-01
       -1   -1    0    0    0  501  0.00000000000E+00  0.00000000000E+00  0.49405287953E+03  0.49405287956E+03  0.50400001928E-02 0. -1.
        1   -1    0    0  501    0  0.00000000000E+00  0.00000000000E+00 -0.12802921205E+04  0.12802921205E+04  0.50400001928E-02 0.  1.
    10030    2    1    2    0    0  0.00000000000E+00  0.00000000000E+00 -0.78623924097E+03  0.17743450001E+04  0.15906376191E+04 0.  0.
        3    1    3    3  502    0 -0.33978778580E+03 -0.60961083315E+03  0.32307342184E+02  0.69865934606E+03  0.10100000352E+00 0. -1.
       -3    1    3    3    0  502  0.33978778580E+03  0.60961083315E+03 -0.81854658316E+03  0.10756856540E+04  0.10100000352E+00 0.  1.
</event>
<event>
 5   0  0.1057872E-03  0.1174676E+04  0.7818609E-02  0.9135316E-01
       -2   -1    0    0    0  501  0.00000000000E+00  0.00000000000E+00  0.26561581031E+03  0.26561581032E+03  0.25500000920E-02 0.  1.
        2   -1    0    0  501    0  0.00000000000E+00  0.00000000000E+00 -0.12987394905E+04  0.12987394905E+04  0.25500000920E-02 0. -1.
    10030    2    1    2    0    0  0.00000000000E+00  0.00000000000E+00 -0.10331236802E+04  0.15643553009E+04  0.11746756866E+04 0.  0.
        2    1    3    3  502    0 -0.16005528013E+02  0.10134465156E+03 -0.12867126278E+04  0.12907967702E+04  0.25500000920E-02 0. -1.
       -2    1    3    3    0  502  0.16005528013E+02 -0.10134465156E+03  0.25358894762E+03  0.27355853065E+03  0.25500000920E-02 0.  1.
</event>
<event>
 5   0  0.5425525E-04  0.1593201E+04  0.7818609E-02  0.8824736E-01
       -1   -1    0    0    0  501  0.00000000000E+00  0.00000000000E+00  0.87546011804E+03  0.87546011805E+03  0.50400001928E-02 0.  1.
        1   -1    0    0  501    0  0.00000000000E+00  0.00000000000E+00 -0.72484456864E+03  0.72484456866E+03  0.50400001928E-02 0. -1.
    10030    2    1    2    0    0  0.00000000000E+00  0.00000000000E+00  0.15061554940E+03  0.16003046867E+04  0.15932011946E+04 0.  0.
        5    1    3    3  502    0 -0.14634514097E+03  0.77733993939E+03 -0.19325555900E+02  0.79124575750E+03  0.46999998093E+01 0. -1.
       -5    1    3    3    0  502  0.14634514097E+03 -0.77733993939E+03  0.16994110530E+03  0.80905892920E+03  0.46999998093E+01 0.  1.
</event>
<event>
 5   0  0.1000121E-03  0.1588958E+04  0.7818609E-02  0.8827360E-01
       -2   -1    0    0    0  501  0.00000000000E+00  0.00000000000E+00  0.49073654216E+03  0.49073654216E+03  0.25500000920E-02 0. -1.
        2   -1    0    0  501    0  0.00000000000E+00  0.00000000000E+00 -0.12862239749E+04  0.12862239749E+04  0.25500000920E-02 0.  1.
    10030    2    1    2    0    0  0.00000000000E+00  0.00000000000E+00 -0.79548743275E+03  0.17769605171E+04  0.15889582825E+04 0.  0.
        4    1    3    3  502    0  0.16037554898E+03 -0.63624828502E+03  0.10321190449E+03  0.66421871928E+03  0.12699999809E+01 0. -1.
       -4    1    3    3    0  502 -0.16037554898E+03  0.63624828502E+03 -0.89869933724E+03  0.11127417978E+04  0.12699999809E+01 0.  1.
</event>
<event>
 5   0  0.1030027E-03  0.1705766E+04  0.7818609E-02  0.8758082E-01
        2   -1    0    0  501    0  0.00000000000E+00  0.00000000000E+00  0.79016792163E+03  0.79016792163E+03  0.25500000920E-02 0.  1.
       -2   -1    0    0    0  501  0.00000000000E+00  0.00000000000E+00 -0.92057597424E+03  0.92057597425E+03  0.25500000920E-02 0. -1.
    10030    2    1    2    0    0  0.00000000000E+00  0.00000000000E+00 -0.13040805262E+03  0.17107438959E+04  0.17057662258E+04 0.  0.
        1    1    3    3  502    0 -0.75228926505E+03 -0.39737029880E+03 -0.12510529344E+03  0.85993815309E+03  0.50400001928E-02 0. -1.
       -1    1    3    3    0  502  0.75228926505E+03  0.39737029880E+03 -0.53027591718E+01  0.85080574278E+03  0.50400001928E-02 0.  1.
</event>
<event>
 5   0  0.1030027E-03  0.1568993E+04  0.7818609E-02  0.8839827E-01
        2   -1    0    0  501    0  0.00000000000E+00  0.00000000000E+00  0.21378405226E+04  0.21378405226E+04  0.25500000920E-02 0. -1.
       -2   -1    0    0    0  501  0.00000000000E+00  0.00000000000E+00 -0.28787682847E+03  0.28787682848E+03  0.25500000920E-02 0.  1.
    10030    2    1    2    0    0  0.00000000000E+00  0.00000000000E+00  0.18499636942E+04  0.24257173511E+04  0.15689929884E+04 0.  0.
        1    1    3    3  502    0  0.53866444889E+02 -0.39848724659E+03 -0.11643173458E+03  0.41862874773E+03  0.50400001928E-02 0.  1.
       -1    1    3    3    0  502 -0.53866444889E+02  0.39848724659E+03  0.19663954288E+04  0.20070886034E+04  0.50400001928E-02 0. -1.
</event>
<event>
 5   0  0.5532881E-04  0.1585939E+04  0.7818609E-02  0.8829233E-01
        1   -1    0    0  501    0  0.00000000000E+00  0.00000000000E+00  0.13985221234E+04  0.13985221234E+04  0.50400001928E-02 0. -1.
       -1   -1    0    0    0  501  0.00000000000E+00  0.00000000000E+00 -0.44961769116E+03  0.44961769118E+03  0.50400001928E-02 0.  1.
    10030    2    1    2    0    0  0.00000000000E+00  0.00000000000E+00  0.94890443220E+03  0.18481398145E+04  0.15859385715E+04 0.  0.
        4    1    3    3  502    0  0.70632862880E+03  0.97144755399E+02  0.69995094777E+02  0.71640642206E+03  0.12699999809E+01 0.  1.
       -4    1    3    3    0  502 -0.70632862880E+03 -0.97144755399E+02  0.87890933743E+03  0.11317333925E+04  0.12699999809E+01 0. -1.
</event>
<event>
 5   0  0.1000121E-03  0.1613135E+04  0.7818609E-02  0.8812519E-01
       -2   -1    0    0    0  501  0.00000000000E+00  0.00000000000E+00  0.27155100961E+03  0.27155100962E+03  0.25500000920E-02 0. -1.
        2   -1    0    0  501    0  0.00000000000E+00  0.00000000000E+00 -0.23956874808E+04  0.23956874808E+04  0.25500000920E-02 0.  1.
    10030    2    1    2    0    0  0.00000000000E+00  0.00000000000E+00 -0.21241364712E+04  0.26672384904E+04  0.16131352753E+04 0.  0.
        4    1    3    3  502    0 -0.21007462427E+03 -0.71923977213E+03 -0.56848490780E+03  0.94053915435E+03  0.12699999809E+01 0. -1.
       -4    1    3    3    0  502  0.21007462427E+03  0.71923977213E+03 -0.15556515634E+04  0.17266993360E+04  0.12699999809E+01 0.  1.
</event>
<event>
 5   0  0.1000121E-03  0.2010938E+04  0.7818609E-02  0.8601524E-01
       -2   -1    0    0    0  501  0.00000000000E+00  0.00000000000E+00  0.10720334416E+04  0.10720334416E+04  0.25500000920E-02 0. -1.
        2   -1    0    0  501    0  0.00000000000E+00  0.00000000000E+00 -0.94303746861E+03  0.94303746862E+03  0.25500000920E-02 0.  1.
    10030    2    1    2    0    0  0.00000000000E+00  0.00000000000E+00  0.12899597295E+03  0.20150709102E+04  0.20109377942E+04 0.  0.
        4    1    3    3  502    0 -0.82244243412E+03  0.13161502808E+03 -0.49989317424E+03  0.97140561642E+03  0.12699999809E+01 0.  1.
       -4    1    3    3    0  502  0.82244243412E+03 -0.13161502808E+03  0.62888914719E+03  0.10436652938E+04  0.12699999809E+01 0. -1.
</event>
<event>
 5   0  0.3832500E-04  0.1510718E+04  0.7818609E-02  0.8877357E-01
        4   -1    0    0  501    0  0.00000000000E+00  0.00000000000E+00  0.65674073519E+03  0.65674196315E+03  0.12699999809E+01 0.  1.
       -4   -1    0    0    0  501  0.00000000000E+00  0.00000000000E+00 -0.86878355576E+03  0.86878448401E+03  0.12699999809E+01 0. -1.
    10030    2    1    2    0    0  0.00000000000E+00  0.00000000000E+00 -0.21204282057E+03  0.15255264472E+04  0.15107179694E+04 0.  0.
        3    1    3    3  502    0  0.73738120462E+03  0.13864942919E+03 -0.19412618425E+03  0.77500947785E+03  0.10100000352E+00 0.  1.
       -3    1    3    3    0  502 -0.73738120462E+03 -0.13864942919E+03 -0.17916636317E+02  0.75051696930E+03  0.10100000352E+00 0. -1.
</event>
<event>
 5   0  0.1030027E-03  0.1594947E+04  0.7818609E-02  0.8823659E-01
       -2   -1    0    0    0  501  0.00000000000E+00  0.00000000000E+00  0.31042596162E+03  0.31042596163E+03  0.25500000920E-02 0. -1.
        2   -1    0    0  501    0  0.00000000000E+00  0.00000000000E+00 -0.20486807097E+04  0.20486807097E+04  0.25500000920E-02 0.  1.
    10030    2    1    2    0    0  0.00000000000E+00  0.00000000000E+00 -0.17382547481E+04  0.23591066713E+04  0.15949466190E+04 0.  0.
        1    1    3    3  502    0  0.38604014894E+03  0.14103972051E+03 -0.18799630195E+04  0.19243648703E+04  0.50400001928E-02 0.  1.
       -1    1    3    3    0  502 -0.38604014894E+03 -0.14103972051E+03  0.14170827142E+03  0.43474180104E+03  0.50400001928E-02 0. -1.
</event>
<event>
 5   0  0.5623061E-04  0.1326655E+04  0.7818609E-02  0.9008690E-01
       -1   -1    0    0    0  501  0.00000000000E+00  0.00000000000E+00  0.63411635598E+03  0.63411635600E+03  0.50400001928E-02 0.  1.
        1   -1    0    0  501    0  0.00000000000E+00  0.00000000000E+00 -0.69388472613E+03  0.69388472615E+03  0.50400001928E-02 0. -1.
    10030    2    1    2    0    0  0.00000000000E+00  0.00000000000E+00 -0.59768370146E+02  0.13280010821E+04  0.13266554248E+04 0.  0.
        3    1    3    3  502    0 -0.33610960241E+03  0.22331092493E+03 -0.55688396420E+03  0.68771883339E+03  0.10100000352E+00 0. -1.
       -3    1    3    3    0  502  0.33610960241E+03 -0.22331092493E+03  0.49711559405E+03  0.64028224876E+03  0.10100000352E+00 0.  1.
</event>
<event>
 5   0  0.5425525E-04  0.1066446E+04  0.7818609E-02  0.9238528E-01
       -1   -1    0    0    0  501  0.00000000000E+00  0.00000000000E+00  0.18522142934E+03  0.18522142941E+03  0.50400001928E-02 0.  1.
        1   -1    0    0  501    0  0.00000000000E+00  0.00000000000E+00 -0.15350631004E+04  0.15350631004E+04  0.50400001928E-02 0. -1.
    10030    2    1    2    0    0  0.00000000000E+00  0.00000000000E+00 -0.13498416711E+04  0.17202845298E+04  0.10664456510E+04 0.  0.
        5    1    3    3  502    0 -0.46691395357E+03  0.11561894069E+03 -0.10460326311E+04  0.11513395393E+04  0.46999998093E+01 0. -1.
       -5    1    3    3    0  502  0.46691395357E+03 -0.11561894069E+03 -0.30380904004E+03  0.56894499057E+03  0.46999998093E+01 0.  1.
</event>
<event>
 5   0  0.5425525E-04  0.1482083E+04  0.7818609E-02  0.8896455E-01
       -1   -1    0    0    0  501  0.00000000000E+00  0.00000000000E+00  0.32317188684E+03  0.32317188688E+03  0.50400001928E-02 0. -1.
        1   -1    0    0  501    0  0.00000000000E+00  0.00000000000E+00 -0.16992282831E+04  0.16992282831E+04  0.50400001928E-02 0.  1.
    10030    2    1    2    0    0  0.00000000000E+00  0.00000000000E+00 -0.13760563962E+04  0.20224001700E+04  0.14820834126E+04 0.  0.
        5    1    3    3  502    0 -0.51711737669E+02  0.71159613103E+03 -0.41485058953E+03  0.82532797065E+03  0.46999998093E+01 0.  1.
       -5    1    3    3    0  502  0.51711737669E+02 -0.71159613103E+03 -0.96120580671E+03  0.11970721993E+04  0.46999998093E+01 0. -1.
</event>
<event>
 5   0  0.5281116E-04  0.1579340E+04  0.7818609E-02  0.8833342E-01
        1   -1    0    0  501    0  0.00000000000E+00  0.00000000000E+00  0.15767984870E+04  0.15767984870E+04  0.50400001928E-02 0.  1.
       -1   -1    0    0    0  501  0.00000000000E+00  0.00000000000E+00 -0.39547144173E+03  0.39547144177E+03  0.50400001928E-02 0. -1.
    10030    2    1    2    0    0  0.00000000000E+00  0.00000000000E+00  0.11813270452E+04  0.19722699287E+04  0.15793400786E+04 0.  0.
        2    1    3    3  502    0  0.63195532285E+03 -0.43096504549E+03  0.34569497977E+03  0.83940658775E+03  0.25500000920E-02 0. -1.
       -2    1    3    3    0  502 -0.63195532285E+03  0.43096504549E+03  0.83563206545E+03  0.11328633410E+04  0.25500000920E-02 0.  1.
</event>
<event>
 5   0  0.9844690E-04  0.1620261E+04  0.7818609E-02  0.8808197E-01
        2   -1    0    0  501    0  0.00000000000E+00  0.00000000000E+00  0.17129397192E+04  0.17129397192E+04  0.25500000920E-02 0.  1.
       -2   -1    0    0    0  501  0.00000000000E+00  0.00000000000E+00 -0.38314905582E+03  0.38314905583E+03  0.25500000920E-02 0. -1.
    10030    2    1    2    0    0  0.00000000000E+00  0.00000000000E+00  0.13297906634E+04  0.20960887751E+04  0.16202607643E+04 0.  0.
        3    1    3    3  502    0  0.16204825567E+03 -0.36162216286E+03 -0.24921217749E+03  0.46812065266E+03  0.10100000352E+00 0. -1.
       -3    1    3    3    0  502 -0.16204825567E+03  0.36162216286E+03  0.15790028409E+04  0.16279681224E+04  0.10100000352E+00 0.  1.
</event>
<event>
 5   0  0.1037321E-03  0.1588685E+04  0.7818609E-02  0.8827530E-01
       -2   -1    0    0    0  501  0.00000000000E+00  0.00000000000E+00  0.10629147558E+04  0.10629147559E+04  0.25500000920E-02 0.  1.
        2   -1    0    0  501    0  0.00000000000E+00  0.00000000000E+00 -0.59363159416E+03  0.59363159417E+03  0.25500000920E-02 0. -1.
    10030    2    1    2    0    0  0.00000000000E+00  0.00000000000E+00  0.46928316169E+03  0.16565463500E+04  0.15886847151E+04 0.  0.
        5    1    3    3  502    0 -0.68436851802E+03  0.73118496728E+02  0.64812941094E+03  0.94541017889E+03  0.46999998093E+01 0.  1.
       -5    1    3    3    0  502  0.68436851802E+03 -0.73118496728E+02 -0.17884624925E+03  0.71113617113E+03  0.46999998093E+01 0. -1.
</event>
<event>
 5   0  0.1057872E-03  0.1575723E+04  0.7818609E-02  0.8835603E-01
       -2   -1    0    0    0  501  0.00000000000E+00  0.00000000000E+00  0.42063174597E+03  0.42063174598E+03  0.25500000920E-02 0. -1.
        2   -1    0    0  501    0  0.00000000000E+00  0.00000000000E+00 -0.14756986001E+04  0.14756986001E+04  0.25500000920E-02 0.  1.
    10030    2    1    2    0    0  0.00000000000E+00  0.00000000000E+00 -0.10550668541E+04  0.18963303461E+04  0.15757229181E+04 0.  0.
        2    1    3    3  502    0  0.65403649279E+03  0.30244940043E+03 -0.14414600256E+03  0.73485879173E+03  0.25500000920E-02 0.  1.
       -2    1    3    3    0  502 -0.65403649279E+03 -0.30244940043E+03 -0.91092085154E+03  0.11614715543E+04  0.25500000920E-02 0. -1.
</event>
<event>
 5   0  0.5281116E-04  0.1629693E+04  0.7818609E-02  0.8802511E-01
       -1   -1    0    0    0  501  0.00000000000E+00  0.00000000000E+00  0.62141341294E+03  0.62141341296E+03  0.50400001928E-02 0. -1.
        1   -1    0    0  501    0  0.00000000000E+00  0.00000000000E+00 -0.10684913366E+04  0.10684913366E+04  0.50400001928E-02 0.  1.
    10030    2    1    2    0    0  0.00000000000E+00  0.00000000000E+00 -0.44707792367E+03  0.16899047496E+04  0.16296930364E+04 0.  0.
        2    1    3    3  502    0 -0.66157436125E+03  0.37452982900E+03  0.80591712658E+02  0.76449215328E+03  0.25500000920E-02 0. -1.
       -2    1    3    3    0  502  0.66157436125E+03 -0.37452982900E+03 -0.52766963633E+03  0.92541259630E+03  0.25500000920E-02 0.  1.
</event>
<event>
 5   0  0.1030027E-03  0.1583068E+04  0.7818609E-02  0.8831018E-01
       -2   -1    0    0    0  501  0.00000000000E+00  0.00000000000E+00  0.10731510078E+04  0.10731510079E+04  0.25500000920E-02 0. -1.
        2   -1    0    0  501    0  0.00000000000E+00  0.00000000000E+00 -0.58381929792E+03  0.58381929792E+03  0.25500000920E-02 0.  1.
    10030    2    1    2    0    0  0.00000000000E+00  0.00000000000E+00  0.48933170993E+03  0.16569703058E+04  0.15830682461E+04 0.  0.
        1    1    3    3  502    0 -0.75701285840E+03  0.13310600493E+02  0.30642829793E+01  0.75713607081E+03  0.50400001928E-02 0.  1.
       -1    1    3    3    0  502  0.75701285840E+03 -0.13310600493E+02  0.48626742695E+03  0.89983423496E+03  0.50400001928E-02 0. -1.
</event>
<event>
 5   0  0.3832500E-04  0.1667633E+04  0.7818609E-02  0.8780043E-01
        3   -1    0    0  501    0  0.00000000000E+00  0.00000000000E+00  0.78998334504E+03  0.78998335150E+03  0.10100000352E+00 0.  1.
       -3   -1    0    0    0  501  0.00000000000E+00  0.00000000000E+00 -0.88008128007E+03  0.88008128587E+03  0.10100000352E+00 0. -1.
    10030    2    1    2    0    0  0.00000000000E+00  0.00000000000E+00 -0.90097935030E+02  0.16700646374E+04  0.16676325300E+04 0.  0.
        1    1    3    3  502    0 -0.24420766196E+03 -0.30281993115E+03  0.69353070458E+03  0.79518685293E+03  0.50400001928E-02 0.  1.
       -1    1    3    3    0  502  0.24420766196E+03  0.30281993115E+03 -0.78362863961E+03  0.87487778444E+03  0.50400001928E-02 0. -1.
</event>
<event>
 5   0  0.3832500E-04  0.1580854E+04  0.7818609E-02  0.8832397E-01
        4   -1    0    0  501    0  0.00000000000E+00  0.00000000000E+00  0.73468370292E+03  0.73468480061E+03  0.12699999809E+01 0.  1.
       -4   -1    0    0    0  501  0.00000000000E+00  0.00000000000E+00 -0.85039713514E+03  0.85039808346E+03  0.12699999809E+01 0. -1.
    10030    2    1    2    0    0  0.00000000000E+00  0.00000000000E+00 -0.11571343222E+03  0.15850828841E+04  0.15808536147E+04 0.  0.
        4    1    3    3  502    0 -0.25132495536E+03 -0.51026185139E+03  0.49246638732E+03  0.75236702859E+03  0.12699999809E+01 0.  1.
       -4    1    3    3    0  502  0.25132495536E+03  0.51026185139E+03 -0.60817981953E+03  0.83271585548E+03  0.12699999809E+01 0. -1.
</event>
<event>
 5   0  0.5288658E-04  0.1592516E+04  0.7818609E-02  0.8825159E-01
        1   -1    0    0  501    0  0.00000000000E+00  0.00000000000E+00  0.10364609393E+04  0.10364609394E+04  0.50400001928E-02 0. -1.
       -1   -1    0    0    0  501  0.00000000000E+00  0.00000000000E+00 -0.61172292355E+03  0.61172292357E+03  0.50400001928E-02 0.  1.
    10030    2    1    2    0    0  0.00000000000E+00  0.00000000000E+00  0.42473801579E+03  0.16481838629E+04  0.15925161425E+04 0.  0.
        1    1    3    3  502    0  0.31729060436E+03  0.72844677552E+03  0.15840339411E+03  0.81018495893E+03  0.50400001928E-02 0. -1.
       -1    1    3    3    0  502 -0.31729060436E+03 -0.72844677552E+03  0.26633462168E+03  0.83799890400E+03  0.50400001928E-02 0.  1.
</event>
<event>
 5   0  0.5623061E-04  0.1636779E+04  0.7818609E-02  0.8798266E-01
        1   -1    0    0  501    0  0.00000000000E+00  0.00000000000E+00  0.84972740499E+03  0.84972740501E+03  0.50400001928E-02 0.  1.
       -1   -1    0    0    0  501  0.00000000000E+00  0.00000000000E+00 -0.78820758775E+03  0.78820758776E+03  0.50400001928E-02 0. -1.
    10030    2    1    2    0    0  0.00000000000E+00  0.00000000000E+00  0.61519817246E+02  0.16379349928E+04  0.16367792620E+04 0.  0.
        3    1    3    3  502    0  0.16956165378E+03 -0.12875845180E+03 -0.76000795811E+03  0.78926674827E+03  0.10100000352E+00 0. -1.
       -3    1    3    3    0  502 -0.16956165378E+03  0.12875845180E+03  0.82152777535E+03  0.84866824450E+03  0.10100000352E+00 0.  1.
</event>
<event>
 5   0  0.5281116E-04  0.1628105E+04  0.7818609E-02  0.8803466E-01
       -1   -1    0    0    0  501  0.00000000000E+00  0.00000000000E+00  0.60793754420E+03  0.60793754422E+03  0.50400001928E-02 0. -1.
        1   -1    0    0  501    0  0.00000000000E+00  0.00000000000E+00 -0.10900483916E+04  0.10900483916E+04  0.50400001928E-02 0.  1.
    10030    2    1    2    0    0  0.00000000000E+00  0.00000000000E+00 -0.48211084743E+03  0.16979859359E+04  0.16281048397E+04 0.  0.
        2    1    3    3  502    0  0.17642760469E+03  0.73649010624E+03  0.70317357096E+02  0.76058458241E+03  0.25500000920E-02 0. -1.
       -2    1    3    3    0  502 -0.17642760469E+03 -0.73649010624E+03 -0.55242820453E+03  0.93740135345E+03  0.25500000920E-02 0.  1.
</event>
<event>
 5   0  0.5623061E-04  0.1559996E+04  0.7818609E-02  0.8845508E-01
       -1   -1    0    0    0  501  0.00000000000E+00  0.00000000000E+00  0.49269022264E+03  0.49269022267E+03  0.50400001928E-02 0.  1.
        1   -1    0    0  501    0  0.00000000000E+00  0.00000000000E+00 -0.12348470817E+04  0.12348470817E+04  0.50400001928E-02 0. -1.
    10030    2    1    2    0    0  0.00000000000E+00  0.00000000000E+00 -0.74215685905E+03  0.17275373044E+04  0.15599962611E+04 0.  0.
        3    1    3    3  502    0  0.56942646145E+03 -0.46035221497E+03 -0.73465420284E+02  0.73591292624E+03  0.10100000352E+00 0.  1.
       -3    1    3    3    0  502 -0.56942646145E+03  0.46035221497E+03 -0.66869143877E+03  0.99162437814E+03  0.10100000352E+00 0. -1.
</event>
<event>
 5   0  0.5532881E-04  0.1564523E+04  0.7818609E-02  0.8842644E-01
        1   -1    0    0  501    0  0.00000000000E+00  0.00000000000E+00  0.93461483834E+03  0.93461483836E+03  0.50400001928E-02 0. -1.
       -1   -1    0    0    0  501  0.00000000000E+00  0.00000000000E+00 -0.65474351471E+03  0.65474351473E+03  0.50400001928E-02 0.  1.
    10030    2    1    2    0    0  0.00000000000E+00  0.00000000000E+00  0.27987132363E+03  0.15893583531E+04  0.15645229358E+04 0.  0.
        4    1    3    3  502    0  0.73676375093E+03  0.24614320315E+03  0.23372725464E+03  0.81119500960E+03  0.12699999809E+01 0. -1.
       -4    1    3    3    0  502 -0.73676375093E+03 -0.24614320315E+03  0.46144068992E+02  0.77816334348E+03  0.12699999809E+01 0.  1.
</event>
<event>
 5   0  0.5281116E-04  0.1632689E+04  0.7818609E-02  0.8800714E-01
        1   -1    0    0  501    0  0.00000000000E+00  0.00000000000E+00  0.77525522099E+03  0.77525522101E+03  0.50400001928E-02 0. -1.
       -1   -1    0    0    0  501  0.00000000000E+00  0.00000000000E+00 -0.85961150494E+03  0.85961150495E+03  0.50400001928E-02 0.  1.
    10030    2    1    2    0    0  0.00000000000E+00  0.00000000000E+00 -0.84356283951E+02  0.16348667260E+04  0.16326889566E+04 0.  0.
        2    1    3    3  502    0  0.70499792046E+03  0.35735405843E+03  0.16228608178E+03  0.80688336411E+03  0.25500000920E-02 0.  1.
       -2    1    3    3    0  502 -0.70499792046E+03 -0.35735405843E+03 -0.24664236573E+03  0.82798336185E+03  0.25500000920E-02 0. -1.
</event>
<event>
 5   0  0.1057872E-03  0.1595732E+04  0.7818609E-02  0.8823174E-01
       -2   -1    0    0    0  501  0.00000000000E+00  0.00000000000E+00  0.39711957509E+03  0.39711957510E+03  0.25500000920E-02 0. -1.
        2   -1    0    0  501    0  0.00000000000E+00  0.00000000000E+00 -0.16030193847E+04  0.16030193847E+04  0.25500000920E-02 0.  1.
    10030    2    1    2    0    0  0.00000000000E+00  0.00000000000E+00 -0.12058998096E+04  0.20001389598E+04  0.15957322795E+04 0.  0.
        2    1    3    3  502    0  0.52819231051E+02 -0.75428239857E+02  0.39043685783E+03  0.40114863890E+03  0.25500000920E-02 0. -1.
       -2    1    3    3    0  502 -0.52819231051E+02  0.75428239857E+02 -0.15963366674E+04  0.15989903209E+04  0.25500000920E-02 0.  1.
</event>
<event>
 5   0  0.5281116E-04  0.1531578E+04  0.7818609E-02  0.8863721E-01
       -1   -1    0    0    0  501  0.00000000000E+00  0.00000000000E+00  0.14912771530E+04  0.14912771530E+04  0.50400001928E-02 0. -1.
        1   -1    0    0  501    0  0.00000000000E+00  0.00000000000E+00 -0.39324214107E+03  0.39324214110E+03  0.50400001928E-02 0.  1.
    10030    2    1    2    0    0  0.00000000000E+00  0.00000000000E+00  0.10980350119E+04  0.18845192941E+04  0.15315782978E+04 0.  0.
        2    1    3    3  502    0  0.47310370564E+03 -0.18738791442E+03 -0.15512654723E+03  0.53198269937E+03  0.25500000920E-02 0.  1.
       -2    1    3    3    0  502 -0.47310370564E+03  0.18738791442E+03  0.12531615591E+04  0.13525365947E+04  0.25500000920E-02 0. -1.
</event>
<event>
 5   0  0.5425525E-04  0.1557188E+04  0.7818609E-02  0.8847290E-01
        1   -1    0    0  501    0  0.00000000000E+00  0.00000000000E+00  0.81151740195E+03  0.81151740197E+03  0.50400001928E-02 0. -1.
       -1   -1    0    0    0  501  0.00000000000E+00  0.00000000000E+00 -0.74700615029E+03  0.74700615031E+03  0.50400001928E-02 0.  1.
    10030    2    1    2    0    0  0.00000000000E+00  0.00000000000E+00  0.64511251663E+02  0.15585235523E+04  0.15571878375E+04 0.  0.
        5    1    3    3  502    0  0.26004265625E+03  0.36096304474E+03 -0.60725246978E+03  0.75279091040E+03  0.46999998093E+01 0.  1.
       -5    1    3    3    0  502 -0.26004265625E+03 -0.36096304474E+03  0.67176372145E+03  0.80573264187E+03  0.46999998093E+01 0. -1.
</event>
<event>
 5   0  0.3832500E-04  0.1596865E+04  0.7818609E-02  0.8822476E-01
       -3   -1    0    0    0  501  0.00000000000E+00  0.00000000000E+00  0.41297411647E+03  0.41297412882E+03  0.10100000352E+00 0. -1.
        3   -1    0    0  501    0  0.00000000000E+00  0.00000000000E+00 -0.15436663195E+04  0.15436663228E+04  0.10100000352E+00 0.  1.
    10030    2    1    2    0    0  0.00000000000E+00  0.00000000000E+00 -0.11306922031E+04  0.19566404517E+04  0.15968647404E+04 0.  0.
        2    1    3    3  502    0  0.30546170199E+03 -0.27560089684E+03 -0.14037884976E+04  0.14628345264E+04  0.25500000920E-02 0.  1.
       -2    1    3    3    0  502 -0.30546170199E+03  0.27560089684E+03  0.27309629452E+03  0.49380592525E+03  0.25500000920E-02 0. -1.
</event>
<event>
 5   0  0.9844690E-04  0.1668062E+04  0.7818609E-02  0.8779792E-01
        2   -1    0    0  501    0  0.00000000000E+00  0.00000000000E+00  0.10496099420E+04  0.10496099420E+04  0.25500000920E-02 0.  1.
       -2   -1    0    0    0  501  0.00000000000E+00  0.00000000000E+00 -0.66272991110E+03  0.66272991111E+03  0.25500000920E-02 0. -1.
    10030    2    1    2    0    0  0.00000000000E+00  0.00000000000E+00  0.38688003089E+03  0.17123398531E+04  0.16680622333E+04 0.  0.
        3    1    3    3  502    0  0.27573857354E+03 -0.30348782438E+03 -0.55211057939E+03  0.68772285301E+03  0.10100000352E+00 0. -1.
       -3    1    3    3    0  502 -0.27573857354E+03  0.30348782438E+03  0.93899061028E+03  0.10246170001E+04  0.10100000352E+00 0.  1.
</event>
<event>
 5   0  0.9844690E-04  0.1653516E+04  0.7818609E-02  0.8788329E-01
        2   -1    0    0  501    0  0.00000000000E+00  0.00000000000E+00  0.17854338861E+04  0.17854338861E+04  0.25500000920E-02 0.  1.
       -2   -1    0    0    0  501  0.00000000000E+00  0.00000000000E+00 -0.38283626731E+03  0.38283626732E+03  0.25500000920E-02 0. -1.
    10030    2    1    2    0    0  0.00000000000E+00  0.00000000000E+00  0.14025976188E+04  0.21682701534E+04  0.16535160652E+04 0.  0.
        3    1    3    3  502    0  0.31810079964E+03  0.76273689921E+03  0.66990567892E+03  0.10638276764E+04  0.10100000352E+00 0.  1.
       -3    1    3    3    0  502 -0.31810079964E+03 -0.76273689921E+03  0.73269193984E+03  0.11044424770E+04  0.10100000352E+00 0. -1.
</event>
<event>
 5   0  0.1000121E-03  0.1626986E+04  0.7818609E-02  0.8804139E-01
       -2   -1    0    0    0  501  0.00000000000E+00  0.00000000000E+00  0.56490880103E+03  0.56490880104E+03  0.25500000920E-02 0.  1.
        2   -1    0    0  501    0  0.00000000000E+00  0.00000000000E+00 -0.11714645855E+04  0.11714645855E+04  0.25500000920E-02 0. -1.
    10030    2    1    2    0    0  0.00000000000E+00  0.00000000000E+00 -0.60655578449E+03  0.17363733866E+04  0.16269857460E+04 0.  0.
        4    1    3    3  502    0  0.10577400771E+03 -0.47513931587E+03  0.39232864533E+03  0.62519508078E+03  0.12699999809E+01 0.  1.
       -4    1    3    3    0  502 -0.10577400771E+03  0.47513931587E+03 -0.99888442981E+03  0.11111783058E+04  0.12699999809E+01 0. -1.
</event>
<event>
 5   0  0.9844690E-04  0.1424981E+04  0.7818609E-02  0.8935932E-01
       -2   -1    0    0    0  501  0.00000000000E+00  0.00000000000E+00  0.44281739914E+03  0.44281739914E+03  0.25500000920E-02 0. -1.
        2   -1    0    0  501    0  0.00000000000E+00  0.00000000000E+00 -0.11463932695E+04  0.11463932695E+04  0.25500000920E-02 0.  1.
    10030    2    1    2    0    0  0.00000000000E+00  0.00000000000E+00 -0.70357587039E+03  0.15892106687E+04  0.14249812434E+04 0.  0.
        3    1    3    3  502    0  0.15171627739E+03 -0.53944977856E+03  0.13894622649E+03  0.57734734473E+03  0.10100000352E+00 0. -1.
       -3    1    3    3    0  502 -0.15171627739E+03  0.53944977856E+03 -0.84252209688E+03  0.10118633239E+04  0.10100000352E+00 0.  1.
</event>
<event>
 5   0  0.1030027E-03  0.2083042E+04  0.7818609E-02  0.8568751E-01
       -2   -1    0    0    0  501  0.00000000000E+00  0.00000000000E+00  0.10090875264E+04  0.10090875264E+04  0.25500000920E-02 0. -1.
        2   -1    0    0  501    0  0.00000000000E+00  0.00000000000E+00 -0.10749966442E+04  0.10749966442E+04  0.25500000920E-02 0.  1.
    10030    2    1    2    0    0  0.00000000000E+00  0.00000000000E+00 -0.65909117862E+02  0.20840841706E+04  0.20830417226E+04 0.  0.
        1    1    3    3  502    0 -0.57191736145E+03  0.33143901716E+02  0.83729549630E+03  0.10145204457E+04  0.50400001928E-02 0. -1.
       -1    1    3    3    0  502  0.57191736145E+03 -0.33143901716E+02 -0.90320461416E+03  0.10695637249E+04  0.50400001928E-02 0.  1.
</event>
<event>
 5   0  0.9844690E-04  0.1683620E+04  0.7818609E-02  0.8770762E-01
        2   -1    0    0  501    0  0.00000000000E+00  0.00000000000E+00  0.88348959462E+03  0.88348959462E+03  0.25500000920E-02 0. -1.
       -2   -1    0    0    0  501  0.00000000000E+00  0.00000000000E+00 -0.80209658763E+03  0.80209658763E+03  0.25500000920E-02 0.  1.
    10030    2    1    2    0    0  0.00000000000E+00  0.00000000000E+00  0.81393006995E+02  0.16855861823E+04  0.16836198966E+04 0.  0.
        3    1    3    3  502    0  0.51517112578E+02 -0.28036040488E+03  0.83369984999E+03  0.88108536453E+03  0.10100000352E+00 0. -1.
       -3    1    3    3    0  502 -0.51517112578E+02  0.28036040488E+03 -0.75230684299E+03  0.80450081773E+03  0.10100000352E+00 0.  1.
</event>
<event>
 5   0  0.1037321E-03  0.1585103E+04  0.7818609E-02  0.8829753E-01
       -2   -1    0    0    0  501  0.00000000000E+00  0.00000000000E+00  0.11634695054E+04  0.11634695054E+04  0.25500000920E-02 0.  1.
        2   -1    0    0  501    0  0.00000000000E+00  0.00000000000E+00 -0.53988317763E+03  0.53988317764E+03  0.25500000920E-02 0. -1.
    10030    2    1    2    0    0  0.00000000000E+00  0.00000000000E+00  0.62358632775E+03  0.17033526830E+04  0.15851026637E+04 0.  0.
        5    1    3    3  502    0  0.60894047400E+03  0.40251771870E+03 -0.19920140790E+02  0.73023826026E+03  0.46999998093E+01 0. -1.
       -5    1    3    3    0  502 -0.60894047400E+03 -0.40251771870E+03  0.64350646854E+03  0.97311442276E+03  0.46999998093E+01 0.  1.
</event>
<event>
 5   0  0.5623061E-04  0.1605859E+04  0.7818609E-02  0.8816957E-01
        1   -1    0    0  501    0  0.00000000000E+00  0.00000000000E+00  0.96705465786E+03  0.96705465787E+03  0.50400001928E-02 0. -1.
       -1   -1    0    0    0  501  0.00000000000E+00  0.00000000000E+00 -0.66665880653E+03  0.66665880655E+03  0.50400001928E-02 0.  1.
    10030    2    1    2    0    0  0.00000000000E+00  0.00000000000E+00  0.30039585133E+03  0.16337134644E+04  0.16058586539E+04 0.  0.
        3    1    3    3  502    0 -0.53128179436E+03 -0.58540362399E+03  0.29312593612E+03  0.84313733913E+03  0.10100000352E+00 0. -1.
       -3    1    3    3    0  502  0.53128179436E+03  0.58540362399E+03  0.72699152078E+01  0.79057612529E+03  0.10100000352E+00 0.  1.
</event>
<event>
 5   0  0.5288658E-04  0.1619273E+04  0.7818609E-02  0.8808794E-01
       -1   -1    0    0    0  501  0.00000000000E+00  0.00000000000E+00  0.38806261624E+03  0.38806261627E+03  0.50400001928E-02 0. -1.
        1   -1    0    0  501    0  0.00000000000E+00  0.00000000000E+00 -0.16891900625E+04  0.16891900625E+04  0.50400001928E-02 0.  1.
    10030    2    1    2    0    0  0.00000000000E+00  0.00000000000E+00 -0.13011274463E+04  0.20772526788E+04  0.16192733124E+04 0.  0.
        1    1    3    3  502    0  0.10795441850E+03 -0.21416034809E+03  0.34144870257E+03  0.41726014389E+03  0.50400001928E-02 0. -1.
       -1    1    3    3    0  502 -0.10795441850E+03  0.21416034809E+03 -0.16425761489E+04  0.16599925349E+04  0.50400001928E-02 0.  1.
</event>
<event>
 5   0  0.5623061E-04  0.1515334E+04  0.7818609E-02  0.8874320E-01
       -1   -1    0    0    0  501  0.00000000000E+00  0.00000000000E+00  0.81915728798E+03  0.81915728799E+03  0.50400001928E-02 0.  1.
        1   -1    0    0  501    0  0.00000000000E+00  0.00000000000E+00 -0.70079254007E+03  0.70079254009E+03  0.50400001928E-02 0. -1.
    10030    2    1    2    0    0  0.00000000000E+00  0.00000000000E+00  0.11836474791E+03  0.15199498281E+04  0.15153340445E+04 0.  0.
        3    1    3    3  502    0  0.70104696856E+03  0.31599454620E+02  0.34569897766E+03  0.78228714103E+03  0.10100000352E+00 0.  1.
       -3    1    3    3    0  502 -0.70104696856E+03 -0.31599454620E+02 -0.22733422975E+03  0.73766268706E+03  0.10100000352E+00 0. -1.
</event>
<event>
 5   0  0.5288658E-04  0.1591730E+04  0.7818609E-02  0.8825645E-01
        1   -1    0    0  501    0  0.00000000000E+00  0.00000000000E+00  0.65951385014E+03  0.65951385016E+03  0.50400001928E-02 0. -1.
       -1   -1    0    0    0  501  0.00000000000E+00  0.00000000000E+00 -0.96040635186E+03  0.96040635187E+03  0.50400001928E-02 0.  1.
    10030    2    1    2    0    0  0.00000000000E+00  0.00000000000E+00 -0.30089250172E+03  0.16199202020E+04  0.15917302420E+04 0.  0.
        1    1    3    3  502    0 -0.13853051752E+03  0.47370411702E+03  0.48496284134E+03  0.69193587295E+03  0.50400001928E-02 0. -1.
       -1    1    3    3    0  502  0.13853051752E+03 -0.47370411702E+03 -0.78585534306E+03  0.92798432908E+03  0.50400001928E-02 0.  1.
</event>
<event>
 5   0  0.5532881E-04  0.1596751E+04  0.7818609E-02  0.8822546E-01
       -1   -1    0    0    0  501  0.00000000000E+00  0.00000000000E+00  0.62018244948E+03  0.62018244950E+03  0.50400001928E-02 0. -1.
        1   -1    0    0  501    0  0.00000000000E+00  0.00000000000E+00 -0.10277675867E+04  0.10277675868E+04  0.50400001928E-02 0.  1.
    10030    2    1    2    0    0  0.00000000000E+00  0.00000000000E+00 -0.40758513727E+03  0.16479500363E+04  0.15967509755E+04 0.  0.
        4    1    3    3  502    0 -0.94005653598E+02  0.12636943154E+03  0.60398865670E+03  0.62418763722E+03  0.12699999809E+01 0. -1.
       -4    1    3    3    0  502  0.94005653598E+02 -0.12636943154E+03 -0.10115737940E+04  0.10237623990E+04  0.12699999809E+01 0.  1.
</event>
<event>
 5   0  0.1000121E-03  0.1120993E+04  0.7818609E-02  0.9184969E-01
        2   -1    0    0  501    0  0.00000000000E+00  0.00000000000E+00  0.12497049511E+04  0.12497049511E+04  0.25500000920E-02 0. -1.
       -2   -1    0    0    0  501  0.00000000000E+00  0.00000000000E+00 -0.25138441521E+03  0.25138441523E+03  0.25500000920E-02 0.  1.
    10030    2    1    2    0    0  0.00000000000E+00  0.00000000000E+00  0.99832053587E+03  0.15010893663E+04  0.11209930389E+04 0.  0.
        4    1    3    3  502    0  0.29645607069E+03  0.39011753355E+03  0.86361606882E+03  0.99293112503E+03  0.12699999809E+01 0. -1.
       -4    1    3    3    0  502 -0.29645607069E+03 -0.39011753355E+03  0.13470446705E+03  0.50815824128E+03  0.12699999809E+01 0.  1.
</event>
<event>
 5   0  0.1037321E-03  0.1549929E+04  0.7818609E-02  0.8851913E-01
       -2   -1    0    0    0  501  0.00000000000E+00  0.00000000000E+00  0.10083182289E+04  0.10083182289E+04  0.25500000920E-02 0.  1.
        2   -1    0    0  501    0  0.00000000000E+00  0.00000000000E+00 -0.59561540131E+03  0.59561540132E+03  0.25500000920E-02 0. -1.
    10030    2    1    2    0    0  0.00000000000E+00  0.00000000000E+00  0.41270282758E+03  0.16039336302E+04  0.15499288584E+04 0.  0.
        5    1    3    3  502    0 -0.76473168617E+03  0.10810840215E+03  0.27217427135E+03  0.81890347565E+03  0.46999998093E+01 0. -1.
       -5    1    3    3    0  502  0.76473168617E+03 -0.10810840215E+03  0.14052855623E+03  0.78503015456E+03  0.46999998093E+01 0.  1.
</event>
<event>
 5   0  0.5532881E-04  0.1587249E+04  0.7818609E-02  0.8828420E-01
       -1   -1    0    0    0  501  0.00000000000E+00  0.00000000000E+00  0.56627909228E+03  0.56627909230E+03  0.50400001928E-02 0. -1.
        1   -1    0    0  501    0  0.00000000000E+00  0.00000000000E+00 -0.11122433666E+04  0.11122433666E+04  0.50400001928E-02 0.  1.
    10030    2    1    2    0    0  0.00000000000E+00  0.00000000000E+00 -0.54596427436E+03  0.16785224589E+04  0.15872493995E+04 0.  0.
        4    1    3    3  502    0 -0.13254744650E+03 -0.36639953204E+03  0.45816624347E+03  0.60144439660E+03  0.12699999809E+01 0. -1.
       -4    1    3    3    0  502  0.13254744650E+03  0.36639953204E+03 -0.10041305178E+04  0.10770780623E+04  0.12699999809E+01 0.  1.
</event>
<event>
 5   0  0.9844690E-04  0.1596519E+04  0.7818609E-02  0.8822689E-01
       -2   -1    0    0    0  501  0.00000000000E+00  0.00000000000E+00  0.25925300653E+03  0.25925300654E+03  0.25500000920E-02 0. -1.
        2   -1    0    0  501    0  0.00000000000E+00  0.00000000000E+00 -0.24579013804E+04  0.24579013804E+04  0.25500000920E-02 0.  1.
    10030    2    1    2    0    0  0.00000000000E+00  0.00000000000E+00 -0.21986483738E+04  0.27171543869E+04  0.15965191169E+04 0.  0.
        3    1    3    3  502    0  0.61620378540E+03  0.43871335166E+02 -0.23890683751E+03  0.66235057666E+03  0.10100000352E+00 0. -1.
       -3    1    3    3    0  502 -0.61620378540E+03 -0.43871335166E+02 -0.19597415363E+04  0.20548038103E+04  0.10100000352E+00 0.  1.
</event>
<event>
 5   0  0.1030027E-03  0.1530640E+04  0.7818609E-02  0.8864330E-01
       -2   -1    0    0    0  501  0.00000000000E+00  0.00000000000E+00  0.33010017486E+03  0.33010017487E+03  0.25500000920E-02 0. -1.
        2   -1    0    0  501    0  0.00000000000E+00  0.00000000000E+00 -0.17743534292E+04  0.17743534292E+04  0.25500000920E-02 0.  1.
    10030    2    1    2    0    0  0.00000000000E+00  0.00000000000E+00 -0.14442532543E+04  0.21044536040E+04  0.15306395751E+04 0.  0.
        1    1    3    3  502    0  0.21171268413E+03 -0.40476790714E+03  0.12211896727E+03  0.47283439116E+03  0.50400001928E-02 0. -1.
       -1    1    3    3    0  502 -0.21171268413E+03  0.40476790714E+03 -0.15663722216E+04  0.16316192129E+04  0.50400001928E-02 0.  1.
</event>
<event>
 5   0  0.1057872E-03  0.1593848E+04  0.7818609E-02  0.8824336E-01
        2   -1    0    0  501    0  0.00000000000E+00  0.00000000000E+00  0.23370871845E+04  0.23370871845E+04  0.25500000920E-02 0.  1.
       -2   -1    0    0    0  501  0.00000000000E+00  0.00000000000E+00 -0.27174333794E+03  0.27174333796E+03  0.25500000920E-02 0. -1.
    10030    2    1    2    0    0  0.00000000000E+00  0.00000000000E+00  0.20653438466E+04  0.26088305225E+04  0.15938480136E+04 0.  0.
        2    1    3    3  502    0 -0.13717818102E+03 -0.77871766818E+03  0.11952759930E+04  0.14331447099E+04  0.25500000920E-02 0.  1.
       -2    1    3    3    0  502  0.13717818102E+03  0.77871766818E+03  0.87006785364E+03  0.11756858126E+04  0.25500000920E-02 0. -1.
</event>
<event>
 5   0  0.3832500E-04  0.1573502E+04  0.7818609E-02  0.8836994E-01
       -4   -1    0    0    0  501  0.00000000000E+00  0.00000000000E+00  0.14687349669E+04  0.14687355160E+04  0.12699999809E+01 0. -1.
        4   -1    0    0  501    0  0.00000000000E+00  0.00000000000E+00 -0.42143383517E+03  0.42143574875E+03  0.12699999809E+01 0.  1.
    10030    2    1    2    0    0  0.00000000000E+00  0.00000000000E+00  0.10473011318E+04  0.18901712648E+04  0.15735017476E+04 0.  0.
        3    1    3    3  502    0  0.15309353487E+03 -0.48995523330E+03 -0.19256449079E+03  0.54824707420E+03  0.10100000352E+00 0.  1.
       -3    1    3    3    0  502 -0.15309353487E+03  0.48995523330E+03  0.12398656226E+04  0.13419241906E+04  0.10100000352E+00 0. -1.
</event>
<event>
 5   0  0.5532881E-04  0.1600822E+04  0.7818609E-02  0.8820043E-01
       -1   -1    0    0    0  501  0.00000000000E+00  0.00000000000E+00  0.11211812959E+04  0.11211812959E+04  0.50400001928E-02 0.  1.
        1   -1    0    0  501    0  0.00000000000E+00  0.00000000000E+00 -0.57141341704E+03  0.57141341706E+03  0.50400001928E-02 0. -1.
    10030    2    1    2    0    0  0.00000000000E+00  0.00000000000E+00  0.54976787888E+03  0.16925947130E+04  0.16008223330E+04 0.  0.
        4    1    3    3  502    0  0.93595265798E+01  0.63259492746E+03  0.79329025533E+03  0.10146797451E+04  0.12699999809E+01 0.  1.
       -4    1    3    3    0  502 -0.93595265798E+01 -0.63259492746E+03 -0.24352237645E+03  0.67791496791E+03  0.12699999809E+01 0. -1.
</event>
<event>
 5   0  0.1037321E-03  0.1382611E+04  0.7818609E-02  0.8966502E-01
        2   -1    0    0  501    0  0.00000000000E+00  0.00000000000E+00  0.14960753728E+04  0.14960753728E+04  0.25500000920E-02 0. -1.
       -2   -1    0    0    0  501  0.00000000000E+00  0.00000000000E+00 -0.31943813201E+03  0.31943813203E+03  0.25500000920E-02 0.  1.
    10030    2    1    2    0    0  0.00000000000E+00  0.00000000000E+00  0.11766372408E+04  0.18155135048E+04  0.13826113300E+04 0.  0.
        5    1    3    3  502    0  0.30693861139E+03  0.57530387664E+03  0.28688865131E+03  0.71239950160E+03  0.46999998093E+01 0.  1.
       -5    1    3    3    0  502 -0.30693861139E+03 -0.57530387664E+03  0.88974858946E+03  0.11031140032E+04  0.46999998093E+01 0. -1.
</event>
<event>
 5   0  0.3832500E-04  0.1597835E+04  0.7818609E-02  0.8821879E-01
       -4   -1    0    0    0  501  0.00000000000E+00  0.00000000000E+00  0.38408777407E+03  0.38408987371E+03  0.12699999809E+01 0.  1.
        4   -1    0    0  501    0  0.00000000000E+00  0.00000000000E+00 -0.16617731729E+04  0.16617736582E+04  0.12699999809E+01 0. -1.
    10030    2    1    2    0    0  0.00000000000E+00  0.00000000000E+00 -0.12776853988E+04  0.20458635319E+04  0.15978352896E+04 0.  0.
        2    1    3    3  502    0 -0.75257494012E+03 -0.23865161424E+03 -0.79537493765E+03  0.11206894864E+04  0.25500000920E-02 0.  1.
       -2    1    3    3    0  502  0.75257494012E+03  0.23865161424E+03 -0.48231046116E+03  0.92517404548E+03  0.25500000920E-02 0. -1.
</event>
<event>
 5   0  0.5425525E-04  0.1602643E+04  0.7818609E-02  0.8818926E-01
        1   -1    0    0  501    0  0.00000000000E+00  0.00000000000E+00  0.10608946249E+04  0.10608946249E+04  0.50400001928E-02 0.  1.
       -1   -1    0    0    0  501  0.00000000000E+00  0.00000000000E+00 -0.60525905451E+03  0.60525905453E+03  0.50400001928E-02 0. -1.
    10030    2    1    2    0    0  0.00000000000E+00  0.00000000000E+00  0.45563557034E+03  0.16661536794E+04  0.16026429142E+04 0.  0.
        5    1    3    3  502    0 -0.67635131907E+03  0.28252349272E+03 -0.10877695140E+03  0.74102978746E+03  0.46999998093E+01 0. -1.
       -5    1    3    3    0  502  0.67635131907E+03 -0.28252349272E+03  0.56441252174E+03  0.92512389194E+03  0.46999998093E+01 0.  1.
</event>
<event>
 5   0  0.5532881E-04  0.1577908E+04  0.7818609E-02  0.8834236E-01
       -1   -1    0    0    0  501  0.00000000000E+00  0.00000000000E+00  0.31775578899E+03  0.31775578903E+03  0.50400001928E-02 0. -1.
        1   -1    0    0  501    0  0.00000000000E+00  0.00000000000E+00 -0.19588880836E+04  0.19588880836E+04  0.50400001928E-02 0.  1.
    10030    2    1    2    0    0  0.00000000000E+00  0.00000000000E+00 -0.16411322946E+04  0.22766438726E+04  0.15779075114E+04 0.  0.
        4    1    3    3  502    0 -0.70702048055E+03  0.19890823648E+03 -0.40488245446E+03  0.83867387064E+03  0.12699999809E+01 0. -1.
       -4    1    3    3    0  502  0.70702048055E+03 -0.19890823648E+03 -0.12362498402E+04  0.14379700020E+04  0.12699999809E+01 0.  1.
</event>
<event>
 5   0  0.5623061E-04  0.1245957E+04  0.7818609E-02  0.9073555E-01
        1   -1    0    0  501    0  0.00000000000E+00  0.00000000000E+00  0.69228291778E+03  0.69228291780E+03  0.50400001928E-02 0.  1.
       -1   -1    0    0    0  501  0.00000000000E+00  0.00000000000E+00 -0.56061175309E+03  0.56061175311E+03  0.50400001928E-02 0. -1.
    10030    2    1    2    0    0  0.00000000000E+00  0.00000000000E+00  0.13167116469E+03  0.12528946709E+04  0.12459565646E+04 0.  0.
        3    1    3    3  502    0 -0.32522443659E+03 -0.60969858844E+02  0.59661353090E+03  0.68222868108E+03  0.10100000352E+00 0.  1.
       -3    1    3    3    0  502  0.32522443659E+03  0.60969858844E+02 -0.46494236621E+03  0.57066598982E+03  0.10100000352E+00 0. -1.
</event>
<event>
 5   0  0.3832500E-04  0.1604772E+04  0.7818609E-02  0.8817622E-01
        3   -1    0    0  501    0  0.00000000000E+00  0.00000000000E+00  0.11843805964E+04  0.11843806007E+04  0.10100000352E+00 0.  1.
       -3   -1    0    0    0  501  0.00000000000E+00  0.00000000000E+00 -0.54359468302E+03  0.54359469240E+03  0.10100000352E+00 0. -1.
    10030    2    1    2    0    0  0.00000000000E+00  0.00000000000E+00  0.64078591337E+03  0.17279752931E+04  0.16047716432E+04 0.  0.
        5    1    3    3  502    0 -0.50923565251E+03  0.35196193719E+03 -0.22929192671E+03  0.66014773549E+03  0.46999998093E+01 0. -1.
       -5    1    3    3    0  502  0.50923565251E+03 -0.35196193719E+03  0.87007784007E+03  0.10678275576E+04  0.46999998093E+01 0.  1.
</event>
<event>
 5   0  0.5425525E-04  0.1569872E+04  0.7818609E-02  0.8839273E-01
       -1   -1    0    0    0  501  0.00000000000E+00  0.00000000000E+00  0.55891095176E+03  0.55891095179E+03  0.50400001928E-02 0.  1.
        1   -1    0    0  501    0  0.00000000000E+00  0.00000000000E+00 -0.11023666815E+04  0.11023666815E+04  0.50400001928E-02 0. -1.
    10030    2    1    2    0    0  0.00000000000E+00  0.00000000000E+00 -0.54345572975E+03  0.16612776333E+04  0.15698723658E+04 0.  0.
        5    1    3    3  502    0 -0.64663309304E+02 -0.66406555736E+03 -0.70924753229E+03  0.97376514628E+03  0.46999998093E+01 0. -1.
       -5    1    3    3    0  502  0.64663309304E+02  0.66406555736E+03  0.16579180254E+03  0.68751248704E+03  0.46999998093E+01 0.  1.
</event>
<event>
 5   0  0.5288658E-04  0.1470181E+04  0.7818609E-02  0.8904528E-01
        1   -1    0    0  501    0  0.00000000000E+00  0.00000000000E+00  0.65835852255E+03  0.65835852257E+03  0.50400001928E-02 0.  1.
       -1   -1    0    0    0  501  0.00000000000E+00  0.00000000000E+00 -0.82076512886E+03  0.82076512888E+03  0.50400001928E-02 0. -1.
    10030    2    1    2    0    0  0.00000000000E+00  0.00000000000E+00 -0.16240660631E+03  0.14791236514E+04  0.14701805571E+04 0.  0.
        1    1    3    3  502    0 -0.29366506158E+03 -0.59626194444E+03  0.23469753248E+03  0.70487616398E+03  0.50400001928E-02 0. -1.
       -1    1    3    3    0  502  0.29366506158E+03  0.59626194444E+03 -0.39710413880E+03  0.77424748747E+03  0.50400001928E-02 0.  1.
</event>
<event>
 5   0  0.3832500E-04  0.1607847E+04  0.7818609E-02  0.8815742E-01
       -3   -1    0    0    0  501  0.00000000000E+00  0.00000000000E+00  0.71378755898E+03  0.71378756612E+03  0.10100000352E+00 0.  1.
        3   -1    0    0  501    0  0.00000000000E+00  0.00000000000E+00 -0.90544144264E+03  0.90544144827E+03  0.10100000352E+00 0. -1.
    10030    2    1    2    0    0  0.00000000000E+00  0.00000000000E+00 -0.19165388366E+03  0.16192290144E+04  0.16078468179E+04 0.  0.
        4    1    3    3  502    0  0.21574192195E+03 -0.77147056386E+03 -0.16398043707E+03  0.81768123645E+03  0.12699999809E+01 0. -1.
       -4    1    3    3    0  502 -0.21574192195E+03  0.77147056386E+03 -0.27673446589E+02  0.80154777795E+03  0.12699999809E+01 0.  1.
</event>
<event>
 5   0  0.1030027E-03  0.1573490E+04  0.7818609E-02  0.8837002E-01
       -2   -1    0    0    0  501  0.00000000000E+00  0.00000000000E+00  0.57351477419E+03  0.57351477420E+03  0.25500000920E-02 0. -1.
        2   -1    0    0  501    0  0.00000000000E+00  0.00000000000E+00 -0.10792534802E+04  0.10792534802E+04  0.25500000920E-02 0.  1.
    10030    2    1    2    0    0  0.00000000000E+00  0.00000000000E+00 -0.50573870604E+03  0.16527682544E+04  0.15734901538E+04 0.  0.
        1    1    3    3  502    0 -0.17151469964E+03  0.33537079956E+03 -0.97837726042E+03  0.10483858684E+04  0.50400001928E-02 0.  1.
       -1    1    3    3    0  502  0.17151469964E+03 -0.33537079956E+03  0.47263855438E+03  0.60438238600E+03  0.50400001928E-02 0. -1.
</event>
<event>
 5   0  0.5288658E-04  0.1618070E+04  0.7818609E-02  0.8809523E-01
       -1   -1    0    0    0  501  0.00000000000E+00  0.00000000000E+00  0.79553019193E+03  0.79553019194E+03  0.50400001928E-02 0.  1.
        1   -1    0    0  501    0  0.00000000000E+00  0.00000000000E+00 -0.82276856878E+03  0.82276856880E+03  0.50400001928E-02 0. -1.
    10030    2    1    2    0    0  0.00000000000E+00  0.00000000000E+00 -0.27238376858E+02  0.16182987607E+04  0.16180695133E+04 0.  0.
        1    1    3    3  502    0  0.57276402312E+03  0.14483877240E+03 -0.56641835063E+03  0.81845381307E+03  0.50400001928E-02 0. -1.
       -1    1    3    3    0  502 -0.57276402312E+03 -0.14483877240E+03  0.53917997378E+03  0.79984494767E+03  0.50400001928E-02 0.  1.
</event>
<event>
 5   0  0.1000121E-03  0.1623712E+04  0.7818609E-02  0.8806112E-01
        2   -1    0    0  501    0  0.00000000000E+00  0.00000000000E+00  0.23396373817E+04  0.23396373817E+04  0.25500000920E-02 0. -1.
       -2   -1    0    0    0  501  0.00000000000E+00  0.00000000000E+00 -0.28171454886E+03  0.28171454887E+03  0.25500000920E-02 0.  1.
    10030    2    1    2    0    0  0.00000000000E+00  0.00000000000E+00  0.20579228328E+04  0.26213519306E+04  0.16237116610E+04 0.  0.
        4    1    3    3  502    0 -0.37282464491E+03  0.66918049096E+03  0.14630798113E+04  0.16514856622E+04  0.12699999809E+01 0. -1.
       -4    1    3    3    0  502  0.37282464491E+03 -0.66918049096E+03  0.59484302153E+03  0.96986626835E+03  0.12699999809E+01 0.  1.
</event>
<event>
 5   0  0.1037321E-03  0.1613629E+04  0.7818609E-02  0.8812219E-01
       -2   -1    0    0    0  501  0.00000000000E+00  0.00000000000E+00  0.40121031607E+03  0.40121031608E+03  0.25500000920E-02 0. -1.
        2   -1    0    0  501    0  0.00000000000E+00  0.00000000000E+00 -0.16224639757E+04  0.16224639757E+04  0.25500000920E-02 0.  1.
    10030    2    1    2    0    0  0.00000000000E+00  0.00000000000E+00 -0.12212536597E+04  0.20236742918E+04  0.16136285626E+04 0.  0.
        5    1    3    3  502    0 -0.50659343601E+03 -0.57934628271E+03 -0.30691320583E+03  0.82855104285E+03  0.46999998093E+01 0. -1.
       -5    1    3    3    0  502  0.50659343601E+03  0.57934628271E+03 -0.91434045383E+03  0.11951232490E+04  0.46999998093E+01 0.  1.
</event>
<event>
 5   0  0.5281116E-04  0.1681625E+04  0.7818609E-02  0.8771914E-01
        1   -1    0    0  501    0  0.00000000000E+00  0.00000000000E+00  0.14324317473E+04  0.14324317473E+04  0.50400001928E-02 0.  1.
       -1   -1    0    0    0  501  0.00000000000E+00  0.00000000000E+00 -0.49354223171E+03  0.49354223174E+03  0.50400001928E-02 0. -1.
    10030    2    1    2    0    0  0.00000000000E+00  0.00000000000E+00  0.93888951560E+03  0.19259739791E+04  0.16816248825E+04 0.  0.
        2    1    3    3  502    0 -0.78686116217E+03 -0.14887696985E+03  0.76289943737E+03  0.11060426720E+04  0.25500000920E-02 0. -1.
       -2    1    3    3    0  502  0.78686116217E+03  0.14887696985E+03  0.17599007823E+03  0.81993130708E+03  0.25500000920E-02 0.  1.
</event>
<event>
 5   0  0.5288658E-04  0.1592995E+04  0.7818609E-02  0.8824863E-01
       -1   -1    0    0    0  501  0.00000000000E+00  0.00000000000E+00  0.11692103200E+04  0.11692103201E+04  0.50400001928E-02 0. -1.
        1   -1    0    0  501    0  0.00000000000E+00  0.00000000000E+00 -0.54259578951E+03  0.54259578953E+03  0.50400001928E-02 0.  1.
    10030    2    1    2    0    0  0.00000000000E+00  0.00000000000E+00  0.62661453053E+03  0.17118061096E+04  0.15929954133E+04 0.  0.
        1    1    3    3  502    0 -0.71029120598E+03  0.29392413525E+03  0.53743864053E+03  0.93794737962E+03  0.50400001928E-02 0. -1.
       -1    1    3    3    0  502  0.71029120598E+03 -0.29392413525E+03  0.89175890004E+02  0.77385872997E+03  0.50400001928E-02 0.  1.
</event>
<event>
 5   0  0.1057872E-03  0.1504729E+04  0.7818609E-02  0.8881314E-01
        2   -1    0    0  501    0  0.00000000000E+00  0.00000000000E+00  0.14519381756E+04  0.14519381756E+04  0.25500000920E-02 0.  1.
       -2   -1    0    0    0  501  0.00000000000E+00  0.00000000000E+00 -0.38985964390E+03  0.38985964391E+03  0.25500000920E-02 0. -1.
    10030    2    1    2    0    0  0.00000000000E+00  0.00000000000E+00  0.10620785317E+04  0.18417978195E+04  0.15047286800E+04 0.  0.
        2    1    3    3  502    0  0.17728981003E+03  0.35351591395E+03  0.13144483511E+04  0.13726542339E+04  0.25500000920E-02 0. -1.
       -2    1    3    3    0  502 -0.17728981003E+03 -0.35351591395E+03 -0.25236981940E+03  0.46914358560E+03  0.25500000920E-02 0.  1.
</event>
<event>
 5   0  0.5623061E-04  0.1594492E+04  0.7818609E-02  0.8823939E-01
        1   -1    0    0  501    0  0.00000000000E+00  0.00000000000E+00  0.10235218752E+04  0.10235218752E+04  0.50400001928E-02 0. -1.
       -1   -1    0    0    0  501  0.00000000000E+00  0.00000000000E+00 -0.62099408249E+03  0.62099408251E+03  0.50400001928E-02 0.  1.
    10030    2    1    2    0    0  0.00000000000E+00  0.00000000000E+00  0.40252779270E+03  0.16445159577E+04  0.15944918035E+04 0.  0.
        3    1    3    3  502    0 -0.17425255052E+03 -0.45960644000E+03  0.84864997087E+03  0.98071851941E+03  0.10100000352E+00 0. -1.
       -3    1    3    3    0  502  0.17425255052E+03  0.45960644000E+03 -0.44612217817E+03  0.66379743831E+03  0.10100000352E+00 0.  1.
</event>
<event>
 5   0  0.5623061E-04  0.1582916E+04  0.7818609E-02  0.8831113E-01
       -1   -1    0    0    0  501  0.00000000000E+00  0.00000000000E+00  0.33633606448E+03  0.33633606452E+03  0.50400001928E-02 0. -1.
        1   -1    0    0  501    0  0.00000000000E+00  0.00000000000E+00 -0.18624399878E+04  0.18624399878E+04  0.50400001928E-02 0.  1.
    10030    2    1    2    0    0  0.00000000000E+00  0.00000000000E+00 -0.15261039233E+04  0.21987760523E+04  0.15829159622E+04 0.  0.
        3    1    3    3  502    0  0.13285314685E+03  0.23013717222E+03 -0.17986221483E+04  0.18181459565E+04  0.10100000352E+00 0.  1.
       -3    1    3    3    0  502 -0.13285314685E+03 -0.23013717222E+03  0.27251822499E+03  0.38063009579E+03  0.10100000352E+00 0. -1.
</event>
<event>
 5   0  0.1057872E-03  0.1554015E+04  0.7818609E-02  0.8849307E-01
        2   -1    0    0  501    0  0.00000000000E+00  0.00000000000E+00  0.20961965619E+04  0.20961965619E+04  0.25500000920E-02 0.  1.
       -2   -1    0    0    0  501  0.00000000000E+00  0.00000000000E+00 -0.28801712604E+03  0.28801712605E+03  0.25500000920E-02 0. -1.
    10030    2    1    2    0    0  0.00000000000E+00  0.00000000000E+00  0.18081794359E+04  0.23842136880E+04  0.15540148125E+04 0.  0.
        2    1    3    3  502    0  0.61469882687E+03  0.25105046466E+03  0.28493867917E+03  0.72254483214E+03  0.25500000920E-02 0.  1.
       -2    1    3    3    0  502 -0.61469882687E+03 -0.25105046466E+03  0.15232407567E+04  0.16616688558E+04  0.25500000920E-02 0. -1.
</event>
<event>
 5   0  0.5425525E-04  0.1575474E+04  0.7818609E-02  0.8835759E-01
       -1   -1    0    0    0  501  0.00000000000E+00  0.00000000000E+00  0.38214233457E+03  0.38214233460E+03  0.50400001928E-02 0. -1.
        1   -1    0    0  501    0  0.00000000000E+00  0.00000000000E+00 -0.16238177202E+04  0.16238177203E+04  0.50400001928E-02 0.  1.
    10030    2    1    2    0    0  0.00000000000E+00  0.00000000000E+00 -0.12416753857E+04  0.20059600549E+04  0.15754738901E+04 0.  0.
        5    1    3    3  502    0  0.48664197580E+03  0.14806734272E+03  0.14497608602E+03  0.52894660043E+03  0.46999998093E+01 0. -1.
       -5    1    3    3    0  502 -0.48664197580E+03 -0.14806734272E+03 -0.13866514717E+04  0.14770134544E+04  0.46999998093E+01 0.  1.
</event>
<event>
 5   0  0.9844690E-04  0.1521748E+04  0.7818609E-02  0.8870118E-01
        2   -1    0    0  501    0  0.00000000000E+00  0.00000000000E+00  0.18823844512E+04  0.18823844512E+04  0.25500000920E-02 0. -1.
       -2   -1    0    0    0  501  0.00000000000E+00  0.00000000000E+00 -0.30755092454E+03  0.30755092455E+03  0.25500000920E-02 0.  1.
    10030    2    1    2    0    0  0.00000000000E+00  0.00000000000E+00  0.15748335267E+04  0.21899353757E+04  0.15217477824E+04 0.  0.
        3    1    3    3  502    0  0.46595330666E+03  0.33104483975E+03  0.64674485311E+02  0.57522688494E+03  0.10100000352E+00 0.  1.
       -3    1    3    3    0  502 -0.46595330666E+03 -0.33104483975E+03  0.15101590413E+04  0.16147084908E+04  0.10100000352E+00 0. -1.
</event>
<event>
 5   0  0.9844690E-04  0.1607451E+04  0.7818609E-02  0.8815983E-01
        2   -1    0    0  501    0  0.00000000000E+00  0.00000000000E+00  0.17481690273E+04  0.17481690273E+04  0.25500000920E-02 0.  1.
       -2   -1    0    0    0  501  0.00000000000E+00  0.00000000000E+00 -0.36951509316E+03  0.36951509317E+03  0.25500000920E-02 0. -1.
    10030    2    1    2    0    0  0.00000000000E+00  0.00000000000E+00  0.13786539342E+04  0.21176841205E+04  0.16074512011E+04 0.  0.
        3    1    3    3  502    0 -0.33411308708E+03  0.72055665553E+03  0.52721833502E+03  0.95330615846E+03  0.10100000352E+00 0. -1.
       -3    1    3    3    0  502  0.33411308708E+03 -0.72055665553E+03  0.85143559915E+03  0.11643779620E+04  0.10100000352E+00 0.  1.
</event>
<event>
 5   0  0.1057872E-03  0.1601761E+04  0.7818609E-02  0.8819467E-01
       -2   -1    0    0    0  501  0.00000000000E+00  0.00000000000E+00  0.82267527721E+03  0.82267527721E+03  0.25500000920E-02 0. -1.
        2   -1    0    0  501    0  0.00000000000E+00  0.00000000000E+00 -0.77966358258E+03  0.77966358258E+03  0.25500000920E-02 0.  1.
    10030    2    1    2    0    0  0.00000000000E+00  0.00000000000E+00  0.43011694631E+02  0.16023388598E+04  0.16017614728E+04 0.  0.
        2    1    3    3  502    0 -0.77789016128E+03 -0.59262680992E+01  0.21199962020E+03  0.80628286763E+03  0.25500000920E-02 0. -1.
       -2    1    3    3    0  502  0.77789016128E+03  0.59262680992E+01 -0.16898792556E+03  0.79605599217E+03  0.25500000920E-02 0.  1.
</event>
<event>
 5   0  0.5532881E-04  0.1561196E+04  0.7818609E-02  0.8844748E-01
        1   -1    0    0  501    0  0.00000000000E+00  0.00000000000E+00  0.10720343149E+04  0.10720343150E+04  0.50400001928E-02 0. -1.
       -1   -1    0    0    0  501  0.00000000000E+00  0.00000000000E+00 -0.56838967515E+03  0.56838967517E+03  0.50400001928E-02 0.  1.
    10030    2    1    2    0    0  0.00000000000E+00  0.00000000000E+00  0.50364463980E+03  0.16404239901E+04  0.15611959980E+04 0.  0.
        4    1    3    3  502    0 -0.71393738688E+03 -0.26377436699E+03  0.43396314195E+03  0.87613305527E+03  0.12699999809E+01 0. -1.
       -4    1    3    3    0  502  0.71393738688E+03  0.26377436699E+03  0.69681497847E+02  0.76429093486E+03  0.12699999809E+01 0.  1.
</event>
<event>
 5   0  0.1030027E-03  0.1601608E+04  0.7818609E-02  0.8819561E-01
       -2   -1    0    0    0  501  0.00000000000E+00  0.00000000000E+00  0.61740514702E+03  0.61740514703E+03  0.25500000920E-02 0.  1.
        2   -1    0    0  501    0  0.00000000000E+00  0.00000000000E+00 -0.10386810356E+04  0.10386810356E+04  0.25500000920E-02 0. -1.
    10030    2    1    2    0    0  0.00000000000E+00  0.00000000000E+00 -0.42127588862E+03  0.16560861827E+04  0.16016079639E+04 0.  0.
        1    1    3    3  502    0 -0.30526605107E+03 -0.14746213999E+03  0.53954280305E+03  0.63721180232E+03  0.50400001928E-02 0.  1.
       -1    1    3    3    0  502  0.30526605107E+03  0.14746213999E+03 -0.96081869167E+03  0.10188743804E+04  0.50400001928E-02 0. -1.
</event>
<event>
 5   0  0.1057872E-03  0.1603160E+04  0.7818609E-02  0.8818609E-01
       -2   -1    0    0    0  501  0.00000000000E+00  0.00000000000E+00  0.52496970231E+03  0.52496970231E+03  0.25500000920E-02 0. -1.
        2   -1    0    0  501    0  0.00000000000E+00  0.00000000000E+00 -0.12239384535E+04  0.12239384535E+04  0.25500000920E-02 0.  1.
    10030    2    1    2    0    0  0.00000000000E+00  0.00000000000E+00 -0.69896875122E+03  0.17489081558E+04  0.16031601362E+04 0.  0.
        2    1    3    3  502    0 -0.58925480866E+02  0.69073307104E+03  0.89526725989E+02  0.69899887152E+03  0.25500000920E-02 0. -1.
       -2    1    3    3    0  502  0.58925480866E+02 -0.69073307104E+03 -0.78849547721E+03  0.10499092843E+04  0.25500000920E-02 0.  1.
</event>
<event>
 5   0  0.1030027E-03  0.1608067E+04  0.7818609E-02  0.8815608E-01
        2   -1    0    0  501    0  0.00000000000E+00  0.00000000000E+00  0.11393727035E+04  0.11393727035E+04  0.25500000920E-02 0. -1.
       -2   -1    0    0    0  501  0.00000000000E+00  0.00000000000E+00 -0.56739092796E+03  0.56739092797E+03  0.25500000920E-02 0.  1.
    10030    2    1    2    0    0  0.00000000000E+00  0.00000000000E+00  0.57198177552E+03  0.17067636315E+04  0.16080668338E+04 0.  0.
        1    1    3    3  502    0  0.38415761650E+03  0.43670070019E+03  0.87520772189E+03  0.10508440095E+04  0.50400001928E-02 0. -1.
       -1    1    3    3    0  502 -0.38415761650E+03 -0.43670070019E+03 -0.30322594637E+03  0.65591962193E+03  0.50400001928E-02 0.  1.
</event>
<event>
 5   0  0.9844690E-04  0.1585496E+04  0.7818609E-02  0.8829508E-01
        2   -1    0    0  501    0  0.00000000000E+00  0.00000000000E+00  0.89907990547E+03  0.89907990548E+03  0.25500000920E-02 0.  1.
       -2   -1    0    0    0  501  0.00000000000E+00  0.00000000000E+00 -0.69899143273E+03  0.69899143273E+03  0.25500000920E-02 0. -1.
    10030    2    1    2    0    0  0.00000000000E+00  0.00000000000E+00  0.20008847274E+03  0.15980713382E+04  0.15854956970E+04 0.  0.
        3    1    3    3  502    0 -0.12578477929E+03 -0.68415661480E+03 -0.28317803743E+03  0.75105385649E+03  0.10100000352E+00 0. -1.
       -3    1    3    3    0  502  0.12578477929E+03  0.68415661480E+03  0.48326651018E+03  0.84701748171E+03  0.10100000352E+00 0.  1.
</event>
<event>
 5   0  0.5281116E-04  0.1629183E+04  0.7818609E-02  0.8802818E-01
       -1   -1    0    0    0  501  0.00000000000E+00  0.00000000000E+00  0.80543143456E+03  0.80543143458E+03  0.50400001928E-02 0. -1.
        1   -1    0    0  501    0  0.00000000000E+00  0.00000000000E+00 -0.82385579497E+03  0.82385579498E+03  0.50400001928E-02 0.  1.
    10030    2    1    2    0    0  0.00000000000E+00  0.00000000000E+00 -0.18424360409E+02  0.16292872296E+04  0.16291830527E+04 0.  0.
        2    1    3    3  502    0  0.29119788558E+03  0.35539812217E+03  0.66347882365E+03  0.80703666784E+03  0.25500000920E-02 0. -1.
       -2    1    3    3    0  502 -0.29119788558E+03 -0.35539812217E+03 -0.68190318406E+03  0.82225056172E+03  0.25500000920E-02 0.  1.
</event>
<event>
 5   0  0.1030027E-03  0.1589868E+04  0.7818609E-02  0.8826797E-01
       -2   -1    0    0    0  501  0.00000000000E+00  0.00000000000E+00  0.32515966932E+03  0.32515966933E+03  0.25500000920E-02 0. -1.
        2   -1    0    0  501    0  0.00000000000E+00  0.00000000000E+00 -0.19434146260E+04  0.19434146260E+04  0.25500000920E-02 0.  1.
    10030    2    1    2    0    0  0.00000000000E+00  0.00000000000E+00 -0.16182549567E+04  0.22685742953E+04  0.15898679909E+04 0.  0.
        1    1    3    3  502    0 -0.77978186277E+03  0.63945566732E+02 -0.60849131985E+03  0.99116621985E+03  0.50400001928E-02 0. -1.
       -1    1    3    3    0  502  0.77978186277E+03 -0.63945566732E+02 -0.10097636368E+04  0.12774080755E+04  0.50400001928E-02 0.  1.
</event>
<event>
 5   0  0.1000121E-03  0.1687985E+04  0.7818609E-02  0.8768247E-01
        2   -1    0    0  501    0  0.00000000000E+00  0.00000000000E+00  0.15881138096E+04  0.15881138096E+04  0.25500000920E-02 0. -1.
       -2   -1    0    0    0  501  0.00000000000E+00  0.00000000000E+00 -0.44853427296E+03  0.44853427297E+03  0.25500000920E-02 0.  1.
    10030    2    1    2    0    0  0.00000000000E+00  0.00000000000E+00  0.11395795366E+04  0.20366480825E+04  0.16879851575E+04 0.  0.
        4    1    3    3  502    0 -0.12179158880E+03  0.66846043956E+03 -0.34270992877E+02  0.68032982017E+03  0.12699999809E+01 0.  1.
       -4    1    3    3    0  502  0.12179158880E+03 -0.66846043956E+03  0.11738505295E+04  0.13563182624E+04  0.12699999809E+01 0. -1.
</event>
<event>
 5   0  0.5288658E-04  0.1599031E+04  0.7818609E-02  0.8821144E-01
       -1   -1    0    0    0  501  0.00000000000E+00  0.00000000000E+00  0.54423271406E+03  0.54423271408E+03  0.50400001928E-02 0. -1.
        1   -1    0    0  501    0  0.00000000000E+00  0.00000000000E+00 -0.11745430008E+04  0.11745430008E+04  0.50400001928E-02 0.  1.
    10030    2    1    2    0    0  0.00000000000E+00  0.00000000000E+00 -0.63031028674E+03  0.17187757149E+04  0.15990306128E+04 0.  0.
        1    1    3    3  502    0  0.62495407313E+03 -0.49648112541E+03 -0.26515706716E+03  0.84105253802E+03  0.50400001928E-02 0.  1.
       -1    1    3    3    0  502 -0.62495407313E+03  0.49648112541E+03 -0.36515321958E+03  0.87772317687E+03  0.50400001928E-02 0. -1.
</event>
<event>
 5   0  0.5281116E-04  0.1600986E+04  0.7818609E-02  0.8819942E-01
        1   -1    0    0  501    0  0.00000000000E+00  0.00000000000E+00  0.49770816457E+03  0.49770816460E+03  0.50400001928E-02 0.  1.
       -1   -1    0    0    0  501  0.00000000000E+00  0.00000000000E+00 -0.12874796942E+04  0.12874796942E+04  0.50400001928E-02 0. -1.
    10030    2    1    2    0    0  0.00000000000E+00  0.00000000000E+00 -0.78977152960E+03  0.17851878588E+04  0.16009861405E+04 0.  0.
        2    1    3    3  502    0  0.10217852989E+03  0.57983740992E+03 -0.99962951583E+03  0.11601340624E+04  0.25500000920E-02 0. -1.
       -2    1    3    3    0  502 -0.10217852989E+03 -0.57983740992E+03  0.20985798623E+03  0.62505379633E+03  0.25500000920E-02 0.  1.
</event>
<event>
 5   0  0.5425525E-04  0.1753870E+04  0.7818609E-02  0.8731223E-01
        1   -1    0    0  501    0  0.00000000000E+00  0.00000000000E+00  0.11958069986E+04  0.11958069986E+04  0.50400001928E-02 0.  1.
       -1   -1    0    0    0  501  0.00000000000E+00  0.00000000000E+00 -0.64309295304E+03  0.64309295306E+03  0.50400001928E-02 0. -1.
    10030    2    1    2    0    0  0.00000000000E+00  0.00000000000E+00  0.55271404555E+03  0.18388999517E+04  0.17538700682E+04 0.  0.
        5    1    3    3  502    0  0.32330228263E+03 -0.34061560292E+03  0.10528348355E+04  0.11528341753E+04  0.46999998093E+01 0.  1.
       -5    1    3    3    0  502 -0.32330228263E+03  0.34061560292E+03 -0.50012078997E+03  0.68606577634E+03  0.46999998093E+01 0. -1.
</event>
<event>
 5   0  0.3832500E-04  0.1630340E+04  0.7818609E-02  0.8802123E-01
        3   -1    0    0  501    0  0.00000000000E+00  0.00000000000E+00  0.15338236739E+04  0.15338236772E+04  0.10100000352E+00 0.  1.
       -3   -1    0    0    0  501  0.00000000000E+00  0.00000000000E+00 -0.43323242782E+03  0.43323243959E+03  0.10100000352E+00 0. -1.
    10030    2    1    2    0    0  0.00000000000E+00  0.00000000000E+00  0.11005912461E+04  0.19670561168E+04  0.16303400491E+04 0.  0.
        2    1    3    3  502    0  0.36005251704E+03  0.54853602364E+03 -0.33312111659E+02  0.65699260349E+03  0.25500000920E-02 0. -1.
       -2    1    3    3    0  502 -0.36005251704E+03 -0.54853602364E+03  0.11339033578E+04  0.13100635133E+04  0.25500000920E-02 0.  1.
</event>
<event>
 5   0  0.5623061E-04  0.1617778E+04  0.7818609E-02  0.8809700E-01
        1   -1    0    0  501    0  0.00000000000E+00  0.00000000000E+00  0.16686008708E+04  0.16686008708E+04  0.50400001928E-02 0.  1.
       -1   -1    0    0    0  501  0.00000000000E+00  0.00000000000E+00 -0.39212574954E+03  0.39212574958E+03  0.50400001928E-02 0. -1.
    10030    2    1    2    0    0  0.00000000000E+00  0.00000000000E+00  0.12764751212E+04  0.20607266203E+04  0.16177779417E+04 0.  0.
        3    1    3    3  502    0  0.89240908812E+02 -0.26808582487E+03  0.16036973018E+04  0.16283976773E+04  0.10100000352E+00 0.  1.
       -3    1    3    3    0  502 -0.89240908812E+02  0.26808582487E+03 -0.32722218062E+03  0.43232894304E+03  0.10100000352E+00 0. -1.
</event>
<event>
 5   0  0.1000121E-03  0.1015354E+04  0.7818609E-02  0.9291863E-01
       -2   -1    0    0    0  501  0.00000000000E+00  0.00000000000E+00  0.74131780989E+03  0.74131780990E+03  0.25500000920E-02 0.  1.
        2   -1    0    0  501    0  0.00000000000E+00  0.00000000000E+00 -0.34767274012E+03  0.34767274013E+03  0.25500000920E-02 0. -1.
    10030    2    1    2    0    0  0.00000000000E+00  0.00000000000E+00  0.39364506977E+03  0.10889905500E+04  0.10153541141E+04 0.  0.
        4    1    3    3  502    0  0.15279840998E+03 -0.13772069289E+02 -0.32221357516E+03  0.35687564347E+03  0.12699999809E+01 0. -1.
       -4    1    3    3    0  502 -0.15279840998E+03  0.13772069289E+02  0.71585864493E+03  0.73211490656E+03  0.12699999809E+01 0.  1.
</event>
<event>
 5   0  0.5288658E-04  0.1592917E+04  0.7818609E-02  0.8824911E-01
       -1   -1    0    0    0  501  0.00000000000E+00  0.00000000000E+00  0.54396569422E+03  0.54396569424E+03  0.50400001928E-02 0. -1.
        1   -1    0    0  501    0  0.00000000000E+00  0.00000000000E+00 -0.11661508951E+04  0.11661508952E+04  0.50400001928E-02 0.  1.
    10030    2    1    2    0    0  0.00000000000E+00  0.00000000000E+00 -0.62218520093E+03  0.17101165894E+04  0.15929169235E+04 0.  0.
        1    1    3    3  502    0  0.46260717528E+03 -0.37064353052E+02 -0.10059928359E+04  0.11078811989E+04  0.50400001928E-02 0.  1.
       -1    1    3    3    0  502 -0.46260717528E+03  0.37064353052E+02  0.38380763499E+03  0.60223539052E+03  0.50400001928E-02 0. -1.
</event>
<event>
 5   0  0.1037321E-03  0.1589301E+04  0.7818609E-02  0.8827148E-01
       -2   -1    0    0    0  501  0.00000000000E+00  0.00000000000E+00  0.36036117019E+03  0.36036117020E+03  0.25500000920E-02 0. -1.
        2   -1    0    0  501    0  0.00000000000E+00  0.00000000000E+00 -0.17523237633E+04  0.17523237633E+04  0.25500000920E-02 0.  1.
    10030    2    1    2    0    0  0.00000000000E+00  0.00000000000E+00 -0.13919625931E+04  0.21126849335E+04  0.15893010311E+04 0.  0.
        5    1    3    3  502    0 -0.41527499148E+03  0.57463549209E+03 -0.21892853734E+03  0.74203171211E+03  0.46999998093E+01 0.  1.
       -5    1    3    3    0  502  0.41527499148E+03 -0.57463549209E+03 -0.11730340557E+04  0.13706532214E+04  0.46999998093E+01 0. -1.
</event>
<event>
 5   0  0.1037321E-03  0.1591933E+04  0.7818609E-02  0.8825520E-01
       -2   -1    0    0    0  501  0.00000000000E+00  0.00000000000E+00  0.70657184197E+03  0.70657184198E+03  0.25500000920E-02 0. -1.
        2   -1    0    0  501    0  0.00000000000E+00  0.00000000000E+00 -0.89667075886E+03  0.89667075886E+03  0.25500000920E-02 0.  1.
    10030    2    1    2    0    0  0.00000000000E+00  0.00000000000E+00 -0.19009891689E+03  0.16032426008E+04  0.15919325485E+04 0.  0.
        5    1    3    3  502    0  0.41874739562E+03 -0.44971163504E+03 -0.60455907991E+03  0.86203463221E+03  0.46999998093E+01 0.  1.
       -5    1    3    3    0  502 -0.41874739562E+03  0.44971163504E+03  0.41446016303E+03  0.74120796863E+03  0.46999998093E+01 0. -1.
</event>
<event>
 5   0  0.1037321E-03  0.1578069E+04  0.7818609E-02  0.8834135E-01
       -2   -1    0    0    0  501  0.00000000000E+00  0.00000000000E+00  0.60646966553E+03  0.60646966554E+03  0.25500000920E-02 0.  1.
        2   -1    0    0  501    0  0.00000000000E+00  0.00000000000E+00 -0.10265568177E+04  0.10265568177E+04  0.25500000920E-02 0. -1.
    10030    2    1    2    0    0  0.00000000000E+00  0.00000000000E+00 -0.42008715213E+03  0.16330264832E+04  0.15780691618E+04 0.  0.
        5    1    3    3  502    0  0.71953504380E+03  0.70703682209E+02 -0.53699574444E+03  0.90061990289E+03  0.46999998093E+01 0. -1.
       -5    1    3    3    0  502 -0.71953504380E+03 -0.70703682209E+02  0.11690859231E+03  0.73240658032E+03  0.46999998093E+01 0.  1.
</event>
<event>
 5   0  0.1057872E-03  0.1568598E+04  0.7818609E-02  0.8840075E-01
        2   -1    0    0  501    0  0.00000000000E+00  0.00000000000E+00  0.73894638066E+03  0.73894638066E+03  0.25500000920E-02 0. -1.
       -2   -1    0    0    0  501  0.00000000000E+00  0.00000000000E+00 -0.83243560474E+03  0.83243560474E+03  0.25500000920E-02 0.  1.
    10030    2    1    2    0    0  0.00000000000E+00  0.00000000000E+00 -0.93489224083E+02  0.15713819854E+04  0.15685984537E+04 0.  0.
        2    1    3    3  502    0  0.39036576367E+03  0.67807032099E+03 -0.10125152801E+03  0.78893387656E+03  0.25500000920E-02 0.  1.
       -2    1    3    3    0  502 -0.39036576367E+03 -0.67807032099E+03  0.77623039247E+01  0.78244810884E+03  0.25500000920E-02 0. -1.
</event>
<event>
 5   0  0.5532881E-04  0.1619706E+04  0.7818609E-02  0.8808532E-01
       -1   -1    0    0    0  501  0.00000000000E+00  0.00000000000E+00  0.61778890184E+03  0.61778890186E+03  0.50400001928E-02 0. -1.
        1   -1    0    0  501    0  0.00000000000E+00  0.00000000000E+00 -0.10616281758E+04  0.10616281758E+04  0.50400001928E-02 0.  1.
    10030    2    1    2    0    0  0.00000000000E+00  0.00000000000E+00 -0.44383927395E+03  0.16794170777E+04  0.16197062757E+04 0.  0.
        4    1    3    3  502    0 -0.37614930134E+03 -0.56099814816E+03 -0.68521773485E+03  0.96214976806E+03  0.12699999809E+01 0.  1.
       -4    1    3    3    0  502  0.37614930134E+03  0.56099814816E+03  0.24137846090E+03  0.71726730960E+03  0.12699999809E+01 0. -1.
</event>
<event>
 5   0  0.1030027E-03  0.1599636E+04  0.7818609E-02  0.8820771E-01
       -2   -1    0    0    0  501  0.00000000000E+00  0.00000000000E+00  0.61757467450E+03  0.61757467451E+03  0.25500000920E-02 0. -1.
        2   -1    0    0  501    0  0.00000000000E+00  0.00000000000E+00 -0.10358410163E+04  0.10358410163E+04  0.25500000920E-02 0.  1.
    10030    2    1    2    0    0  0.00000000000E+00  0.00000000000E+00 -0.41826634182E+03  0.16534156908E+04  0.15996364318E+04 0.  0.
        1    1    3    3  502    0  0.33638585795E+03  0.15563047618E+03  0.52344938705E+03  0.64138564949E+03  0.50400001928E-02 0. -1.
       -1    1    3    3    0  502 -0.33638585795E+03 -0.15563047618E+03 -0.94171572887E+03  0.10120300413E+04  0.50400001928E-02 0.  1.
</event>
<event>
 5   0  0.1037321E-03  0.1595337E+04  0.7818609E-02  0.8823418E-01
       -2   -1    0    0    0  501  0.00000000000E+00  0.00000000000E+00  0.65690599270E+03  0.65690599270E+03  0.25500000920E-02 0.  1.
        2   -1    0    0  501    0  0.00000000000E+00  0.00000000000E+00 -0.96859322646E+03  0.96859322646E+03  0.25500000920E-02 0. -1.
    10030    2    1    2    0    0  0.00000000000E+00  0.00000000000E+00 -0.31168723376E+03  0.16254992192E+04  0.15953365726E+04 0.  0.
        5    1    3    3  502    0 -0.55216664360E+03 -0.38293701850E+03  0.28207753340E+03  0.72877883290E+03  0.46999998093E+01 0.  1.
       -5    1    3    3    0  502  0.55216664360E+03  0.38293701850E+03 -0.59376476716E+03  0.89672038627E+03  0.46999998093E+01 0. -1.
</event>
<event>
 5   0  0.1000121E-03  0.1541076E+04  0.7818609E-02  0.8857588E-01
        2   -1    0    0  501    0  0.00000000000E+00  0.00000000000E+00  0.20004281171E+04  0.20004281171E+04  0.25500000920E-02 0. -1.
       -2   -1    0    0    0  501  0.00000000000E+00  0.00000000000E+00 -0.29680072639E+03  0.29680072640E+03  0.25500000920E-02 0.  1.
    10030    2    1    2    0    0  0.00000000000E+00  0.00000000000E+00  0.17036273907E+04  0.22972288435E+04  0.15410756221E+04 0.  0.
        4    1    3    3  502    0  0.41969926534E+03  0.25022065432E+03  0.17399416866E+04  0.18072510990E+04  0.12699999809E+01 0. -1.
       -4    1    3    3    0  502 -0.41969926534E+03 -0.25022065432E+03 -0.36314295841E+02  0.48997774455E+03  0.12699999809E+01 0.  1.
</event>
<event>
 5   0  0.9844690E-04  0.1583563E+04  0.7818609E-02  0.8830710E-01
        2   -1    0    0  501    0  0.00000000000E+00  0.00000000000E+00  0.12092040166E+04  0.12092040166E+04  0.25500000920E-02 0.  1.
       -2   -1    0    0    0  501  0.00000000000E+00  0.00000000000E+00 -0.51845483312E+03  0.51845483313E+03  0.25500000920E-02 0. -1.
    10030    2    1    2    0    0  0.00000000000E+00  0.00000000000E+00  0.69074918347E+03  0.17276588497E+04  0.15835626500E+04 0.  0.
        3    1    3    3  502    0  0.75911636904E+03  0.23486147975E+01  0.99829269862E+02  0.76565597435E+03  0.10100000352E+00 0. -1.
       -3    1    3    3    0  502 -0.75911636904E+03 -0.23486147975E+01  0.59091991361E+03  0.96200287538E+03  0.10100000352E+00 0.  1.
</event>
<event>
 5   0  0.1037321E-03  0.1581014E+04  0.7818609E-02  0.8832297E-01
        2   -1    0    0  501    0  0.00000000000E+00  0.00000000000E+00  0.10819541889E+04  0.10819541889E+04  0.25500000920E-02 0.  1.
       -2   -1    0    0    0  501  0.00000000000E+00  0.00000000000E+00 -0.57756733211E+03  0.57756733212E+03  0.25500000920E-02 0. -1.
    10030    2    1    2    0    0  0.00000000000E+00  0.00000000000E+00  0.50438685677E+03  0.16595215210E+04  0.15810140978E+04 0.  0.
        5    1    3    3  502    0  0.10838189579E+03 -0.75138078417E+03  0.48349822286E+03  0.90006240875E+03  0.46999998093E+01 0.  1.
       -5    1    3    3    0  502 -0.10838189579E+03  0.75138078417E+03  0.20888633910E+02  0.75945911225E+03  0.46999998093E+01 0. -1.
</event>
<event>
 5   0  0.5532881E-04  0.1592955E+04  0.7818609E-02  0.8824888E-01
       -1   -1    0    0    0  501  0.00000000000E+00  0.00000000000E+00  0.14741534349E+04  0.14741534349E+04  0.50400001928E-02 0.  1.
        1   -1    0    0  501    0  0.00000000000E+00  0.00000000000E+00 -0.43033245512E+03  0.43033245515E+03  0.50400001928E-02 0. -1.
    10030    2    1    2    0    0  0.00000000000E+00  0.00000000000E+00  0.10438209798E+04  0.19044858901E+04  0.15929545717E+04 0.  0.
        4    1    3    3  502    0 -0.65396137838E+03  0.23280052137E+03  0.98881453832E+03  0.12081462541E+04  0.12699999809E+01 0.  1.
       -4    1    3    3    0  502  0.65396137838E+03 -0.23280052137E+03  0.55006441495E+02  0.69633963600E+03  0.12699999809E+01 0. -1.
</event>
<event>
 5   0  0.5623061E-04  0.1580793E+04  0.7818609E-02  0.8832435E-01
       -1   -1    0    0    0  501  0.00000000000E+00  0.00000000000E+00  0.39805038338E+03  0.39805038341E+03  0.50400001928E-02 0.  1.
        1   -1    0    0  501    0  0.00000000000E+00  0.00000000000E+00 -0.15694663282E+04  0.15694663282E+04  0.50400001928E-02 0. -1.
    10030    2    1    2    0    0  0.00000000000E+00  0.00000000000E+00 -0.11714159448E+04  0.19675167116E+04  0.15807930588E+04 0.  0.
        3    1    3    3  502    0 -0.40278759008E+03 -0.51348902432E+03 -0.11406799927E+04  0.13141764253E+04  0.10100000352E+00 0. -1.
       -3    1    3    3    0  502  0.40278759008E+03  0.51348902432E+03 -0.30735952140E+02  0.65334028636E+03  0.10100000352E+00 0.  1.
</event>
<event>
 5   0  0.5425525E-04  0.1488660E+04  0.7818609E-02  0.8892029E-01
       -1   -1    0    0    0  501  0.00000000000E+00  0.00000000000E+00  0.62517565106E+03  0.62517565108E+03  0.50400001928E-02 0. -1.
        1   -1    0    0  501    0  0.00000000000E+00  0.00000000000E+00 -0.88619462095E+03  0.88619462096E+03  0.50400001928E-02 0.  1.
    10030    2    1    2    0    0  0.00000000000E+00  0.00000000000E+00 -0.26101896988E+03  0.15113702720E+04  0.14886602019E+04 0.  0.
        5    1    3    3  502    0 -0.66445994218E+03  0.17687946013E+03 -0.41983384557E+03  0.80565247227E+03  0.46999998093E+01 0.  1.
       -5    1    3    3    0  502  0.66445994218E+03 -0.17687946013E+03  0.15881487569E+03  0.70571779978E+03  0.46999998093E+01 0. -1.
</event>
<event>
 5   0  0.1030027E-03  0.1428214E+04  0.7818609E-02  0.8933645E-01
       -2   -1    0    0    0  501  0.00000000000E+00  0.00000000000E+00  0.64246516218E+03  0.64246516219E+03  0.25500000920E-02 0.  1.
        2   -1    0    0  501    0  0.00000000000E+00  0.00000000000E+00 -0.79373777240E+03  0.79373777240E+03  0.25500000920E-02 0. -1.
    10030    2    1    2    0    0  0.00000000000E+00  0.00000000000E+00 -0.15127261022E+03  0.14362029346E+04  0.14282140829E+04 0.  0.
        1    1    3    3  502    0 -0.25511621326E+03 -0.28585807109E+03  0.53035357550E+03  0.65427366915E+03  0.50400001928E-02 0.  1.
       -1    1    3    3    0  502  0.25511621326E+03  0.28585807109E+03 -0.68162618571E+03  0.78192926544E+03  0.50400001928E-02 0. -1.
</event>
<event>
 5   0  0.1037321E-03  0.1615360E+04  0.7818609E-02  0.8811167E-01
        2   -1    0    0  501    0  0.00000000000E+00  0.00000000000E+00  0.11439838595E+04  0.11439838595E+04  0.25500000920E-02 0.  1.
       -2   -1    0    0    0  501  0.00000000000E+00  0.00000000000E+00 -0.57024147889E+03  0.57024147890E+03  0.25500000920E-02 0. -1.
    10030    2    1    2    0    0  0.00000000000E+00  0.00000000000E+00  0.57374238057E+03  0.17142253384E+04  0.16153600811E+04 0.  0.
        5    1    3    3  502    0 -0.25990646568E+03 -0.73275536107E+03  0.51898903406E+03  0.93480131447E+03  0.46999998093E+01 0. -1.
       -5    1    3    3    0  502  0.25990646568E+03  0.73275536107E+03  0.54753346518E+02  0.77942402390E+03  0.46999998093E+01 0.  1.
</event>
<event>
 5   0  0.5425525E-04  0.1638973E+04  0.7818609E-02  0.8796957E-01
        1   -1    0    0  501    0  0.00000000000E+00  0.00000000000E+00  0.13161026958E+04  0.13161026958E+04  0.50400001928E-02 0. -1.
       -1   -1    0    0    0  501  0.00000000000E+00  0.00000000000E+00 -0.51026256231E+03  0.51026256233E+03  0.50400001928E-02 0.  1.
    10030    2    1    2    0    0  0.00000000000E+00  0.00000000000E+00  0.80584013347E+03  0.18263652581E+04  0.16389727683E+04 0.  0.
        5    1    3    3  502    0  0.23838170869E+03 -0.40670484606E+03 -0.34401814169E+03  0.58361395002E+03  0.46999998093E+01 0.  1.
       -5    1    3    3    0  502 -0.23838170869E+03  0.40670484606E+03  0.11498582752E+04  0.12427513081E+04  0.46999998093E+01 0. -1.
</event>
<event>
 5   0  0.5288658E-04  0.1635738E+04  0.7818609E-02  0.8798888E-01
       -1   -1    0    0    0  501  0.00000000000E+00  0.00000000000E+00  0.55046080666E+03  0.55046080669E+03  0.50400001928E-02 0. -1.
        1   -1    0    0  501    0  0.00000000000E+00  0.00000000000E+00 -0.12151820468E+04  0.12151820468E+04  0.50400001928E-02 0.  1.
    10030    2    1    2    0    0  0.00000000000E+00  0.00000000000E+00 -0.66472124010E+03  0.17656428535E+04  0.16357384751E+04 0.  0.
        1    1    3    3  502    0 -0.56337430697E+03 -0.12212310988E+01  0.30761402637E+03  0.64188666477E+03  0.50400001928E-02 0. -1.
       -1    1    3    3    0  502  0.56337430697E+03  0.12212310988E+01 -0.97233526647E+03  0.11237561887E+04  0.50400001928E-02 0.  1.
</event>
<event>
 5   0  0.1000121E-03  0.1622398E+04  0.7818609E-02  0.8806905E-01
        2   -1    0    0  501    0  0.00000000000E+00  0.00000000000E+00  0.78803753502E+03  0.78803753502E+03  0.25500000920E-02 0. -1.
       -2   -1    0    0    0  501  0.00000000000E+00  0.00000000000E+00 -0.83504170407E+03  0.83504170407E+03  0.25500000920E-02 0.  1.
    10030    2    1    2    0    0  0.00000000000E+00  0.00000000000E+00 -0.47004169050E+02  0.16230792391E+04  0.16223984789E+04 0.  0.
        4    1    3    3  502    0 -0.76577411460E+03  0.23694376698E+03 -0.14801414054E+03  0.81514547291E+03  0.12699999809E+01 0.  1.
       -4    1    3    3    0  502  0.76577411460E+03 -0.23694376698E+03  0.10100997149E+03  0.80793376619E+03  0.12699999809E+01 0. -1.
</event>
<event>
 5   0  0.5288658E-04  0.1600048E+04  0.7818609E-02  0.8820519E-01
        1   -1    0    0  501    0  0.00000000000E+00  0.00000000000E+00  0.15789923376E+04  0.15789923376E+04  0.50400001928E-02 0. -1.
       -1   -1    0    0    0  501  0.00000000000E+00  0.00000000000E+00 -0.40534606928E+03  0.40534606931E+03  0.50400001928E-02 0.  1.
    10030    2    1    2    0    0  0.00000000000E+00  0.00000000000E+00  0.11736462683E+04  0.19843384069E+04  0.16000479212E+04 0.  0.
        1    1    3    3  502    0  0.45837214860E+03 -0.30426974159E+03  0.13071426610E+04  0.14182055699E+04  0.50400001928E-02 0. -1.
       -1    1    3    3    0  502 -0.45837214860E+03  0.30426974159E+03 -0.13349639269E+03  0.56613283702E+03  0.50400001928E-02 0.  1.
</event>
<event>
 5   0  0.1000121E-03  0.1359733E+04  0.7818609E-02  0.8983493E-01
       -2   -1    0    0    0  501  0.00000000000E+00  0.00000000000E+00  0.40322411444E+03  0.40322411444E+03  0.25500000920E-02 0.  1.
        2   -1    0    0  501    0  0.00000000000E+00  0.00000000000E+00 -0.11463061358E+04  0.11463061358E+04  0.25500000920E-02 0. -1.
    10030    2    1    2    0    0  0.00000000000E+00  0.00000000000E+00 -0.74308202137E+03  0.15495302503E+04  0.13597327333E+04 0.  0.
        4    1    3    3  502    0  0.51059311421E+03  0.34004722459E+03 -0.70549801219E+03  0.93491523752E+03  0.12699999809E+01 0. -1.
       -4    1    3    3    0  502 -0.51059311421E+03 -0.34004722459E+03 -0.37584009181E+02  0.61461501274E+03  0.12699999809E+01 0.  1.
</event>
<event>
 5   0  0.1030027E-03  0.1616334E+04  0.7818609E-02  0.8810576E-01
       -2   -1    0    0    0  501  0.00000000000E+00  0.00000000000E+00  0.44415657345E+03  0.44415657346E+03  0.25500000920E-02 0.  1.
        2   -1    0    0  501    0  0.00000000000E+00  0.00000000000E+00 -0.14705031930E+04  0.14705031930E+04  0.25500000920E-02 0. -1.
    10030    2    1    2    0    0  0.00000000000E+00  0.00000000000E+00 -0.10263466196E+04  0.19146597665E+04  0.16163337025E+04 0.  0.
        1    1    3    3  502    0  0.48794692653E+03 -0.44519352639E+03  0.38439659252E+02  0.66163969536E+03  0.50400001928E-02 0.  1.
       -1    1    3    3    0  502 -0.48794692653E+03  0.44519352639E+03 -0.10647862788E+04  0.12530200711E+04  0.50400001928E-02 0. -1.
</event>
<event>
 5   0  0.1037321E-03  0.1616768E+04  0.7818609E-02  0.8810312E-01
        2   -1    0    0  501    0  0.00000000000E+00  0.00000000000E+00  0.59932363403E+03  0.59932363403E+03  0.25500000920E-02 0. -1.
       -2   -1    0    0    0  501  0.00000000000E+00  0.00000000000E+00 -0.10903705027E+04  0.10903705027E+04  0.25500000920E-02 0.  1.
    10030    2    1    2    0    0  0.00000000000E+00  0.00000000000E+00 -0.49104686870E+03  0.16896941368E+04  0.16167681493E+04 0.  0.
        5    1    3    3  502    0  0.16210975476E+03 -0.53895840901E+02  0.58022831476E+03  0.60487297964E+03  0.46999998093E+01 0. -1.
       -5    1    3    3    0  502 -0.16210975476E+03  0.53895840901E+02 -0.10712751835E+04  0.10848211571E+04  0.46999998093E+01 0.  1.
</event>
<event>
 5   0  0.5288658E-04  0.1586140E+04  0.7818609E-02  0.8829108E-01
        1   -1    0    0  501    0  0.00000000000E+00  0.00000000000E+00  0.96389722411E+03  0.96389722412E+03  0.50400001928E-02 0. -1.
       -1   -1    0    0    0  501  0.00000000000E+00  0.00000000000E+00 -0.65251750175E+03  0.65251750177E+03  0.50400001928E-02 0.  1.
    10030    2    1    2    0    0  0.00000000000E+00  0.00000000000E+00  0.31137972236E+03  0.16164147259E+04  0.15861397273E+04 0.  0.
        1    1    3    3  502    0 -0.32673060009E+03 -0.67909614678E+03  0.40745875077E+03  0.85670712336E+03  0.50400001928E-02 0.  1.
       -1    1    3    3    0  502  0.32673060009E+03  0.67909614678E+03 -0.96079028413E+02  0.75970760252E+03  0.50400001928E-02 0. -1.
</event>
<event>
 5   0  0.5425525E-04  0.1604884E+04  0.7818609E-02  0.8817553E-01
        1   -1    0    0  501    0  0.00000000000E+00  0.00000000000E+00  0.16601033216E+04  0.16601033216E+04  0.50400001928E-02 0. -1.
       -1   -1    0    0    0  501  0.00000000000E+00  0.00000000000E+00 -0.38787558998E+03  0.38787559002E+03  0.50400001928E-02 0.  1.
    10030    2    1    2    0    0  0.00000000000E+00  0.00000000000E+00  0.12722277316E+04  0.20479789116E+04  0.16048844885E+04 0.  0.
        5    1    3    3  502    0 -0.33453919006E+03  0.72925000632E+03  0.65272384468E+03  0.10343077631E+04  0.46999998093E+01 0.  1.
       -5    1    3    3    0  502  0.33453919006E+03 -0.72925000632E+03  0.61950388692E+03  0.10136711485E+04  0.46999998093E+01 0. -1.
</event>
<event>
 5   0  0.1000121E-03  0.1601546E+04  0.7818609E-02  0.8819599E-01
        2   -1    0    0  501    0  0.00000000000E+00  0.00000000000E+00  0.10876940831E+04  0.10876940831E+04  0.25500000920E-02 0. -1.
       -2   -1    0    0    0  501  0.00000000000E+00  0.00000000000E+00 -0.58953837860E+03  0.58953837861E+03  0.25500000920E-02 0.  1.
    10030    2    1    2    0    0  0.00000000000E+00  0.00000000000E+00  0.49815570453E+03  0.16772324617E+04  0.16015460108E+04 0.  0.
        4    1    3    3  502    0  0.42000418637E+03 -0.68094992992E+03  0.28442913882E+03  0.84911593528E+03  0.12699999809E+01 0.  1.
       -4    1    3    3    0  502 -0.42000418637E+03  0.68094992992E+03  0.21372656571E+03  0.82811652647E+03  0.12699999809E+01 0. -1.
</event>
<event>
 5   0  0.5532881E-04  0.1605707E+04  0.7818609E-02  0.8817050E-01
        1   -1    0    0  501    0  0.00000000000E+00  0.00000000000E+00  0.60119660897E+03  0.60119660899E+03  0.50400001928E-02 0. -1.
       -1   -1    0    0    0  501  0.00000000000E+00  0.00000000000E+00 -0.10721509248E+04  0.10721509248E+04  0.50400001928E-02 0.  1.
    10030    2    1    2    0    0  0.00000000000E+00  0.00000000000E+00 -0.47095431582E+03  0.16733475338E+04  0.16057066984E+04 0.  0.
        4    1    3    3  502    0 -0.93775009721E+02  0.54388138342E+03  0.37215531813E+03  0.66565900084E+03  0.12699999809E+01 0. -1.
       -4    1    3    3    0  502  0.93775009721E+02 -0.54388138342E+03 -0.84310963395E+03  0.10076885330E+04  0.12699999809E+01 0.  1.
</event>
<event>
 5   0  0.1000121E-03  0.1576314E+04  0.7818609E-02  0.8835233E-01
        2   -1    0    0  501    0  0.00000000000E+00  0.00000000000E+00  0.91769824546E+03  0.91769824546E+03  0.25500000920E-02 0. -1.
       -2   -1    0    0    0  501  0.00000000000E+00  0.00000000000E+00 -0.67690129451E+03  0.67690129451E+03  0.25500000920E-02 0.  1.
    10030    2    1    2    0    0  0.00000000000E+00  0.00000000000E+00  0.24079695095E+03  0.15945995400E+04  0.15763135860E+04 0.  0.
        4    1    3    3  502    0 -0.42269253921E+03  0.45370233556E+03 -0.37173732249E+03  0.72298343122E+03  0.12699999809E+01 0.  1.
       -4    1    3    3    0  502  0.42269253921E+03 -0.45370233556E+03  0.61253427344E+03  0.87161610875E+03  0.12699999809E+01 0. -1.
</event>
<event>
 5   0  0.5281116E-04  0.1589106E+04  0.7818609E-02  0.8827269E-01
        1   -1    0    0  501    0  0.00000000000E+00  0.00000000000E+00  0.92754239735E+03  0.92754239737E+03  0.50400001928E-02 0. -1.
       -1   -1    0    0    0  501  0.00000000000E+00  0.00000000000E+00 -0.68063122465E+03  0.68063122467E+03  0.50400001928E-02 0.  1.
    10030    2    1    2    0    0  0.00000000000E+00  0.00000000000E+00  0.24691117270E+03  0.16081736220E+04  0.15891058088E+04 0.  0.
        2    1    3    3  502    0  0.25127990211E+02  0.76375011739E+03 -0.96799359560E+02  0.77026993563E+03  0.25500000920E-02 0.  1.
       -2    1    3    3    0  502 -0.25127990211E+02 -0.76375011739E+03  0.34371053226E+03  0.83790368641E+03  0.25500000920E-02 0. -1.
</event>
<event>
 5   0  0.1030027E-03  0.1602530E+04  0.7818609E-02  0.8818995E-01
       -2   -1    0    0    0  501  0.00000000000E+00  0.00000000000E+00  0.22318057969E+03  0.22318057970E+03  0.25500000920E-02 0.  1.
        2   -1    0    0  501    0  0.00000000000E+00  0.00000000000E+00 -0.28767087488E+04  0.28767087488E+04  0.25500000920E-02 0. -1.
    10030    2    1    2    0    0  0.00000000000E+00  0.00000000000E+00 -0.26535281691E+04  0.30998893285E+04  0.16025299076E+04 0.  0.
        1    1    3    3  502    0  0.46612026428E+03  0.64625700477E+03 -0.14898640039E+04  0.16895594003E+04  0.50400001928E-02 0. -1.
       -1    1    3    3    0  502 -0.46612026428E+03 -0.64625700477E+03 -0.11636641653E+04  0.14103299283E+04  0.50400001928E-02 0.  1.
</event>
<event>
 5   0  0.5288658E-04  0.1217829E+04  0.7818609E-02  0.9097393E-01
        1   -1    0    0  501    0  0.00000000000E+00  0.00000000000E+00  0.12346784594E+04  0.12346784594E+04  0.50400001928E-02 0. -1.
       -1   -1    0    0    0  501  0.00000000000E+00  0.00000000000E+00 -0.30030220621E+03  0.30030220625E+03  0.50400001928E-02 0.  1.
    10030    2    1    2    0    0  0.00000000000E+00  0.00000000000E+00  0.93437625319E+03  0.15349806657E+04  0.12178286667E+04 0.  0.
        1    1    3    3  502    0  0.63640862744E+02 -0.31504613799E+03  0.11190509810E+04  0.11642934881E+04  0.50400001928E-02 0. -1.
       -1    1    3    3    0  502 -0.63640862744E+02  0.31504613799E+03 -0.18467472779E+03  0.37068717752E+03  0.50400001928E-02 0.  1.
</event>
<event>
 5   0  0.5288658E-04  0.1520864E+04  0.7818609E-02  0.8870696E-01
        1   -1    0    0  501    0  0.00000000000E+00  0.00000000000E+00  0.17315749192E+04  0.17315749192E+04  0.50400001928E-02 0. -1.
       -1   -1    0    0    0  501  0.00000000000E+00  0.00000000000E+00 -0.33394829123E+03  0.33394829127E+03  0.50400001928E-02 0.  1.
    10030    2    1    2    0    0  0.00000000000E+00  0.00000000000E+00  0.13976266280E+04  0.20655232105E+04  0.15208635513E+04 0.  0.
        1    1    3    3  502    0 -0.54974324948E+03  0.37005986726E+02  0.14105919831E+04  0.15143833155E+04  0.50400001928E-02 0. -1.
       -1    1    3    3    0  502  0.54974324948E+03 -0.37005986726E+02 -0.12965355128E+02  0.55113989500E+03  0.50400001928E-02 0.  1.
</event>
<event>
 5   0  0.5623061E-04  0.1626258E+04  0.7818609E-02  0.8804577E-01
       -1   -1    0    0    0  501  0.00000000000E+00  0.00000000000E+00  0.11251862739E+04  0.11251862740E+04  0.50400001928E-02 0. -1.
        1   -1    0    0  501    0  0.00000000000E+00  0.00000000000E+00 -0.58761691952E+03  0.58761691955E+03  0.50400001928E-02 0.  1.
    10030    2    1    2    0    0  0.00000000000E+00  0.00000000000E+00  0.53756935442E+03  0.17128031935E+04  0.16262576576E+04 0.  0.
        3    1    3    3  502    0  0.24460756856E+03  0.12430259135E+03  0.10749568711E+04  0.11094215978E+04  0.10100000352E+00 0. -1.
       -3    1    3    3    0  502 -0.24460756856E+03 -0.12430259135E+03 -0.53738751663E+03  0.60338159571E+03  0.10100000352E+00 0.  1.
</event>
<event>
 5   0  0.9844690E-04  0.1601894E+04  0.7818609E-02  0.8819385E-01
        2   -1    0    0  501    0  0.00000000000E+00  0.00000000000E+00  0.20526374241E+04  0.20526374241E+04  0.25500000920E-02 0.  1.
       -2   -1    0    0    0  501  0.00000000000E+00  0.00000000000E+00 -0.31253267210E+03  0.31253267211E+03  0.25500000920E-02 0. -1.
    10030    2    1    2    0    0  0.00000000000E+00  0.00000000000E+00  0.17401047520E+04  0.23651700962E+04  0.16018942025E+04 0.  0.
        3    1    3    3  502    0 -0.35262382404E+03  0.19192125398E+03 -0.15324636154E+03  0.42972291833E+03  0.10100000352E+00 0. -1.
       -3    1    3    3    0  502  0.35262382404E+03 -0.19192125398E+03  0.18933511136E+04  0.19354471779E+04  0.10100000352E+00 0.  1.
</event>
<event>
 5   0  0.1057872E-03  0.1614321E+04  0.7818609E-02  0.8811798E-01
        2   -1    0    0  501    0  0.00000000000E+00  0.00000000000E+00  0.10533815095E+04  0.10533815095E+04  0.25500000920E-02 0. -1.
       -2   -1    0    0    0  501  0.00000000000E+00  0.00000000000E+00 -0.61849196901E+03  0.61849196901E+03  0.25500000920E-02 0.  1.
    10030    2    1    2    0    0  0.00000000000E+00  0.00000000000E+00  0.43488954054E+03  0.16718734786E+04  0.16143209148E+04 0.  0.
        2    1    3    3  502    0 -0.22985149779E+03  0.65187457360E+03 -0.21423155975E+03  0.72364862464E+03  0.25500000920E-02 0.  1.
       -2    1    3    3    0  502  0.22985149779E+03 -0.65187457360E+03  0.64912110029E+03  0.94822485392E+03  0.25500000920E-02 0. -1.
</event>
<event>
 5   0  0.5281116E-04  0.1259240E+04  0.7818609E-02  0.9062528E-01
       -1   -1    0    0    0  501  0.00000000000E+00  0.00000000000E+00  0.44030236600E+03  0.44030236602E+03  0.50400001928E-02 0.  1.
        1   -1    0    0  501    0  0.00000000000E+00  0.00000000000E+00 -0.90033823504E+03  0.90033823505E+03  0.50400001928E-02 0. -1.
    10030    2    1    2    0    0  0.00000000000E+00  0.00000000000E+00 -0.46003586904E+03  0.13406406011E+04  0.12592395405E+04 0.  0.
        2    1    3    3  502    0 -0.12326799263E+03 -0.60934616526E+03 -0.33607320374E+03  0.70671277433E+03  0.25500000920E-02 0. -1.
       -2    1    3    3    0  502  0.12326799263E+03  0.60934616526E+03 -0.12396266531E+03  0.63392782675E+03  0.25500000920E-02 0.  1.
</event>
<event>
 5   0  0.1030027E-03  0.1590857E+04  0.7818609E-02  0.8826185E-01
       -2   -1    0    0    0  501  0.00000000000E+00  0.00000000000E+00  0.58217871188E+03  0.58217871189E+03  0.25500000920E-02 0. -1.
        2   -1    0    0  501    0  0.00000000000E+00  0.00000000000E+00 -0.10867907736E+04  0.10867907736E+04  0.25500000920E-02 0.  1.
    10030    2    1    2    0    0  0.00000000000E+00  0.00000000000E+00 -0.50461206171E+03  0.16689694855E+04  0.15908569422E+04 0.  0.
        1    1    3    3  502    0 -0.24520568628E+03 -0.48312040557E+03 -0.86328938222E+03  0.10192152434E+04  0.50400001928E-02 0.  1.
       -1    1    3    3    0  502  0.24520568628E+03  0.48312040557E+03  0.35867732051E+03  0.64975424211E+03  0.50400001928E-02 0. -1.
</event>
<event>
 5   0  0.1037321E-03  0.1413928E+04  0.7818609E-02  0.8943798E-01
        2   -1    0    0  501    0  0.00000000000E+00  0.00000000000E+00  0.11032082380E+04  0.11032082380E+04  0.25500000920E-02 0. -1.
       -2   -1    0    0    0  501  0.00000000000E+00  0.00000000000E+00 -0.45304076699E+03  0.45304076699E+03  0.25500000920E-02 0.  1.
    10030    2    1    2    0    0  0.00000000000E+00  0.00000000000E+00  0.65016747105E+03  0.15562490050E+04  0.14139282957E+04 0.  0.
        5    1    3    3  502    0 -0.21195134675E+03  0.51812984151E+03 -0.15010706762E+03  0.57959997222E+03  0.46999998093E+01 0.  1.
       -5    1    3    3    0  502  0.21195134675E+03 -0.51812984151E+03  0.80027453867E+03  0.97664903281E+03  0.46999998093E+01 0. -1.
</event>
<event>
 5   0  0.5532881E-04  0.1610417E+04  0.7818609E-02  0.8814174E-01
       -1   -1    0    0    0  501  0.00000000000E+00  0.00000000000E+00  0.74878742386E+03  0.74878742388E+03  0.50400001928E-02 0. -1.
        1   -1    0    0  501    0  0.00000000000E+00  0.00000000000E+00 -0.86588074514E+03  0.86588074515E+03  0.50400001928E-02 0.  1.
    10030    2    1    2    0    0  0.00000000000E+00  0.00000000000E+00 -0.11709332127E+03  0.16146681690E+04  0.16104168560E+04 0.  0.
        4    1    3    3  502    0  0.50977612710E+03  0.49781814465E+03  0.31749595700E+03  0.78006403617E+03  0.12699999809E+01 0. -1.
       -4    1    3    3    0  502 -0.50977612710E+03 -0.49781814465E+03 -0.43458927827E+03  0.83460413287E+03  0.12699999809E+01 0.  1.
</event>
<event>
 5   0  0.1030027E-03  0.1579960E+04  0.7818609E-02  0.8832955E-01
       -2   -1    0    0    0  501  0.00000000000E+00  0.00000000000E+00  0.40393636434E+03  0.40393636435E+03  0.25500000920E-02 0.  1.
        2   -1    0    0  501    0  0.00000000000E+00  0.00000000000E+00 -0.15449664449E+04  0.15449664449E+04  0.25500000920E-02 0. -1.
    10030    2    1    2    0    0  0.00000000000E+00  0.00000000000E+00 -0.11410300805E+04  0.19489028092E+04  0.15799596562E+04 0.  0.
        1    1    3    3  502    0  0.36709989073E+02 -0.15665052006E+03 -0.15245417525E+04  0.15330083378E+04  0.50400001928E-02 0. -1.
       -1    1    3    3    0  502 -0.36709989073E+02  0.15665052006E+03  0.38351167199E+03  0.41589447137E+03  0.50400001928E-02 0.  1.
</event>
<event>
 5   0  0.5288658E-04  0.1488143E+04  0.7818609E-02  0.8892376E-01
        1   -1    0    0  501    0  0.00000000000E+00  0.00000000000E+00  0.23537738250E+04  0.23537738250E+04  0.50400001928E-02 0.  1.
       -1   -1    0    0    0  501  0.00000000000E+00  0.00000000000E+00 -0.23521484184E+03  0.23521484189E+03  0.50400001928E-02 0. -1.
    10030    2    1    2    0    0  0.00000000000E+00  0.00000000000E+00  0.21185589832E+04  0.25889886669E+04  0.14881431894E+04 0.  0.
        1    1    3    3  502    0  0.15939691111E+03 -0.57286795283E+03  0.28113039809E+03  0.65773806899E+03  0.50400001928E-02 0. -1.
       -1    1    3    3    0  502 -0.15939691111E+03  0.57286795283E+03  0.18374285851E+04  0.19312505979E+04  0.50400001928E-02 0.  1.
</event>
<event>
 5   0  0.1030027E-03  0.1626900E+04  0.7818609E-02  0.8804190E-01
       -2   -1    0    0    0  501  0.00000000000E+00  0.00000000000E+00  0.77520322004E+03  0.77520322004E+03  0.25500000920E-02 0.  1.
        2   -1    0    0  501    0  0.00000000000E+00  0.00000000000E+00 -0.85358416827E+03  0.85358416827E+03  0.25500000920E-02 0. -1.
    10030    2    1    2    0    0  0.00000000000E+00  0.00000000000E+00 -0.78380948232E+02  0.16287873883E+04  0.16269003606E+04 0.  0.
        1    1    3    3  502    0 -0.22709383645E+03  0.38532172579E+03  0.64105089287E+03  0.78165893470E+03  0.50400001928E-02 0.  1.
       -1    1    3    3    0  502  0.22709383645E+03 -0.38532172579E+03 -0.71943184110E+03  0.84712845362E+03  0.50400001928E-02 0. -1.
</event>
<event>
 5   0  0.5532881E-04  0.1591737E+04  0.7818609E-02  0.8825641E-01
       -1   -1    0    0    0  501  0.00000000000E+00  0.00000000000E+00  0.75164469156E+03  0.75164469158E+03  0.50400001928E-02 0. -1.
        1   -1    0    0  501    0  0.00000000000E+00  0.00000000000E+00 -0.84269397172E+03  0.84269397174E+03  0.50400001928E-02 0.  1.
    10030    2    1    2    0    0  0.00000000000E+00  0.00000000000E+00 -0.91049280161E+02  0.15943386633E+04  0.15917367251E+04 0.  0.
        4    1    3    3  502    0 -0.29899182469E+03  0.15995944043E+03 -0.76671668725E+03  0.83835507109E+03  0.12699999809E+01 0.  1.
       -4    1    3    3    0  502  0.29899182469E+03 -0.15995944043E+03  0.67566740709E+03  0.75598359223E+03  0.12699999809E+01 0. -1.
</event>
<event>
 5   0  0.1057872E-03  0.1581351E+04  0.7818609E-02  0.8832088E-01
       -2   -1    0    0    0  501  0.00000000000E+00  0.00000000000E+00  0.39260572296E+03  0.39260572297E+03  0.25500000920E-02 0.  1.
        2   -1    0    0  501    0  0.00000000000E+00  0.00000000000E+00 -0.15923546870E+04  0.15923546870E+04  0.25500000920E-02 0. -1.
    10030    2    1    2    0    0  0.00000000000E+00  0.00000000000E+00 -0.11997489640E+04  0.19849604100E+04  0.15813507683E+04 0.  0.
        2    1    3    3  502    0 -0.73793979807E+03 -0.19451507308E+03 -0.85948678116E+03  0.11493949653E+04  0.25500000920E-02 0. -1.
       -2    1    3    3    0  502  0.73793979807E+03  0.19451507308E+03 -0.34026218287E+03  0.83556544467E+03  0.25500000920E-02 0.  1.
</event>
<event>
 5   0  0.1057872E-03  0.1559601E+04  0.7818609E-02  0.8845758E-01
       -2   -1    0    0    0  501  0.00000000000E+00  0.00000000000E+00  0.45932588435E+03  0.45932588436E+03  0.25500000920E-02 0.  1.
        2   -1    0    0  501    0  0.00000000000E+00  0.00000000000E+00 -0.13238720861E+04  0.13238720861E+04  0.25500000920E-02 0. -1.
    10030    2    1    2    0    0  0.00000000000E+00  0.00000000000E+00 -0.86454620173E+03  0.17831979704E+04  0.15596008678E+04 0.  0.
        2    1    3    3  502    0 -0.10311595393E+03 -0.43408391479E+03 -0.11635166812E+04  0.12461271253E+04  0.25500000920E-02 0. -1.
       -2    1    3    3    0  502  0.10311595393E+03  0.43408391479E+03  0.29897047949E+03  0.53707084509E+03  0.25500000920E-02 0.  1.
</event>
<event>
 5   0  0.5532881E-04  0.1624390E+04  0.7818609E-02  0.8805703E-01
       -1   -1    0    0    0  501  0.00000000000E+00  0.00000000000E+00  0.31885441695E+03  0.31885441699E+03  0.50400001928E-02 0.  1.
        1   -1    0    0  501    0  0.00000000000E+00  0.00000000000E+00 -0.20688473477E+04  0.20688473477E+04  0.50400001928E-02 0. -1.
    10030    2    1    2    0    0  0.00000000000E+00  0.00000000000E+00 -0.17499929307E+04  0.23877017647E+04  0.16243904886E+04 0.  0.
        4    1    3    3  502    0  0.51876921042E+03 -0.58638559049E+03 -0.55738122339E+03  0.96106451162E+03  0.12699999809E+01 0. -1.
       -4    1    3    3    0  502 -0.51876921042E+03  0.58638559049E+03 -0.11926117074E+04  0.14266372531E+04  0.12699999809E+01 0.  1.
</event>
<event>
 5   0  0.5425525E-04  0.1639750E+04  0.7818609E-02  0.8796494E-01
       -1   -1    0    0    0  501  0.00000000000E+00  0.00000000000E+00  0.73555380488E+03  0.73555380490E+03  0.50400001928E-02 0.  1.
        1   -1    0    0  501    0  0.00000000000E+00  0.00000000000E+00 -0.91386216151E+03  0.91386216152E+03  0.50400001928E-02 0. -1.
    10030    2    1    2    0    0  0.00000000000E+00  0.00000000000E+00 -0.17830835662E+03  0.16494159664E+04  0.16397497249E+04 0.  0.
        5    1    3    3  502    0  0.85546297497E+02  0.78002019681E+03 -0.32808974717E+03  0.85053785844E+03  0.46999998093E+01 0. -1.
       -5    1    3    3    0  502 -0.85546297497E+02 -0.78002019681E+03  0.14978139054E+03  0.79887810798E+03  0.46999998093E+01 0.  1.
</event>
<event>
 5   0  0.5281116E-04  0.1597025E+04  0.7818609E-02  0.8822378E-01
        1   -1    0    0  501    0  0.00000000000E+00  0.00000000000E+00  0.47378616973E+03  0.47378616976E+03  0.50400001928E-02 0.  1.
       -1   -1    0    0    0  501  0.00000000000E+00  0.00000000000E+00 -0.13458008276E+04  0.13458008276E+04  0.50400001928E-02 0. -1.
    10030    2    1    2    0    0  0.00000000000E+00  0.00000000000E+00 -0.87201465791E+03  0.18195869974E+04  0.15970245075E+04 0.  0.
        2    1    3    3  502    0  0.57053485402E+03 -0.21460348452E+02  0.20004915294E+03  0.60497126362E+03  0.25500000920E-02 0.  1.
       -2    1    3    3    0  502 -0.57053485402E+03  0.21460348452E+02 -0.10720638108E+04  0.12146157338E+04  0.25500000920E-02 0. -1.
</event>
<event>
 5   0  0.9844690E-04  0.1592826E+04  0.7818609E-02  0.8824968E-01
        2   -1    0    0  501    0  0.00000000000E+00  0.00000000000E+00  0.22802712592E+04  0.22802712592E+04  0.25500000920E-02 0.  1.
       -2   -1    0    0    0  501  0.00000000000E+00  0.00000000000E+00 -0.27815699680E+03  0.27815699682E+03  0.25500000920E-02 0. -1.
    10030    2    1    2    0    0  0.00000000000E+00  0.00000000000E+00  0.20021142623E+04  0.25584282560E+04  0.15928256720E+04 0.  0.
        3    1    3    3  502    0  0.56235642951E+03 -0.39439742319E+03  0.35361041206E+03  0.77255059055E+03  0.10100000352E+00 0. -1.
       -3    1    3    3    0  502 -0.56235642951E+03  0.39439742319E+03  0.16485038503E+04  0.17858776654E+04  0.10100000352E+00 0.  1.
</event>
<event>
 5   0  0.5281116E-04  0.1252146E+04  0.7818609E-02  0.9068399E-01
        1   -1    0    0  501    0  0.00000000000E+00  0.00000000000E+00  0.89395407637E+03  0.89395407638E+03  0.50400001928E-02 0.  1.
       -1   -1    0    0    0  501  0.00000000000E+00  0.00000000000E+00 -0.43846502059E+03  0.43846502062E+03  0.50400001928E-02 0. -1.
    10030    2    1    2    0    0  0.00000000000E+00  0.00000000000E+00  0.45548905577E+03  0.13324190970E+04  0.12521463054E+04 0.  0.
        2    1    3    3  502    0  0.42199811293E+02 -0.45747564086E+03 -0.22484908880E+03  0.51148988141E+03  0.25500000920E-02 0. -1.
       -2    1    3    3    0  502 -0.42199811293E+02  0.45747564086E+03  0.68033814457E+03  0.82092921559E+03  0.25500000920E-02 0.  1.
</event>
<event>
 5   0  0.5288658E-04  0.1599383E+04  0.7818609E-02  0.8820927E-01
        1   -1    0    0  501    0  0.00000000000E+00  0.00000000000E+00  0.61087903372E+03  0.61087903374E+03  0.50400001928E-02 0. -1.
       -1   -1    0    0    0  501  0.00000000000E+00  0.00000000000E+00 -0.10468625950E+04  0.10468625950E+04  0.50400001928E-02 0.  1.
    10030    2    1    2    0    0  0.00000000000E+00  0.00000000000E+00 -0.43598356128E+03  0.16577416287E+04  0.15993828941E+04 0.  0.
        1    1    3    3  502    0 -0.10781192815E+03  0.73825839865E+03 -0.51634477597E+03  0.90733720453E+03  0.50400001928E-02 0.  1.
       -1    1    3    3    0  502  0.10781192815E+03 -0.73825839865E+03  0.80361214684E+02  0.75040442422E+03  0.50400001928E-02 0. -1.
</event>
<event>
 5   0  0.1030027E-03  0.1623303E+04  0.7818609E-02  0.8806359E-01
       -2   -1    0    0    0  501  0.00000000000E+00  0.00000000000E+00  0.49819053964E+03  0.49819053965E+03  0.25500000920E-02 0. -1.
        2   -1    0    0  501    0  0.00000000000E+00  0.00000000000E+00 -0.13223415924E+04  0.13223415924E+04  0.25500000920E-02 0.  1.
    10030    2    1    2    0    0  0.00000000000E+00  0.00000000000E+00 -0.82415105280E+03  0.18205321321E+04  0.16233028941E+04 0.  0.
        1    1    3    3  502    0 -0.26171604930E+03 -0.68992285116E+03 -0.79121714424E+03  0.10819026760E+04  0.50400001928E-02 0.  1.
       -1    1    3    3    0  502  0.26171604930E+03  0.68992285116E+03 -0.32933908559E+02  0.73862945607E+03  0.50400001928E-02 0. -1.
</event>
<event>
 5   0  0.5425525E-04  0.1727816E+04  0.7818609E-02  0.8745657E-01
       -1   -1    0    0    0  501  0.00000000000E+00  0.00000000000E+00  0.13325147899E+04  0.13325147899E+04  0.50400001928E-02 0. -1.
        1   -1    0    0  501    0  0.00000000000E+00  0.00000000000E+00 -0.56009640788E+03  0.56009640790E+03  0.50400001928E-02 0.  1.
    10030    2    1    2    0    0  0.00000000000E+00  0.00000000000E+00  0.77241838200E+03  0.18926111978E+04  0.17278156699E+04 0.  0.
        5    1    3    3  502    0 -0.64585135578E+03 -0.47167264659E+03  0.28378202576E+02  0.80026650041E+03  0.46999998093E+01 0.  1.
       -5    1    3    3    0  502  0.64585135578E+03  0.47167264659E+03  0.74404017942E+03  0.10923446974E+04  0.46999998093E+01 0. -1.
</event>
<event>
 5   0  0.5425525E-04  0.1539406E+04  0.7818609E-02  0.8858663E-01
        1   -1    0    0  501    0  0.00000000000E+00  0.00000000000E+00  0.61314048418E+03  0.61314048420E+03  0.50400001928E-02 0.  1.
       -1   -1    0    0    0  501  0.00000000000E+00  0.00000000000E+00 -0.96624290062E+03  0.96624290064E+03  0.50400001928E-02 0. -1.
    10030    2    1    2    0    0  0.00000000000E+00  0.00000000000E+00 -0.35310241645E+03  0.15793833848E+04  0.15394059113E+04 0.  0.
        5    1    3    3  502    0  0.75444409602E+03  0.10806639394E+03 -0.28684320887E+03  0.81434965217E+03  0.46999998093E+01 0. -1.
       -5    1    3    3    0  502 -0.75444409602E+03 -0.10806639394E+03 -0.66259207576E+02  0.76503373266E+03  0.46999998093E+01 0.  1.
</event>
<event>
 5   0  0.1057872E-03  0.1612615E+04  0.7818609E-02  0.8812835E-01
        2   -1    0    0  501    0  0.00000000000E+00  0.00000000000E+00  0.86559644216E+03  0.86559644217E+03  0.25500000920E-02 0.  1.
       -2   -1    0    0    0  501  0.00000000000E+00  0.00000000000E+00 -0.75107964256E+03  0.75107964257E+03  0.25500000920E-02 0. -1.
    10030    2    1    2    0    0  0.00000000000E+00  0.00000000000E+00  0.11451679960E+03  0.16166760847E+04  0.16126151015E+04 0.  0.
        2    1    3    3  502    0 -0.12656686183E+03 -0.28070080293E+03 -0.68981599756E+03  0.75541923577E+03  0.25500000920E-02 0. -1.
       -2    1    3    3    0  502  0.12656686183E+03  0.28070080293E+03  0.80433279716E+03  0.86125684896E+03  0.25500000920E-02 0.  1.
</event>
<event>
 5   0  0.1057872E-03  0.1619076E+04  0.7818609E-02  0.8808914E-01
       -2   -1    0    0    0  501  0.00000000000E+00  0.00000000000E+00  0.38973389468E+03  0.38973389468E+03  0.25500000920E-02 0.  1.
        2   -1    0    0  501    0  0.00000000000E+00  0.00000000000E+00 -0.16815358781E+04  0.16815358781E+04  0.25500000920E-02 0. -1.
    10030    2    1    2    0    0  0.00000000000E+00  0.00000000000E+00 -0.12918019835E+04  0.20712697728E+04  0.16190756954E+04 0.  0.
        2    1    3    3  502    0  0.74789483499E+02  0.19341791610E+03 -0.16469803652E+04  0.16599844218E+04  0.25500000920E-02 0. -1.
       -2    1    3    3    0  502 -0.74789483499E+02 -0.19341791610E+03  0.35517838176E+03  0.41128535105E+03  0.25500000920E-02 0.  1.
</event>
<event>
 5   0  0.5623061E-04  0.1640178E+04  0.7818609E-02  0.8796238E-01
       -1   -1    0    0    0  501  0.00000000000E+00  0.00000000000E+00  0.10795794816E+04  0.10795794816E+04  0.50400001928E-02 0.  1.
        1   -1    0    0  501    0  0.00000000000E+00  0.00000000000E+00 -0.62297046446E+03  0.62297046448E+03  0.50400001928E-02 0. -1.
    10030    2    1    2    0    0  0.00000000000E+00  0.00000000000E+00  0.45660901716E+03  0.17025499461E+04  0.16401781990E+04 0.  0.
        3    1    3    3  502    0 -0.21915073561E+03 -0.33026703099E+03  0.97354947253E+03  0.10511431598E+04  0.10100000352E+00 0.  1.
       -3    1    3    3    0  502  0.21915073561E+03  0.33026703099E+03 -0.51694045537E+03  0.65140678633E+03  0.10100000352E+00 0. -1.
</event>
<event>
 5   0  0.1037321E-03  0.1619159E+04  0.7818609E-02  0.8808864E-01
       -2   -1    0    0    0  501  0.00000000000E+00  0.00000000000E+00  0.60581048175E+03  0.60581048176E+03  0.25500000920E-02 0.  1.
        2   -1    0    0  501    0  0.00000000000E+00  0.00000000000E+00 -0.10818873398E+04  0.10818873398E+04  0.25500000920E-02 0. -1.
    10030    2    1    2    0    0  0.00000000000E+00  0.00000000000E+00 -0.47607685808E+03  0.16876978216E+04  0.16191586587E+04 0.  0.
        5    1    3    3  502    0  0.45717296023E+03 -0.55504947021E+02  0.45595986593E+03  0.64808132518E+03  0.46999998093E+01 0.  1.
       -5    1    3    3    0  502 -0.45717296023E+03  0.55504947021E+02 -0.93203672401E+03  0.10396164964E+04  0.46999998093E+01 0. -1.
</event>
<event>
 5   0  0.5532881E-04  0.1565639E+04  0.7818609E-02  0.8841940E-01
       -1   -1    0    0    0  501  0.00000000000E+00  0.00000000000E+00  0.10151355545E+04  0.10151355545E+04  0.50400001928E-02 0.  1.
        1   -1    0    0  501    0  0.00000000000E+00  0.00000000000E+00 -0.60366958882E+03  0.60366958884E+03  0.50400001928E-02 0. -1.
    10030    2    1    2    0    0  0.00000000000E+00  0.00000000000E+00  0.41146596568E+03  0.16188051434E+04  0.15656391191E+04 0.  0.
        4    1    3    3  502    0 -0.22426148898E+03  0.65103848075E+03  0.59074948227E+03  0.90726560750E+03  0.12699999809E+01 0.  1.
       -4    1    3    3    0  502  0.22426148898E+03 -0.65103848075E+03 -0.17928351659E+03  0.71153953585E+03  0.12699999809E+01 0. -1.
</event>
<event>
 5   0  0.1057872E-03  0.1603053E+04  0.7818609E-02  0.8818675E-01
        2   -1    0    0  501    0  0.00000000000E+00  0.00000000000E+00  0.65198657294E+03  0.65198657295E+03  0.25500000920E-02 0.  1.
       -2   -1    0    0    0  501  0.00000000000E+00  0.00000000000E+00 -0.98536467404E+03  0.98536467405E+03  0.25500000920E-02 0. -1.
    10030    2    1    2    0    0  0.00000000000E+00  0.00000000000E+00 -0.33337810110E+03  0.16373512470E+04  0.16030527589E+04 0.  0.
        2    1    3    3  502    0  0.25924103160E+03 -0.25320195471E+03 -0.89691728010E+03  0.96735606148E+03  0.25500000920E-02 0. -1.
       -2    1    3    3    0  502 -0.25924103160E+03  0.25320195471E+03  0.56353917900E+03  0.66999518551E+03  0.25500000920E-02 0.  1.
</event>
<event>
 5   0  0.5623061E-04  0.1604869E+04  0.7818609E-02  0.8817562E-01
       -1   -1    0    0    0  501  0.00000000000E+00  0.00000000000E+00  0.59434800225E+03  0.59434800227E+03  0.50400001928E-02 0. -1.
        1   -1    0    0  501    0  0.00000000000E+00  0.00000000000E+00 -0.10833737759E+04  0.10833737759E+04  0.50400001928E-02 0.  1.
    10030    2    1    2    0    0  0.00000000000E+00  0.00000000000E+00 -0.48902577364E+03  0.16777217782E+04  0.16048688911E+04 0.  0.
        3    1    3    3  502    0 -0.71437347004E+03 -0.64086107327E+02 -0.62065833319E+03  0.94850053274E+03  0.10100000352E+00 0.  1.
       -3    1    3    3    0  502  0.71437347004E+03  0.64086107327E+02  0.13163255955E+03  0.72922124543E+03  0.10100000352E+00 0. -1.
</event>
<event>
 5   0  0.5425525E-04  0.1531968E+04  0.7818609E-02  0.8863468E-01
        1   -1    0    0  501    0  0.00000000000E+00  0.00000000000E+00  0.13152594905E+04  0.13152594905E+04  0.50400001928E-02 0.  1.
       -1   -1    0    0    0  501  0.00000000000E+00  0.00000000000E+00 -0.44609588535E+03  0.44609588538E+03  0.50400001928E-02 0. -1.
    10030    2    1    2    0    0  0.00000000000E+00  0.00000000000E+00  0.86916360511E+03  0.17613553758E+04  0.15319684682E+04 0.  0.
        5    1    3    3  502    0 -0.28352799507E+02 -0.18144095279E+03 -0.42039407246E+03  0.45877877757E+03  0.46999998093E+01 0. -1.
       -5    1    3    3    0  502  0.28352799507E+02  0.18144095279E+03  0.12895576776E+04  0.13025765983E+04  0.46999998093E+01 0.  1.
</event>
<event>
 5   0  0.5281116E-04  0.1570919E+04  0.7818609E-02  0.8838615E-01
        1   -1    0    0  501    0  0.00000000000E+00  0.00000000000E+00  0.64575648836E+03  0.64575648838E+03  0.50400001928E-02 0.  1.
       -1   -1    0    0    0  501  0.00000000000E+00  0.00000000000E+00 -0.95538599602E+03  0.95538599603E+03  0.50400001928E-02 0. -1.
    10030    2    1    2    0    0  0.00000000000E+00  0.00000000000E+00 -0.30962950766E+03  0.16011424844E+04  0.15709191015E+04 0.  0.
        2    1    3    3  502    0  0.17217244460E+03 -0.53837463620E+03  0.40107363785E+03  0.69307334573E+03  0.25500000920E-02 0.  1.
       -2    1    3    3    0  502 -0.17217244460E+03  0.53837463620E+03 -0.71070314551E+03  0.90806913868E+03  0.25500000920E-02 0. -1.
</event>
<event>
 5   0  0.5425525E-04  0.1721121E+04  0.7818609E-02  0.8749409E-01
       -1   -1    0    0    0  501  0.00000000000E+00  0.00000000000E+00  0.55799096759E+03  0.55799096761E+03  0.50400001928E-02 0. -1.
        1   -1    0    0  501    0  0.00000000000E+00  0.00000000000E+00 -0.13271980669E+04  0.13271980669E+04  0.50400001928E-02 0.  1.
    10030    2    1    2    0    0  0.00000000000E+00  0.00000000000E+00 -0.76920709934E+03  0.18851890346E+04  0.17211211853E+04 0.  0.
        5    1    3    3  502    0 -0.18416426513E+03 -0.58657506595E+03 -0.10441278453E+04  0.12116979128E+04  0.46999998093E+01 0.  1.
       -5    1    3    3    0  502  0.18416426513E+03  0.58657506595E+03  0.27492074595E+03  0.67349112176E+03  0.46999998093E+01 0. -1.
</event>
<event>
 5   0  0.1057872E-03  0.1661116E+04  0.7818609E-02  0.8783858E-01
       -2   -1    0    0    0  501  0.00000000000E+00  0.00000000000E+00  0.73189336654E+03  0.73189336655E+03  0.25500000920E-02 0. -1.
        2   -1    0    0  501    0  0.00000000000E+00  0.00000000000E+00 -0.94252309723E+03  0.94252309724E+03  0.25500000920E-02 0.  1.
    10030    2    1    2    0    0  0.00000000000E+00  0.00000000000E+00 -0.21062973069E+03  0.16744164638E+04  0.16611157728E+04 0.  0.
        2    1    3    3  502    0  0.85380165787E+02  0.48498142660E+03 -0.77949728602E+03  0.92201560495E+03  0.25500000920E-02 0.  1.
       -2    1    3    3    0  502 -0.85380165787E+02 -0.48498142660E+03  0.56886755533E+03  0.75240085883E+03  0.25500000920E-02 0. -1.
</event>
<event>
 5   0  0.1057872E-03  0.1601525E+04  0.7818609E-02  0.8819612E-01
       -2   -1    0    0    0  501  0.00000000000E+00  0.00000000000E+00  0.62291998928E+03  0.62291998929E+03  0.25500000920E-02 0.  1.
        2   -1    0    0  501    0  0.00000000000E+00  0.00000000000E+00 -0.10293785453E+04  0.10293785453E+04  0.25500000920E-02 0. -1.
    10030    2    1    2    0    0  0.00000000000E+00  0.00000000000E+00 -0.40645855599E+03  0.16522985346E+04  0.16015248639E+04 0.  0.
        2    1    3    3  502    0  0.34035135927E+03 -0.67628645087E+03  0.65841761061E+02  0.75995891263E+03  0.25500000920E-02 0.  1.
       -2    1    3    3    0  502 -0.34035135927E+03  0.67628645087E+03 -0.47230031705E+03  0.89233962193E+03  0.25500000920E-02 0. -1.
</event>
<event>
 5   0  0.5281116E-04  0.1600882E+04  0.7818609E-02  0.8820007E-01
       -1   -1    0    0    0  501  0.00000000000E+00  0.00000000000E+00  0.25089150414E+03  0.25089150419E+03  0.50400001928E-02 0.  1.
        1   -1    0    0  501    0  0.00000000000E+00  0.00000000000E+00 -0.25537156633E+04  0.25537156633E+04  0.50400001928E-02 0. -1.
    10030    2    1    2    0    0  0.00000000000E+00  0.00000000000E+00 -0.23028241592E+04  0.28046071675E+04  0.16008817120E+04 0.  0.
        2    1    3    3  502    0 -0.15800866166E+03 -0.67362835620E+03 -0.18564648012E+04  0.19812126230E+04  0.25500000920E-02 0. -1.
       -2    1    3    3    0  502  0.15800866166E+03  0.67362835620E+03 -0.44635935794E+03  0.82339454447E+03  0.25500000920E-02 0.  1.
</event>
<event>
 5   0  0.1000121E-03  0.1605024E+04  0.7818609E-02  0.8817468E-01
       -2   -1    0    0    0  501  0.00000000000E+00  0.00000000000E+00  0.11376549548E+04  0.11376549548E+04  0.25500000920E-02 0.  1.
        2   -1    0    0  501    0  0.00000000000E+00  0.00000000000E+00 -0.56609886970E+03  0.56609886970E+03  0.25500000920E-02 0. -1.
    10030    2    1    2    0    0  0.00000000000E+00  0.00000000000E+00  0.57155608506E+03  0.17037538245E+04  0.16050235936E+04 0.  0.
        4    1    3    3  502    0 -0.42934065529E+03  0.98219999187E+02 -0.42634072347E+03  0.61298335370E+03  0.12699999809E+01 0. -1.
       -4    1    3    3    0  502  0.42934065529E+03 -0.98219999187E+02  0.99789680853E+03  0.10907704708E+04  0.12699999809E+01 0.  1.
</event>
<event>
 5   0  0.5425525E-04  0.1675130E+04  0.7818609E-02  0.8775677E-01
       -1   -1    0    0    0  501  0.00000000000E+00  0.00000000000E+00  0.45775466852E+03  0.45775466855E+03  0.50400001928E-02 0. -1.
        1   -1    0    0  501    0  0.00000000000E+00  0.00000000000E+00 -0.15325125821E+04  0.15325125821E+04  0.50400001928E-02 0.  1.
    10030    2    1    2    0    0  0.00000000000E+00  0.00000000000E+00 -0.10747579136E+04  0.19902672506E+04  0.16751295939E+04 0.  0.
        5    1    3    3  502    0  0.29150065150E+03  0.42378211390E+03 -0.13227381218E+04  0.14192329403E+04  0.46999998093E+01 0.  1.
       -5    1    3    3    0  502 -0.29150065150E+03 -0.42378211390E+03  0.24798020828E+03  0.57103431034E+03  0.46999998093E+01 0. -1.
</event>
<event>
 5   0  0.5425525E-04  0.1627281E+04  0.7818609E-02  0.8803961E-01
       -1   -1    0    0    0  501  0.00000000000E+00  0.00000000000E+00  0.34491277297E+03  0.34491277300E+03  0.50400001928E-02 0. -1.
        1   -1    0    0  501    0  0.00000000000E+00  0.00000000000E+00 -0.19193572715E+04  0.19193572715E+04  0.50400001928E-02 0.  1.
    10030    2    1    2    0    0  0.00000000000E+00  0.00000000000E+00 -0.15744444985E+04  0.22642700445E+04  0.16272809700E+04 0.  0.
        5    1    3    3  502    0  0.66851126571E+03  0.46066209423E+03 -0.71265499152E+03  0.10802851959E+04  0.46999998093E+01 0. -1.
       -5    1    3    3    0  502 -0.66851126571E+03 -0.46066209423E+03 -0.86178950700E+03  0.11839848486E+04  0.46999998093E+01 0.  1.
</event>
<event>
 5   0  0.5623061E-04  0.1621660E+04  0.7818609E-02  0.8807351E-01
        1   -1    0    0  501    0  0.00000000000E+00  0.00000000000E+00  0.97853171926E+03  0.97853171927E+03  0.50400001928E-02 0.  1.
       -1   -1    0    0    0  501  0.00000000000E+00  0.00000000000E+00 -0.67186952151E+03  0.67186952153E+03  0.50400001928E-02 0. -1.
    10030    2    1    2    0    0  0.00000000000E+00  0.00000000000E+00  0.30666219775E+03  0.16504012408E+04  0.16216604306E+04 0.  0.
        3    1    3    3  502    0  0.10744798605E+03 -0.77336977681E+03 -0.69175255480E+02  0.78385656057E+03  0.10100000352E+00 0. -1.
       -3    1    3    3    0  502 -0.10744798605E+03  0.77336977681E+03  0.37583745323E+03  0.86654468023E+03  0.10100000352E+00 0.  1.
</event>
<event>
 5   0  0.1057872E-03  0.1606805E+04  0.7818609E-02  0.8816378E-01
        2   -1    0    0  501    0  0.00000000000E+00  0.00000000000E+00  0.11327522161E+04  0.11327522161E+04  0.25500000920E-02 0. -1.
       -2   -1    0    0    0  501  0.00000000000E+00  0.00000000000E+00 -0.56981199754E+03  0.56981199755E+03  0.25500000920E-02 0.  1.
    10030    2    1    2    0    0  0.00000000000E+00  0.00000000000E+00  0.56294021857E+03  0.17025642137E+04  0.16068052813E+04 0.  0.
        2    1    3    3  502    0 -0.52995942495E+03  0.48654301444E+03  0.66037706189E+03  0.97656487796E+03  0.25500000920E-02 0. -1.
       -2    1    3    3    0  502  0.52995942495E+03 -0.48654301444E+03 -0.97436843317E+02  0.72599933570E+03  0.25500000920E-02 0.  1.
</event>
<event>
 5   0  0.5288658E-04  0.1592664E+04  0.7818609E-02  0.8825068E-01
        1   -1    0    0  501    0  0.00000000000E+00  0.00000000000E+00  0.83118391142E+03  0.83118391144E+03  0.50400001928E-02 0. -1.
       -1   -1    0    0    0  501  0.00000000000E+00  0.00000000000E+00 -0.76294119147E+03  0.76294119148E+03  0.50400001928E-02 0.  1.
    10030    2    1    2    0    0  0.00000000000E+00  0.00000000000E+00  0.68242719956E+02  0.15941251029E+04  0.15926637357E+04 0.  0.
        1    1    3    3  502    0  0.75257399230E+03  0.71968966355E+02  0.28454544860E+03  0.80778292775E+03  0.50400001928E-02 0. -1.
       -1    1    3    3    0  502 -0.75257399230E+03 -0.71968966355E+02 -0.21630272865E+03  0.78634217517E+03  0.50400001928E-02 0.  1.
</event>
<event>
 5   0  0.1057872E-03  0.1599689E+04  0.7818609E-02  0.8820739E-01
       -2   -1    0    0    0  501  0.00000000000E+00  0.00000000000E+00  0.74227091897E+03  0.74227091898E+03  0.25500000920E-02 0.  1.
        2   -1    0    0  501    0  0.00000000000E+00  0.00000000000E+00 -0.86188422749E+03  0.86188422750E+03  0.25500000920E-02 0. -1.
    10030    2    1    2    0    0  0.00000000000E+00  0.00000000000E+00 -0.11961330852E+03  0.16041551465E+04  0.15996894669E+04 0.  0.
        2    1    3    3  502    0 -0.14453560128E+03  0.66208905411E+03  0.36623126468E+03  0.77031019391E+03  0.25500000920E-02 0.  1.
       -2    1    3    3    0  502  0.14453560128E+03 -0.66208905411E+03 -0.48584457320E+03  0.83384495257E+03  0.25500000920E-02 0. -1.
</event>
<event>
 5   0  0.1057872E-03  0.1609903E+04  0.7818609E-02  0.8814487E-01
       -2   -1    0    0    0  501  0.00000000000E+00  0.00000000000E+00  0.36851397679E+03  0.36851397680E+03  0.25500000920E-02 0. -1.
        2   -1    0    0  501    0  0.00000000000E+00  0.00000000000E+00 -0.17582695329E+04  0.17582695329E+04  0.25500000920E-02 0.  1.
    10030    2    1    2    0    0  0.00000000000E+00  0.00000000000E+00 -0.13897555561E+04  0.21267835097E+04  0.16099029758E+04 0.  0.
        2    1    3    3  502    0  0.16709093777E+03 -0.53125072427E+03  0.72931794392E+02  0.56166338688E+03  0.25500000920E-02 0. -1.
       -2    1    3    3    0  502 -0.16709093777E+03  0.53125072427E+03 -0.14626873505E+04  0.15651201228E+04  0.25500000920E-02 0.  1.
</event>
<event>
 5   0  0.5623061E-04  0.1595222E+04  0.7818609E-02  0.8823489E-01
       -1   -1    0    0    0  501  0.00000000000E+00  0.00000000000E+00  0.40821540195E+03  0.40821540198E+03  0.50400001928E-02 0.  1.
        1   -1    0    0  501    0  0.00000000000E+00  0.00000000000E+00 -0.15584500933E+04  0.15584500933E+04  0.50400001928E-02 0. -1.
    10030    2    1    2    0    0  0.00000000000E+00  0.00000000000E+00 -0.11502346913E+04  0.19666654953E+04  0.15952220300E+04 0.  0.
        3    1    3    3  502    0  0.45810996878E+03 -0.63682475800E+03 -0.75280486885E+03  0.10872560401E+04  0.10100000352E+00 0. -1.
       -3    1    3    3    0  502 -0.45810996878E+03  0.63682475800E+03 -0.39742982250E+03  0.87940945521E+03  0.10100000352E+00 0.  1.
</event>
<event>
 5   0  0.5288658E-04  0.1604026E+04  0.7818609E-02  0.8818079E-01
       -1   -1    0    0    0  501  0.00000000000E+00  0.00000000000E+00  0.12251471614E+04  0.12251471614E+04  0.50400001928E-02 0.  1.
        1   -1    0    0  501    0  0.00000000000E+00  0.00000000000E+00 -0.52501842031E+03  0.52501842033E+03  0.50400001928E-02 0. -1.
    10030    2    1    2    0    0  0.00000000000E+00  0.00000000000E+00  0.70012874106E+03  0.17501655817E+04  0.16040259690E+04 0.  0.
        1    1    3    3  502    0 -0.12938653032E+03 -0.73725887909E+03  0.35845536640E+02  0.74938403476E+03  0.50400001928E-02 0.  1.
       -1    1    3    3    0  502  0.12938653032E+03  0.73725887909E+03  0.66428320442E+03  0.10007815470E+04  0.50400001928E-02 0. -1.
</event>
<event>
 5   0  0.5623061E-04  0.1126937E+04  0.7818609E-02  0.9179327E-01
       -1   -1    0    0    0  501  0.00000000000E+00  0.00000000000E+00  0.38410176110E+03  0.38410176113E+03  0.50400001928E-02 0.  1.
        1   -1    0    0  501    0  0.00000000000E+00  0.00000000000E+00 -0.82659607583E+03  0.82659607584E+03  0.50400001928E-02 0. -1.
    10030    2    1    2    0    0  0.00000000000E+00  0.00000000000E+00 -0.44249431472E+03  0.12106978370E+04  0.11269374578E+04 0.  0.
        3    1    3    3  502    0 -0.33270797033E+03  0.44731771675E+03 -0.13324903087E+03  0.57318674764E+03  0.10100000352E+00 0. -1.
       -3    1    3    3    0  502  0.33270797033E+03 -0.44731771675E+03 -0.30924528385E+03  0.63751108933E+03  0.10100000352E+00 0.  1.
</event>
<event>
 5   0  0.5425525E-04  0.1609944E+04  0.7818609E-02  0.8814462E-01
       -1   -1    0    0    0  501  0.00000000000E+00  0.00000000000E+00  0.70114485178E+03  0.70114485180E+03  0.50400001928E-02 0.  1.
        1   -1    0    0  501    0  0.00000000000E+00  0.00000000000E+00 -0.92417417783E+03  0.92417417784E+03  0.50400001928E-02 0. -1.
    10030    2    1    2    0    0  0.00000000000E+00  0.00000000000E+00 -0.22302932604E+03  0.16253190296E+04  0.16099440574E+04 0.  0.
        5    1    3    3  502    0 -0.49295321905E+03 -0.44686137838E+03  0.34587935463E+03  0.74989504973E+03  0.46999998093E+01 0.  1.
       -5    1    3    3    0  502  0.49295321905E+03  0.44686137838E+03 -0.56890868067E+03  0.87542397991E+03  0.46999998093E+01 0. -1.
</event>
<event>
 5   0  0.5532881E-04  0.1587260E+04  0.7818609E-02  0.8828413E-01
        1   -1    0    0  501    0  0.00000000000E+00  0.00000000000E+00  0.49397689001E+03  0.49397689004E+03  0.50400001928E-02 0.  1.
       -1   -1    0    0    0  501  0.00000000000E+00  0.00000000000E+00 -0.12750572057E+04  0.12750572057E+04  0.50400001928E-02 0. -1.
    10030    2    1    2    0    0  0.00000000000E+00  0.00000000000E+00 -0.78108031565E+03  0.17690340957E+04  0.15872602724E+04 0.  0.
        4    1    3    3  502    0 -0.65942761589E+03 -0.22791332274E+03 -0.81208521897E+03  0.10706415269E+04  0.12699999809E+01 0. -1.
       -4    1    3    3    0  502  0.65942761589E+03  0.22791332274E+03  0.31004903318E+02  0.69839256884E+03  0.12699999809E+01 0.  1.
</event>
<event>
 5   0  0.5532881E-04  0.1933647E+04  0.7818609E-02  0.8638287E-01
        1   -1    0    0  501    0  0.00000000000E+00  0.00000000000E+00  0.76023603878E+03  0.76023603880E+03  0.50400001928E-02 0.  1.
       -1   -1    0    0    0  501  0.00000000000E+00  0.00000000000E+00 -0.12295488472E+04  0.12295488472E+04  0.50400001928E-02 0. -1.
    10030    2    1    2    0    0  0.00000000000E+00  0.00000000000E+00 -0.46931280844E+03  0.19897848860E+04  0.19336466535E+04 0.  0.
        4    1    3    3  502    0  0.15937560223E+03  0.51973416459E+03 -0.10573814435E+04  0.11889412578E+04  0.12699999809E+01 0. -1.
       -4    1    3    3    0  502 -0.15937560223E+03 -0.51973416459E+03  0.58806863509E+03  0.80084362825E+03  0.12699999809E+01 0.  1.
</event>
<event>
 5   0  0.1030027E-03  0.1558275E+04  0.7818609E-02  0.8846599E-01
       -2   -1    0    0    0  501  0.00000000000E+00  0.00000000000E+00  0.47066835933E+03  0.47066835933E+03  0.25500000920E-02 0. -1.
        2   -1    0    0  501    0  0.00000000000E+00  0.00000000000E+00 -0.12897732649E+04  0.12897732649E+04  0.25500000920E-02 0.  1.
    10030    2    1    2    0    0  0.00000000000E+00  0.00000000000E+00 -0.81910490556E+03  0.17604416242E+04  0.15582752857E+04 0.  0.
        1    1    3    3  502    0  0.17055556441E+03  0.33286303464E+03  0.36261982527E+03  0.52094158798E+03  0.50400001928E-02 0. -1.
       -1    1    3    3    0  502 -0.17055556441E+03 -0.33286303464E+03 -0.11817247308E+04  0.12395000363E+04  0.50400001928E-02 0.  1.
</event>
<event>
 5   0  0.9844690E-04  0.1570830E+04  0.7818609E-02  0.8838672E-01
       -2   -1    0    0    0  501  0.00000000000E+00  0.00000000000E+00  0.23429268560E+03  0.23429268561E+03  0.25500000920E-02 0.  1.
        2   -1    0    0  501    0  0.00000000000E+00  0.00000000000E+00 -0.26329309907E+04  0.26329309907E+04  0.25500000920E-02 0. -1.
    10030    2    1    2    0    0  0.00000000000E+00  0.00000000000E+00 -0.23986383051E+04  0.28672236763E+04  0.15708296825E+04 0.  0.
        3    1    3    3  502    0 -0.62903306033E+02  0.69865785754E+03 -0.18441328589E+04  0.19730447636E+04  0.10100000352E+00 0.  1.
       -3    1    3    3    0  502  0.62903306033E+02 -0.69865785754E+03 -0.55450544622E+03  0.89417891269E+03  0.10100000352E+00 0. -1.
</event>
<event>
 5   0  0.5425525E-04  0.1696485E+04  0.7818609E-02  0.8763372E-01
       -1   -1    0    0    0  501  0.00000000000E+00  0.00000000000E+00  0.75978632670E+03  0.75978632672E+03  0.50400001928E-02 0. -1.
        1   -1    0    0  501    0  0.00000000000E+00  0.00000000000E+00 -0.94699683835E+03  0.94699683837E+03  0.50400001928E-02 0.  1.
    10030    2    1    2    0    0  0.00000000000E+00  0.00000000000E+00 -0.18721051166E+03  0.17067831651E+04  0.16964848944E+04 0.  0.
        5    1    3    3  502    0  0.29196192876E+03 -0.35327769723E+03 -0.81169304651E+03  0.93215588340E+03  0.46999998093E+01 0. -1.
       -5    1    3    3    0  502 -0.29196192876E+03  0.35327769723E+03  0.62448253485E+03  0.77462728169E+03  0.46999998093E+01 0.  1.
</event>
<event>
 5   0  0.1057872E-03  0.1643585E+04  0.7818609E-02  0.8794210E-01
       -2   -1    0    0    0  501  0.00000000000E+00  0.00000000000E+00  0.12724974401E+04  0.12724974401E+04  0.25500000920E-02 0. -1.
        2   -1    0    0  501    0  0.00000000000E+00  0.00000000000E+00 -0.53072255564E+03  0.53072255565E+03  0.25500000920E-02 0.  1.
    10030    2    1    2    0    0  0.00000000000E+00  0.00000000000E+00  0.74177488444E+03  0.18032199957E+04  0.16435852195E+04 0.  0.
        2    1    3    3  502    0 -0.31516170700E+03  0.74418147962E+03  0.20738211260E+03  0.83435023629E+03  0.25500000920E-02 0. -1.
       -2    1    3    3    0  502  0.31516170700E+03 -0.74418147962E+03  0.53439277184E+03  0.96886975944E+03  0.25500000920E-02 0.  1.
</event>
<event>
 5   0  0.1000121E-03  0.1573209E+04  0.7818609E-02  0.8837178E-01
        2   -1    0    0  501    0  0.00000000000E+00  0.00000000000E+00  0.14076976322E+04  0.14076976322E+04  0.25500000920E-02 0. -1.
       -2   -1    0    0    0  501  0.00000000000E+00  0.00000000000E+00 -0.43954519775E+03  0.43954519776E+03  0.25500000920E-02 0.  1.
    10030    2    1    2    0    0  0.00000000000E+00  0.00000000000E+00  0.96815243441E+03  0.18472428299E+04  0.15732091204E+04 0.  0.
        4    1    3    3  502    0 -0.42815762846E+03 -0.65849984448E+03  0.53394977974E+03  0.94976048569E+03  0.12699999809E+01 0. -1.
       -4    1    3    3    0  502  0.42815762846E+03  0.65849984448E+03  0.43420265467E+03  0.89748234423E+03  0.12699999809E+01 0.  1.
</event>
<event>
 5   0  0.5532881E-04  0.1599244E+04  0.7818609E-02  0.8821012E-01
        1   -1    0    0  501    0  0.00000000000E+00  0.00000000000E+00  0.80051046683E+03  0.80051046685E+03  0.50400001928E-02 0. -1.
       -1   -1    0    0    0  501  0.00000000000E+00  0.00000000000E+00 -0.79873478582E+03  0.79873478584E+03  0.50400001928E-02 0.  1.
    10030    2    1    2    0    0  0.00000000000E+00  0.00000000000E+00  0.17756810096E+01  0.15992452527E+04  0.15992442669E+04 0.  0.
        4    1    3    3  502    0  0.21520800650E+03  0.87512381874E+02 -0.76424075135E+03  0.79877308541E+03  0.12699999809E+01 0.  1.
       -4    1    3    3    0  502 -0.21520800650E+03 -0.87512381874E+02  0.76601643236E+03  0.80047216728E+03  0.12699999809E+01 0. -1.
</event>
<event>
 5   0  0.1037321E-03  0.1567645E+04  0.7818609E-02  0.8840675E-01
       -2   -1    0    0    0  501  0.00000000000E+00  0.00000000000E+00  0.11546624914E+04  0.11546624914E+04  0.25500000920E-02 0.  1.
        2   -1    0    0  501    0  0.00000000000E+00  0.00000000000E+00 -0.53208441624E+03  0.53208441625E+03  0.25500000920E-02 0. -1.
    10030    2    1    2    0    0  0.00000000000E+00  0.00000000000E+00  0.62257807520E+03  0.16867469077E+04  0.15676452631E+04 0.  0.
        5    1    3    3  502    0 -0.76894310495E+03 -0.15151332930E+03  0.29920932687E+03  0.83891483411E+03  0.46999998093E+01 0.  1.
       -5    1    3    3    0  502  0.76894310495E+03  0.15151332930E+03  0.32336874833E+03  0.84783207359E+03  0.46999998093E+01 0. -1.
</event>
<event>
 5   0  0.1030027E-03  0.1583534E+04  0.7818609E-02  0.8830728E-01
        2   -1    0    0  501    0  0.00000000000E+00  0.00000000000E+00  0.15987329413E+04  0.15987329413E+04  0.25500000920E-02 0. -1.
       -2   -1    0    0    0  501  0.00000000000E+00  0.00000000000E+00 -0.39211973710E+03  0.39211973711E+03  0.25500000920E-02 0.  1.
    10030    2    1    2    0    0  0.00000000000E+00  0.00000000000E+00  0.12066132042E+04  0.19908526784E+04  0.15835336948E+04 0.  0.
        1    1    3    3  502    0 -0.82896339106E+00 -0.57128438429E+03  0.12925211472E+04  0.14131445258E+04  0.50400001928E-02 0. -1.
       -1    1    3    3    0  502  0.82896339106E+00  0.57128438429E+03 -0.85907942956E+02  0.57770815262E+03  0.50400001928E-02 0.  1.
</event>
<event>
 5   0  0.5532881E-04  0.1515719E+04  0.7818609E-02  0.8874067E-01
       -1   -1    0    0    0  501  0.00000000000E+00  0.00000000000E+00  0.61646342826E+03  0.61646342828E+03  0.50400001928E-02 0.  1.
        1   -1    0    0  501    0  0.00000000000E+00  0.00000000000E+00 -0.93168701742E+03  0.93168701744E+03  0.50400001928E-02 0. -1.
    10030    2    1    2    0    0  0.00000000000E+00  0.00000000000E+00 -0.31522358916E+03  0.15481504457E+04  0.15157189355E+04 0.  0.
        4    1    3    3  502    0 -0.22402375623E+03 -0.86140658015E+02 -0.89184086992E+03  0.92357382297E+03  0.12699999809E+01 0. -1.
       -4    1    3    3    0  502  0.22402375623E+03  0.86140658015E+02  0.57661728076E+03  0.62457662275E+03  0.12699999809E+01 0.  1.
</event>
<event>
 5   0  0.5288658E-04  0.1706615E+04  0.7818609E-02  0.8757601E-01
        1   -1    0    0  501    0  0.00000000000E+00  0.00000000000E+00  0.22682708615E+04  0.22682708615E+04  0.50400001928E-02 0. -1.
       -1   -1    0    0    0  501  0.00000000000E+00  0.00000000000E+00 -0.32100816925E+03  0.32100816929E+03  0.50400001928E-02 0.  1.
    10030    2    1    2    0    0  0.00000000000E+00  0.00000000000E+00  0.19472626922E+04  0.25892790308E+04  0.17066147505E+04 0.  0.
        1    1    3    3  502    0 -0.30068964393E+03  0.78440652213E+03  0.12008351588E+04  0.14655077388E+04  0.50400001928E-02 0.  1.
       -1    1    3    3    0  502  0.30068964393E+03 -0.78440652213E+03  0.74642753345E+03  0.11237712920E+04  0.50400001928E-02 0. -1.
</event>
<event>
 5   0  0.1000121E-03  0.1599785E+04  0.7818609E-02  0.8820680E-01
       -2   -1    0    0    0  501  0.00000000000E+00  0.00000000000E+00  0.70543211274E+03  0.70543211274E+03  0.25500000920E-02 0. -1.
        2   -1    0    0  501    0  0.00000000000E+00  0.00000000000E+00 -0.90700192878E+03  0.90700192879E+03  0.25500000920E-02 0.  1.
    10030    2    1    2    0    0  0.00000000000E+00  0.00000000000E+00 -0.20156981604E+03  0.16124340415E+04  0.15997853442E+04 0.  0.
        4    1    3    3  502    0 -0.58555046967E+03  0.29233092540E+03 -0.56431227530E+03  0.86416241496E+03  0.12699999809E+01 0.  1.
       -4    1    3    3    0  502  0.58555046967E+03 -0.29233092540E+03  0.36274245925E+03  0.74827162657E+03  0.12699999809E+01 0. -1.
</event>
<event>
 5   0  0.9844690E-04  0.1595793E+04  0.7818609E-02  0.8823136E-01
       -2   -1    0    0    0  501  0.00000000000E+00  0.00000000000E+00  0.91951408899E+03  0.91951408900E+03  0.25500000920E-02 0.  1.
        2   -1    0    0  501    0  0.00000000000E+00  0.00000000000E+00 -0.69236480077E+03  0.69236480078E+03  0.25500000920E-02 0. -1.
    10030    2    1    2    0    0  0.00000000000E+00  0.00000000000E+00  0.22714928822E+03  0.16118788898E+04  0.15957934566E+04 0.  0.
        3    1    3    3  502    0  0.19110435050E+03 -0.74559347267E+03  0.32595263076E+03  0.83586818755E+03  0.10100000352E+00 0.  1.
       -3    1    3    3    0  502 -0.19110435050E+03  0.74559347267E+03 -0.98803342541E+02  0.77601070222E+03  0.10100000352E+00 0. -1.
</event>
<event>
 5   0  0.1057872E-03  0.1555686E+04  0.7818609E-02  0.8848244E-01
       -2   -1    0    0    0  501  0.00000000000E+00  0.00000000000E+00  0.39016976921E+03  0.39016976922E+03  0.25500000920E-02 0. -1.
        2   -1    0    0  501    0  0.00000000000E+00  0.00000000000E+00 -0.15507097608E+04  0.15507097608E+04  0.25500000920E-02 0.  1.
    10030    2    1    2    0    0  0.00000000000E+00  0.00000000000E+00 -0.11605399916E+04  0.19408795300E+04  0.15556864331E+04 0.  0.
        2    1    3    3  502    0 -0.26911361636E+03  0.24058732127E+03  0.27934196232E+03  0.45643874681E+03  0.25500000920E-02 0. -1.
       -2    1    3    3    0  502  0.26911361636E+03 -0.24058732127E+03 -0.14398819539E+04  0.14844407832E+04  0.25500000920E-02 0.  1.
</event>
<event>
 5   0  0.1057872E-03  0.1426476E+04  0.7818609E-02  0.8934874E-01
        2   -1    0    0  501    0  0.00000000000E+00  0.00000000000E+00  0.43321558647E+03  0.43321558648E+03  0.25500000920E-02 0.  1.
       -2   -1    0    0    0  501  0.00000000000E+00  0.00000000000E+00 -0.11742612927E+04  0.11742612927E+04  0.25500000920E-02 0. -1.
    10030    2    1    2    0    0  0.00000000000E+00  0.00000000000E+00 -0.74104570623E+03  0.16074768792E+04  0.14264757896E+04 0.  0.
        2    1    3    3  502    0  0.11016620962E+03 -0.62311920654E+03 -0.74135966516E+03  0.97469394809E+03  0.25500000920E-02 0. -1.
       -2    1    3    3    0  502 -0.11016620962E+03  0.62311920654E+03  0.31395893271E+00  0.63278293109E+03  0.25500000920E-02 0.  1.
</event>
<event>
 5   0  0.1000121E-03  0.1609770E+04  0.7818609E-02  0.8814568E-01
       -2   -1    0    0    0  501  0.00000000000E+00  0.00000000000E+00  0.34122835545E+03  0.34122835546E+03  0.25500000920E-02 0.  1.
        2   -1    0    0  501    0  0.00000000000E+00  0.00000000000E+00 -0.18985533830E+04  0.18985533830E+04  0.25500000920E-02 0. -1.
    10030    2    1    2    0    0  0.00000000000E+00  0.00000000000E+00 -0.15573250276E+04  0.22397817385E+04  0.16097704788E+04 0.  0.
        4    1    3    3  502    0  0.37519531088E+03 -0.20081462818E+03  0.17189747642E+03  0.45896447738E+03  0.12699999809E+01 0.  1.
       -4    1    3    3    0  502 -0.37519531088E+03  0.20081462818E+03 -0.17292225040E+04  0.17808172611E+04  0.12699999809E+01 0. -1.
</event>
<event>
 5   0  0.1037321E-03  0.1600791E+04  0.7818609E-02  0.8820062E-01
        2   -1    0    0  501    0  0.00000000000E+00  0.00000000000E+00  0.11105200053E+04  0.11105200053E+04  0.25500000920E-02 0.  1.
       -2   -1    0    0    0  501  0.00000000000E+00  0.00000000000E+00 -0.57687632761E+03  0.57687632762E+03  0.25500000920E-02 0. -1.
    10030    2    1    2    0    0  0.00000000000E+00  0.00000000000E+00  0.53364367772E+03  0.16873963330E+04  0.16007906827E+04 0.  0.
        5    1    3    3  502    0  0.55278412298E+03 -0.25326720028E+03 -0.28181364171E+03  0.67019070421E+03  0.46999998093E+01 0. -1.
       -5    1    3    3    0  502 -0.55278412298E+03  0.25326720028E+03  0.81545731942E+03  0.10172056287E+04  0.46999998093E+01 0.  1.
</event>
<event>
 5   0  0.1037321E-03  0.1592303E+04  0.7818609E-02  0.8825291E-01
       -2   -1    0    0    0  501  0.00000000000E+00  0.00000000000E+00  0.92469533931E+03  0.92469533931E+03  0.25500000920E-02 0. -1.
        2   -1    0    0  501    0  0.00000000000E+00  0.00000000000E+00 -0.68547686845E+03  0.68547686846E+03  0.25500000920E-02 0.  1.
    10030    2    1    2    0    0  0.00000000000E+00  0.00000000000E+00  0.23921847086E+03  0.16101722078E+04  0.15923030685E+04 0.  0.
        5    1    3    3  502    0  0.12721796407E+03  0.62840787019E+03 -0.35765584048E+03  0.73418025847E+03  0.46999998093E+01 0.  1.
       -5    1    3    3    0  502 -0.12721796407E+03 -0.62840787019E+03  0.59687431134E+03  0.87599194930E+03  0.46999998093E+01 0. -1.
</event>
<event>
 5   0  0.9844690E-04  0.1219946E+04  0.7818609E-02  0.9095575E-01
        2   -1    0    0  501    0  0.00000000000E+00  0.00000000000E+00  0.13012309148E+04  0.13012309148E+04  0.25500000920E-02 0. -1.
       -2   -1    0    0    0  501  0.00000000000E+00  0.00000000000E+00 -0.28593464090E+03  0.28593464091E+03  0.25500000920E-02 0.  1.
    10030    2    1    2    0    0  0.00000000000E+00  0.00000000000E+00  0.10152962739E+04  0.15871655558E+04  0.12199458912E+04 0.  0.
        3    1    3    3  502    0  0.99192872160E+02  0.55636628616E+02 -0.27201842573E+03  0.29483672510E+03  0.10100000352E+00 0.  1.
       -3    1    3    3    0  502 -0.99192872160E+02 -0.55636628616E+02  0.12873146997E+04  0.12923288307E+04  0.10100000352E+00 0. -1.
</event>
<event>
 5   0  0.5288658E-04  0.1615730E+04  0.7818609E-02  0.8810942E-01
        1   -1    0    0  501    0  0.00000000000E+00  0.00000000000E+00  0.62117586340E+03  0.62117586342E+03  0.50400001928E-02 0.  1.
       -1   -1    0    0    0  501  0.00000000000E+00  0.00000000000E+00 -0.10506621959E+04  0.10506621959E+04  0.50400001928E-02 0. -1.
    10030    2    1    2    0    0  0.00000000000E+00  0.00000000000E+00 -0.42948633248E+03  0.16718380593E+04  0.16157301714E+04 0.  0.
        1    1    3    3  502    0  0.23751495431E+03 -0.47791566215E+03  0.41280709013E+03  0.67470469639E+03  0.50400001928E-02 0.  1.
       -1    1    3    3    0  502 -0.23751495431E+03  0.47791566215E+03 -0.84229342261E+03  0.99713336292E+03  0.50400001928E-02 0. -1.
</event>
<event>
 5   0  0.5288658E-04  0.1576671E+04  0.7818609E-02  0.8835010E-01
       -1   -1    0    0    0  501  0.00000000000E+00  0.00000000000E+00  0.30215333352E+03  0.30215333357E+03  0.50400001928E-02 0. -1.
        1   -1    0    0  501    0  0.00000000000E+00  0.00000000000E+00 -0.20568123387E+04  0.20568123387E+04  0.50400001928E-02 0.  1.
    10030    2    1    2    0    0  0.00000000000E+00  0.00000000000E+00 -0.17546590052E+04  0.23589656723E+04  0.15766708022E+04 0.  0.
        1    1    3    3  502    0  0.18320444384E+03 -0.18958684561E+03  0.23424001149E+03  0.35266899960E+03  0.50400001928E-02 0. -1.
       -1    1    3    3    0  502 -0.18320444384E+03  0.18958684561E+03 -0.19888990167E+04  0.20062966727E+04  0.50400001928E-02 0.  1.
</event>
<event>
 5   0  0.1057872E-03  0.1674693E+04  0.7818609E-02  0.8775931E-01
       -2   -1    0    0    0  501  0.00000000000E+00  0.00000000000E+00  0.93717094802E+03  0.93717094803E+03  0.25500000920E-02 0.  1.
        2   -1    0    0  501    0  0.00000000000E+00  0.00000000000E+00 -0.74815534917E+03  0.74815534918E+03  0.25500000920E-02 0. -1.
    10030    2    1    2    0    0  0.00000000000E+00  0.00000000000E+00  0.18901559885E+03  0.16853262972E+04  0.16746933544E+04 0.  0.
        2    1    3    3  502    0 -0.69192957218E+03 -0.12336992469E+03 -0.36353343100E+03  0.79129212472E+03  0.25500000920E-02 0. -1.
       -2    1    3    3    0  502  0.69192957218E+03  0.12336992469E+03  0.55254902985E+03  0.89403417249E+03  0.25500000920E-02 0.  1.
</event>
<event>
 5   0  0.1000121E-03  0.1485244E+04  0.7818609E-02  0.8894325E-01
        2   -1    0    0  501    0  0.00000000000E+00  0.00000000000E+00  0.27810331167E+04  0.27810331167E+04  0.25500000920E-02 0.  1.
       -2   -1    0    0    0  501  0.00000000000E+00  0.00000000000E+00 -0.19830301352E+03  0.19830301353E+03  0.25500000920E-02 0. -1.
    10030    2    1    2    0    0  0.00000000000E+00  0.00000000000E+00  0.25827301032E+04  0.29793361303E+04  0.14852437480E+04 0.  0.
        4    1    3    3  502    0 -0.17945524949E+02 -0.73922609112E+03  0.11537209877E+04  0.13703470313E+04  0.12699999809E+01 0. -1.
       -4    1    3    3    0  502  0.17945524949E+02  0.73922609112E+03  0.14290091155E+04  0.16089890990E+04  0.12699999809E+01 0.  1.
</event>
<event>
 5   0  0.5425525E-04  0.1593511E+04  0.7818609E-02  0.8824544E-01
       -1   -1    0    0    0  501  0.00000000000E+00  0.00000000000E+00  0.63639397121E+03  0.63639397123E+03  0.50400001928E-02 0. -1.
        1   -1    0    0  501    0  0.00000000000E+00  0.00000000000E+00 -0.99752589422E+03  0.99752589423E+03  0.50400001928E-02 0.  1.
    10030    2    1    2    0    0  0.00000000000E+00  0.00000000000E+00 -0.36113192301E+03  0.16339198655E+04  0.15935111738E+04 0.  0.
        5    1    3    3  502    0 -0.43912563802E+03 -0.41771066901E+02 -0.86088265855E+03  0.96732475922E+03  0.46999998093E+01 0.  1.
       -5    1    3    3    0  502  0.43912563802E+03  0.41771066901E+02  0.49975073555E+03  0.66659510625E+03  0.46999998093E+01 0. -1.
</event>
<event>
 5   0  0.3832500E-04  0.1577544E+04  0.7818609E-02  0.8834464E-01
       -3   -1    0    0    0  501  0.00000000000E+00  0.00000000000E+00  0.74530096807E+03  0.74530097492E+03  0.10100000352E+00 0.  1.
        3   -1    0    0  501    0  0.00000000000E+00  0.00000000000E+00 -0.83477818588E+03  0.83477819199E+03  0.10100000352E+00 0. -1.
    10030    2    1    2    0    0  0.00000000000E+00  0.00000000000E+00 -0.89477217804E+02  0.15800791669E+04  0.15775436606E+04 0.  0.
        1    1    3    3  502    0  0.26759919829E+03 -0.55144302345E+03 -0.54198618367E+03  0.81819787481E+03  0.50400001928E-02 0. -1.
       -1    1    3    3    0  502 -0.26759919829E+03  0.55144302345E+03  0.45250896586E+03  0.76188129209E+03  0.50400001928E-02 0.  1.
</event>
<event>
 5   0  0.1030027E-03  0.1531889E+04  0.7818609E-02  0.8863519E-01
       -2   -1    0    0    0  501  0.00000000000E+00  0.00000000000E+00  0.48189283764E+03  0.48189283765E+03  0.25500000920E-02 0. -1.
        2   -1    0    0  501    0  0.00000000000E+00  0.00000000000E+00 -0.12174309996E+04  0.12174309996E+04  0.25500000920E-02 0.  1.
    10030    2    1    2    0    0  0.00000000000E+00  0.00000000000E+00 -0.73553816200E+03  0.16993238373E+04  0.15318893943E+04 0.  0.
        1    1    3    3  502    0  0.11173361869E+03 -0.71508396497E+03 -0.64585119096E+03  0.97002744260E+03  0.50400001928E-02 0.  1.
       -1    1    3    3    0  502 -0.11173361869E+03  0.71508396497E+03 -0.89686971039E+02  0.72929639469E+03  0.50400001928E-02 0. -1.
</event>
<event>
 5   0  0.5425525E-04  0.1617551E+04  0.7818609E-02  0.8809837E-01
        1   -1    0    0  501    0  0.00000000000E+00  0.00000000000E+00  0.13474924170E+04  0.13474924170E+04  0.50400001928E-02 0.  1.
       -1   -1    0    0    0  501  0.00000000000E+00  0.00000000000E+00 -0.48543362058E+03  0.48543362061E+03  0.50400001928E-02 0. -1.
    10030    2    1    2    0    0  0.00000000000E+00  0.00000000000E+00  0.86205879641E+03  0.18329260376E+04  0.16175513874E+04 0.  0.
        5    1    3    3  502    0  0.28940263789E+03  0.74869377718E+02 -0.42052004345E+03  0.51596366875E+03  0.46999998093E+01 0. -1.
       -5    1    3    3    0  502 -0.28940263789E+03 -0.74869377718E+02  0.12825788399E+04  0.13169623689E+04  0.46999998093E+01 0.  1.
</event>
<event>
 5   0  0.5532881E-04  0.1603373E+04  0.7818609E-02  0.8818478E-01
       -1   -1    0    0    0  501  0.00000000000E+00  0.00000000000E+00  0.58114081728E+03  0.58114081731E+03  0.50400001928E-02 0. -1.
        1   -1    0    0  501    0  0.00000000000E+00  0.00000000000E+00 -0.11059305739E+04  0.11059305739E+04  0.50400001928E-02 0.  1.
    10030    2    1    2    0    0  0.00000000000E+00  0.00000000000E+00 -0.52478975664E+03  0.16870713912E+04  0.16033731913E+04 0.  0.
        4    1    3    3  502    0  0.65881300180E+03  0.11454833142E+03  0.20289217861E+03  0.69880093060E+03  0.12699999809E+01 0. -1.
       -4    1    3    3    0  502 -0.65881300180E+03 -0.11454833142E+03 -0.72768193526E+03  0.98827046064E+03  0.12699999809E+01 0.  1.
</event>
<event>
 5   0  0.5532881E-04  0.1596606E+04  0.7818609E-02  0.8822636E-01
       -1   -1    0    0    0  501  0.00000000000E+00  0.00000000000E+00  0.57571883677E+03  0.57571883679E+03  0.50400001928E-02 0. -1.
        1   -1    0    0  501    0  0.00000000000E+00  0.00000000000E+00 -0.11069428975E+04  0.11069428975E+04  0.50400001928E-02 0.  1.
    10030    2    1    2    0    0  0.00000000000E+00  0.00000000000E+00 -0.53122406073E+03  0.16826617343E+04  0.15966062474E+04 0.  0.
        4    1    3    3  502    0  0.23840720250E+03  0.60382429860E+03 -0.75524367032E+03  0.99590983138E+03  0.12699999809E+01 0.  1.
       -4    1    3    3    0  502 -0.23840720250E+03 -0.60382429860E+03  0.22401960959E+03  0.68675190292E+03  0.12699999809E+01 0. -1.
</event>
<event>
 5   0  0.5288658E-04  0.1571980E+04  0.7818609E-02  0.8837949E-01
       -1   -1    0    0    0  501  0.00000000000E+00  0.00000000000E+00  0.66745014195E+03  0.66745014197E+03  0.50400001928E-02 0.  1.
        1   -1    0    0  501    0  0.00000000000E+00  0.00000000000E+00 -0.92558219832E+03  0.92558219833E+03  0.50400001928E-02 0. -1.
    10030    2    1    2    0    0  0.00000000000E+00  0.00000000000E+00 -0.25813205636E+03  0.15930323403E+04  0.15719796051E+04 0.  0.
        1    1    3    3  502    0 -0.11175227326E+03 -0.59831922701E+03 -0.63302429580E+03  0.87817664913E+03  0.50400001928E-02 0.  1.
       -1    1    3    3    0  502  0.11175227326E+03  0.59831922701E+03  0.37489223944E+03  0.71485569117E+03  0.50400001928E-02 0. -1.
</event>
<event>
 5   0  0.5288658E-04  0.1647163E+04  0.7818609E-02  0.8792086E-01
       -1   -1    0    0    0  501  0.00000000000E+00  0.00000000000E+00  0.67151404821E+03  0.67151404823E+03  0.50400001928E-02 0. -1.
        1   -1    0    0  501    0  0.00000000000E+00  0.00000000000E+00 -0.10100857126E+04  0.10100857126E+04  0.50400001928E-02 0.  1.
    10030    2    1    2    0    0  0.00000000000E+00  0.00000000000E+00 -0.33857166434E+03  0.16815997608E+04  0.16471633142E+04 0.  0.
        1    1    3    3  502    0  0.78088716222E+03 -0.24087200065E+03 -0.64760433966E+02  0.81975483814E+03  0.50400001928E-02 0.  1.
       -1    1    3    3    0  502 -0.78088716222E+03  0.24087200065E+03 -0.27381123038E+03  0.86184492267E+03  0.50400001928E-02 0. -1.
</event>
<event>
 5   0  0.3832500E-04  0.1327686E+04  0.7818609E-02  0.9007894E-01
        4   -1    0    0  501    0  0.00000000000E+00  0.00000000000E+00  0.74211414473E+03  0.74211523142E+03  0.12699999809E+01 0. -1.
       -4   -1    0    0    0  501  0.00000000000E+00  0.00000000000E+00 -0.59382452977E+03  0.59382588783E+03  0.12699999809E+01 0.  1.
    10030    2    1    2    0    0  0.00000000000E+00  0.00000000000E+00  0.14828961495E+03  0.13359411193E+04  0.13276855291E+04 0.  0.
        5    1    3    3  502    0 -0.41683758670E+02 -0.10096607410E+03  0.73299363279E+03  0.74110285356E+03  0.46999998093E+01 0. -1.
       -5    1    3    3    0  502  0.41683758670E+02  0.10096607410E+03 -0.58470401784E+03  0.59483826569E+03  0.46999998093E+01 0.  1.
</event>
<event>
 5   0  0.5425525E-04  0.1604728E+04  0.7818609E-02  0.8817649E-01
       -1   -1    0    0    0  501  0.00000000000E+00  0.00000000000E+00  0.78237463451E+03  0.78237463452E+03  0.50400001928E-02 0.  1.
        1   -1    0    0  501    0  0.00000000000E+00  0.00000000000E+00 -0.82286422116E+03  0.82286422118E+03  0.50400001928E-02 0. -1.
    10030    2    1    2    0    0  0.00000000000E+00  0.00000000000E+00 -0.40489586653E+02  0.16052388557E+04  0.16047281319E+04 0.  0.
        5    1    3    3  502    0 -0.36264337458E+03 -0.23169286924E+03  0.65715179758E+03  0.78553318061E+03  0.46999998093E+01 0.  1.
       -5    1    3    3    0  502  0.36264337458E+03  0.23169286924E+03 -0.69764138423E+03  0.81970567509E+03  0.46999998093E+01 0. -1.
</event>
<event>
 5   0  0.9844690E-04  0.1589215E+04  0.7818609E-02  0.8827201E-01
       -2   -1    0    0    0  501  0.00000000000E+00  0.00000000000E+00  0.12984650636E+04  0.12984650636E+04  0.25500000920E-02 0.  1.
        2   -1    0    0  501    0  0.00000000000E+00  0.00000000000E+00 -0.48626710921E+03  0.48626710921E+03  0.25500000920E-02 0. -1.
    10030    2    1    2    0    0  0.00000000000E+00  0.00000000000E+00  0.81219795439E+03  0.17847321728E+04  0.15892147154E+04 0.  0.
        3    1    3    3  502    0  0.22147567181E+03  0.74839908256E+03  0.57360782291E+03  0.96859620312E+03  0.10100000352E+00 0. -1.
       -3    1    3    3    0  502 -0.22147567181E+03 -0.74839908256E+03  0.23859013148E+03  0.81613596969E+03  0.10100000352E+00 0.  1.
</event>
<event>
 5   0  0.5623061E-04  0.1602464E+04  0.7818609E-02  0.8819036E-01
        1   -1    0    0  501    0  0.00000000000E+00  0.00000000000E+00  0.10980133015E+04  0.10980133015E+04  0.50400001928E-02 0. -1.
       -1   -1    0    0    0  501  0.00000000000E+00  0.00000000000E+00 -0.58466743456E+03  0.58466743458E+03  0.50400001928E-02 0.  1.
    10030    2    1    2    0    0  0.00000000000E+00  0.00000000000E+00  0.51334586693E+03  0.16826807361E+04  0.16024638781E+04 0.  0.
        3    1    3    3  502    0  0.62687919395E+03 -0.23718617244E+03  0.71766869168E+03  0.98197920824E+03  0.10100000352E+00 0. -1.
       -3    1    3    3    0  502 -0.62687919395E+03  0.23718617244E+03 -0.20432282474E+03  0.70070152784E+03  0.10100000352E+00 0.  1.
</event>
<event>
 5   0  0.5281116E-04  0.1783983E+04  0.7818609E-02  0.8714864E-01
       -1   -1    0    0    0  501  0.00000000000E+00  0.00000000000E+00  0.14567865913E+04  0.14567865913E+04  0.50400001928E-02 0.  1.
        1   -1    0    0  501    0  0.00000000000E+00  0.00000000000E+00 -0.54616676235E+03  0.54616676238E+03  0.50400001928E-02 0. -1.
    10030    2    1    2    0    0  0.00000000000E+00  0.00000000000E+00  0.91061982890E+03  0.20029533536E+04  0.17839825291E+04 0.  0.
        2    1    3    3  502    0  0.65530560162E+03  0.48388367916E+03  0.47274309790E+02  0.81596795700E+03  0.25500000920E-02 0.  1.
       -2    1    3    3    0  502 -0.65530560162E+03 -0.48388367916E+03  0.86334551911E+03  0.11869853966E+04  0.25500000920E-02 0. -1.
</event>
<event>
 5   0  0.1037321E-03  0.1598563E+04  0.7818609E-02  0.8821431E-01
        2   -1    0    0  501    0  0.00000000000E+00  0.00000000000E+00  0.76123245225E+03  0.76123245226E+03  0.25500000920E-02 0.  1.
       -2   -1    0    0    0  501  0.00000000000E+00  0.00000000000E+00 -0.83923272512E+03  0.83923272512E+03  0.25500000920E-02 0. -1.
    10030    2    1    2    0    0  0.00000000000E+00  0.00000000000E+00 -0.78000272864E+02  0.16004651774E+04  0.15985633367E+04 0.  0.
        5    1    3    3  502    0 -0.62592000294E+02  0.79676652253E+03 -0.47638577959E+02  0.80065359178E+03  0.46999998093E+01 0. -1.
       -5    1    3    3    0  502  0.62592000294E+02 -0.79676652253E+03 -0.30361694905E+02  0.79981158559E+03  0.46999998093E+01 0.  1.
</event>
<event>
 5   0  0.9844690E-04  0.1584189E+04  0.7818609E-02  0.8830321E-01
       -2   -1    0    0    0  501  0.00000000000E+00  0.00000000000E+00  0.13410904358E+04  0.13410904358E+04  0.25500000920E-02 0. -1.
        2   -1    0    0  501    0  0.00000000000E+00  0.00000000000E+00 -0.46783827685E+03  0.46783827686E+03  0.25500000920E-02 0.  1.
    10030    2    1    2    0    0  0.00000000000E+00  0.00000000000E+00  0.87325215894E+03  0.18089287127E+04  0.15841886739E+04 0.  0.
        3    1    3    3  502    0 -0.20521532233E+01  0.15765558799E+03  0.13229909003E+04  0.13323529669E+04  0.10100000352E+00 0. -1.
       -3    1    3    3    0  502  0.20521532233E+01 -0.15765558799E+03 -0.44973874140E+03  0.47657574579E+03  0.10100000352E+00 0.  1.
</event>
<event>
 5   0  0.5288658E-04  0.1677385E+04  0.7818609E-02  0.8774369E-01
        1   -1    0    0  501    0  0.00000000000E+00  0.00000000000E+00  0.14392301647E+04  0.14392301647E+04  0.50400001928E-02 0.  1.
       -1   -1    0    0    0  501  0.00000000000E+00  0.00000000000E+00 -0.48873702198E+03  0.48873702201E+03  0.50400001928E-02 0. -1.
    10030    2    1    2    0    0  0.00000000000E+00  0.00000000000E+00  0.95049314270E+03  0.19279671867E+04  0.16773849465E+04 0.  0.
        1    1    3    3  502    0 -0.68153974705E+03  0.48662939542E+03  0.42256908175E+03  0.93801344563E+03  0.50400001928E-02 0. -1.
       -1    1    3    3    0  502  0.68153974705E+03 -0.48662939542E+03  0.52792406095E+03  0.98995374107E+03  0.50400001928E-02 0.  1.
</event>
<event>
 5   0  0.1000121E-03  0.1017593E+04  0.7818609E-02  0.9289457E-01
        2   -1    0    0  501    0  0.00000000000E+00  0.00000000000E+00  0.27677849645E+03  0.27677849647E+03  0.25500000920E-02 0.  1.
       -2   -1    0    0    0  501  0.00000000000E+00  0.00000000000E+00 -0.93531038411E+03  0.93531038411E+03  0.25500000920E-02 0. -1.
    10030    2    1    2    0    0  0.00000000000E+00  0.00000000000E+00 -0.65853188766E+03  0.12120888806E+04  0.10175928495E+04 0.  0.
        4    1    3    3  502    0 -0.29871004561E+03  0.24820718458E+03 -0.72078063909E+03  0.81875566588E+03  0.12699999809E+01 0. -1.
       -4    1    3    3    0  502  0.29871004561E+03 -0.24820718458E+03  0.62248751432E+02  0.39333321470E+03  0.12699999809E+01 0.  1.
</event>
<event>
 5   0  0.1030027E-03  0.1611242E+04  0.7818609E-02  0.8813671E-01
        2   -1    0    0  501    0  0.00000000000E+00  0.00000000000E+00  0.43101437945E+03  0.43101437945E+03  0.25500000920E-02 0. -1.
       -2   -1    0    0    0  501  0.00000000000E+00  0.00000000000E+00 -0.15058087356E+04  0.15058087356E+04  0.25500000920E-02 0.  1.
    10030    2    1    2    0    0  0.00000000000E+00  0.00000000000E+00 -0.10747943561E+04  0.19368231150E+04  0.16112420274E+04 0.  0.
        1    1    3    3  502    0 -0.52558614906E+03  0.35486371055E+03  0.59845957156E+02  0.63698555067E+03  0.50400001928E-02 0. -1.
       -1    1    3    3    0  502  0.52558614906E+03 -0.35486371055E+03 -0.11346403133E+04  0.12998375643E+04  0.50400001928E-02 0.  1.
</event>
<event>
 5   0  0.9844690E-04  0.1126819E+04  0.7818609E-02  0.9179439E-01
        2   -1    0    0  501    0  0.00000000000E+00  0.00000000000E+00  0.48570968505E+03  0.48570968506E+03  0.25500000920E-02 0. -1.
       -2   -1    0    0    0  501  0.00000000000E+00  0.00000000000E+00 -0.65353927147E+03  0.65353927147E+03  0.25500000920E-02 0.  1.
    10030    2    1    2    0    0  0.00000000000E+00  0.00000000000E+00 -0.16782958641E+03  0.11392489565E+04  0.11268191580E+04 0.  0.
        3    1    3    3  502    0 -0.38650385002E+03 -0.61823348797E+02  0.32579976527E+03  0.50926697300E+03  0.10100000352E+00 0. -1.
       -3    1    3    3    0  502  0.38650385002E+03  0.61823348797E+02 -0.49362935168E+03  0.62998198354E+03  0.10100000352E+00 0.  1.
</event>
<event>
 5   0  0.5425525E-04  0.1621506E+04  0.7818609E-02  0.8807444E-01
       -1   -1    0    0    0  501  0.00000000000E+00  0.00000000000E+00  0.11851230265E+04  0.11851230265E+04  0.50400001928E-02 0.  1.
        1   -1    0    0  501    0  0.00000000000E+00  0.00000000000E+00 -0.55464326536E+03  0.55464326539E+03  0.50400001928E-02 0. -1.
    10030    2    1    2    0    0  0.00000000000E+00  0.00000000000E+00  0.63047976109E+03  0.17397662919E+04  0.16215060965E+04 0.  0.
        5    1    3    3  502    0 -0.56504177974E+03 -0.55488590709E+03  0.50147272243E+03  0.93737269220E+03  0.46999998093E+01 0.  1.
       -5    1    3    3    0  502  0.56504177974E+03  0.55488590709E+03  0.12900703866E+03  0.80239359965E+03  0.46999998093E+01 0. -1.
</event>
<event>
 5   0  0.5281116E-04  0.1604419E+04  0.7818609E-02  0.8817838E-01
       -1   -1    0    0    0  501  0.00000000000E+00  0.00000000000E+00  0.28650851129E+03  0.28650851133E+03  0.50400001928E-02 0. -1.
        1   -1    0    0  501    0  0.00000000000E+00  0.00000000000E+00 -0.22461458466E+04  0.22461458467E+04  0.50400001928E-02 0.  1.
    10030    2    1    2    0    0  0.00000000000E+00  0.00000000000E+00 -0.19596373354E+04  0.25326543580E+04  0.16044187767E+04 0.  0.
        2    1    3    3  502    0 -0.53964629569E+03  0.16464205337E+03 -0.18800276049E+04  0.19628624316E+04  0.25500000920E-02 0.  1.
       -2    1    3    3    0  502  0.53964629569E+03 -0.16464205337E+03 -0.79609730470E+02  0.56979192640E+03  0.25500000920E-02 0. -1.
</event>
<event>
 5   0  0.5288658E-04  0.1719403E+04  0.7818609E-02  0.8750375E-01
       -1   -1    0    0    0  501  0.00000000000E+00  0.00000000000E+00  0.45204837611E+03  0.45204837613E+03  0.50400001928E-02 0.  1.
        1   -1    0    0  501    0  0.00000000000E+00  0.00000000000E+00 -0.16349725862E+04  0.16349725862E+04  0.50400001928E-02 0. -1.
    10030    2    1    2    0    0  0.00000000000E+00  0.00000000000E+00 -0.11829242101E+04  0.20870209624E+04  0.17194030390E+04 0.  0.
        1    1    3    3  502    0  0.73075898738E+03 -0.16934173082E+03 -0.11012624374E+04  0.13324654875E+04  0.50400001928E-02 0. -1.
       -1    1    3    3    0  502 -0.73075898738E+03  0.16934173082E+03 -0.81661772707E+02  0.75455547482E+03  0.50400001928E-02 0.  1.
</event>
<event>
 5   0  0.1057872E-03  0.1577922E+04  0.7818609E-02  0.8834227E-01
        2   -1    0    0  501    0  0.00000000000E+00  0.00000000000E+00  0.78388897666E+03  0.78388897666E+03  0.25500000920E-02 0.  1.
       -2   -1    0    0    0  501  0.00000000000E+00  0.00000000000E+00 -0.79406608622E+03  0.79406608622E+03  0.25500000920E-02 0. -1.
    10030    2    1    2    0    0  0.00000000000E+00  0.00000000000E+00 -0.10177109560E+02  0.15779550629E+04  0.15779222436E+04 0.  0.
        2    1    3    3  502    0 -0.45052090731E+03  0.36563306963E+03  0.52952804726E+03  0.78552949172E+03  0.25500000920E-02 0.  1.
       -2    1    3    3    0  502  0.45052090731E+03 -0.36563306963E+03 -0.53970515682E+03  0.79242557116E+03  0.25500000920E-02 0. -1.
</event>
<event>
 5   0  0.1000121E-03  0.1565309E+04  0.7818609E-02  0.8842148E-01
       -2   -1    0    0    0  501  0.00000000000E+00  0.00000000000E+00  0.78826721946E+03  0.78826721947E+03  0.25500000920E-02 0.  1.
        2   -1    0    0  501    0  0.00000000000E+00  0.00000000000E+00 -0.77708193458E+03  0.77708193459E+03  0.25500000920E-02 0. -1.
    10030    2    1    2    0    0  0.00000000000E+00  0.00000000000E+00  0.11185284881E+02  0.15653491541E+04  0.15653091910E+04 0.  0.
        4    1    3    3  502    0  0.75717290985E+03 -0.14548935967E+03 -0.12883040764E+03  0.78171405004E+03  0.12699999809E+01 0.  1.
       -4    1    3    3    0  502 -0.75717290985E+03  0.14548935967E+03  0.14001569252E+03  0.78363510402E+03  0.12699999809E+01 0. -1.
</event>
<event>
 5   0  0.5281116E-04  0.1606078E+04  0.7818609E-02  0.8816822E-01
       -1   -1    0    0    0  501  0.00000000000E+00  0.00000000000E+00  0.31133581708E+03  0.31133581712E+03  0.50400001928E-02 0. -1.
        1   -1    0    0  501    0  0.00000000000E+00  0.00000000000E+00 -0.20713067974E+04  0.20713067974E+04  0.50400001928E-02 0.  1.
    10030    2    1    2    0    0  0.00000000000E+00  0.00000000000E+00 -0.17599709803E+04  0.23826426145E+04  0.16060784467E+04 0.  0.
        2    1    3    3  502    0  0.63512207219E+03  0.46971424041E+03 -0.66571897815E+03  0.10330504693E+04  0.25500000920E-02 0. -1.
       -2    1    3    3    0  502 -0.63512207219E+03 -0.46971424041E+03 -0.10942520022E+04  0.13495921452E+04  0.25500000920E-02 0.  1.
</event>
<event>
 5   0  0.5425525E-04  0.1605150E+04  0.7818609E-02  0.8817391E-01
       -1   -1    0    0    0  501  0.00000000000E+00  0.00000000000E+00  0.99070460248E+03  0.99070460249E+03  0.50400001928E-02 0.  1.
        1   -1    0    0  501    0  0.00000000000E+00  0.00000000000E+00 -0.65017008186E+03  0.65017008188E+03  0.50400001928E-02 0. -1.
    10030    2    1    2    0    0  0.00000000000E+00  0.00000000000E+00  0.34053452063E+03  0.16408746844E+04  0.16051498279E+04 0.  0.
        5    1    3    3  502    0 -0.21913616908E+02  0.67144527605E+03 -0.27857831725E+03  0.72728738074E+03  0.46999998093E+01 0. -1.
       -5    1    3    3    0  502  0.21913616908E+02 -0.67144527605E+03  0.61911283787E+03  0.91358730363E+03  0.46999998093E+01 0.  1.
</event>
<event>
 5   0  0.5281116E-04  0.1565180E+04  0.7818609E-02  0.8842230E-01
        1   -1    0    0  501    0  0.00000000000E+00  0.00000000000E+00  0.11054250280E+04  0.11054250280E+04  0.50400001928E-02 0. -1.
       -1   -1    0    0    0  501  0.00000000000E+00  0.00000000000E+00 -0.55403757976E+03  0.55403757979E+03  0.50400001928E-02 0.  1.
    10030    2    1    2    0    0  0.00000000000E+00  0.00000000000E+00  0.55138744827E+03  0.16594626078E+04  0.15651798710E+04 0.  0.
        2    1    3    3  502    0 -0.59394199002E+03 -0.50934974861E+03  0.25917464880E+03  0.82424253258E+03  0.25500000920E-02 0. -1.
       -2    1    3    3    0  502  0.59394199002E+03  0.50934974861E+03  0.29221279947E+03  0.83522007525E+03  0.25500000920E-02 0.  1.
</event>
<event>
 5   0  0.3832500E-04  0.1575114E+04  0.7818609E-02  0.8835984E-01
       -3   -1    0    0    0  501  0.00000000000E+00  0.00000000000E+00  0.61328268289E+03  0.61328269121E+03  0.10100000352E+00 0. -1.
        3   -1    0    0  501    0  0.00000000000E+00  0.00000000000E+00 -0.10113536188E+04  0.10113536239E+04  0.10100000352E+00 0.  1.
    10030    2    1    2    0    0  0.00000000000E+00  0.00000000000E+00 -0.39807093592E+03  0.16246363151E+04  0.15751135471E+04 0.  0.
        4    1    3    3  502    0  0.27853718149E+03 -0.80331311888E+02 -0.95432058228E+03  0.99737929987E+03  0.12699999809E+01 0.  1.
       -4    1    3    3    0  502 -0.27853718149E+03  0.80331311888E+02  0.55624964636E+03  0.62725701520E+03  0.12699999809E+01 0. -1.
</event>
<event>
 5   0  0.1057872E-03  0.1644669E+04  0.7818609E-02  0.8793566E-01
       -2   -1    0    0    0  501  0.00000000000E+00  0.00000000000E+00  0.72995810414E+03  0.72995810415E+03  0.25500000920E-02 0.  1.
        2   -1    0    0  501    0  0.00000000000E+00  0.00000000000E+00 -0.92640116654E+03  0.92640116654E+03  0.25500000920E-02 0. -1.
    10030    2    1    2    0    0  0.00000000000E+00  0.00000000000E+00 -0.19644306239E+03  0.16563592707E+04  0.16446690113E+04 0.  0.
        2    1    3    3  502    0 -0.80187156736E+03 -0.53107393120E+02  0.77418888502E+02  0.80734880321E+03  0.25500000920E-02 0. -1.
       -2    1    3    3    0  502  0.80187156736E+03  0.53107393120E+02 -0.27386195089E+03  0.84901046748E+03  0.25500000920E-02 0.  1.
</event>
<event>
 5   0  0.9844690E-04  0.1547949E+04  0.7818609E-02  0.8853179E-01
        2   -1    0    0  501    0  0.00000000000E+00  0.00000000000E+00  0.63540007951E+03  0.63540007952E+03  0.25500000920E-02 0.  1.
       -2   -1    0    0    0  501  0.00000000000E+00  0.00000000000E+00 -0.94277054539E+03  0.94277054539E+03  0.25500000920E-02 0. -1.
    10030    2    1    2    0    0  0.00000000000E+00  0.00000000000E+00 -0.30737046588E+03  0.15781706249E+04  0.15479489391E+04 0.  0.
        3    1    3    3  502    0  0.45632218634E+03  0.51588660787E+03 -0.51366162381E+03  0.85919567266E+03  0.10100000352E+00 0. -1.
       -3    1    3    3    0  502 -0.45632218634E+03 -0.51588660787E+03  0.20629115794E+03  0.71897495226E+03  0.10100000352E+00 0.  1.
</event>
<event>
 5   0  0.1057872E-03  0.1622687E+04  0.7818609E-02  0.8806731E-01
       -2   -1    0    0    0  501  0.00000000000E+00  0.00000000000E+00  0.61780749120E+03  0.61780749121E+03  0.25500000920E-02 0. -1.
        2   -1    0    0  501    0  0.00000000000E+00  0.00000000000E+00 -0.10655068315E+04  0.10655068315E+04  0.25500000920E-02 0.  1.
    10030    2    1    2    0    0  0.00000000000E+00  0.00000000000E+00 -0.44769934029E+03  0.16833143227E+04  0.16226867873E+04 0.  0.
        2    1    3    3  502    0 -0.36412827799E+03 -0.44311505268E+03 -0.81917077021E+03  0.99999055171E+03  0.25500000920E-02 0.  1.
       -2    1    3    3    0  502  0.36412827799E+03  0.44311505268E+03  0.37147142992E+03  0.68332377099E+03  0.25500000920E-02 0. -1.
</event>
<event>
 5   0  0.5623061E-04  0.1548135E+04  0.7818609E-02  0.8853060E-01
       -1   -1    0    0    0  501  0.00000000000E+00  0.00000000000E+00  0.97975926098E+03  0.97975926099E+03  0.50400001928E-02 0. -1.
        1   -1    0    0  501    0  0.00000000000E+00  0.00000000000E+00 -0.61155864807E+03  0.61155864809E+03  0.50400001928E-02 0.  1.
    10030    2    1    2    0    0  0.00000000000E+00  0.00000000000E+00  0.36820061291E+03  0.15913179091E+04  0.15481346829E+04 0.  0.
        3    1    3    3  502    0 -0.73599251405E+03 -0.23482233837E+03  0.13423180611E+03  0.78412033471E+03  0.10100000352E+00 0. -1.
       -3    1    3    3    0  502  0.73599251405E+03  0.23482233837E+03  0.23396880679E+03  0.80719757438E+03  0.10100000352E+00 0.  1.
</event>
<event>
 5   0  0.5425525E-04  0.1574389E+04  0.7818609E-02  0.8836438E-01
       -1   -1    0    0    0  501  0.00000000000E+00  0.00000000000E+00  0.64961895216E+03  0.64961895218E+03  0.50400001928E-02 0. -1.
        1   -1    0    0  501    0  0.00000000000E+00  0.00000000000E+00 -0.95390536192E+03  0.95390536193E+03  0.50400001928E-02 0.  1.
    10030    2    1    2    0    0  0.00000000000E+00  0.00000000000E+00 -0.30428640975E+03  0.16035243141E+04  0.15743887724E+04 0.  0.
        5    1    3    3  502    0 -0.44772850136E+03  0.12830397629E+03  0.49421112021E+03  0.67910930092E+03  0.46999998093E+01 0. -1.
       -5    1    3    3    0  502  0.44772850136E+03 -0.12830397629E+03 -0.79849752996E+03  0.92441501319E+03  0.46999998093E+01 0.  1.
</event>
<event>
 5   0  0.1037321E-03  0.1977232E+04  0.7818609E-02  0.8617340E-01
        2   -1    0    0  501    0  0.00000000000E+00  0.00000000000E+00  0.16457212695E+04  0.16457212695E+04  0.25500000920E-02 0.  1.
       -2   -1    0    0    0  501  0.00000000000E+00  0.00000000000E+00 -0.59388024496E+03  0.59388024496E+03  0.25500000920E-02 0. -1.
    10030    2    1    2    0    0  0.00000000000E+00  0.00000000000E+00  0.10518410245E+04  0.22396015144E+04  0.19772317524E+04 0.  0.
        5    1    3    3  502    0  0.50387909750E+03  0.83816244196E+03  0.68978533040E+03  0.11967607597E+04  0.46999998093E+01 0.  1.
       -5    1    3    3    0  502 -0.50387909750E+03 -0.83816244196E+03  0.36205569412E+03  0.10428407547E+04  0.46999998093E+01 0. -1.
</event>
<event>
 5   0  0.5425525E-04  0.1524280E+04  0.7818609E-02  0.8868465E-01
        1   -1    0    0  501    0  0.00000000000E+00  0.00000000000E+00  0.10097478182E+04  0.10097478182E+04  0.50400001928E-02 0.  1.
       -1   -1    0    0    0  501  0.00000000000E+00  0.00000000000E+00 -0.57525021607E+03  0.57525021610E+03  0.50400001928E-02 0. -1.
    10030    2    1    2    0    0  0.00000000000E+00  0.00000000000E+00  0.43449760210E+03  0.15849980343E+04  0.15242803556E+04 0.  0.
        5    1    3    3  502    0 -0.66971448706E+03 -0.35974513041E+03  0.27326011100E+03  0.80785347143E+03  0.46999998093E+01 0.  1.
       -5    1    3    3    0  502  0.66971448706E+03  0.35974513041E+03  0.16123749110E+03  0.77714456285E+03  0.46999998093E+01 0. -1.
</event>
<event>
 5   0  0.5281116E-04  0.1612710E+04  0.7818609E-02  0.8812777E-01
        1   -1    0    0  501    0  0.00000000000E+00  0.00000000000E+00  0.57768743065E+03  0.57768743067E+03  0.50400001928E-02 0. -1.
       -1   -1    0    0    0  501  0.00000000000E+00  0.00000000000E+00 -0.11255372992E+04  0.11255372992E+04  0.50400001928E-02 0.  1.
    10030    2    1    2    0    0  0.00000000000E+00  0.00000000000E+00 -0.54784986851E+03  0.17032247298E+04  0.16127104520E+04 0.  0.
        2    1    3    3  502    0 -0.15146184513E+03  0.47278455986E+03  0.39714527484E+03  0.63575962431E+03  0.25500000920E-02 0. -1.
       -2    1    3    3    0  502  0.15146184513E+03 -0.47278455986E+03 -0.94499514334E+03  0.10674651055E+04  0.25500000920E-02 0.  1.
</event>
<event>
 5   0  0.1037321E-03  0.1648364E+04  0.7818609E-02  0.8791375E-01
        2   -1    0    0  501    0  0.00000000000E+00  0.00000000000E+00  0.52778431526E+03  0.52778431527E+03  0.25500000920E-02 0. -1.
       -2   -1    0    0    0  501  0.00000000000E+00  0.00000000000E+00 -0.12870334044E+04  0.12870334044E+04  0.25500000920E-02 0.  1.
    10030    2    1    2    0    0  0.00000000000E+00  0.00000000000E+00 -0.75924908913E+03  0.18148177197E+04  0.16483640909E+04 0.  0.
        5    1    3    3  502    0 -0.63560325771E+03 -0.48257998862E+03 -0.60627430089E+03  0.10022302952E+04  0.46999998093E+01 0. -1.
       -5    1    3    3    0  502  0.63560325771E+03  0.48257998862E+03 -0.15297478824E+03  0.81258742450E+03  0.46999998093E+01 0.  1.
</event>
<event>
 5   0  0.5288658E-04  0.1186631E+04  0.7818609E-02  0.9124639E-01
        1   -1    0    0  501    0  0.00000000000E+00  0.00000000000E+00  0.54556029220E+03  0.54556029222E+03  0.50400001928E-02 0.  1.
       -1   -1    0    0    0  501  0.00000000000E+00  0.00000000000E+00 -0.64525101011E+03  0.64525101013E+03  0.50400001928E-02 0. -1.
    10030    2    1    2    0    0  0.00000000000E+00  0.00000000000E+00 -0.99690717913E+02  0.11908113024E+04  0.11866310794E+04 0.  0.
        1    1    3    3  502    0 -0.48078211007E+03  0.30653581090E+03 -0.21445885101E+03  0.60918653919E+03  0.50400001928E-02 0. -1.
       -1    1    3    3    0  502  0.48078211007E+03 -0.30653581090E+03  0.11476813310E+03  0.58162476317E+03  0.50400001928E-02 0.  1.
</event>
<event>
 5   0  0.9844690E-04  0.1599317E+04  0.7818609E-02  0.8820968E-01
        2   -1    0    0  501    0  0.00000000000E+00  0.00000000000E+00  0.15321181152E+04  0.15321181152E+04  0.25500000920E-02 0. -1.
       -2   -1    0    0    0  501  0.00000000000E+00  0.00000000000E+00 -0.41736596935E+03  0.41736596935E+03  0.25500000920E-02 0.  1.
    10030    2    1    2    0    0  0.00000000000E+00  0.00000000000E+00  0.11147521459E+04  0.19494840846E+04  0.15993173073E+04 0.  0.
        3    1    3    3  502    0  0.61468219767E+03  0.39538600822E+03  0.95290468302E+03  0.12009128381E+04  0.10100000352E+00 0. -1.
       -3    1    3    3    0  502 -0.61468219767E+03 -0.39538600822E+03  0.16184746288E+03  0.74857124648E+03  0.10100000352E+00 0.  1.
</event>
<event>
 5   0  0.1030027E-03  0.1578725E+04  0.7818609E-02  0.8833726E-01
        2   -1    0    0  501    0  0.00000000000E+00  0.00000000000E+00  0.68068658766E+03  0.68068658766E+03  0.25500000920E-02 0. -1.
       -2   -1    0    0    0  501  0.00000000000E+00  0.00000000000E+00 -0.91538937354E+03  0.91538937355E+03  0.25500000920E-02 0.  1.
    10030    2    1    2    0    0  0.00000000000E+00  0.00000000000E+00 -0.23470278588E+03  0.15960759612E+04  0.15787251427E+04 0.  0.
        1    1    3    3  502    0  0.26532674710E+03  0.18807405425E+03 -0.84450804606E+03  0.90496628252E+03  0.50400001928E-02 0.  1.
       -1    1    3    3    0  502 -0.26532674710E+03 -0.18807405425E+03  0.60980526018E+03  0.69110967869E+03  0.50400001928E-02 0. -1.
</event>
<event>
 5   0  0.9844690E-04  0.1646156E+04  0.7818609E-02  0.8792684E-01
        2   -1    0    0  501    0  0.00000000000E+00  0.00000000000E+00  0.21068313242E+04  0.21068313242E+04  0.25500000920E-02 0. -1.
       -2   -1    0    0    0  501  0.00000000000E+00  0.00000000000E+00 -0.32155286855E+03  0.32155286856E+03  0.25500000920E-02 0.  1.
    10030    2    1    2    0    0  0.00000000000E+00  0.00000000000E+00  0.17852784557E+04  0.24283841928E+04  0.16461563181E+04 0.  0.
        3    1    3    3  502    0  0.44664547652E+03  0.51142201635E+03  0.15788981153E+04  0.17187099608E+04  0.10100000352E+00 0. -1.
       -3    1    3    3    0  502 -0.44664547652E+03 -0.51142201635E+03  0.20638034037E+03  0.70967423203E+03  0.10100000352E+00 0.  1.
</event>
<event>
 5   0  0.3832500E-04  0.1616366E+04  0.7818609E-02  0.8810556E-01
        4   -1    0    0  501    0  0.00000000000E+00  0.00000000000E+00  0.93562785922E+03  0.93562872116E+03  0.12699999809E+01 0.  1.
       -4   -1    0    0    0  501  0.00000000000E+00  0.00000000000E+00 -0.69809619694E+03  0.69809735215E+03  0.12699999809E+01 0. -1.
    10030    2    1    2    0    0  0.00000000000E+00  0.00000000000E+00  0.23753166229E+03  0.16337260733E+04  0.16163661689E+04 0.  0.
        5    1    3    3  502    0  0.11444595684E+03 -0.78616936707E+03 -0.31075004485E+02  0.79507728974E+03  0.46999998093E+01 0. -1.
       -5    1    3    3    0  502 -0.11444595684E+03  0.78616936707E+03  0.26860666677E+03  0.83864878357E+03  0.46999998093E+01 0.  1.
</event>
<event>
 5   0  0.1000121E-03  0.1547170E+04  0.7818609E-02  0.8853678E-01
       -2   -1    0    0    0  501  0.00000000000E+00  0.00000000000E+00  0.72820193125E+03  0.72820193125E+03  0.25500000920E-02 0. -1.
        2   -1    0    0  501    0  0.00000000000E+00  0.00000000000E+00 -0.82179596058E+03  0.82179596058E+03  0.25500000920E-02 0.  1.
    10030    2    1    2    0    0  0.00000000000E+00  0.00000000000E+00 -0.93594029331E+02  0.15499978918E+04  0.15471695519E+04 0.  0.
        4    1    3    3  502    0 -0.65009704015E+03  0.35043988683E+03  0.18383572507E+03  0.76107257381E+03  0.12699999809E+01 0. -1.
       -4    1    3    3    0  502  0.65009704015E+03 -0.35043988683E+03 -0.27742975440E+03  0.78892531802E+03  0.12699999809E+01 0.  1.
</event>
<event>
 5   0  0.5425525E-04  0.1601124E+04  0.7818609E-02  0.8819858E-01
        1   -1    0    0  501    0  0.00000000000E+00  0.00000000000E+00  0.17599139908E+04  0.17599139908E+04  0.50400001928E-02 0.  1.
       -1   -1    0    0    0  501  0.00000000000E+00  0.00000000000E+00 -0.36416538823E+03  0.36416538826E+03  0.50400001928E-02 0. -1.
    10030    2    1    2    0    0  0.00000000000E+00  0.00000000000E+00  0.13957486026E+04  0.21240793791E+04  0.16011243072E+04 0.  0.
        5    1    3    3  502    0  0.49707336530E+03  0.61455151010E+03  0.52942950028E+03  0.95135333858E+03  0.46999998093E+01 0. -1.
       -5    1    3    3    0  502 -0.49707336530E+03 -0.61455151010E+03  0.86631910228E+03  0.11727260405E+04  0.46999998093E+01 0.  1.
</event>
<event>
 5   0  0.3832500E-04  0.1604745E+04  0.7818609E-02  0.8817638E-01
        4   -1    0    0  501    0  0.00000000000E+00  0.00000000000E+00  0.64412164482E+03  0.64412289683E+03  0.12699999809E+01 0.  1.
       -4   -1    0    0    0  501  0.00000000000E+00  0.00000000000E+00 -0.99950048822E+03  0.99950129507E+03  0.12699999809E+01 0. -1.
    10030    2    1    2    0    0  0.00000000000E+00  0.00000000000E+00 -0.35537884340E+03  0.16436241919E+04  0.16047449523E+04 0.  0.
        4    1    3    3  502    0 -0.77100693277E+03  0.85026263022E+02 -0.38789034221E+03  0.86726102545E+03  0.12699999809E+01 0.  1.
       -4    1    3    3    0  502  0.77100693277E+03 -0.85026263022E+02  0.32511498808E+02  0.77636316646E+03  0.12699999809E+01 0. -1.
</event>
<event>
 5   0  0.3832500E-04  0.1558728E+04  0.7818609E-02  0.8846312E-01
       -3   -1    0    0    0  501  0.00000000000E+00  0.00000000000E+00  0.37715657475E+03  0.37715658828E+03  0.10100000352E+00 0.  1.
        3   -1    0    0  501    0  0.00000000000E+00  0.00000000000E+00 -0.16104933877E+04  0.16104933909E+04  0.10100000352E+00 0. -1.
    10030    2    1    2    0    0  0.00000000000E+00  0.00000000000E+00 -0.12333368129E+04  0.19876499791E+04  0.15587279254E+04 0.  0.
        2    1    3    3  502    0 -0.14959607423E+03 -0.66247420574E+03 -0.11041739877E+04  0.12963222030E+04  0.25500000920E-02 0. -1.
       -2    1    3    3    0  502  0.14959607423E+03  0.66247420574E+03 -0.12916282521E+03  0.69132777618E+03  0.25500000920E-02 0.  1.
</event>
<event>
 5   0  0.5281116E-04  0.1244046E+04  0.7818609E-02  0.9075154E-01
        1   -1    0    0  501    0  0.00000000000E+00  0.00000000000E+00  0.91946907848E+03  0.91946907850E+03  0.50400001928E-02 0. -1.
       -1   -1    0    0    0  501  0.00000000000E+00  0.00000000000E+00 -0.42079971906E+03  0.42079971909E+03  0.50400001928E-02 0.  1.
    10030    2    1    2    0    0  0.00000000000E+00  0.00000000000E+00  0.49866935942E+03  0.13402687976E+04  0.12440455457E+04 0.  0.
        2    1    3    3  502    0 -0.34135697446E+03  0.30658989407E+02  0.80856785247E+03  0.87820642773E+03  0.25500000920E-02 0. -1.
       -2    1    3    3    0  502  0.34135697446E+03 -0.30658989407E+02 -0.30989849305E+03  0.46206236986E+03  0.25500000920E-02 0.  1.
</event>
<event>
 5   0  0.5623061E-04  0.1585846E+04  0.7818609E-02  0.8829291E-01
        1   -1    0    0  501    0  0.00000000000E+00  0.00000000000E+00  0.12497811554E+04  0.12497811554E+04  0.50400001928E-02 0. -1.
       -1   -1    0    0    0  501  0.00000000000E+00  0.00000000000E+00 -0.50306979568E+03  0.50306979570E+03  0.50400001928E-02 0.  1.
    10030    2    1    2    0    0  0.00000000000E+00  0.00000000000E+00  0.74671135969E+03  0.17528509511E+04  0.15858463362E+04 0.  0.
        3    1    3    3  502    0  0.36233146866E+03 -0.36375575679E+03 -0.29453371791E+03  0.59190579062E+03  0.10100000352E+00 0.  1.
       -3    1    3    3    0  502 -0.36233146866E+03  0.36375575679E+03  0.10412450776E+04  0.11609451605E+04  0.10100000352E+00 0. -1.
</event>
<event>
 5   0  0.5425525E-04  0.1587186E+04  0.7818609E-02  0.8828459E-01
       -1   -1    0    0    0  501  0.00000000000E+00  0.00000000000E+00  0.58785812665E+03  0.58785812667E+03  0.50400001928E-02 0. -1.
        1   -1    0    0  501    0  0.00000000000E+00  0.00000000000E+00 -0.10713295357E+04  0.10713295357E+04  0.50400001928E-02 0.  1.
    10030    2    1    2    0    0  0.00000000000E+00  0.00000000000E+00 -0.48347140903E+03  0.16591876624E+04  0.15871859045E+04 0.  0.
        5    1    3    3  502    0 -0.21630895148E+03  0.21860174882E+03  0.52301920460E+03  0.60675156815E+03  0.46999998093E+01 0. -1.
       -5    1    3    3    0  502  0.21630895148E+03 -0.21860174882E+03 -0.10064906136E+04  0.10524360942E+04  0.46999998093E+01 0.  1.
</event>
<event>
 5   0  0.1037321E-03  0.1589288E+04  0.7818609E-02  0.8827156E-01
        2   -1    0    0  501    0  0.00000000000E+00  0.00000000000E+00  0.97307443345E+03  0.97307443345E+03  0.25500000920E-02 0.  1.
       -2   -1    0    0    0  501  0.00000000000E+00  0.00000000000E+00 -0.64893202434E+03  0.64893202434E+03  0.25500000920E-02 0. -1.
    10030    2    1    2    0    0  0.00000000000E+00  0.00000000000E+00  0.32414240911E+03  0.16220064578E+04  0.15892880946E+04 0.  0.
        5    1    3    3  502    0 -0.33985470653E+03 -0.15649950795E+03 -0.55339126775E+03  0.66802492675E+03  0.46999998093E+01 0. -1.
       -5    1    3    3    0  502  0.33985470653E+03  0.15649950795E+03  0.87753367686E+03  0.95398153104E+03  0.46999998093E+01 0.  1.
</event>
<event>
 5   0  0.5288658E-04  0.1624256E+04  0.7818609E-02  0.8805784E-01
       -1   -1    0    0    0  501  0.00000000000E+00  0.00000000000E+00  0.60743110350E+03  0.60743110352E+03  0.50400001928E-02 0.  1.
        1   -1    0    0  501    0  0.00000000000E+00  0.00000000000E+00 -0.10858050492E+04  0.10858050492E+04  0.50400001928E-02 0. -1.
    10030    2    1    2    0    0  0.00000000000E+00  0.00000000000E+00 -0.47837394571E+03  0.16932361527E+04  0.16242558410E+04 0.  0.
        1    1    3    3  502    0 -0.44449628859E+01  0.36903002960E+03 -0.99333869631E+03  0.10596814078E+04  0.50400001928E-02 0. -1.
       -1    1    3    3    0  502  0.44449628859E+01 -0.36903002960E+03  0.51496475060E+03  0.63355474493E+03  0.50400001928E-02 0.  1.
</event>
<event>
 5   0  0.5425525E-04  0.1658888E+04  0.7818609E-02  0.8785166E-01
       -1   -1    0    0    0  501  0.00000000000E+00  0.00000000000E+00  0.52810365577E+03  0.52810365580E+03  0.50400001928E-02 0. -1.
        1   -1    0    0  501    0  0.00000000000E+00  0.00000000000E+00 -0.13027317027E+04  0.13027317027E+04  0.50400001928E-02 0.  1.
    10030    2    1    2    0    0  0.00000000000E+00  0.00000000000E+00 -0.77462804689E+03  0.18308353585E+04  0.16588880308E+04 0.  0.
        5    1    3    3  502    0  0.14728454631E+03  0.77679242482E+03 -0.11061613195E+03  0.79834655851E+03  0.46999998093E+01 0. -1.
       -5    1    3    3    0  502 -0.14728454631E+03 -0.77679242482E+03 -0.66401191494E+03  0.10324888000E+04  0.46999998093E+01 0.  1.
</event>
<event>
 5   0  0.5532881E-04  0.1606660E+04  0.7818609E-02  0.8816467E-01
        1   -1    0    0  501    0  0.00000000000E+00  0.00000000000E+00  0.84867772177E+03  0.84867772178E+03  0.50400001928E-02 0.  1.
       -1   -1    0    0    0  501  0.00000000000E+00  0.00000000000E+00 -0.76040522388E+03  0.76040522390E+03  0.50400001928E-02 0. -1.
    10030    2    1    2    0    0  0.00000000000E+00  0.00000000000E+00  0.88272497882E+02  0.16090829457E+04  0.16066598558E+04 0.  0.
        4    1    3    3  502    0 -0.14986767477E+03  0.32396502068E+02 -0.74561342282E+03  0.76121668563E+03  0.12699999809E+01 0. -1.
       -4    1    3    3    0  502  0.14986767477E+03 -0.32396502068E+02  0.83388592070E+03  0.84786626005E+03  0.12699999809E+01 0.  1.
</event>
<event>
 5   0  0.5281116E-04  0.1607081E+04  0.7818609E-02  0.8816209E-01
        1   -1    0    0  501    0  0.00000000000E+00  0.00000000000E+00  0.92663944518E+03  0.92663944519E+03  0.50400001928E-02 0. -1.
       -1   -1    0    0    0  501  0.00000000000E+00  0.00000000000E+00 -0.69679489440E+03  0.69679489441E+03  0.50400001928E-02 0.  1.
    10030    2    1    2    0    0  0.00000000000E+00  0.00000000000E+00  0.22984455078E+03  0.16234343396E+04  0.16070813724E+04 0.  0.
        2    1    3    3  502    0  0.48011106478E+03  0.78209491708E+02  0.76100381014E+03  0.90318888289E+03  0.25500000920E-02 0. -1.
       -2    1    3    3    0  502 -0.48011106478E+03 -0.78209491708E+02 -0.53115925936E+03  0.72024545672E+03  0.25500000920E-02 0.  1.
</event>
<event>
 5   0  0.1057872E-03  0.1566387E+04  0.7818609E-02  0.8841468E-01
       -2   -1    0    0    0  501  0.00000000000E+00  0.00000000000E+00  0.63698757596E+03  0.63698757597E+03  0.25500000920E-02 0. -1.
        2   -1    0    0  501    0  0.00000000000E+00  0.00000000000E+00 -0.96295705030E+03  0.96295705031E+03  0.25500000920E-02 0.  1.
    10030    2    1    2    0    0  0.00000000000E+00  0.00000000000E+00 -0.32596947434E+03  0.15999446263E+04  0.15663865133E+04 0.  0.
        2    1    3    3  502    0  0.20782386074E+03  0.14383372369E+02 -0.93413884036E+03  0.95708568664E+03  0.25500000920E-02 0.  1.
       -2    1    3    3    0  502 -0.20782386074E+03 -0.14383372369E+02  0.60816936602E+03  0.64285893964E+03  0.25500000920E-02 0. -1.
</event>
<event>
 5   0  0.9844690E-04  0.1617423E+04  0.7818609E-02  0.8809915E-01
       -2   -1    0    0    0  501  0.00000000000E+00  0.00000000000E+00  0.40846487788E+03  0.40846487788E+03  0.25500000920E-02 0. -1.
        2   -1    0    0  501    0  0.00000000000E+00  0.00000000000E+00 -0.16011513033E+04  0.16011513033E+04  0.25500000920E-02 0.  1.
    10030    2    1    2    0    0  0.00000000000E+00  0.00000000000E+00 -0.11926864254E+04  0.20096161812E+04  0.16174227296E+04 0.  0.
        3    1    3    3  502    0  0.24023936499E+03 -0.64731969168E+03 -0.73206802606E+02  0.69433204008E+03  0.10100000352E+00 0. -1.
       -3    1    3    3    0  502 -0.24023936499E+03  0.64731969168E+03 -0.11194796228E+04  0.13152841411E+04  0.10100000352E+00 0.  1.
</event>
<event>
 5   0  0.1000121E-03  0.1617822E+04  0.7818609E-02  0.8809674E-01
       -2   -1    0    0    0  501  0.00000000000E+00  0.00000000000E+00  0.11408299934E+04  0.11408299934E+04  0.25500000920E-02 0.  1.
        2   -1    0    0  501    0  0.00000000000E+00  0.00000000000E+00 -0.57356200942E+03  0.57356200942E+03  0.25500000920E-02 0. -1.
    10030    2    1    2    0    0  0.00000000000E+00  0.00000000000E+00  0.56726798402E+03  0.17143920029E+04  0.16178216755E+04 0.  0.
        4    1    3    3  502    0  0.85226909394E+02  0.64505157994E+03  0.79292573690E+03  0.10257134122E+04  0.12699999809E+01 0.  1.
       -4    1    3    3    0  502 -0.85226909394E+02 -0.64505157994E+03 -0.22565775289E+03  0.68867859064E+03  0.12699999809E+01 0. -1.
</event>
<event>
 5   0  0.5425525E-04  0.1608941E+04  0.7818609E-02  0.8815074E-01
        1   -1    0    0  501    0  0.00000000000E+00  0.00000000000E+00  0.10214804108E+04  0.10214804108E+04  0.50400001928E-02 0.  1.
       -1   -1    0    0    0  501  0.00000000000E+00  0.00000000000E+00 -0.63356339694E+03  0.63356339696E+03  0.50400001928E-02 0. -1.
    10030    2    1    2    0    0  0.00000000000E+00  0.00000000000E+00  0.38791701387E+03  0.16550438078E+04  0.16089407683E+04 0.  0.
        5    1    3    3  502    0  0.70155031175E+03  0.18209259218E+02  0.59847749506E+03  0.92233498206E+03  0.46999998093E+01 0.  1.
       -5    1    3    3    0  502 -0.70155031175E+03 -0.18209259218E+02 -0.21056048119E+03  0.73270882571E+03  0.46999998093E+01 0. -1.
</event>
<event>
 5   0  0.1030027E-03  0.1706301E+04  0.7818609E-02  0.8757779E-01
       -2   -1    0    0    0  501  0.00000000000E+00  0.00000000000E+00  0.66297793816E+03  0.66297793816E+03  0.25500000920E-02 0. -1.
        2   -1    0    0  501    0  0.00000000000E+00  0.00000000000E+00 -0.10978730903E+04  0.10978730903E+04  0.25500000920E-02 0.  1.
    10030    2    1    2    0    0  0.00000000000E+00  0.00000000000E+00 -0.43489515211E+03  0.17608510284E+04  0.17063008384E+04 0.  0.
        1    1    3    3  502    0 -0.19077318880E+02  0.80473548499E+03  0.74259642024E+02  0.80837963814E+03  0.50400001928E-02 0. -1.
       -1    1    3    3    0  502  0.19077318880E+02 -0.80473548499E+03 -0.50915479414E+03  0.95247139029E+03  0.50400001928E-02 0.  1.
</event>
<event>
 5   0  0.1037321E-03  0.1489943E+04  0.7818609E-02  0.8891168E-01
        2   -1    0    0  501    0  0.00000000000E+00  0.00000000000E+00  0.13002197992E+04  0.13002197992E+04  0.25500000920E-02 0. -1.
       -2   -1    0    0    0  501  0.00000000000E+00  0.00000000000E+00 -0.42683765556E+03  0.42683765556E+03  0.25500000920E-02 0.  1.
    10030    2    1    2    0    0  0.00000000000E+00  0.00000000000E+00  0.87338214366E+03  0.17270574548E+04  0.14899433155E+04 0.  0.
        5    1    3    3  502    0 -0.74449700211E+03  0.22183550100E+02  0.42059672333E+03  0.85538972973E+03  0.46999998093E+01 0. -1.
       -5    1    3    3    0  502  0.74449700211E+03 -0.22183550100E+02  0.45278542034E+03  0.87166772506E+03  0.46999998093E+01 0.  1.
</event>
<event>
 5   0  0.5532881E-04  0.1569407E+04  0.7818609E-02  0.8839566E-01
        1   -1    0    0  501    0  0.00000000000E+00  0.00000000000E+00  0.10657081730E+04  0.10657081730E+04  0.50400001928E-02 0. -1.
       -1   -1    0    0    0  501  0.00000000000E+00  0.00000000000E+00 -0.57779390804E+03  0.57779390806E+03  0.50400001928E-02 0.  1.
    10030    2    1    2    0    0  0.00000000000E+00  0.00000000000E+00  0.48791426499E+03  0.16435020811E+04  0.15694071367E+04 0.  0.
        4    1    3    3  502    0  0.58199065179E+01  0.52076406275E+02 -0.57595858763E+03  0.57833876834E+03  0.12699999809E+01 0.  1.
       -4    1    3    3    0  502 -0.58199065179E+01 -0.52076406275E+02  0.10638728526E+04  0.10651633128E+04  0.12699999809E+01 0. -1.
</event>
<event>
 5   0  0.5281116E-04  0.1596136E+04  0.7818609E-02  0.8822926E-01
       -1   -1    0    0    0  501  0.00000000000E+00  0.00000000000E+00  0.34431133230E+03  0.34431133233E+03  0.50400001928E-02 0. -1.
        1   -1    0    0  501    0  0.00000000000E+00  0.00000000000E+00 -0.18498149225E+04  0.18498149225E+04  0.50400001928E-02 0.  1.
    10030    2    1    2    0    0  0.00000000000E+00  0.00000000000E+00 -0.15055035902E+04  0.21941262548E+04  0.15961356340E+04 0.  0.
        2    1    3    3  502    0  0.60744640740E+03 -0.14801467558E+03 -0.14345732077E+04  0.15648960893E+04  0.25500000920E-02 0.  1.
       -2    1    3    3    0  502 -0.60744640740E+03  0.14801467558E+03 -0.70930382505E+02  0.62923016554E+03  0.25500000920E-02 0. -1.
</event>
<event>
 5   0  0.5281116E-04  0.1569217E+04  0.7818609E-02  0.8839685E-01
       -1   -1    0    0    0  501  0.00000000000E+00  0.00000000000E+00  0.55305959416E+03  0.55305959418E+03  0.50400001928E-02 0.  1.
        1   -1    0    0  501    0  0.00000000000E+00  0.00000000000E+00 -0.11131000860E+04  0.11131000860E+04  0.50400001928E-02 0. -1.
    10030    2    1    2    0    0  0.00000000000E+00  0.00000000000E+00 -0.56004049180E+03  0.16661596802E+04  0.15692172339E+04 0.  0.
        2    1    3    3  502    0  0.21077600719E+03 -0.80132878614E+02  0.51791311517E+03  0.56487325863E+03  0.25500000920E-02 0.  1.
       -2    1    3    3    0  502 -0.21077600719E+03  0.80132878614E+02 -0.10779536070E+04  0.11012864215E+04  0.25500000920E-02 0. -1.
</event>
<event>
 5   0  0.5623061E-04  0.1540986E+04  0.7818609E-02  0.8857646E-01
       -1   -1    0    0    0  501  0.00000000000E+00  0.00000000000E+00  0.55833016338E+03  0.55833016340E+03  0.50400001928E-02 0.  1.
        1   -1    0    0  501    0  0.00000000000E+00  0.00000000000E+00 -0.10632761673E+04  0.10632761674E+04  0.50400001928E-02 0. -1.
    10030    2    1    2    0    0  0.00000000000E+00  0.00000000000E+00 -0.50494600396E+03  0.16216063308E+04  0.15409856018E+04 0.  0.
        3    1    3    3  502    0 -0.51779009312E+03 -0.37168212712E+03 -0.70802440969E+03  0.95265563509E+03  0.10100000352E+00 0. -1.
       -3    1    3    3    0  502  0.51779009312E+03  0.37168212712E+03  0.20307840573E+03  0.66895069566E+03  0.10100000352E+00 0.  1.
</event>
<event>
 5   0  0.5281116E-04  0.1604057E+04  0.7818609E-02  0.8818059E-01
        1   -1    0    0  501    0  0.00000000000E+00  0.00000000000E+00  0.12100879410E+04  0.12100879410E+04  0.50400001928E-02 0.  1.
       -1   -1    0    0    0  501  0.00000000000E+00  0.00000000000E+00 -0.53157291188E+03  0.53157291190E+03  0.50400001928E-02 0. -1.
    10030    2    1    2    0    0  0.00000000000E+00  0.00000000000E+00  0.67851502914E+03  0.17416608529E+04  0.16040573188E+04 0.  0.
        2    1    3    3  502    0 -0.43216260554E+03 -0.28095432091E+03  0.10064190737E+04  0.11307427647E+04  0.25500000920E-02 0.  1.
       -2    1    3    3    0  502  0.43216260554E+03  0.28095432091E+03 -0.32790404456E+03  0.61091808821E+03  0.25500000920E-02 0. -1.
</event>
<event>
 5   0  0.1057872E-03  0.1530514E+04  0.7818609E-02  0.8864411E-01
        2   -1    0    0  501    0  0.00000000000E+00  0.00000000000E+00  0.66426209690E+03  0.66426209691E+03  0.25500000920E-02 0. -1.
       -2   -1    0    0    0  501  0.00000000000E+00  0.00000000000E+00 -0.88160771636E+03  0.88160771637E+03  0.25500000920E-02 0.  1.
    10030    2    1    2    0    0  0.00000000000E+00  0.00000000000E+00 -0.21734561946E+03  0.15458698133E+04  0.15305144107E+04 0.  0.
        2    1    3    3  502    0 -0.15329987611E+03 -0.73953118214E+03  0.15898962671E+02  0.75542041168E+03  0.25500000920E-02 0. -1.
       -2    1    3    3    0  502  0.15329987611E+03  0.73953118214E+03 -0.23324458213E+03  0.79044940159E+03  0.25500000920E-02 0.  1.
</event>
<event>
 5   0  0.1057872E-03  0.1552241E+04  0.7818609E-02  0.8850437E-01
        2   -1    0    0  501    0  0.00000000000E+00  0.00000000000E+00  0.81283902778E+03  0.81283902778E+03  0.25500000920E-02 0. -1.
       -2   -1    0    0    0  501  0.00000000000E+00  0.00000000000E+00 -0.74106103674E+03  0.74106103674E+03  0.25500000920E-02 0.  1.
    10030    2    1    2    0    0  0.00000000000E+00  0.00000000000E+00  0.71777991044E+02  0.15539000645E+04  0.15522413893E+04 0.  0.
        2    1    3    3  502    0  0.48687325098E+03  0.54728637464E+03 -0.22089122775E+03  0.76508880065E+03  0.25500000920E-02 0.  1.
       -2    1    3    3    0  502 -0.48687325098E+03 -0.54728637464E+03  0.29266921880E+03  0.78881126387E+03  0.25500000920E-02 0. -1.
</event>
<event>
 5   0  0.9844690E-04  0.1602499E+04  0.7818609E-02  0.8819014E-01
        2   -1    0    0  501    0  0.00000000000E+00  0.00000000000E+00  0.12079533914E+04  0.12079533914E+04  0.25500000920E-02 0. -1.
       -2   -1    0    0    0  501  0.00000000000E+00  0.00000000000E+00 -0.53147821144E+03  0.53147821145E+03  0.25500000920E-02 0.  1.
    10030    2    1    2    0    0  0.00000000000E+00  0.00000000000E+00  0.67647517997E+03  0.17394316029E+04  0.16024991831E+04 0.  0.
        3    1    3    3  502    0 -0.40285898242E+03  0.14763772744E+03  0.10727496963E+04  0.11553718792E+04  0.10100000352E+00 0. -1.
       -3    1    3    3    0  502  0.40285898242E+03 -0.14763772744E+03 -0.39627451631E+03  0.58405972362E+03  0.10100000352E+00 0.  1.
</event>
<event>
 5   0  0.5288658E-04  0.1694331E+04  0.7818609E-02  0.8764604E-01
       -1   -1    0    0    0  501  0.00000000000E+00  0.00000000000E+00  0.97620804146E+03  0.97620804147E+03  0.50400001928E-02 0.  1.
        1   -1    0    0  501    0  0.00000000000E+00  0.00000000000E+00 -0.73518089370E+03  0.73518089372E+03  0.50400001928E-02 0. -1.
    10030    2    1    2    0    0  0.00000000000E+00  0.00000000000E+00  0.24102714776E+03  0.17113889352E+04  0.16943311369E+04 0.  0.
        1    1    3    3  502    0 -0.58957727735E+03  0.59335339341E+03 -0.15076043227E+02  0.83659841175E+03  0.50400001928E-02 0.  1.
       -1    1    3    3    0  502  0.58957727735E+03 -0.59335339341E+03  0.25610319098E+03  0.87479052344E+03  0.50400001928E-02 0. -1.
</event>
<event>
 5   0  0.5281116E-04  0.1597415E+04  0.7818609E-02  0.8822138E-01
       -1   -1    0    0    0  501  0.00000000000E+00  0.00000000000E+00  0.96854865994E+03  0.96854865996E+03  0.50400001928E-02 0.  1.
        1   -1    0    0  501    0  0.00000000000E+00  0.00000000000E+00 -0.65864887158E+03  0.65864887160E+03  0.50400001928E-02 0. -1.
    10030    2    1    2    0    0  0.00000000000E+00  0.00000000000E+00  0.30989978836E+03  0.16271975316E+04  0.15974147639E+04 0.  0.
        2    1    3    3  502    0  0.58857646804E+03 -0.47240331438E+03  0.42125542610E+03  0.86431665736E+03  0.25500000920E-02 0.  1.
       -2    1    3    3    0  502 -0.58857646804E+03  0.47240331438E+03 -0.11135563774E+03  0.76288087420E+03  0.25500000920E-02 0. -1.
</event>
<event>
 5   0  0.5281116E-04  0.1671070E+04  0.7818609E-02  0.8778039E-01
        1   -1    0    0  501    0  0.00000000000E+00  0.00000000000E+00  0.13482801816E+04  0.13482801816E+04  0.50400001928E-02 0.  1.
       -1   -1    0    0    0  501  0.00000000000E+00  0.00000000000E+00 -0.51778432618E+03  0.51778432620E+03  0.50400001928E-02 0. -1.
    10030    2    1    2    0    0  0.00000000000E+00  0.00000000000E+00  0.83049585539E+03  0.18660645078E+04  0.16710695322E+04 0.  0.
        2    1    3    3  502    0  0.45390466631E+03  0.47852323942E+03 -0.15754308399E+03  0.67811043354E+03  0.25500000920E-02 0. -1.
       -2    1    3    3    0  502 -0.45390466631E+03 -0.47852323942E+03  0.98803893938E+03  0.11879540742E+04  0.25500000920E-02 0.  1.
</event>
<event>
 5   0  0.9844690E-04  0.1175661E+04  0.7818609E-02  0.9134431E-01
        2   -1    0    0  501    0  0.00000000000E+00  0.00000000000E+00  0.14323738715E+04  0.14323738715E+04  0.25500000920E-02 0.  1.
       -2   -1    0    0    0  501  0.00000000000E+00  0.00000000000E+00 -0.24123918604E+03  0.24123918606E+03  0.25500000920E-02 0. -1.
    10030    2    1    2    0    0  0.00000000000E+00  0.00000000000E+00  0.11911346854E+04  0.16736130575E+04  0.11756610173E+04 0.  0.
        3    1    3    3  502    0 -0.11552644628E+03  0.48181456279E+03  0.14528166461E+03  0.51633168117E+03  0.10100000352E+00 0. -1.
       -3    1    3    3    0  502  0.11552644628E+03 -0.48181456279E+03  0.10458530208E+04  0.11572813764E+04  0.10100000352E+00 0.  1.
</event>
<event>
 5   0  0.1057872E-03  0.1610289E+04  0.7818609E-02  0.8814252E-01
       -2   -1    0    0    0  501  0.00000000000E+00  0.00000000000E+00  0.36708707701E+03  0.36708707702E+03  0.25500000920E-02 0. -1.
        2   -1    0    0  501    0  0.00000000000E+00  0.00000000000E+00 -0.17659501318E+04  0.17659501318E+04  0.25500000920E-02 0.  1.
    10030    2    1    2    0    0  0.00000000000E+00  0.00000000000E+00 -0.13988630548E+04  0.21330372088E+04  0.16102887592E+04 0.  0.
        2    1    3    3  502    0  0.75409970982E+03 -0.27432842896E+03 -0.61221679367E+03  0.10093224766E+04  0.25500000920E-02 0. -1.
       -2    1    3    3    0  502 -0.75409970982E+03  0.27432842896E+03 -0.78664626111E+03  0.11237147322E+04  0.25500000920E-02 0.  1.
</event>
<event>
 5   0  0.1057872E-03  0.1566524E+04  0.7818609E-02  0.8841382E-01
       -2   -1    0    0    0  501  0.00000000000E+00  0.00000000000E+00  0.77051009071E+03  0.77051009071E+03  0.25500000920E-02 0.  1.
        2   -1    0    0  501    0  0.00000000000E+00  0.00000000000E+00 -0.79622475576E+03  0.79622475576E+03  0.25500000920E-02 0. -1.
    10030    2    1    2    0    0  0.00000000000E+00  0.00000000000E+00 -0.25714665048E+02  0.15667348465E+04  0.15665238061E+04 0.  0.
        2    1    3    3  502    0  0.14036516362E+03 -0.64352366715E+03 -0.43679427795E+03  0.79032545865E+03  0.25500000920E-02 0. -1.
       -2    1    3    3    0  502 -0.14036516362E+03  0.64352366715E+03  0.41107961290E+03  0.77640938782E+03  0.25500000920E-02 0.  1.
</event>
<event>
 5   0  0.5532881E-04  0.1589470E+04  0.7818609E-02  0.8827043E-01
        1   -1    0    0  501    0  0.00000000000E+00  0.00000000000E+00  0.89250537769E+03  0.89250537770E+03  0.50400001928E-02 0. -1.
       -1   -1    0    0    0  501  0.00000000000E+00  0.00000000000E+00 -0.70767480064E+03  0.70767480066E+03  0.50400001928E-02 0.  1.
    10030    2    1    2    0    0  0.00000000000E+00  0.00000000000E+00  0.18483057705E+03  0.16001801784E+04  0.15894698050E+04 0.  0.
        4    1    3    3  502    0 -0.28329321773E+03 -0.38334686015E+03 -0.54778804384E+03  0.72614269691E+03  0.12699999809E+01 0.  1.
       -4    1    3    3    0  502  0.28329321773E+03  0.38334686015E+03  0.73261862089E+03  0.87403748145E+03  0.12699999809E+01 0. -1.
</event>
<event>
 5   0  0.5425525E-04  0.1600016E+04  0.7818609E-02  0.8820538E-01
        1   -1    0    0  501    0  0.00000000000E+00  0.00000000000E+00  0.31714880202E+03  0.31714880206E+03  0.50400001928E-02 0.  1.
       -1   -1    0    0    0  501  0.00000000000E+00  0.00000000000E+00 -0.20180200737E+04  0.20180200737E+04  0.50400001928E-02 0. -1.
    10030    2    1    2    0    0  0.00000000000E+00  0.00000000000E+00 -0.17008712717E+04  0.23351688758E+04  0.16000158110E+04 0.  0.
        5    1    3    3  502    0 -0.63474884949E+02 -0.56678213847E+02  0.31050437682E+03  0.32198841433E+03  0.46999998093E+01 0.  1.
       -5    1    3    3    0  502  0.63474884949E+02  0.56678213847E+02 -0.20113756485E+04  0.20131804614E+04  0.46999998093E+01 0. -1.
</event>
<event>
 5   0  0.1030027E-03  0.1604980E+04  0.7818609E-02  0.8817495E-01
       -2   -1    0    0    0  501  0.00000000000E+00  0.00000000000E+00  0.42834245259E+03  0.42834245259E+03  0.25500000920E-02 0. -1.
        2   -1    0    0  501    0  0.00000000000E+00  0.00000000000E+00 -0.15034463259E+04  0.15034463259E+04  0.25500000920E-02 0.  1.
    10030    2    1    2    0    0  0.00000000000E+00  0.00000000000E+00 -0.10751038733E+04  0.19317887785E+04  0.16049796093E+04 0.  0.
        1    1    3    3  502    0 -0.45321135502E+03  0.66066103300E+02  0.25558348086E+03  0.52448849180E+03  0.50400001928E-02 0. -1.
       -1    1    3    3    0  502  0.45321135502E+03 -0.66066103300E+02 -0.13306873542E+04  0.14073002867E+04  0.50400001928E-02 0.  1.
</event>
<event>
 5   0  0.9844690E-04  0.1557240E+04  0.7818609E-02  0.8847256E-01
       -2   -1    0    0    0  501  0.00000000000E+00  0.00000000000E+00  0.46668309220E+03  0.46668309221E+03  0.25500000920E-02 0. -1.
        2   -1    0    0  501    0  0.00000000000E+00  0.00000000000E+00 -0.12990597650E+04  0.12990597650E+04  0.25500000920E-02 0.  1.
    10030    2    1    2    0    0  0.00000000000E+00  0.00000000000E+00 -0.83237667284E+03  0.17657428573E+04  0.15572401589E+04 0.  0.
        3    1    3    3  502    0 -0.48980729714E+03  0.90150293477E+02 -0.10948312123E+04  0.12027857903E+04  0.10100000352E+00 0.  1.
       -3    1    3    3    0  502  0.48980729714E+03 -0.90150293477E+02  0.26245453946E+03  0.56295706695E+03  0.10100000352E+00 0. -1.
</event>
<event>
 5   0  0.3832500E-04  0.1094160E+04  0.7818609E-02  0.9210903E-01
       -4   -1    0    0    0  501  0.00000000000E+00  0.00000000000E+00  0.10507730273E+04  0.10507737948E+04  0.12699999809E+01 0. -1.
        4   -1    0    0  501    0  0.00000000000E+00  0.00000000000E+00 -0.28483225169E+03  0.28483508299E+03  0.12699999809E+01 0.  1.
    10030    2    1    2    0    0  0.00000000000E+00  0.00000000000E+00  0.76594077562E+03  0.13356088778E+04  0.10941598616E+04 0.  0.
        3    1    3    3  502    0  0.22280004968E+03 -0.24296901397E+03  0.91591951371E+03  0.97343842624E+03  0.10100000352E+00 0. -1.
       -3    1    3    3    0  502 -0.22280004968E+03  0.24296901397E+03 -0.14997873809E+03  0.36217045154E+03  0.10100000352E+00 0.  1.
</event>
<event>
 5   0  0.9844690E-04  0.1565580E+04  0.7818609E-02  0.8841977E-01
       -2   -1    0    0    0  501  0.00000000000E+00  0.00000000000E+00  0.86991560266E+03  0.86991560267E+03  0.25500000920E-02 0. -1.
        2   -1    0    0  501    0  0.00000000000E+00  0.00000000000E+00 -0.70439059201E+03  0.70439059201E+03  0.25500000920E-02 0.  1.
    10030    2    1    2    0    0  0.00000000000E+00  0.00000000000E+00  0.16552501066E+03  0.15743061947E+04  0.15655802328E+04 0.  0.
        3    1    3    3  502    0 -0.11833272934E+03 -0.49183968462E+03 -0.51793745813E+03  0.72399456554E+03  0.10100000352E+00 0.  1.
       -3    1    3    3    0  502  0.11833272934E+03  0.49183968462E+03  0.68346246879E+03  0.85031162913E+03  0.10100000352E+00 0. -1.
</event>
<event>
 5   0  0.1057872E-03  0.1605558E+04  0.7818609E-02  0.8817141E-01
        2   -1    0    0  501    0  0.00000000000E+00  0.00000000000E+00  0.89413036602E+03  0.89413036602E+03  0.25500000920E-02 0.  1.
       -2   -1    0    0    0  501  0.00000000000E+00  0.00000000000E+00 -0.72076055601E+03  0.72076055602E+03  0.25500000920E-02 0. -1.
    10030    2    1    2    0    0  0.00000000000E+00  0.00000000000E+00  0.17336981000E+03  0.16148909220E+04  0.16055577221E+04 0.  0.
        2    1    3    3  502    0  0.31182016059E+03 -0.35555981265E+03  0.73914623547E+03  0.87749173805E+03  0.25500000920E-02 0.  1.
       -2    1    3    3    0  502 -0.31182016059E+03  0.35555981265E+03 -0.56577642547E+03  0.73739918399E+03  0.25500000920E-02 0. -1.
</event>
<event>
 5   0  0.9844690E-04  0.1585209E+04  0.7818609E-02  0.8829687E-01
        2   -1    0    0  501    0  0.00000000000E+00  0.00000000000E+00  0.14788234346E+04  0.14788234346E+04  0.25500000920E-02 0. -1.
       -2   -1    0    0    0  501  0.00000000000E+00  0.00000000000E+00 -0.42481185929E+03  0.42481185930E+03  0.25500000920E-02 0.  1.
    10030    2    1    2    0    0  0.00000000000E+00  0.00000000000E+00  0.10540115753E+04  0.19036352939E+04  0.15852087974E+04 0.  0.
        3    1    3    3  502    0 -0.40041618192E+03  0.51062721695E+02 -0.29212835409E+03  0.49827653543E+03  0.10100000352E+00 0.  1.
       -3    1    3    3    0  502  0.40041618192E+03 -0.51062721695E+02  0.13461399294E+04  0.14053587585E+04  0.10100000352E+00 0. -1.
</event>
<event>
 5   0  0.5623061E-04  0.1591140E+04  0.7818609E-02  0.8826010E-01
       -1   -1    0    0    0  501  0.00000000000E+00  0.00000000000E+00  0.49802457089E+03  0.49802457091E+03  0.50400001928E-02 0. -1.
        1   -1    0    0  501    0  0.00000000000E+00  0.00000000000E+00 -0.12708838218E+04  0.12708838218E+04  0.50400001928E-02 0.  1.
    10030    2    1    2    0    0  0.00000000000E+00  0.00000000000E+00 -0.77285925089E+03  0.17689083927E+04  0.15911396796E+04 0.  0.
        3    1    3    3  502    0 -0.48517634871E+03 -0.61306147208E+02 -0.10840547510E+04  0.11892557532E+04  0.10100000352E+00 0.  1.
       -3    1    3    3    0  502  0.48517634871E+03  0.61306147208E+02  0.31119550012E+03  0.57965263954E+03  0.10100000352E+00 0. -1.
</event>
<event>
 5   0  0.5425525E-04  0.1582791E+04  0.7818609E-02  0.8831190E-01
        1   -1    0    0  501    0  0.00000000000E+00  0.00000000000E+00  0.95022630008E+03  0.95022630009E+03  0.50400001928E-02 0.  1.
       -1   -1    0    0    0  501  0.00000000000E+00  0.00000000000E+00 -0.65911355092E+03  0.65911355094E+03  0.50400001928E-02 0. -1.
    10030    2    1    2    0    0  0.00000000000E+00  0.00000000000E+00  0.29111274916E+03  0.16093398510E+04  0.15827912444E+04 0.  0.
        5    1    3    3  502    0 -0.41495173891E+03 -0.14063172810E+03 -0.52452939763E+03  0.68345841684E+03  0.46999998093E+01 0. -1.
       -5    1    3    3    0  502  0.41495173891E+03  0.14063172810E+03  0.81564214679E+03  0.92588143419E+03  0.46999998093E+01 0.  1.
</event>
<event>
 5   0  0.1030027E-03  0.1605742E+04  0.7818609E-02  0.8817028E-01
        2   -1    0    0  501    0  0.00000000000E+00  0.00000000000E+00  0.94122289717E+03  0.94122289717E+03  0.25500000920E-02 0. -1.
       -2   -1    0    0    0  501  0.00000000000E+00  0.00000000000E+00 -0.68485572057E+03  0.68485572058E+03  0.25500000920E-02 0.  1.
    10030    2    1    2    0    0  0.00000000000E+00  0.00000000000E+00  0.25636717660E+03  0.16260786178E+04  0.16057420533E+04 0.  0.
        1    1    3    3  502    0 -0.49215879277E+03 -0.58746098623E+03  0.37052849171E+03  0.85124734997E+03  0.50400001928E-02 0.  1.
       -1    1    3    3    0  502  0.49215879277E+03  0.58746098623E+03 -0.11416131511E+03  0.77483126778E+03  0.50400001928E-02 0. -1.
</event>
<event>
 5   0  0.5281116E-04  0.1584145E+04  0.7818609E-02  0.8830348E-01
        1   -1    0    0  501    0  0.00000000000E+00  0.00000000000E+00  0.21961147808E+04  0.21961147808E+04  0.50400001928E-02 0. -1.
       -1   -1    0    0    0  501  0.00000000000E+00  0.00000000000E+00 -0.28567672235E+03  0.28567672239E+03  0.50400001928E-02 0.  1.
    10030    2    1    2    0    0  0.00000000000E+00  0.00000000000E+00  0.19104380585E+04  0.24817915032E+04  0.15841450344E+04 0.  0.
        2    1    3    3  502    0 -0.47596033024E+03  0.25222175379E+03  0.18649859065E+04  0.19412177828E+04  0.25500000920E-02 0. -1.
       -2    1    3    3    0  502  0.47596033024E+03 -0.25222175379E+03  0.45452152010E+02  0.54057372039E+03  0.25500000920E-02 0.  1.
</event>
<event>
 5   0  0.1057872E-03  0.1687913E+04  0.7818609E-02  0.8768288E-01
       -2   -1    0    0    0  501  0.00000000000E+00  0.00000000000E+00  0.61133871762E+03  0.61133871762E+03  0.25500000920E-02 0. -1.
        2   -1    0    0  501    0  0.00000000000E+00  0.00000000000E+00 -0.11650865873E+04  0.11650865873E+04  0.25500000920E-02 0.  1.
    10030    2    1    2    0    0  0.00000000000E+00  0.00000000000E+00 -0.55374786967E+03  0.17764253049E+04  0.16879129601E+04 0.  0.
        2    1    3    3  502    0  0.53802305344E+03  0.31726828362E+03 -0.87420564486E+03  0.10744130860E+04  0.25500000920E-02 0.  1.
       -2    1    3    3    0  502 -0.53802305344E+03 -0.31726828362E+03  0.32045777520E+03  0.70201221892E+03  0.25500000920E-02 0. -1.
</event>
<event>
 5   0  0.5288658E-04  0.1619077E+04  0.7818609E-02  0.8808913E-01
        1   -1    0    0  501    0  0.00000000000E+00  0.00000000000E+00  0.13323244081E+04  0.13323244082E+04  0.50400001928E-02 0.  1.
       -1   -1    0    0    0  501  0.00000000000E+00  0.00000000000E+00 -0.49188683980E+03  0.49188683983E+03  0.50400001928E-02 0. -1.
    10030    2    1    2    0    0  0.00000000000E+00  0.00000000000E+00  0.84043756834E+03  0.18242112480E+04  0.16190773209E+04 0.  0.
        1    1    3    3  502    0  0.22682281803E+03  0.23852292114E+03 -0.41308930304E+03  0.52818987779E+03  0.50400001928E-02 0. -1.
       -1    1    3    3    0  502 -0.22682281803E+03 -0.23852292114E+03  0.12535268714E+04  0.12960213702E+04  0.50400001928E-02 0.  1.
</event>
<event>
 5   0  0.1000121E-03  0.1564024E+04  0.7818609E-02  0.8842959E-01
       -2   -1    0    0    0  501  0.00000000000E+00  0.00000000000E+00  0.44543421613E+03  0.44543421614E+03  0.25500000920E-02 0.  1.
        2   -1    0    0  501    0  0.00000000000E+00  0.00000000000E+00 -0.13729145327E+04  0.13729145327E+04  0.25500000920E-02 0. -1.
    10030    2    1    2    0    0  0.00000000000E+00  0.00000000000E+00 -0.92748031659E+03  0.18183487489E+04  0.15640244355E+04 0.  0.
        4    1    3    3  502    0 -0.50407202259E+03  0.73039715876E+02  0.22614661387E+03  0.55728566097E+03  0.12699999809E+01 0.  1.
       -4    1    3    3    0  502  0.50407202259E+03 -0.73039715876E+02 -0.11536269305E+04  0.12610630879E+04  0.12699999809E+01 0. -1.
</event>
<event>
 5   0  0.5532881E-04  0.1586454E+04  0.7818609E-02  0.8828913E-01
        1   -1    0    0  501    0  0.00000000000E+00  0.00000000000E+00  0.96643761007E+03  0.96643761008E+03  0.50400001928E-02 0. -1.
       -1   -1    0    0    0  501  0.00000000000E+00  0.00000000000E+00 -0.65106041000E+03  0.65106041002E+03  0.50400001928E-02 0.  1.
    10030    2    1    2    0    0  0.00000000000E+00  0.00000000000E+00  0.31537720007E+03  0.16174980201E+04  0.15864542435E+04 0.  0.
        4    1    3    3  502    0  0.61858822326E+03 -0.33053244868E+02  0.66282642115E+03  0.90723998172E+03  0.12699999809E+01 0. -1.
       -4    1    3    3    0  502 -0.61858822326E+03  0.33053244868E+02 -0.34744922108E+03  0.71025803838E+03  0.12699999809E+01 0.  1.
</event>
<event>
 5   0  0.1037321E-03  0.1597261E+04  0.7818609E-02  0.8822233E-01
        2   -1    0    0  501    0  0.00000000000E+00  0.00000000000E+00  0.26160084856E+04  0.26160084856E+04  0.25500000920E-02 0.  1.
       -2   -1    0    0    0  501  0.00000000000E+00  0.00000000000E+00 -0.24381049767E+03  0.24381049768E+03  0.25500000920E-02 0. -1.
    10030    2    1    2    0    0  0.00000000000E+00  0.00000000000E+00  0.23721979879E+04  0.28598189833E+04  0.15972605684E+04 0.  0.
        5    1    3    3  502    0 -0.41883832059E+03  0.52218534163E+03  0.19658922313E+04  0.20767420218E+04  0.46999998093E+01 0. -1.
       -5    1    3    3    0  502  0.41883832059E+03 -0.52218534163E+03  0.40630575661E+03  0.78307696152E+03  0.46999998093E+01 0.  1.
</event>
<event>
 5   0  0.5281116E-04  0.1620579E+04  0.7818609E-02  0.8808005E-01
        1   -1    0    0  501    0  0.00000000000E+00  0.00000000000E+00  0.77949269431E+03  0.77949269433E+03  0.50400001928E-02 0.  1.
       -1   -1    0    0    0  501  0.00000000000E+00  0.00000000000E+00 -0.84230258405E+03  0.84230258406E+03  0.50400001928E-02 0. -1.
    10030    2    1    2    0    0  0.00000000000E+00  0.00000000000E+00 -0.62809889735E+02  0.16217952784E+04  0.16205785519E+04 0.  0.
        2    1    3    3  502    0  0.24571425550E+03 -0.38982836548E+03 -0.69840896318E+03  0.83672978299E+03  0.25500000920E-02 0. -1.
       -2    1    3    3    0  502 -0.24571425550E+03  0.38982836548E+03  0.63559907345E+03  0.78506549539E+03  0.25500000920E-02 0.  1.
</event>
<event>
 5   0  0.5623061E-04  0.1620321E+04  0.7818609E-02  0.8808161E-01
       -1   -1    0    0    0  501  0.00000000000E+00  0.00000000000E+00  0.54022527907E+03  0.54022527910E+03  0.50400001928E-02 0.  1.
        1   -1    0    0  501    0  0.00000000000E+00  0.00000000000E+00 -0.12149743949E+04  0.12149743949E+04  0.50400001928E-02 0. -1.
    10030    2    1    2    0    0  0.00000000000E+00  0.00000000000E+00 -0.67474911578E+03  0.17551996740E+04  0.16203208097E+04 0.  0.
        3    1    3    3  502    0 -0.11114876658E+03 -0.46549982574E+03  0.37073419482E+03  0.60538251501E+03  0.10100000352E+00 0.  1.
       -3    1    3    3    0  502  0.11114876658E+03  0.46549982574E+03 -0.10454833106E+04  0.11498171590E+04  0.10100000352E+00 0. -1.
</event>
<event>
 5   0  0.1030027E-03  0.1557273E+04  0.7818609E-02  0.8847236E-01
       -2   -1    0    0    0  501  0.00000000000E+00  0.00000000000E+00  0.52283650653E+03  0.52283650654E+03  0.25500000920E-02 0. -1.
        2   -1    0    0  501    0  0.00000000000E+00  0.00000000000E+00 -0.11595874324E+04  0.11595874324E+04  0.25500000920E-02 0.  1.
    10030    2    1    2    0    0  0.00000000000E+00  0.00000000000E+00 -0.63675092586E+03  0.16824239389E+04  0.15572727984E+04 0.  0.
        1    1    3    3  502    0  0.72688995490E+03 -0.11783985428E+03 -0.45020756203E+02  0.73775477383E+03  0.50400001928E-02 0.  1.
       -1    1    3    3    0  502 -0.72688995490E+03  0.11783985428E+03 -0.59173016966E+03  0.94466916510E+03  0.50400001928E-02 0. -1.
</event>
<event>
 5   0  0.5623061E-04  0.1604313E+04  0.7818609E-02  0.8817903E-01
       -1   -1    0    0    0  501  0.00000000000E+00  0.00000000000E+00  0.37859753296E+03  0.37859753299E+03  0.50400001928E-02 0.  1.
        1   -1    0    0  501    0  0.00000000000E+00  0.00000000000E+00 -0.16995744449E+04  0.16995744449E+04  0.50400001928E-02 0. -1.
    10030    2    1    2    0    0  0.00000000000E+00  0.00000000000E+00 -0.13209769119E+04  0.20781719779E+04  0.16043125530E+04 0.  0.
        3    1    3    3  502    0  0.35782306198E+03  0.10017560213E+03 -0.15813672410E+04  0.16244367812E+04  0.10100000352E+00 0. -1.
       -3    1    3    3    0  502 -0.35782306198E+03 -0.10017560213E+03  0.26039032915E+03  0.45373519663E+03  0.10100000352E+00 0.  1.
</event>
<event>
 5   0  0.1030027E-03  0.1593865E+04  0.7818609E-02  0.8824326E-01
       -2   -1    0    0    0  501  0.00000000000E+00  0.00000000000E+00  0.47143775517E+03  0.47143775518E+03  0.25500000920E-02 0.  1.
        2   -1    0    0  501    0  0.00000000000E+00  0.00000000000E+00 -0.13471584124E+04  0.13471584124E+04  0.25500000920E-02 0. -1.
    10030    2    1    2    0    0  0.00000000000E+00  0.00000000000E+00 -0.87572065719E+03  0.18185961675E+04  0.15938649099E+04 0.  0.
        1    1    3    3  502    0 -0.56702995611E+03 -0.55805656061E+03 -0.49078149112E+03  0.93478156166E+03  0.50400001928E-02 0.  1.
       -1    1    3    3    0  502  0.56702995611E+03  0.55805656061E+03 -0.38493916608E+03  0.88381460588E+03  0.50400001928E-02 0. -1.
</event>
<event>
 5   0  0.5623061E-04  0.1545604E+04  0.7818609E-02  0.8854681E-01
        1   -1    0    0  501    0  0.00000000000E+00  0.00000000000E+00  0.77860600824E+03  0.77860600826E+03  0.50400001928E-02 0.  1.
       -1   -1    0    0    0  501  0.00000000000E+00  0.00000000000E+00 -0.76704115960E+03  0.76704115962E+03  0.50400001928E-02 0. -1.
    10030    2    1    2    0    0  0.00000000000E+00  0.00000000000E+00  0.11564848640E+02  0.15456471679E+04  0.15456039020E+04 0.  0.
        3    1    3    3  502    0  0.51452816627E+03  0.46068636164E+03  0.35256538245E+03  0.77541828505E+03  0.10100000352E+00 0.  1.
       -3    1    3    3    0  502 -0.51452816627E+03 -0.46068636164E+03 -0.34100053381E+03  0.77022888283E+03  0.10100000352E+00 0. -1.
</event>
<event>
 5   0  0.5425525E-04  0.1591342E+04  0.7818609E-02  0.8825885E-01
       -1   -1    0    0    0  501  0.00000000000E+00  0.00000000000E+00  0.10696915278E+04  0.10696915278E+04  0.50400001928E-02 0. -1.
        1   -1    0    0  501    0  0.00000000000E+00  0.00000000000E+00 -0.59184560937E+03  0.59184560939E+03  0.50400001928E-02 0.  1.
    10030    2    1    2    0    0  0.00000000000E+00  0.00000000000E+00  0.47784591841E+03  0.16615371372E+04  0.15913418666E+04 0.  0.
        5    1    3    3  502    0  0.57709696469E+03  0.46210201449E+03  0.54598910432E+03  0.91907854424E+03  0.46999998093E+01 0. -1.
       -5    1    3    3    0  502 -0.57709696469E+03 -0.46210201449E+03 -0.68143185912E+02  0.74245859294E+03  0.46999998093E+01 0.  1.
</event>
<event>
 5   0  0.1000121E-03  0.1595893E+04  0.7818609E-02  0.8823075E-01
        2   -1    0    0  501    0  0.00000000000E+00  0.00000000000E+00  0.11407318074E+04  0.11407318074E+04  0.25500000920E-02 0. -1.
       -2   -1    0    0    0  501  0.00000000000E+00  0.00000000000E+00 -0.55816709278E+03  0.55816709279E+03  0.25500000920E-02 0.  1.
    10030    2    1    2    0    0  0.00000000000E+00  0.00000000000E+00  0.58256471464E+03  0.16988989002E+04  0.15958934258E+04 0.  0.
        4    1    3    3  502    0 -0.58971069361E+03 -0.36142147855E+03 -0.13231143239E+03  0.70419607735E+03  0.12699999809E+01 0.  1.
       -4    1    3    3    0  502  0.58971069361E+03  0.36142147855E+03  0.71487614703E+03  0.99470282286E+03  0.12699999809E+01 0. -1.
</event>
<event>
 5   0  0.1057872E-03  0.1499690E+04  0.7818609E-02  0.8884659E-01
        2   -1    0    0  501    0  0.00000000000E+00  0.00000000000E+00  0.11082145043E+04  0.11082145043E+04  0.25500000920E-02 0. -1.
       -2   -1    0    0    0  501  0.00000000000E+00  0.00000000000E+00 -0.50736340671E+03  0.50736340672E+03  0.25500000920E-02 0.  1.
    10030    2    1    2    0    0  0.00000000000E+00  0.00000000000E+00  0.60085109762E+03  0.16155779111E+04  0.14996899497E+04 0.  0.
        2    1    3    3  502    0 -0.54128192811E+03  0.44128794519E+02 -0.25657231827E+03  0.60063535586E+03  0.25500000920E-02 0.  1.
       -2    1    3    3    0  502  0.54128192811E+03 -0.44128794519E+02  0.85742341589E+03  0.10149425552E+04  0.25500000920E-02 0. -1.
</event>
<event>
 5   0  0.5532881E-04  0.1596434E+04  0.7818609E-02  0.8822742E-01
       -1   -1    0    0    0  501  0.00000000000E+00  0.00000000000E+00  0.13675285708E+04  0.13675285708E+04  0.50400001928E-02 0.  1.
        1   -1    0    0  501    0  0.00000000000E+00  0.00000000000E+00 -0.46591347308E+03  0.46591347311E+03  0.50400001928E-02 0. -1.
    10030    2    1    2    0    0  0.00000000000E+00  0.00000000000E+00  0.90161509775E+03  0.18334420439E+04  0.15964335075E+04 0.  0.
        4    1    3    3  502    0  0.13750258189E+03 -0.75279705706E+03  0.19008406610E+03  0.78850740912E+03  0.12699999809E+01 0.  1.
       -4    1    3    3    0  502 -0.13750258189E+03  0.75279705706E+03  0.71153103165E+03  0.10449346348E+04  0.12699999809E+01 0. -1.
</event>
<event>
 5   0  0.3832500E-04  0.1598779E+04  0.7818609E-02  0.8821298E-01
       -3   -1    0    0    0  501  0.00000000000E+00  0.00000000000E+00  0.78793611956E+03  0.78793612603E+03  0.10100000352E+00 0. -1.
        3   -1    0    0  501    0  0.00000000000E+00  0.00000000000E+00 -0.81100953024E+03  0.81100953653E+03  0.10100000352E+00 0.  1.
    10030    2    1    2    0    0  0.00000000000E+00  0.00000000000E+00 -0.23073410683E+02  0.15989456626E+04  0.15987791747E+04 0.  0.
        5    1    3    3  502    0 -0.25184443878E+03 -0.33540425417E+03  0.66903396506E+03  0.78965193058E+03  0.46999998093E+01 0. -1.
       -5    1    3    3    0  502  0.25184443878E+03  0.33540425417E+03 -0.69210737575E+03  0.80929373198E+03  0.46999998093E+01 0.  1.
</event>
<event>
 5   0  0.1037321E-03  0.1807005E+04  0.7818609E-02  0.8702583E-01
        2   -1    0    0  501    0  0.00000000000E+00  0.00000000000E+00  0.14140934261E+04  0.14140934261E+04  0.25500000920E-02 0.  1.
       -2   -1    0    0    0  501  0.00000000000E+00  0.00000000000E+00 -0.57727195695E+03  0.57727195696E+03  0.25500000920E-02 0. -1.
    10030    2    1    2    0    0  0.00000000000E+00  0.00000000000E+00  0.83682146915E+03  0.19913653831E+04  0.18070046811E+04 0.  0.
        5    1    3    3  502    0 -0.38059685054E+03  0.61066930631E+03  0.10205277269E+04  0.12487072898E+04  0.46999998093E+01 0.  1.
       -5    1    3    3    0  502  0.38059685054E+03 -0.61066930631E+03 -0.18370625776E+03  0.74265809323E+03  0.46999998093E+01 0. -1.
</event>
<event>
 5   0  0.5532881E-04  0.1669159E+04  0.7818609E-02  0.8779152E-01
        1   -1    0    0  501    0  0.00000000000E+00  0.00000000000E+00  0.75705622376E+03  0.75705622378E+03  0.50400001928E-02 0. -1.
       -1   -1    0    0    0  501  0.00000000000E+00  0.00000000000E+00 -0.92004110130E+03  0.92004110131E+03  0.50400001928E-02 0.  1.
    10030    2    1    2    0    0  0.00000000000E+00  0.00000000000E+00 -0.16298487754E+03  0.16770973251E+04  0.16691588802E+04 0.  0.
        4    1    3    3  502    0 -0.64936027248E+03  0.45188303377E+03 -0.34856516997E+03  0.86450351665E+03  0.12699999809E+01 0. -1.
       -4    1    3    3    0  502  0.64936027248E+03 -0.45188303377E+03  0.18558029243E+03  0.81259380844E+03  0.12699999809E+01 0.  1.
</event>
<event>
 5   0  0.1000121E-03  0.1587566E+04  0.7818609E-02  0.8828224E-01
       -2   -1    0    0    0  501  0.00000000000E+00  0.00000000000E+00  0.32750613297E+03  0.32750613298E+03  0.25500000920E-02 0.  1.
        2   -1    0    0  501    0  0.00000000000E+00  0.00000000000E+00 -0.19239062095E+04  0.19239062095E+04  0.25500000920E-02 0. -1.
    10030    2    1    2    0    0  0.00000000000E+00  0.00000000000E+00 -0.15964000765E+04  0.22514123424E+04  0.15875655361E+04 0.  0.
        4    1    3    3  502    0  0.12980546154E+03  0.13879426203E+03  0.29476907504E+03  0.35071886963E+03  0.12699999809E+01 0.  1.
       -4    1    3    3    0  502 -0.12980546154E+03 -0.13879426203E+03 -0.18911691515E+04  0.19006934728E+04  0.12699999809E+01 0. -1.
</event>
<event>
 5   0  0.5281116E-04  0.1589237E+04  0.7818609E-02  0.8827188E-01
        1   -1    0    0  501    0  0.00000000000E+00  0.00000000000E+00  0.17310318578E+04  0.17310318578E+04  0.50400001928E-02 0. -1.
       -1   -1    0    0    0  501  0.00000000000E+00  0.00000000000E+00 -0.36476411181E+03  0.36476411184E+03  0.50400001928E-02 0.  1.
    10030    2    1    2    0    0  0.00000000000E+00  0.00000000000E+00  0.13662677460E+04  0.20957959696E+04  0.15892366698E+04 0.  0.
        2    1    3    3  502    0 -0.61688815717E+03  0.19508796224E+03  0.74782650649E+02  0.65130849550E+03  0.25500000920E-02 0.  1.
       -2    1    3    3    0  502  0.61688815717E+03 -0.19508796224E+03  0.12914850953E+04  0.14444874741E+04  0.25500000920E-02 0. -1.
</event>
<event>
 5   0  0.5281116E-04  0.1582569E+04  0.7818609E-02  0.8831329E-01
       -1   -1    0    0    0  501  0.00000000000E+00  0.00000000000E+00  0.80437158590E+03  0.80437158592E+03  0.50400001928E-02 0. -1.
        1   -1    0    0  501    0  0.00000000000E+00  0.00000000000E+00 -0.77840988955E+03  0.77840988956E+03  0.50400001928E-02 0.  1.
    10030    2    1    2    0    0  0.00000000000E+00  0.00000000000E+00  0.25961696357E+02  0.15827814755E+04  0.15825685418E+04 0.  0.
        2    1    3    3  502    0  0.63437609937E+03 -0.46128333567E+03 -0.91510221600E+02  0.78967681483E+03  0.25500000920E-02 0.  1.
       -2    1    3    3    0  502 -0.63437609937E+03  0.46128333567E+03  0.11747191796E+03  0.79310466065E+03  0.25500000920E-02 0. -1.
</event>
<event>
 5   0  0.1057872E-03  0.1577474E+04  0.7818609E-02  0.8834507E-01
        2   -1    0    0  501    0  0.00000000000E+00  0.00000000000E+00  0.12803448908E+04  0.12803448908E+04  0.25500000920E-02 0. -1.
       -2   -1    0    0    0  501  0.00000000000E+00  0.00000000000E+00 -0.48588960513E+03  0.48588960514E+03  0.25500000920E-02 0.  1.
    10030    2    1    2    0    0  0.00000000000E+00  0.00000000000E+00  0.79445528571E+03  0.17662344960E+04  0.15774742768E+04 0.  0.
        2    1    3    3  502    0  0.64367499712E+03 -0.33669069515E+03  0.53165562454E+02  0.72835753800E+03  0.25500000920E-02 0.  1.
       -2    1    3    3    0  502 -0.64367499712E+03  0.33669069515E+03  0.74128972326E+03  0.10378769580E+04  0.25500000920E-02 0. -1.
</event>
<event>
 5   0  0.5425525E-04  0.1641844E+04  0.7818609E-02  0.8795246E-01
        1   -1    0    0  501    0  0.00000000000E+00  0.00000000000E+00  0.14643054100E+04  0.14643054101E+04  0.50400001928E-02 0. -1.
       -1   -1    0    0    0  501  0.00000000000E+00  0.00000000000E+00 -0.46022687362E+03  0.46022687365E+03  0.50400001928E-02 0.  1.
    10030    2    1    2    0    0  0.00000000000E+00  0.00000000000E+00  0.10040785364E+04  0.19245322837E+04  0.16418437209E+04 0.  0.
        5    1    3    3  502    0  0.68059138241E+03 -0.41448474403E+03  0.73319427232E+03  0.10828657183E+04  0.46999998093E+01 0.  1.
       -5    1    3    3    0  502 -0.68059138241E+03  0.41448474403E+03  0.27088426411E+03  0.84166656544E+03  0.46999998093E+01 0. -1.
</event>
<event>
 5   0  0.5532881E-04  0.1548791E+04  0.7818609E-02  0.8852640E-01
       -1   -1    0    0    0  501  0.00000000000E+00  0.00000000000E+00  0.27550310056E+03  0.27550310061E+03  0.50400001928E-02 0.  1.
        1   -1    0    0  501    0  0.00000000000E+00  0.00000000000E+00 -0.21767038818E+04  0.21767038818E+04  0.50400001928E-02 0. -1.
    10030    2    1    2    0    0  0.00000000000E+00  0.00000000000E+00 -0.19012007813E+04  0.24522069824E+04  0.15487913591E+04 0.  0.
        4    1    3    3  502    0 -0.58119343056E+03  0.49289711849E+03 -0.11685775597E+04  0.13951016089E+04  0.12699999809E+01 0. -1.
       -4    1    3    3    0  502  0.58119343056E+03 -0.49289711849E+03 -0.73262322157E+03  0.10571053736E+04  0.12699999809E+01 0.  1.
</event>
<event>
 5   0  0.5425525E-04  0.1594297E+04  0.7818609E-02  0.8824059E-01
       -1   -1    0    0    0  501  0.00000000000E+00  0.00000000000E+00  0.11528692595E+04  0.11528692595E+04  0.50400001928E-02 0.  1.
        1   -1    0    0  501    0  0.00000000000E+00  0.00000000000E+00 -0.55118643468E+03  0.55118643470E+03  0.50400001928E-02 0. -1.
    10030    2    1    2    0    0  0.00000000000E+00  0.00000000000E+00  0.60168282477E+03  0.17040556942E+04  0.15942972079E+04 0.  0.
        5    1    3    3  502    0  0.28559868372E+03  0.50393629644E+03  0.88617931592E+03  0.10587040517E+04  0.46999998093E+01 0.  1.
       -5    1    3    3    0  502 -0.28559868372E+03 -0.50393629644E+03 -0.28449649115E+03  0.64535164251E+03  0.46999998093E+01 0. -1.
</event>
<event>
 5   0  0.1057872E-03  0.1595050E+04  0.7818609E-02  0.8823595E-01
        2   -1    0    0  501    0  0.00000000000E+00  0.00000000000E+00  0.18825805716E+04  0.18825805716E+04  0.25500000920E-02 0. -1.
       -2   -1    0    0    0  501  0.00000000000E+00  0.00000000000E+00 -0.33785867122E+03  0.33785867123E+03  0.25500000920E-02 0.  1.
    10030    2    1    2    0    0  0.00000000000E+00  0.00000000000E+00  0.15447219003E+04  0.22204392428E+04  0.15950500561E+04 0.  0.
        2    1    3    3  502    0 -0.34114651285E+03  0.39933631760E+03  0.16078367199E+04  0.16914459364E+04  0.25500000920E-02 0. -1.
       -2    1    3    3    0  502  0.34114651285E+03 -0.39933631760E+03 -0.63114819560E+02  0.52899330642E+03  0.25500000920E-02 0.  1.
</event>
<event>
 5   0  0.1057872E-03  0.1568087E+04  0.7818609E-02  0.8840397E-01
        2   -1    0    0  501    0  0.00000000000E+00  0.00000000000E+00  0.10977633768E+04  0.10977633768E+04  0.25500000920E-02 0. -1.
       -2   -1    0    0    0  501  0.00000000000E+00  0.00000000000E+00 -0.55997877728E+03  0.55997877728E+03  0.25500000920E-02 0.  1.
    10030    2    1    2    0    0  0.00000000000E+00  0.00000000000E+00  0.53778459948E+03  0.16577421540E+04  0.15680869790E+04 0.  0.
        2    1    3    3  502    0 -0.49611048323E+03  0.14352098303E+03  0.89253615486E+03  0.10311860511E+04  0.25500000920E-02 0. -1.
       -2    1    3    3    0  502  0.49611048323E+03 -0.14352098303E+03 -0.35475155538E+03  0.62655610299E+03  0.25500000920E-02 0.  1.
</event>
<event>
 5   0  0.5288658E-04  0.1584957E+04  0.7818609E-02  0.8829843E-01
       -1   -1    0    0    0  501  0.00000000000E+00  0.00000000000E+00  0.28854597641E+03  0.28854597645E+03  0.50400001928E-02 0.  1.
        1   -1    0    0  501    0  0.00000000000E+00  0.00000000000E+00 -0.21765068792E+04  0.21765068792E+04  0.50400001928E-02 0. -1.
    10030    2    1    2    0    0  0.00000000000E+00  0.00000000000E+00 -0.18879609028E+04  0.24650528556E+04  0.15849571637E+04 0.  0.
        1    1    3    3  502    0 -0.69656584978E+03  0.10034006633E+03 -0.37731558950E+03  0.79852311557E+03  0.50400001928E-02 0.  1.
       -1    1    3    3    0  502  0.69656584978E+03 -0.10034006633E+03 -0.15106453133E+04  0.16665297401E+04  0.50400001928E-02 0. -1.
</event>
<event>
 5   0  0.9844690E-04  0.1597232E+04  0.7818609E-02  0.8822250E-01
        2   -1    0    0  501    0  0.00000000000E+00  0.00000000000E+00  0.54335201247E+03  0.54335201248E+03  0.25500000920E-02 0. -1.
       -2   -1    0    0    0  501  0.00000000000E+00  0.00000000000E+00 -0.11738020593E+04  0.11738020593E+04  0.25500000920E-02 0.  1.
    10030    2    1    2    0    0  0.00000000000E+00  0.00000000000E+00 -0.63045004686E+03  0.17171540718E+04  0.15972322451E+04 0.  0.
        3    1    3    3  502    0 -0.33188516622E+03  0.21767113319E+02  0.46535052816E+03  0.57199011796E+03  0.10100000352E+00 0. -1.
       -3    1    3    3    0  502  0.33188516622E+03 -0.21767113319E+02 -0.10958005750E+04  0.11451639539E+04  0.10100000352E+00 0.  1.
</event>
<event>
 5   0  0.9844690E-04  0.1607249E+04  0.7818609E-02  0.8816107E-01
        2   -1    0    0  501    0  0.00000000000E+00  0.00000000000E+00  0.57504053583E+03  0.57504053583E+03  0.25500000920E-02 0.  1.
       -2   -1    0    0    0  501  0.00000000000E+00  0.00000000000E+00 -0.11230720546E+04  0.11230720546E+04  0.25500000920E-02 0. -1.
    10030    2    1    2    0    0  0.00000000000E+00  0.00000000000E+00 -0.54803151877E+03  0.16981125904E+04  0.16072485260E+04 0.  0.
        3    1    3    3  502    0  0.32474735121E+02  0.67847314942E+03 -0.72774944417E+03  0.99548967177E+03  0.10100000352E+00 0. -1.
       -3    1    3    3    0  502 -0.32474735121E+02 -0.67847314942E+03  0.17971792541E+03  0.70262291866E+03  0.10100000352E+00 0.  1.
</event>
<event>
 5   0  0.1000121E-03  0.1603146E+04  0.7818609E-02  0.8818617E-01
        2   -1    0    0  501    0  0.00000000000E+00  0.00000000000E+00  0.18286231305E+04  0.18286231305E+04  0.25500000920E-02 0.  1.
       -2   -1    0    0    0  501  0.00000000000E+00  0.00000000000E+00 -0.35136789956E+03  0.35136789957E+03  0.25500000920E-02 0. -1.
    10030    2    1    2    0    0  0.00000000000E+00  0.00000000000E+00  0.14772552310E+04  0.21799910301E+04  0.16031462422E+04 0.  0.
        4    1    3    3  502    0 -0.41356351542E+02  0.23372959936E+03 -0.30248166077E+03  0.38449530743E+03  0.12699999809E+01 0. -1.
       -4    1    3    3    0  502  0.41356351542E+02 -0.23372959936E+03  0.17797368918E+04  0.17954957227E+04  0.12699999809E+01 0.  1.
</event>
<event>
 5   0  0.5532881E-04  0.1630877E+04  0.7818609E-02  0.8801800E-01
       -1   -1    0    0    0  501  0.00000000000E+00  0.00000000000E+00  0.53557038438E+03  0.53557038440E+03  0.50400001928E-02 0. -1.
        1   -1    0    0  501    0  0.00000000000E+00  0.00000000000E+00 -0.12415553968E+04  0.12415553968E+04  0.50400001928E-02 0.  1.
    10030    2    1    2    0    0  0.00000000000E+00  0.00000000000E+00 -0.70598501245E+03  0.17771257812E+04  0.16308774339E+04 0.  0.
        4    1    3    3  502    0  0.15390287445E+01 -0.34608159082E+03  0.45157107384E+03  0.56894014074E+03  0.12699999809E+01 0. -1.
       -4    1    3    3    0  502 -0.15390287445E+01  0.34608159082E+03 -0.11575560863E+04  0.12081856405E+04  0.12699999809E+01 0.  1.
</event>
<event>
 5   0  0.5532881E-04  0.1601836E+04  0.7818609E-02  0.8819421E-01
        1   -1    0    0  501    0  0.00000000000E+00  0.00000000000E+00  0.87630298078E+03  0.87630298079E+03  0.50400001928E-02 0. -1.
       -1   -1    0    0    0  501  0.00000000000E+00  0.00000000000E+00 -0.73201806466E+03  0.73201806468E+03  0.50400001928E-02 0.  1.
    10030    2    1    2    0    0  0.00000000000E+00  0.00000000000E+00  0.14428491612E+03  0.16083210455E+04  0.16018359617E+04 0.  0.
        4    1    3    3  502    0 -0.70342239832E+03 -0.33052957536E+02 -0.31094177020E+03  0.76979345660E+03  0.12699999809E+01 0.  1.
       -4    1    3    3    0  502  0.70342239832E+03  0.33052957536E+02  0.45522668632E+03  0.83852758887E+03  0.12699999809E+01 0. -1.
</event>
<event>
 5   0  0.1037321E-03  0.1608323E+04  0.7818609E-02  0.8815451E-01
       -2   -1    0    0    0  501  0.00000000000E+00  0.00000000000E+00  0.99213997763E+03  0.99213997764E+03  0.25500000920E-02 0. -1.
        2   -1    0    0  501    0  0.00000000000E+00  0.00000000000E+00 -0.65179920387E+03  0.65179920387E+03  0.25500000920E-02 0.  1.
    10030    2    1    2    0    0  0.00000000000E+00  0.00000000000E+00  0.34034077377E+03  0.16439391815E+04  0.16083234097E+04 0.  0.
        5    1    3    3  502    0  0.67093499669E+03  0.36680675284E+03  0.42458585502E+03  0.87464061305E+03  0.46999998093E+01 0. -1.
       -5    1    3    3    0  502 -0.67093499669E+03 -0.36680675284E+03 -0.84245081258E+02  0.76929856846E+03  0.46999998093E+01 0.  1.
</event>
<event>
 5   0  0.5532881E-04  0.1398180E+04  0.7818609E-02  0.8955137E-01
        1   -1    0    0  501    0  0.00000000000E+00  0.00000000000E+00  0.43976600012E+03  0.43976600014E+03  0.50400001928E-02 0.  1.
       -1   -1    0    0    0  501  0.00000000000E+00  0.00000000000E+00 -0.11113340153E+04  0.11113340154E+04  0.50400001928E-02 0. -1.
    10030    2    1    2    0    0  0.00000000000E+00  0.00000000000E+00 -0.67156801523E+03  0.15511000155E+04  0.13981801240E+04 0.  0.
        4    1    3    3  502    0  0.16113276389E+03 -0.53269688330E+03 -0.80513507853E+03  0.97876138290E+03  0.12699999809E+01 0. -1.
       -4    1    3    3    0  502 -0.16113276389E+03  0.53269688330E+03  0.13356706330E+03  0.57233863261E+03  0.12699999809E+01 0.  1.
</event>
<event>
 5   0  0.9844690E-04  0.1680987E+04  0.7818609E-02  0.8772283E-01
       -2   -1    0    0    0  501  0.00000000000E+00  0.00000000000E+00  0.35539635387E+03  0.35539635388E+03  0.25500000920E-02 0. -1.
        2   -1    0    0  501    0  0.00000000000E+00  0.00000000000E+00 -0.19877233382E+04  0.19877233382E+04  0.25500000920E-02 0.  1.
    10030    2    1    2    0    0  0.00000000000E+00  0.00000000000E+00 -0.16323269843E+04  0.23431196921E+04  0.16809873609E+04 0.  0.
        3    1    3    3  502    0  0.60009402682E+03  0.29333807283E+03 -0.10504543433E+03  0.67616168146E+03  0.10100000352E+00 0. -1.
       -3    1    3    3    0  502 -0.60009402682E+03 -0.29333807283E+03 -0.15272815500E+04  0.16669580106E+04  0.10100000352E+00 0.  1.
</event>
<event>
 5   0  0.9844690E-04  0.1609028E+04  0.7818609E-02  0.8815021E-01
        2   -1    0    0  501    0  0.00000000000E+00  0.00000000000E+00  0.92739332782E+03  0.92739332782E+03  0.25500000920E-02 0. -1.
       -2   -1    0    0    0  501  0.00000000000E+00  0.00000000000E+00 -0.69791584241E+03  0.69791584241E+03  0.25500000920E-02 0.  1.
    10030    2    1    2    0    0  0.00000000000E+00  0.00000000000E+00  0.22947748541E+03  0.16253091702E+04  0.16090276513E+04 0.  0.
        3    1    3    3  502    0  0.64199905973E+03  0.47617147344E+03  0.22488725713E+02  0.79962980047E+03  0.10100000352E+00 0.  1.
       -3    1    3    3    0  502 -0.64199905973E+03 -0.47617147344E+03  0.20698875970E+03  0.82567936976E+03  0.10100000352E+00 0. -1.
</event>
<event>
 5   0  0.5532881E-04  0.1551619E+04  0.7818609E-02  0.8850834E-01
        1   -1    0    0  501    0  0.00000000000E+00  0.00000000000E+00  0.96099676551E+03  0.96099676552E+03  0.50400001928E-02 0.  1.
       -1   -1    0    0    0  501  0.00000000000E+00  0.00000000000E+00 -0.62630823461E+03  0.62630823463E+03  0.50400001928E-02 0. -1.
    10030    2    1    2    0    0  0.00000000000E+00  0.00000000000E+00  0.33468853090E+03  0.15873050002E+04  0.15516187518E+04 0.  0.
        4    1    3    3  502    0  0.26919792765E+03  0.43484767167E+03  0.76412964887E+03  0.91948668016E+03  0.12699999809E+01 0.  1.
       -4    1    3    3    0  502 -0.26919792765E+03 -0.43484767167E+03 -0.42944111797E+03  0.66781831999E+03  0.12699999809E+01 0. -1.
</event>
<event>
 5   0  0.5623061E-04  0.1576022E+04  0.7818609E-02  0.8835416E-01
        1   -1    0    0  501    0  0.00000000000E+00  0.00000000000E+00  0.18969006503E+04  0.18969006503E+04  0.50400001928E-02 0.  1.
       -1   -1    0    0    0  501  0.00000000000E+00  0.00000000000E+00 -0.32735564015E+03  0.32735564019E+03  0.50400001928E-02 0. -1.
    10030    2    1    2    0    0  0.00000000000E+00  0.00000000000E+00  0.15695450102E+04  0.22242562905E+04  0.15760217343E+04 0.  0.
        3    1    3    3  502    0 -0.20638599216E+03  0.10792699506E+03 -0.27767141248E+03  0.36241528325E+03  0.10100000352E+00 0. -1.
       -3    1    3    3    0  502  0.20638599216E+03 -0.10792699506E+03  0.18472164226E+04  0.18618410073E+04  0.10100000352E+00 0.  1.
</event>
<event>
 5   0  0.5532881E-04  0.1579645E+04  0.7818609E-02  0.8833151E-01
        1   -1    0    0  501    0  0.00000000000E+00  0.00000000000E+00  0.17005385199E+04  0.17005385199E+04  0.50400001928E-02 0. -1.
       -1   -1    0    0    0  501  0.00000000000E+00  0.00000000000E+00 -0.36683639341E+03  0.36683639345E+03  0.50400001928E-02 0.  1.
    10030    2    1    2    0    0  0.00000000000E+00  0.00000000000E+00  0.13337021265E+04  0.20673749133E+04  0.15796447924E+04 0.  0.
        4    1    3    3  502    0  0.53733172602E+03 -0.67364262224E+01 -0.90701366669E+02  0.54497625090E+03  0.12699999809E+01 0.  1.
       -4    1    3    3    0  502 -0.53733172602E+03  0.67364262224E+01  0.14244034931E+04  0.15223986624E+04  0.12699999809E+01 0. -1.
</event>
<event>
 5   0  0.1037321E-03  0.1614768E+04  0.7818609E-02  0.8811526E-01
        2   -1    0    0  501    0  0.00000000000E+00  0.00000000000E+00  0.16757146597E+04  0.16757146597E+04  0.25500000920E-02 0. -1.
       -2   -1    0    0    0  501  0.00000000000E+00  0.00000000000E+00 -0.38900964653E+03  0.38900964654E+03  0.25500000920E-02 0.  1.
    10030    2    1    2    0    0  0.00000000000E+00  0.00000000000E+00  0.12867050132E+04  0.20647243062E+04  0.16147683022E+04 0.  0.
        5    1    3    3  502    0 -0.15493796425E+03  0.26109851439E+03  0.15999239914E+04  0.16284830596E+04  0.46999998093E+01 0. -1.
       -5    1    3    3    0  502  0.15493796425E+03 -0.26109851439E+03 -0.31321897824E+03  0.43624124669E+03  0.46999998093E+01 0.  1.
</event>
<event>
 5   0  0.5532881E-04  0.1598045E+04  0.7818609E-02  0.8821750E-01
        1   -1    0    0  501    0  0.00000000000E+00  0.00000000000E+00  0.15917769921E+04  0.15917769921E+04  0.50400001928E-02 0.  1.
       -1   -1    0    0    0  501  0.00000000000E+00  0.00000000000E+00 -0.40108457643E+03  0.40108457647E+03  0.50400001928E-02 0. -1.
    10030    2    1    2    0    0  0.00000000000E+00  0.00000000000E+00  0.11906924157E+04  0.19928615686E+04  0.15980453069E+04 0.  0.
        4    1    3    3  502    0  0.69274965338E+02 -0.75881362779E+03  0.29543247714E+03  0.81723870686E+03  0.12699999809E+01 0. -1.
       -4    1    3    3    0  502 -0.69274965338E+02  0.75881362779E+03  0.89525993852E+03  0.11756228617E+04  0.12699999809E+01 0.  1.
</event>
<event>
 5   0  0.3832500E-04  0.1604120E+04  0.7818609E-02  0.8818021E-01
       -3   -1    0    0    0  501  0.00000000000E+00  0.00000000000E+00  0.63932786285E+03  0.63932787083E+03  0.10100000352E+00 0.  1.
        3   -1    0    0  501    0  0.00000000000E+00  0.00000000000E+00 -0.10062135704E+04  0.10062135755E+04  0.10100000352E+00 0. -1.
    10030    2    1    2    0    0  0.00000000000E+00  0.00000000000E+00 -0.36688570756E+03  0.16455414463E+04  0.16041201729E+04 0.  0.
        1    1    3    3  502    0 -0.57371195692E+03  0.53246435117E+03 -0.36299592090E+03  0.86280341526E+03  0.50400001928E-02 0.  1.
       -1    1    3    3    0  502  0.57371195692E+03 -0.53246435117E+03 -0.38897866648E+01  0.78273803104E+03  0.50400001928E-02 0. -1.
</event>
<event>
 5   0  0.5281116E-04  0.1382501E+04  0.7818609E-02  0.8966584E-01
       -1   -1    0    0    0  501  0.00000000000E+00  0.00000000000E+00  0.28632389272E+03  0.28632389276E+03  0.50400001928E-02 0. -1.
        1   -1    0    0  501    0  0.00000000000E+00  0.00000000000E+00 -0.16688347121E+04  0.16688347121E+04  0.50400001928E-02 0.  1.
    10030    2    1    2    0    0  0.00000000000E+00  0.00000000000E+00 -0.13825108193E+04  0.19551586048E+04  0.13825009962E+04 0.  0.
        2    1    3    3  502    0 -0.16766302741E+01  0.37030378489E+03  0.13421653741E+03  0.39388041728E+03  0.25500000920E-02 0. -1.
       -2    1    3    3    0  502  0.16766302741E+01 -0.37030378489E+03 -0.15167273568E+04  0.15612781875E+04  0.25500000920E-02 0.  1.
</event>
<event>
 5   0  0.5425525E-04  0.1546194E+04  0.7818609E-02  0.8854302E-01
       -1   -1    0    0    0  501  0.00000000000E+00  0.00000000000E+00  0.29697967701E+03  0.29697967706E+03  0.50400001928E-02 0. -1.
        1   -1    0    0  501    0  0.00000000000E+00  0.00000000000E+00 -0.20125260489E+04  0.20125260489E+04  0.50400001928E-02 0.  1.
    10030    2    1    2    0    0  0.00000000000E+00  0.00000000000E+00 -0.17155463718E+04  0.23095057259E+04  0.15461944716E+04 0.  0.
        5    1    3    3  502    0  0.43881992663E+02 -0.76764523649E+03 -0.73779126086E+03  0.10656279243E+04  0.46999998093E+01 0. -1.
       -5    1    3    3    0  502 -0.43881992663E+02  0.76764523649E+03 -0.97775511098E+03  0.12438778016E+04  0.46999998093E+01 0.  1.
</event>
<event>
 5   0  0.1057872E-03  0.1591474E+04  0.7818609E-02  0.8825803E-01
        2   -1    0    0  501    0  0.00000000000E+00  0.00000000000E+00  0.16288927371E+04  0.16288927371E+04  0.25500000920E-02 0.  1.
       -2   -1    0    0    0  501  0.00000000000E+00  0.00000000000E+00 -0.38872849860E+03  0.38872849861E+03  0.25500000920E-02 0. -1.
    10030    2    1    2    0    0  0.00000000000E+00  0.00000000000E+00  0.12401642385E+04  0.20176212357E+04  0.15914735664E+04 0.  0.
        2    1    3    3  502    0 -0.23241824225E+03 -0.27609674031E+03 -0.27900618601E+03  0.45617113147E+03  0.25500000920E-02 0. -1.
       -2    1    3    3    0  502  0.23241824225E+03  0.27609674031E+03  0.15191704245E+04  0.15614501043E+04  0.25500000920E-02 0.  1.
</event>
<event>
 5   0  0.1000121E-03  0.1325013E+04  0.7818609E-02  0.9009961E-01
       -2   -1    0    0    0  501  0.00000000000E+00  0.00000000000E+00  0.57575661687E+03  0.57575661687E+03  0.25500000920E-02 0.  1.
        2   -1    0    0  501    0  0.00000000000E+00  0.00000000000E+00 -0.76232754657E+03  0.76232754657E+03  0.25500000920E-02 0. -1.
    10030    2    1    2    0    0  0.00000000000E+00  0.00000000000E+00 -0.18657092970E+03  0.13380841634E+04  0.13250134024E+04 0.  0.
        4    1    3    3  502    0  0.19723115613E+03  0.56525201295E+03  0.19324491359E+03  0.62909075388E+03  0.12699999809E+01 0.  1.
       -4    1    3    3    0  502 -0.19723115613E+03 -0.56525201295E+03 -0.37981584329E+03  0.70899340956E+03  0.12699999809E+01 0. -1.
</event>
<event>
 5   0  0.9844690E-04  0.1579969E+04  0.7818609E-02  0.8832949E-01
       -2   -1    0    0    0  501  0.00000000000E+00  0.00000000000E+00  0.37823353983E+03  0.37823353983E+03  0.25500000920E-02 0.  1.
        2   -1    0    0  501    0  0.00000000000E+00  0.00000000000E+00 -0.16499747169E+04  0.16499747169E+04  0.25500000920E-02 0. -1.
    10030    2    1    2    0    0  0.00000000000E+00  0.00000000000E+00 -0.12717411770E+04  0.20282082567E+04  0.15799693387E+04 0.  0.
        3    1    3    3  502    0 -0.10082052000E+03 -0.77948897820E+03 -0.53391592724E+03  0.95017581107E+03  0.10100000352E+00 0.  1.
       -3    1    3    3    0  502  0.10082052000E+03  0.77948897820E+03 -0.73782524979E+03  0.10780324456E+04  0.10100000352E+00 0. -1.
</event>
<event>
 5   0  0.5532881E-04  0.1572306E+04  0.7818609E-02  0.8837744E-01
       -1   -1    0    0    0  501  0.00000000000E+00  0.00000000000E+00  0.28420563051E+03  0.28420563056E+03  0.50400001928E-02 0. -1.
        1   -1    0    0  501    0  0.00000000000E+00  0.00000000000E+00 -0.21746112903E+04  0.21746112903E+04  0.50400001928E-02 0.  1.
    10030    2    1    2    0    0  0.00000000000E+00  0.00000000000E+00 -0.18904056598E+04  0.24588169209E+04  0.15723062971E+04 0.  0.
        4    1    3    3  502    0 -0.61775636176E+03  0.24914933441E+03 -0.15981584024E+04  0.17314185529E+04  0.12699999809E+01 0.  1.
       -4    1    3    3    0  502  0.61775636176E+03 -0.24914933441E+03 -0.29224725739E+03  0.72739836794E+03  0.12699999809E+01 0. -1.
</event>
<event>
 5   0  0.5623061E-04  0.1575667E+04  0.7818609E-02  0.8835638E-01
       -1   -1    0    0    0  501  0.00000000000E+00  0.00000000000E+00  0.57842706244E+03  0.57842706246E+03  0.50400001928E-02 0. -1.
        1   -1    0    0  501    0  0.00000000000E+00  0.00000000000E+00 -0.10730502481E+04  0.10730502481E+04  0.50400001928E-02 0.  1.
    10030    2    1    2    0    0  0.00000000000E+00  0.00000000000E+00 -0.49462318567E+03  0.16514773106E+04  0.15756665928E+04 0.  0.
        3    1    3    3  502    0  0.78712290933E+03 -0.24415165982E+02 -0.22334854814E+03  0.81856164025E+03  0.10100000352E+00 0. -1.
       -3    1    3    3    0  502 -0.78712290933E+03  0.24415165982E+02 -0.27127463753E+03  0.83291567033E+03  0.10100000352E+00 0.  1.
</event>
<event>
 5   0  0.5425525E-04  0.1599477E+04  0.7818609E-02  0.8820869E-01
       -1   -1    0    0    0  501  0.00000000000E+00  0.00000000000E+00  0.10569063338E+04  0.10569063338E+04  0.50400001928E-02 0. -1.
        1   -1    0    0  501    0  0.00000000000E+00  0.00000000000E+00 -0.60514492595E+03  0.60514492597E+03  0.50400001928E-02 0.  1.
    10030    2    1    2    0    0  0.00000000000E+00  0.00000000000E+00  0.45176140783E+03  0.16620512598E+04  0.15994767958E+04 0.  0.
        5    1    3    3  502    0 -0.49782482802E+03 -0.16037115783E+03 -0.40277593684E+03  0.66015075017E+03  0.46999998093E+01 0.  1.
       -5    1    3    3    0  502  0.49782482802E+03  0.16037115783E+03  0.85453734468E+03  0.10019005096E+04  0.46999998093E+01 0. -1.
</event>
<event>
 5   0  0.5425525E-04  0.1273186E+04  0.7818609E-02  0.9051103E-01
       -1   -1    0    0    0  501  0.00000000000E+00  0.00000000000E+00  0.52248696825E+03  0.52248696828E+03  0.50400001928E-02 0. -1.
        1   -1    0    0  501    0  0.00000000000E+00  0.00000000000E+00 -0.77561875067E+03  0.77561875069E+03  0.50400001928E-02 0.  1.
    10030    2    1    2    0    0  0.00000000000E+00  0.00000000000E+00 -0.25313178242E+03  0.12981057190E+04  0.12731860659E+04 0.  0.
        5    1    3    3  502    0 -0.25391448265E+02  0.80296988046E+02 -0.76989626553E+03  0.77450286094E+03  0.46999998093E+01 0.  1.
       -5    1    3    3    0  502  0.25391448265E+02 -0.80296988046E+02  0.51676448311E+03  0.52360285803E+03  0.46999998093E+01 0. -1.
</event>
<event>
 5   0  0.1057872E-03  0.1605273E+04  0.7818609E-02  0.8817315E-01
       -2   -1    0    0    0  501  0.00000000000E+00  0.00000000000E+00  0.20549759658E+04  0.20549759658E+04  0.25500000920E-02 0. -1.
        2   -1    0    0  501    0  0.00000000000E+00  0.00000000000E+00 -0.31349523999E+03  0.31349524000E+03  0.25500000920E-02 0.  1.
    10030    2    1    2    0    0  0.00000000000E+00  0.00000000000E+00  0.17414807258E+04  0.23684712058E+04  0.16052727912E+04 0.  0.
        2    1    3    3  502    0  0.41000651109E+03  0.26275028574E+03  0.18121102129E+04  0.18764025355E+04  0.25500000920E-02 0. -1.
       -2    1    3    3    0  502 -0.41000651109E+03 -0.26275028574E+03 -0.70629487064E+02  0.49206867025E+03  0.25500000920E-02 0.  1.
</event>
<event>
 5   0  0.1057872E-03  0.1604507E+04  0.7818609E-02  0.8817784E-01
       -2   -1    0    0    0  501  0.00000000000E+00  0.00000000000E+00  0.12795831374E+04  0.12795831375E+04  0.25500000920E-02 0. -1.
        2   -1    0    0  501    0  0.00000000000E+00  0.00000000000E+00 -0.50298463831E+03  0.50298463831E+03  0.25500000920E-02 0.  1.
    10030    2    1    2    0    0  0.00000000000E+00  0.00000000000E+00  0.77659849914E+03  0.17825677758E+04  0.16045069792E+04 0.  0.
        2    1    3    3  502    0 -0.57014519209E+02  0.22237859643E+03 -0.46571337291E+03  0.51922234280E+03  0.25500000920E-02 0.  1.
       -2    1    3    3    0  502  0.57014519209E+02 -0.22237859643E+03  0.12423118721E+04  0.12633454330E+04  0.25500000920E-02 0. -1.
</event>
<event>
 5   0  0.5623061E-04  0.1575170E+04  0.7818609E-02  0.8835949E-01
       -1   -1    0    0    0  501  0.00000000000E+00  0.00000000000E+00  0.10390491832E+04  0.10390491832E+04  0.50400001928E-02 0. -1.
        1   -1    0    0  501    0  0.00000000000E+00  0.00000000000E+00 -0.59697848705E+03  0.59697848707E+03  0.50400001928E-02 0.  1.
    10030    2    1    2    0    0  0.00000000000E+00  0.00000000000E+00  0.44207069610E+03  0.16360276702E+04  0.15751698440E+04 0.  0.
        3    1    3    3  502    0  0.88889569149E+02  0.34628810766E+03  0.94991286184E+03  0.10149636763E+04  0.10100000352E+00 0. -1.
       -3    1    3    3    0  502 -0.88889569149E+02 -0.34628810766E+03 -0.50784216573E+03  0.62106399389E+03  0.10100000352E+00 0.  1.
</event>
<event>
 5   0  0.5288658E-04  0.1628855E+04  0.7818609E-02  0.8803015E-01
        1   -1    0    0  501    0  0.00000000000E+00  0.00000000000E+00  0.62669939343E+03  0.62669939345E+03  0.50400001928E-02 0.  1.
       -1   -1    0    0    0  501  0.00000000000E+00  0.00000000000E+00 -0.10583894954E+04  0.10583894954E+04  0.50400001928E-02 0. -1.
    10030    2    1    2    0    0  0.00000000000E+00  0.00000000000E+00 -0.43169010193E+03  0.16850888888E+04  0.16288548797E+04 0.  0.
        1    1    3    3  502    0  0.39004659630E+03 -0.70666569932E+03 -0.10356564522E+03  0.81378043769E+03  0.50400001928E-02 0. -1.
       -1    1    3    3    0  502 -0.39004659630E+03  0.70666569932E+03 -0.32812445671E+03  0.87130845112E+03  0.50400001928E-02 0.  1.
</event>
<event>
 5   0  0.1030027E-03  0.1565686E+04  0.7818609E-02  0.8841910E-01
       -2   -1    0    0    0  501  0.00000000000E+00  0.00000000000E+00  0.26570984937E+03  0.26570984938E+03  0.25500000920E-02 0. -1.
        2   -1    0    0  501    0  0.00000000000E+00  0.00000000000E+00 -0.23064368051E+04  0.23064368051E+04  0.25500000920E-02 0.  1.
    10030    2    1    2    0    0  0.00000000000E+00  0.00000000000E+00 -0.20407269558E+04  0.25721466545E+04  0.15656857617E+04 0.  0.
        1    1    3    3  502    0  0.29079372414E+03 -0.42438422248E+03 -0.50985729912E+02  0.51697437361E+03  0.50400001928E-02 0. -1.
       -1    1    3    3    0  502 -0.29079372414E+03  0.42438422248E+03 -0.19897412259E+04  0.20551722809E+04  0.50400001928E-02 0.  1.
</event>
<event>
 5   0  0.1037321E-03  0.1612559E+04  0.7818609E-02  0.8812869E-01
       -2   -1    0    0    0  501  0.00000000000E+00  0.00000000000E+00  0.65424659332E+03  0.65424659333E+03  0.25500000920E-02 0. -1.
        2   -1    0    0  501    0  0.00000000000E+00  0.00000000000E+00 -0.99364195567E+03  0.99364195567E+03  0.25500000920E-02 0.  1.
    10030    2    1    2    0    0  0.00000000000E+00  0.00000000000E+00 -0.33939536235E+03  0.16478885490E+04  0.16125592882E+04 0.  0.
        5    1    3    3  502    0  0.20483998170E+03 -0.41758926187E+03 -0.84270402001E+03  0.96255512313E+03  0.46999998093E+01 0.  1.
       -5    1    3    3    0  502 -0.20483998170E+03  0.41758926187E+03  0.50330865766E+03  0.68533342587E+03  0.46999998093E+01 0. -1.
</event>
<event>
 5   0  0.5281116E-04  0.1607675E+04  0.7818609E-02  0.8815847E-01
        1   -1    0    0  501    0  0.00000000000E+00  0.00000000000E+00  0.76820890189E+03  0.76820890191E+03  0.50400001928E-02 0. -1.
       -1   -1    0    0    0  501  0.00000000000E+00  0.00000000000E+00 -0.84111887774E+03  0.84111887776E+03  0.50400001928E-02 0.  1.
    10030    2    1    2    0    0  0.00000000000E+00  0.00000000000E+00 -0.72909975852E+02  0.16093277797E+04  0.16076753521E+04 0.  0.
        2    1    3    3  502    0 -0.32661133530E+03 -0.52436292791E+03 -0.55130216756E+03  0.82798884321E+03  0.25500000920E-02 0.  1.
       -2    1    3    3    0  502  0.32661133530E+03  0.52436292791E+03  0.47839219171E+03  0.78133893645E+03  0.25500000920E-02 0. -1.
</event>
<event>
 5   0  0.5281116E-04  0.1605711E+04  0.7818609E-02  0.8817047E-01
        1   -1    0    0  501    0  0.00000000000E+00  0.00000000000E+00  0.11755921263E+04  0.11755921264E+04  0.50400001928E-02 0. -1.
       -1   -1    0    0    0  501  0.00000000000E+00  0.00000000000E+00 -0.54829948191E+03  0.54829948194E+03  0.50400001928E-02 0.  1.
    10030    2    1    2    0    0  0.00000000000E+00  0.00000000000E+00  0.62729264443E+03  0.17238916083E+04  0.16057105017E+04 0.  0.
        2    1    3    3  502    0 -0.65493527742E+03 -0.65039576626E+02  0.80727633519E+03  0.10415687426E+04  0.25500000920E-02 0. -1.
       -2    1    3    3    0  502  0.65493527742E+03  0.65039576626E+02 -0.17998369076E+03  0.68232286572E+03  0.25500000920E-02 0.  1.
</event>
<event>
 5   0  0.5623061E-04  0.1598240E+04  0.7818609E-02  0.8821630E-01
       -1   -1    0    0    0  501  0.00000000000E+00  0.00000000000E+00  0.46625761648E+03  0.46625761651E+03  0.50400001928E-02 0.  1.
        1   -1    0    0  501    0  0.00000000000E+00  0.00000000000E+00 -0.13696129825E+04  0.13696129825E+04  0.50400001928E-02 0. -1.
    10030    2    1    2    0    0  0.00000000000E+00  0.00000000000E+00 -0.90335536602E+03  0.18358705990E+04  0.15982396375E+04 0.  0.
        3    1    3    3  502    0 -0.65454609375E+03  0.43483286144E+03 -0.61846339288E+03  0.10000035924E+04  0.10100000352E+00 0. -1.
       -3    1    3    3    0  502  0.65454609375E+03 -0.43483286144E+03 -0.28489197314E+03  0.83586700664E+03  0.10100000352E+00 0.  1.
</event>
<event>
 5   0  0.9844690E-04  0.1602191E+04  0.7818609E-02  0.8819203E-01
        2   -1    0    0  501    0  0.00000000000E+00  0.00000000000E+00  0.11842947490E+04  0.11842947490E+04  0.25500000920E-02 0.  1.
       -2   -1    0    0    0  501  0.00000000000E+00  0.00000000000E+00 -0.54188715833E+03  0.54188715833E+03  0.25500000920E-02 0. -1.
    10030    2    1    2    0    0  0.00000000000E+00  0.00000000000E+00  0.64240759068E+03  0.17261819073E+04  0.16021911449E+04 0.  0.
        3    1    3    3  502    0  0.10405487126E+03 -0.79376569101E+03  0.35284890018E+03  0.87486784432E+03  0.10100000352E+00 0.  1.
       -3    1    3    3    0  502 -0.10405487126E+03  0.79376569101E+03  0.28955869050E+03  0.85131406303E+03  0.10100000352E+00 0. -1.
</event>
<event>
 5   0  0.5425525E-04  0.1567965E+04  0.7818609E-02  0.8840474E-01
        1   -1    0    0  501    0  0.00000000000E+00  0.00000000000E+00  0.12489166872E+04  0.12489166872E+04  0.50400001928E-02 0.  1.
       -1   -1    0    0    0  501  0.00000000000E+00  0.00000000000E+00 -0.49212946300E+03  0.49212946302E+03  0.50400001928E-02 0. -1.
    10030    2    1    2    0    0  0.00000000000E+00  0.00000000000E+00  0.75678722416E+03  0.17410461502E+04  0.15679651764E+04 0.  0.
        5    1    3    3  502    0 -0.14131854621E+03  0.99640822029E+02  0.12274629530E+04  0.12395913101E+04  0.46999998093E+01 0.  1.
       -5    1    3    3    0  502  0.14131854621E+03 -0.99640822029E+02 -0.47067572888E+03  0.50145484011E+03  0.46999998093E+01 0. -1.
</event>
<event>
 5   0  0.5281116E-04  0.1538389E+04  0.7818609E-02  0.8859319E-01
       -1   -1    0    0    0  501  0.00000000000E+00  0.00000000000E+00  0.71203309810E+03  0.71203309812E+03  0.50400001928E-02 0.  1.
        1   -1    0    0  501    0  0.00000000000E+00  0.00000000000E+00 -0.83094444394E+03  0.83094444395E+03  0.50400001928E-02 0. -1.
    10030    2    1    2    0    0  0.00000000000E+00  0.00000000000E+00 -0.11891134584E+03  0.15429775421E+04  0.15383886983E+04 0.  0.
        2    1    3    3  502    0  0.61412095739E+03 -0.21797248770E+03 -0.46933514593E+03  0.80307660588E+03  0.25500000920E-02 0. -1.
       -2    1    3    3    0  502 -0.61412095739E+03  0.21797248770E+03  0.35042380009E+03  0.73990093619E+03  0.25500000920E-02 0.  1.
</event>
<event>
 5   0  0.9844690E-04  0.1387707E+04  0.7818609E-02  0.8962765E-01
        2   -1    0    0  501    0  0.00000000000E+00  0.00000000000E+00  0.90295968323E+03  0.90295968323E+03  0.25500000920E-02 0. -1.
       -2   -1    0    0    0  501  0.00000000000E+00  0.00000000000E+00 -0.53317221805E+03  0.53317221805E+03  0.25500000920E-02 0.  1.
    10030    2    1    2    0    0  0.00000000000E+00  0.00000000000E+00  0.36978746518E+03  0.14361319013E+04  0.13877074866E+04 0.  0.
        3    1    3    3  502    0 -0.30090625656E+03  0.96351999210E+02  0.82419161996E+03  0.88267781189E+03  0.10100000352E+00 0. -1.
       -3    1    3    3    0  502  0.30090625656E+03 -0.96351999210E+02 -0.45440415478E+03  0.55345408939E+03  0.10100000352E+00 0.  1.
</event>
<event>
 5   0  0.1037321E-03  0.1684445E+04  0.7818609E-02  0.8770286E-01
       -2   -1    0    0    0  501  0.00000000000E+00  0.00000000000E+00  0.67433795716E+03  0.67433795717E+03  0.25500000920E-02 0.  1.
        2   -1    0    0  501    0  0.00000000000E+00  0.00000000000E+00 -0.10519035947E+04  0.10519035947E+04  0.25500000920E-02 0. -1.
    10030    2    1    2    0    0  0.00000000000E+00  0.00000000000E+00 -0.37756563751E+03  0.17262415519E+04  0.16844447408E+04 0.  0.
        5    1    3    3  502    0  0.60463658476E+03 -0.74541600634E+02 -0.78474030336E+03  0.99346931687E+03  0.46999998093E+01 0. -1.
       -5    1    3    3    0  502 -0.60463658476E+03  0.74541600634E+02  0.40717466585E+03  0.73277223498E+03  0.46999998093E+01 0.  1.
</event>
<event>
 5   0  0.1037321E-03  0.1598979E+04  0.7818609E-02  0.8821176E-01
        2   -1    0    0  501    0  0.00000000000E+00  0.00000000000E+00  0.10772562532E+04  0.10772562532E+04  0.25500000920E-02 0.  1.
       -2   -1    0    0    0  501  0.00000000000E+00  0.00000000000E+00 -0.59334390913E+03  0.59334390914E+03  0.25500000920E-02 0. -1.
    10030    2    1    2    0    0  0.00000000000E+00  0.00000000000E+00  0.48391234408E+03  0.16706001624E+04  0.15989789697E+04 0.  0.
        5    1    3    3  502    0 -0.20682026854E+03 -0.37678087616E+03  0.94625970869E+03  0.10393113000E+04  0.46999998093E+01 0.  1.
       -5    1    3    3    0  502  0.20682026854E+03  0.37678087616E+03 -0.46234736461E+03  0.63128886231E+03  0.46999998093E+01 0. -1.
</event>
<event>
 5   0  0.1037321E-03  0.1547057E+04  0.7818609E-02  0.8853750E-01
       -2   -1    0    0    0  501  0.00000000000E+00  0.00000000000E+00  0.40445161395E+03  0.40445161396E+03  0.25500000920E-02 0.  1.
        2   -1    0    0  501    0  0.00000000000E+00  0.00000000000E+00 -0.14794010397E+04  0.14794010397E+04  0.25500000920E-02 0. -1.
    10030    2    1    2    0    0  0.00000000000E+00  0.00000000000E+00 -0.10749494257E+04  0.18838526536E+04  0.15470567387E+04 0.  0.
        5    1    3    3  502    0  0.40230863686E+03 -0.58230175929E+03 -0.15744959898E+03  0.72507933661E+03  0.46999998093E+01 0.  1.
       -5    1    3    3    0  502 -0.40230863686E+03  0.58230175929E+03 -0.91749982676E+03  0.11587733170E+04  0.46999998093E+01 0. -1.
</event>
<event>
 5   0  0.1057872E-03  0.1410965E+04  0.7818609E-02  0.8945919E-01
        2   -1    0    0  501    0  0.00000000000E+00  0.00000000000E+00  0.38705180205E+03  0.38705180206E+03  0.25500000920E-02 0. -1.
       -2   -1    0    0    0  501  0.00000000000E+00  0.00000000000E+00 -0.12858890518E+04  0.12858890518E+04  0.25500000920E-02 0.  1.
    10030    2    1    2    0    0  0.00000000000E+00  0.00000000000E+00 -0.89883724976E+03  0.16729408539E+04  0.14109651658E+04 0.  0.
        2    1    3    3  502    0 -0.37055539765E+03  0.30449657655E+03  0.16401726271E+03  0.50688374440E+03  0.25500000920E-02 0. -1.
       -2    1    3    3    0  502  0.37055539765E+03 -0.30449657655E+03 -0.10628545125E+04  0.11660571095E+04  0.25500000920E-02 0.  1.
</event>
<event>
 5   0  0.1000121E-03  0.1539438E+04  0.7818609E-02  0.8858642E-01
        2   -1    0    0  501    0  0.00000000000E+00  0.00000000000E+00  0.67648986048E+03  0.67648986049E+03  0.25500000920E-02 0. -1.
       -2   -1    0    0    0  501  0.00000000000E+00  0.00000000000E+00 -0.87579645120E+03  0.87579645120E+03  0.25500000920E-02 0.  1.
    10030    2    1    2    0    0  0.00000000000E+00  0.00000000000E+00 -0.19930659071E+03  0.15522863117E+04  0.15394381041E+04 0.  0.
        4    1    3    3  502    0 -0.49231388502E+03 -0.18619601390E+03  0.46666016861E+03  0.70343105052E+03  0.12699999809E+01 0. -1.
       -4    1    3    3    0  502  0.49231388502E+03  0.18619601390E+03 -0.66596675932E+03  0.84885526116E+03  0.12699999809E+01 0.  1.
</event>
<event>
 5   0  0.9844690E-04  0.1586665E+04  0.7818609E-02  0.8828782E-01
        2   -1    0    0  501    0  0.00000000000E+00  0.00000000000E+00  0.61930014217E+03  0.61930014217E+03  0.25500000920E-02 0.  1.
       -2   -1    0    0    0  501  0.00000000000E+00  0.00000000000E+00 -0.10162706673E+04  0.10162706673E+04  0.25500000920E-02 0. -1.
    10030    2    1    2    0    0  0.00000000000E+00  0.00000000000E+00 -0.39697052516E+03  0.16355708095E+04  0.15866651427E+04 0.  0.
        3    1    3    3  502    0  0.13491214595E+03 -0.46944198692E+02  0.60593418031E+03  0.62254420404E+03  0.10100000352E+00 0.  1.
       -3    1    3    3    0  502 -0.13491214595E+03  0.46944198692E+02 -0.10029047055E+04  0.10130266055E+04  0.10100000352E+00 0. -1.
</event>
<event>
 5   0  0.1037321E-03  0.1603859E+04  0.7818609E-02  0.8818181E-01
        2   -1    0    0  501    0  0.00000000000E+00  0.00000000000E+00  0.35429912752E+03  0.35429912753E+03  0.25500000920E-02 0.  1.
       -2   -1    0    0    0  501  0.00000000000E+00  0.00000000000E+00 -0.18151064520E+04  0.18151064520E+04  0.25500000920E-02 0. -1.
    10030    2    1    2    0    0  0.00000000000E+00  0.00000000000E+00 -0.14608073245E+04  0.21694055795E+04  0.16038586375E+04 0.  0.
        5    1    3    3  502    0  0.39288835265E+02  0.79351386721E+03 -0.87771267476E+03  0.11838958989E+04  0.46999998093E+01 0. -1.
       -5    1    3    3    0  502 -0.39288835265E+02 -0.79351386721E+03 -0.58309464971E+03  0.98550968060E+03  0.46999998093E+01 0.  1.
</event>
<event>
 5   0  0.1030027E-03  0.1669138E+04  0.7818609E-02  0.8779164E-01
       -2   -1    0    0    0  501  0.00000000000E+00  0.00000000000E+00  0.11139758076E+04  0.11139758076E+04  0.25500000920E-02 0.  1.
        2   -1    0    0  501    0  0.00000000000E+00  0.00000000000E+00 -0.62524307675E+03  0.62524307676E+03  0.25500000920E-02 0. -1.
    10030    2    1    2    0    0  0.00000000000E+00  0.00000000000E+00  0.48873273089E+03  0.17392188844E+04  0.16691382943E+04 0.  0.
        1    1    3    3  502    0  0.18085026228E+03 -0.80185533642E+02 -0.60045827513E+03  0.63220778022E+03  0.50400001928E-02 0. -1.
       -1    1    3    3    0  502 -0.18085026228E+03  0.80185533642E+02  0.10891910060E+04  0.11070111042E+04  0.50400001928E-02 0.  1.
</event>
<event>
 5   0  0.3832500E-04  0.1596224E+04  0.7818609E-02  0.8822871E-01
        3   -1    0    0  501    0  0.00000000000E+00  0.00000000000E+00  0.82898312789E+03  0.82898313405E+03  0.10100000352E+00 0. -1.
       -3   -1    0    0    0  501  0.00000000000E+00  0.00000000000E+00 -0.76839042618E+03  0.76839043282E+03  0.10100000352E+00 0.  1.
    10030    2    1    2    0    0  0.00000000000E+00  0.00000000000E+00  0.60592701715E+02  0.15973735669E+04  0.15962239306E+04 0.  0.
        2    1    3    3  502    0  0.60129223328E+02  0.40156656294E+02 -0.76510604039E+03  0.76851501846E+03  0.25500000920E-02 0.  1.
       -2    1    3    3    0  502 -0.60129223328E+02 -0.40156656294E+02  0.82569874211E+03  0.82885854841E+03  0.25500000920E-02 0. -1.
</event>
<event>
 5   0  0.1030027E-03  0.1612945E+04  0.7818609E-02  0.8812635E-01
       -2   -1    0    0    0  501  0.00000000000E+00  0.00000000000E+00  0.39779669226E+03  0.39779669227E+03  0.25500000920E-02 0.  1.
        2   -1    0    0  501    0  0.00000000000E+00  0.00000000000E+00 -0.16349998498E+04  0.16349998498E+04  0.25500000920E-02 0. -1.
    10030    2    1    2    0    0  0.00000000000E+00  0.00000000000E+00 -0.12372031576E+04  0.20327965421E+04  0.16129445522E+04 0.  0.
        1    1    3    3  502    0 -0.34075426643E+03 -0.50837172150E+03  0.43317459197E+02  0.61354028360E+03  0.50400001928E-02 0.  1.
       -1    1    3    3    0  502  0.34075426643E+03  0.50837172150E+03 -0.12805206168E+04  0.14192562585E+04  0.50400001928E-02 0. -1.
</event>
<event>
 5   0  0.5281116E-04  0.1551749E+04  0.7818609E-02  0.8850751E-01
        1   -1    0    0  501    0  0.00000000000E+00  0.00000000000E+00  0.10505386076E+04  0.10505386076E+04  0.50400001928E-02 0. -1.
       -1   -1    0    0    0  501  0.00000000000E+00  0.00000000000E+00 -0.57302168396E+03  0.57302168398E+03  0.50400001928E-02 0.  1.
    10030    2    1    2    0    0  0.00000000000E+00  0.00000000000E+00  0.47751692363E+03  0.16235602916E+04  0.15517492091E+04 0.  0.
        2    1    3    3  502    0 -0.48613299997E+03 -0.42460331917E+03 -0.21171003290E+03  0.67928963657E+03  0.25500000920E-02 0.  1.
       -2    1    3    3    0  502  0.48613299997E+03  0.42460331917E+03  0.68922695653E+03  0.94427065501E+03  0.25500000920E-02 0. -1.
</event>
<event>
 5   0  0.9844690E-04  0.1600307E+04  0.7818609E-02  0.8820360E-01
       -2   -1    0    0    0  501  0.00000000000E+00  0.00000000000E+00  0.50991714892E+03  0.50991714893E+03  0.25500000920E-02 0. -1.
        2   -1    0    0  501    0  0.00000000000E+00  0.00000000000E+00 -0.12555867913E+04  0.12555867913E+04  0.25500000920E-02 0.  1.
    10030    2    1    2    0    0  0.00000000000E+00  0.00000000000E+00 -0.74566964242E+03  0.17655039403E+04  0.16003065167E+04 0.  0.
        3    1    3    3  502    0 -0.70541181522E+03 -0.34053546287E+03 -0.55301943369E+03  0.95885386518E+03  0.10100000352E+00 0.  1.
       -3    1    3    3    0  502  0.70541181522E+03  0.34053546287E+03 -0.19265020873E+03  0.80665007510E+03  0.10100000352E+00 0. -1.
</event>
<event>
 5   0  0.5532881E-04  0.1636836E+04  0.7818609E-02  0.8798232E-01
       -1   -1    0    0    0  501  0.00000000000E+00  0.00000000000E+00  0.66575800623E+03  0.66575800625E+03  0.50400001928E-02 0.  1.
        1   -1    0    0  501    0  0.00000000000E+00  0.00000000000E+00 -0.10060838927E+04  0.10060838927E+04  0.50400001928E-02 0. -1.
    10030    2    1    2    0    0  0.00000000000E+00  0.00000000000E+00 -0.34032588645E+03  0.16718418989E+04  0.16368364689E+04 0.  0.
        4    1    3    3  502    0  0.52094675442E+03 -0.90089469870E+02 -0.80826781298E+03  0.96581577122E+03  0.12699999809E+01 0. -1.
       -4    1    3    3    0  502 -0.52094675442E+03  0.90089469870E+02  0.46794192654E+03  0.70602612773E+03  0.12699999809E+01 0.  1.
</event>
<event>
 5   0  0.5288658E-04  0.1613660E+04  0.7818609E-02  0.8812200E-01
        1   -1    0    0  501    0  0.00000000000E+00  0.00000000000E+00  0.14269534092E+04  0.14269534092E+04  0.50400001928E-02 0. -1.
       -1   -1    0    0    0  501  0.00000000000E+00  0.00000000000E+00 -0.45619887757E+03  0.45619887760E+03  0.50400001928E-02 0.  1.
    10030    2    1    2    0    0  0.00000000000E+00  0.00000000000E+00  0.97075453163E+03  0.18831522868E+04  0.16136598696E+04 0.  0.
        1    1    3    3  502    0 -0.49457059514E+03 -0.60530730457E+03  0.71871311117E+03  0.10618594741E+04  0.50400001928E-02 0. -1.
       -1    1    3    3    0  502  0.49457059514E+03  0.60530730457E+03  0.25204142045E+03  0.82129281270E+03  0.50400001928E-02 0.  1.
</event>
<event>
 5   0  0.5425525E-04  0.1601155E+04  0.7818609E-02  0.8819839E-01
        1   -1    0    0  501    0  0.00000000000E+00  0.00000000000E+00  0.15786319271E+04  0.15786319271E+04  0.50400001928E-02 0. -1.
       -1   -1    0    0    0  501  0.00000000000E+00  0.00000000000E+00 -0.40599970501E+03  0.40599970504E+03  0.50400001928E-02 0.  1.
    10030    2    1    2    0    0  0.00000000000E+00  0.00000000000E+00  0.11726322221E+04  0.19846316321E+04  0.16011547043E+04 0.  0.
        5    1    3    3  502    0  0.12414593381E+03 -0.59219582008E+03 -0.63439683045E+02  0.60840347269E+03  0.46999998093E+01 0. -1.
       -5    1    3    3    0  502 -0.12414593381E+03  0.59219582008E+03  0.12360719051E+04  0.13762281594E+04  0.46999998093E+01 0.  1.
</event>
<event>
 5   0  0.1000121E-03  0.1561288E+04  0.7818609E-02  0.8844689E-01
       -2   -1    0    0    0  501  0.00000000000E+00  0.00000000000E+00  0.86626063906E+03  0.86626063906E+03  0.25500000920E-02 0. -1.
        2   -1    0    0  501    0  0.00000000000E+00  0.00000000000E+00 -0.70348951561E+03  0.70348951561E+03  0.25500000920E-02 0.  1.
    10030    2    1    2    0    0  0.00000000000E+00  0.00000000000E+00  0.16277112345E+03  0.15697501547E+04  0.15612882852E+04 0.  0.
        4    1    3    3  502    0 -0.54293450151E+03 -0.16652459760E+03 -0.45714355338E+03  0.72903371378E+03  0.12699999809E+01 0.  1.
       -4    1    3    3    0  502  0.54293450151E+03  0.16652459760E+03  0.61991467683E+03  0.84071644089E+03  0.12699999809E+01 0. -1.
</event>
<event>
 5   0  0.5281116E-04  0.1585551E+04  0.7818609E-02  0.8829474E-01
       -1   -1    0    0    0  501  0.00000000000E+00  0.00000000000E+00  0.78021093583E+03  0.78021093584E+03  0.50400001928E-02 0.  1.
        1   -1    0    0  501    0  0.00000000000E+00  0.00000000000E+00 -0.80554209254E+03  0.80554209255E+03  0.50400001928E-02 0. -1.
    10030    2    1    2    0    0  0.00000000000E+00  0.00000000000E+00 -0.25331156710E+02  0.15857530284E+04  0.15855506928E+04 0.  0.
        2    1    3    3  502    0  0.25529750522E+03  0.66871937758E+03  0.32815691054E+03  0.78743214315E+03  0.25500000920E-02 0.  1.
       -2    1    3    3    0  502 -0.25529750522E+03 -0.66871937758E+03 -0.35348806725E+03  0.79832088524E+03  0.25500000920E-02 0. -1.
</event>
<event>
 5   0  0.1057872E-03  0.1207337E+04  0.7818609E-02  0.9106458E-01
        2   -1    0    0  501    0  0.00000000000E+00  0.00000000000E+00  0.98985105942E+03  0.98985105943E+03  0.25500000920E-02 0.  1.
       -2   -1    0    0    0  501  0.00000000000E+00  0.00000000000E+00 -0.36815221564E+03  0.36815221565E+03  0.25500000920E-02 0. -1.
    10030    2    1    2    0    0  0.00000000000E+00  0.00000000000E+00  0.62169884378E+03  0.13580032751E+04  0.12073373359E+04 0.  0.
        2    1    3    3  502    0  0.52179495192E-01  0.51275134109E+03  0.66920099504E+03  0.84305629247E+03  0.25500000920E-02 0.  1.
       -2    1    3    3    0  502 -0.52179495192E-01 -0.51275134109E+03 -0.47502151254E+02  0.51494698261E+03  0.25500000920E-02 0. -1.
</event>
<event>
 5   0  0.1030027E-03  0.1655414E+04  0.7818609E-02  0.8787210E-01
        2   -1    0    0  501    0  0.00000000000E+00  0.00000000000E+00  0.19962514383E+04  0.19962514383E+04  0.25500000920E-02 0. -1.
       -2   -1    0    0    0  501  0.00000000000E+00  0.00000000000E+00 -0.34319275434E+03  0.34319275435E+03  0.25500000920E-02 0.  1.
    10030    2    1    2    0    0  0.00000000000E+00  0.00000000000E+00  0.16530586840E+04  0.23394441927E+04  0.16554141832E+04 0.  0.
        1    1    3    3  502    0  0.61366897075E+03 -0.44640959514E+03  0.12935894809E+04  0.14997482714E+04  0.50400001928E-02 0. -1.
       -1    1    3    3    0  502 -0.61366897075E+03  0.44640959514E+03  0.35946920305E+03  0.83969592130E+03  0.50400001928E-02 0.  1.
</event>
<event>
 5   0  0.1037321E-03  0.1605465E+04  0.7818609E-02  0.8817198E-01
       -2   -1    0    0    0  501  0.00000000000E+00  0.00000000000E+00  0.11642150570E+04  0.11642150570E+04  0.25500000920E-02 0. -1.
        2   -1    0    0  501    0  0.00000000000E+00  0.00000000000E+00 -0.55348803479E+03  0.55348803479E+03  0.25500000920E-02 0.  1.
    10030    2    1    2    0    0  0.00000000000E+00  0.00000000000E+00  0.61072702219E+03  0.17177030918E+04  0.16054645483E+04 0.  0.
        5    1    3    3  502    0 -0.64715576758E+03  0.42893298062E+03  0.52348599119E+03  0.93640470008E+03  0.46999998093E+01 0. -1.
       -5    1    3    3    0  502  0.64715576758E+03 -0.42893298062E+03  0.87241031004E+02  0.78129839169E+03  0.46999998093E+01 0.  1.
</event>
<event>
 5   0  0.5281116E-04  0.1599811E+04  0.7818609E-02  0.8820664E-01
        1   -1    0    0  501    0  0.00000000000E+00  0.00000000000E+00  0.82425346453E+03  0.82425346454E+03  0.50400001928E-02 0. -1.
       -1   -1    0    0    0  501  0.00000000000E+00  0.00000000000E+00 -0.77627661009E+03  0.77627661011E+03  0.50400001928E-02 0.  1.
    10030    2    1    2    0    0  0.00000000000E+00  0.00000000000E+00  0.47976854435E+02  0.16005300746E+04  0.15998108455E+04 0.  0.
        2    1    3    3  502    0 -0.36484178999E+03 -0.52350160154E+03  0.50657986005E+03  0.81473100662E+03  0.25500000920E-02 0. -1.
       -2    1    3    3    0  502  0.36484178999E+03  0.52350160154E+03 -0.45860300562E+03  0.78579906802E+03  0.25500000920E-02 0.  1.
</event>
<event>
 5   0  0.5532881E-04  0.1608225E+04  0.7818609E-02  0.8815511E-01
       -1   -1    0    0    0  501  0.00000000000E+00  0.00000000000E+00  0.40869277331E+03  0.40869277334E+03  0.50400001928E-02 0. -1.
        1   -1    0    0  501    0  0.00000000000E+00  0.00000000000E+00 -0.15821094452E+04  0.15821094452E+04  0.50400001928E-02 0.  1.
    10030    2    1    2    0    0  0.00000000000E+00  0.00000000000E+00 -0.11734166718E+04  0.19908022185E+04  0.16082247316E+04 0.  0.
        4    1    3    3  502    0 -0.53306914973E+03 -0.59121159343E+03 -0.72731202833E+03  0.10782755984E+04  0.12699999809E+01 0. -1.
       -4    1    3    3    0  502  0.53306914973E+03  0.59121159343E+03 -0.44610464351E+03  0.91252662014E+03  0.12699999809E+01 0.  1.
</event>
<event>
 5   0  0.1000121E-03  0.1528435E+04  0.7818609E-02  0.8865761E-01
       -2   -1    0    0    0  501  0.00000000000E+00  0.00000000000E+00  0.39349295682E+03  0.39349295683E+03  0.25500000920E-02 0. -1.
        2   -1    0    0  501    0  0.00000000000E+00  0.00000000000E+00 -0.14842161354E+04  0.14842161354E+04  0.25500000920E-02 0.  1.
    10030    2    1    2    0    0  0.00000000000E+00  0.00000000000E+00 -0.10907231786E+04  0.18777090923E+04  0.15284352727E+04 0.  0.
        4    1    3    3  502    0  0.72087404967E+03 -0.22946303545E+03 -0.41239593405E+03  0.86161749022E+03  0.12699999809E+01 0. -1.
       -4    1    3    3    0  502 -0.72087404967E+03  0.22946303545E+03 -0.67832724456E+03  0.10160916020E+04  0.12699999809E+01 0.  1.
</event>
<event>
 5   0  0.9844690E-04  0.1566471E+04  0.7818609E-02  0.8841415E-01
       -2   -1    0    0    0  501  0.00000000000E+00  0.00000000000E+00  0.48622054538E+03  0.48622054539E+03  0.25500000920E-02 0.  1.
        2   -1    0    0  501    0  0.00000000000E+00  0.00000000000E+00 -0.12616864593E+04  0.12616864593E+04  0.25500000920E-02 0. -1.
    10030    2    1    2    0    0  0.00000000000E+00  0.00000000000E+00 -0.77546591391E+03  0.17479070047E+04  0.15664710382E+04 0.  0.
        3    1    3    3  502    0  0.49237592679E+02 -0.40204941863E+03 -0.11357432169E+04  0.12058112375E+04  0.10100000352E+00 0. -1.
       -3    1    3    3    0  502 -0.49237592679E+02  0.40204941863E+03  0.36027730298E+03  0.54209576719E+03  0.10100000352E+00 0.  1.
</event>
<event>
 5   0  0.5288658E-04  0.1713852E+04  0.7818609E-02  0.8753503E-01
        1   -1    0    0  501    0  0.00000000000E+00  0.00000000000E+00  0.88906922983E+03  0.88906922985E+03  0.50400001928E-02 0.  1.
       -1   -1    0    0    0  501  0.00000000000E+00  0.00000000000E+00 -0.82594516753E+03  0.82594516755E+03  0.50400001928E-02 0. -1.
    10030    2    1    2    0    0  0.00000000000E+00  0.00000000000E+00  0.63124062303E+02  0.17150143974E+04  0.17138523087E+04 0.  0.
        1    1    3    3  502    0  0.70329617715E+02  0.22343728698E+03 -0.79328564185E+03  0.82714725771E+03  0.50400001928E-02 0. -1.
       -1    1    3    3    0  502 -0.70329617715E+02 -0.22343728698E+03  0.85640970415E+03  0.88786713969E+03  0.50400001928E-02 0.  1.
</event>
<event>
 5   0  0.5288658E-04  0.1569854E+04  0.7818609E-02  0.8839285E-01
        1   -1    0    0  501    0  0.00000000000E+00  0.00000000000E+00  0.52359968957E+03  0.52359968959E+03  0.50400001928E-02 0.  1.
       -1   -1    0    0    0  501  0.00000000000E+00  0.00000000000E+00 -0.11766821513E+04  0.11766821514E+04  0.50400001928E-02 0. -1.
    10030    2    1    2    0    0  0.00000000000E+00  0.00000000000E+00 -0.65308246178E+03  0.17002818409E+04  0.15698540177E+04 0.  0.
        1    1    3    3  502    0  0.74814321252E+03 -0.18647910532E+03 -0.48578639401E+03  0.91130738161E+03  0.50400001928E-02 0. -1.
       -1    1    3    3    0  502 -0.74814321252E+03  0.18647910532E+03 -0.16729606777E+03  0.78897445933E+03  0.50400001928E-02 0.  1.
</event>
<event>
 5   0  0.5281116E-04  0.1619302E+04  0.7818609E-02  0.8808777E-01
       -1   -1    0    0    0  501  0.00000000000E+00  0.00000000000E+00  0.84061928524E+03  0.84061928525E+03  0.50400001928E-02 0. -1.
        1   -1    0    0  501    0  0.00000000000E+00  0.00000000000E+00 -0.77982372417E+03  0.77982372419E+03  0.50400001928E-02 0.  1.
    10030    2    1    2    0    0  0.00000000000E+00  0.00000000000E+00  0.60795561062E+02  0.16204430094E+04  0.16193021480E+04 0.  0.
        2    1    3    3  502    0 -0.43574963100E+03  0.95414424224E+02  0.70656104042E+03  0.83558970620E+03  0.25500000920E-02 0. -1.
       -2    1    3    3    0  502  0.43574963100E+03 -0.95414424224E+02 -0.64576547936E+03  0.78485330324E+03  0.25500000920E-02 0.  1.
</event>
<event>
 5   0  0.5281116E-04  0.1565014E+04  0.7818609E-02  0.8842334E-01
        1   -1    0    0  501    0  0.00000000000E+00  0.00000000000E+00  0.98538942226E+03  0.98538942227E+03  0.50400001928E-02 0.  1.
       -1   -1    0    0    0  501  0.00000000000E+00  0.00000000000E+00 -0.62139638086E+03  0.62139638088E+03  0.50400001928E-02 0. -1.
    10030    2    1    2    0    0  0.00000000000E+00  0.00000000000E+00  0.36399304140E+03  0.16067858032E+04  0.15650142757E+04 0.  0.
        2    1    3    3  502    0 -0.11764577509E+03 -0.17778576134E+03  0.95499934459E+03  0.97850500944E+03  0.25500000920E-02 0.  1.
       -2    1    3    3    0  502  0.11764577509E+03  0.17778576134E+03 -0.59100630319E+03  0.62828079371E+03  0.25500000920E-02 0. -1.
</event>
<event>
 5   0  0.1037321E-03  0.1616241E+04  0.7818609E-02  0.8810632E-01
       -2   -1    0    0    0  501  0.00000000000E+00  0.00000000000E+00  0.56087365398E+03  0.56087365398E+03  0.25500000920E-02 0. -1.
        2   -1    0    0  501    0  0.00000000000E+00  0.00000000000E+00 -0.11643598411E+04  0.11643598411E+04  0.25500000920E-02 0.  1.
    10030    2    1    2    0    0  0.00000000000E+00  0.00000000000E+00 -0.60348618712E+03  0.17252334951E+04  0.16162410199E+04 0.  0.
        5    1    3    3  502    0 -0.58683336038E+03 -0.18881104971E+03 -0.85948586143E+03  0.10577150095E+04  0.46999998093E+01 0.  1.
       -5    1    3    3    0  502  0.58683336038E+03  0.18881104971E+03  0.25599967431E+03  0.66751848558E+03  0.46999998093E+01 0. -1.
</event>
<event>
 5   0  0.5425525E-04  0.1461175E+04  0.7818609E-02  0.8910690E-01
       -1   -1    0    0    0  501  0.00000000000E+00  0.00000000000E+00  0.74431334957E+03  0.74431334959E+03  0.50400001928E-02 0. -1.
        1   -1    0    0  501    0  0.00000000000E+00  0.00000000000E+00 -0.71711483683E+03  0.71711483685E+03  0.50400001928E-02 0.  1.
    10030    2    1    2    0    0  0.00000000000E+00  0.00000000000E+00  0.27198512739E+02  0.14614281864E+04  0.14611750699E+04 0.  0.
        5    1    3    3  502    0  0.69457416958E+03  0.20210788416E+03  0.11586755521E+03  0.73261739963E+03  0.46999998093E+01 0. -1.
       -5    1    3    3    0  502 -0.69457416958E+03 -0.20210788416E+03 -0.88669042472E+02  0.72881078682E+03  0.46999998093E+01 0.  1.
</event>
<event>
 5   0  0.5623061E-04  0.1595011E+04  0.7818609E-02  0.8823619E-01
        1   -1    0    0  501    0  0.00000000000E+00  0.00000000000E+00  0.97150276365E+03  0.97150276366E+03  0.50400001928E-02 0.  1.
       -1   -1    0    0    0  501  0.00000000000E+00  0.00000000000E+00 -0.65467123594E+03  0.65467123596E+03  0.50400001928E-02 0. -1.
    10030    2    1    2    0    0  0.00000000000E+00  0.00000000000E+00  0.31683152771E+03  0.16261739996E+04  0.15950108652E+04 0.  0.
        3    1    3    3  502    0  0.76504621474E+03  0.22504596621E+03  0.14967461694E+03  0.81138394041E+03  0.10100000352E+00 0. -1.
       -3    1    3    3    0  502 -0.76504621474E+03 -0.22504596621E+03  0.16715691076E+03  0.81479005922E+03  0.10100000352E+00 0.  1.
</event>
<event>
 5   0  0.5425525E-04  0.1600272E+04  0.7818609E-02  0.8820381E-01
       -1   -1    0    0    0  501  0.00000000000E+00  0.00000000000E+00  0.56721144557E+03  0.56721144559E+03  0.50400001928E-02 0. -1.
        1   -1    0    0  501    0  0.00000000000E+00  0.00000000000E+00 -0.11287107516E+04  0.11287107516E+04  0.50400001928E-02 0.  1.
    10030    2    1    2    0    0  0.00000000000E+00  0.00000000000E+00 -0.56149930601E+03  0.16959221972E+04  0.16002720482E+04 0.  0.
        5    1    3    3  502    0  0.41746026389E+02  0.49079259759E+03 -0.94897337858E+03  0.10692018836E+04  0.46999998093E+01 0.  1.
       -5    1    3    3    0  502 -0.41746026389E+02 -0.49079259759E+03  0.38747407257E+03  0.62672031360E+03  0.46999998093E+01 0. -1.
</event>
<event>
 5   0  0.5532881E-04  0.1619107E+04  0.7818609E-02  0.8808895E-01
        1   -1    0    0  501    0  0.00000000000E+00  0.00000000000E+00  0.15597238570E+04  0.15597238570E+04  0.50400001928E-02 0. -1.
       -1   -1    0    0    0  501  0.00000000000E+00  0.00000000000E+00 -0.42018761355E+03  0.42018761358E+03  0.50400001928E-02 0.  1.
    10030    2    1    2    0    0  0.00000000000E+00  0.00000000000E+00  0.11395362434E+04  0.19799114706E+04  0.16191067232E+04 0.  0.
        4    1    3    3  502    0 -0.42264247399E+03 -0.33620788484E+03  0.13072468304E+04  0.14144109343E+04  0.12699999809E+01 0. -1.
       -4    1    3    3    0  502  0.42264247399E+03  0.33620788484E+03 -0.16771058694E+03  0.56550053627E+03  0.12699999809E+01 0.  1.
</event>
<event>
 5   0  0.1057872E-03  0.1609143E+04  0.7818609E-02  0.8814951E-01
       -2   -1    0    0    0  501  0.00000000000E+00  0.00000000000E+00  0.57015290156E+03  0.57015290157E+03  0.25500000920E-02 0.  1.
        2   -1    0    0  501    0  0.00000000000E+00  0.00000000000E+00 -0.11353710835E+04  0.11353710835E+04  0.25500000920E-02 0. -1.
    10030    2    1    2    0    0  0.00000000000E+00  0.00000000000E+00 -0.56521818190E+03  0.17055239850E+04  0.16091427750E+04 0.  0.
        2    1    3    3  502    0  0.44679125610E+03  0.52664565965E+03  0.15485589126E+03  0.70778416514E+03  0.25500000920E-02 0.  1.
       -2    1    3    3    0  502 -0.44679125610E+03 -0.52664565965E+03 -0.72007407315E+03  0.99773981989E+03  0.25500000920E-02 0. -1.
</event>
<event>
 5   0  0.1030027E-03  0.1595816E+04  0.7818609E-02  0.8823122E-01
        2   -1    0    0  501    0  0.00000000000E+00  0.00000000000E+00  0.14190893527E+04  0.14190893527E+04  0.25500000920E-02 0.  1.
       -2   -1    0    0    0  501  0.00000000000E+00  0.00000000000E+00 -0.44863809248E+03  0.44863809249E+03  0.25500000920E-02 0. -1.
    10030    2    1    2    0    0  0.00000000000E+00  0.00000000000E+00  0.97045126017E+03  0.18677274451E+04  0.15958164559E+04 0.  0.
        1    1    3    3  502    0  0.67723134191E+02 -0.56694036572E+03  0.11375536867E+04  0.12728064234E+04  0.50400001928E-02 0.  1.
       -1    1    3    3    0  502 -0.67723134191E+02  0.56694036572E+03 -0.16710242653E+03  0.59492102179E+03  0.50400001928E-02 0. -1.
</event>
<event>
 5   0  0.5425525E-04  0.1481931E+04  0.7818609E-02  0.8896558E-01
        1   -1    0    0  501    0  0.00000000000E+00  0.00000000000E+00  0.90704479668E+03  0.90704479669E+03  0.50400001928E-02 0. -1.
       -1   -1    0    0    0  501  0.00000000000E+00  0.00000000000E+00 -0.60529537314E+03  0.60529537316E+03  0.50400001928E-02 0.  1.
    10030    2    1    2    0    0  0.00000000000E+00  0.00000000000E+00  0.30174942353E+03  0.15123401699E+04  0.14819311977E+04 0.  0.
        5    1    3    3  502    0  0.29843149521E+03  0.94670107684E+02  0.83620840297E+03  0.89291117689E+03  0.46999998093E+01 0. -1.
       -5    1    3    3    0  502 -0.29843149521E+03 -0.94670107684E+02 -0.53445897944E+03  0.61942899296E+03  0.46999998093E+01 0.  1.
</event>
<event>
 5   0  0.5281116E-04  0.1546769E+04  0.7818609E-02  0.8853934E-01
       -1   -1    0    0    0  501  0.00000000000E+00  0.00000000000E+00  0.60407212605E+03  0.60407212607E+03  0.50400001928E-02 0. -1.
        1   -1    0    0  501    0  0.00000000000E+00  0.00000000000E+00 -0.99015276725E+03  0.99015276726E+03  0.50400001928E-02 0.  1.
    10030    2    1    2    0    0  0.00000000000E+00  0.00000000000E+00 -0.38608064120E+03  0.15942248933E+04  0.15467691324E+04 0.  0.
        2    1    3    3  502    0  0.97357864348E+02 -0.74604613189E+03 -0.84929346132E+01  0.75241977287E+03  0.25500000920E-02 0. -1.
       -2    1    3    3    0  502 -0.97357864348E+02  0.74604613189E+03 -0.37758770659E+03  0.84180512046E+03  0.25500000920E-02 0.  1.
</event>
<event>
 5   0  0.5623061E-04  0.1594552E+04  0.7818609E-02  0.8823902E-01
        1   -1    0    0  501    0  0.00000000000E+00  0.00000000000E+00  0.79421573664E+03  0.79421573665E+03  0.50400001928E-02 0.  1.
       -1   -1    0    0    0  501  0.00000000000E+00  0.00000000000E+00 -0.80034806805E+03  0.80034806807E+03  0.50400001928E-02 0. -1.
    10030    2    1    2    0    0  0.00000000000E+00  0.00000000000E+00 -0.61323314174E+01  0.15945638047E+04  0.15945520129E+04 0.  0.
        3    1    3    3  502    0 -0.43367087072E+03 -0.42503329544E+03  0.51358578850E+03  0.79529497590E+03  0.10100000352E+00 0.  1.
       -3    1    3    3    0  502  0.43367087072E+03  0.42503329544E+03 -0.51971811992E+03  0.79926882882E+03  0.10100000352E+00 0. -1.
</event>
<event>
 5   0  0.1057872E-03  0.1072154E+04  0.7818609E-02  0.9232766E-01
        2   -1    0    0  501    0  0.00000000000E+00  0.00000000000E+00  0.20019912457E+04  0.20019912457E+04  0.25500000920E-02 0. -1.
       -2   -1    0    0    0  501  0.00000000000E+00  0.00000000000E+00 -0.14354624887E+03  0.14354624889E+03  0.25500000920E-02 0.  1.
    10030    2    1    2    0    0  0.00000000000E+00  0.00000000000E+00  0.18584449968E+04  0.21455374946E+04  0.10721535965E+04 0.  0.
        2    1    3    3  502    0 -0.52466252215E+02 -0.53285570687E+03  0.98180440087E+03  0.11183147113E+04  0.25500000920E-02 0.  1.
       -2    1    3    3    0  502  0.52466252215E+02  0.53285570687E+03  0.87664059593E+03  0.10272227832E+04  0.25500000920E-02 0. -1.
</event>
<event>
 5   0  0.1030027E-03  0.1614356E+04  0.7818609E-02  0.8811777E-01
        2   -1    0    0  501    0  0.00000000000E+00  0.00000000000E+00  0.18328799517E+04  0.18328799517E+04  0.25500000920E-02 0.  1.
       -2   -1    0    0    0  501  0.00000000000E+00  0.00000000000E+00 -0.35547124447E+03  0.35547124448E+03  0.25500000920E-02 0. -1.
    10030    2    1    2    0    0  0.00000000000E+00  0.00000000000E+00  0.14774087072E+04  0.21883511962E+04  0.16143557445E+04 0.  0.
        1    1    3    3  502    0  0.30181995423E+03  0.54522299457E+02  0.17508145678E+04  0.17774756304E+04  0.50400001928E-02 0.  1.
       -1    1    3    3    0  502 -0.30181995423E+03 -0.54522299457E+02 -0.27340586057E+03  0.41087556575E+03  0.50400001928E-02 0. -1.
</event>
<event>
 5   0  0.5288658E-04  0.1593817E+04  0.7818609E-02  0.8824356E-01
        1   -1    0    0  501    0  0.00000000000E+00  0.00000000000E+00  0.85175527383E+03  0.85175527385E+03  0.50400001928E-02 0. -1.
       -1   -1    0    0    0  501  0.00000000000E+00  0.00000000000E+00 -0.74559320878E+03  0.74559320880E+03  0.50400001928E-02 0.  1.
    10030    2    1    2    0    0  0.00000000000E+00  0.00000000000E+00  0.10616206505E+03  0.15973484827E+04  0.15938167369E+04 0.  0.
        1    1    3    3  502    0 -0.73240630500E+03 -0.21522733697E+03 -0.17616398872E+03  0.78343828929E+03  0.50400001928E-02 0.  1.
       -1    1    3    3    0  502  0.73240630500E+03  0.21522733697E+03  0.28232605377E+03  0.81391019336E+03  0.50400001928E-02 0. -1.
</event>
<event>
 5   0  0.1057872E-03  0.1575364E+04  0.7818609E-02  0.8835827E-01
       -2   -1    0    0    0  501  0.00000000000E+00  0.00000000000E+00  0.48624506847E+03  0.48624506848E+03  0.25500000920E-02 0.  1.
        2   -1    0    0  501    0  0.00000000000E+00  0.00000000000E+00 -0.12759887482E+04  0.12759887482E+04  0.25500000920E-02 0. -1.
    10030    2    1    2    0    0  0.00000000000E+00  0.00000000000E+00 -0.78974367970E+03  0.17622338167E+04  0.15753643848E+04 0.  0.
        2    1    3    3  502    0  0.48441014604E+03 -0.28165770364E+03  0.22438197003E+03  0.60359880723E+03  0.25500000920E-02 0. -1.
       -2    1    3    3    0  502 -0.48441014604E+03  0.28165770364E+03 -0.10141256497E+04  0.11586350094E+04  0.25500000920E-02 0.  1.
</event>
<event>
 5   0  0.5532881E-04  0.1578139E+04  0.7818609E-02  0.8834092E-01
        1   -1    0    0  501    0  0.00000000000E+00  0.00000000000E+00  0.16358363946E+04  0.16358363946E+04  0.50400001928E-02 0.  1.
       -1   -1    0    0    0  501  0.00000000000E+00  0.00000000000E+00 -0.38061901506E+03  0.38061901509E+03  0.50400001928E-02 0. -1.
    10030    2    1    2    0    0  0.00000000000E+00  0.00000000000E+00  0.12552173796E+04  0.20164554097E+04  0.15781386978E+04 0.  0.
        4    1    3    3  502    0 -0.45945333442E+03 -0.38104146891E+03 -0.31809190847E+02  0.59774861359E+03  0.12699999809E+01 0. -1.
       -4    1    3    3    0  502  0.45945333442E+03  0.38104146891E+03  0.12870265704E+04  0.14187067961E+04  0.12699999809E+01 0.  1.
</event>
<event>
 5   0  0.3832500E-04  0.1547262E+04  0.7818609E-02  0.8853618E-01
        3   -1    0    0  501    0  0.00000000000E+00  0.00000000000E+00  0.60228978500E+03  0.60228979347E+03  0.10100000352E+00 0.  1.
       -3   -1    0    0    0  501  0.00000000000E+00  0.00000000000E+00 -0.99371635019E+03  0.99371635533E+03  0.10100000352E+00 0. -1.
    10030    2    1    2    0    0  0.00000000000E+00  0.00000000000E+00 -0.39142656520E+03  0.15960061488E+04  0.15472623795E+04 0.  0.
        3    1    3    3  502    0  0.28947342229E+02  0.69878685504E+03  0.14540748851E+03  0.71434191065E+03  0.10100000352E+00 0. -1.
       -3    1    3    3    0  502 -0.28947342229E+02 -0.69878685504E+03 -0.53683405371E+03  0.88166423814E+03  0.10100000352E+00 0.  1.
</event>
<event>
 5   0  0.5623061E-04  0.1570669E+04  0.7818609E-02  0.8838772E-01
       -1   -1    0    0    0  501  0.00000000000E+00  0.00000000000E+00  0.91125612195E+03  0.91125612197E+03  0.50400001928E-02 0. -1.
        1   -1    0    0  501    0  0.00000000000E+00  0.00000000000E+00 -0.67681351608E+03  0.67681351609E+03  0.50400001928E-02 0.  1.
    10030    2    1    2    0    0  0.00000000000E+00  0.00000000000E+00  0.23444260588E+03  0.15880696381E+04  0.15706692331E+04 0.  0.
        3    1    3    3  502    0  0.44628836677E+03 -0.25784768602E+03  0.71631547675E+03  0.88247753962E+03  0.10100000352E+00 0. -1.
       -3    1    3    3    0  502 -0.44628836677E+03  0.25784768602E+03 -0.48187287087E+03  0.70559209844E+03  0.10100000352E+00 0.  1.
</event>
<event>
 5   0  0.1037321E-03  0.1611332E+04  0.7818609E-02  0.8813617E-01
        2   -1    0    0  501    0  0.00000000000E+00  0.00000000000E+00  0.68104546202E+03  0.68104546202E+03  0.25500000920E-02 0.  1.
       -2   -1    0    0    0  501  0.00000000000E+00  0.00000000000E+00 -0.95308959526E+03  0.95308959527E+03  0.25500000920E-02 0. -1.
    10030    2    1    2    0    0  0.00000000000E+00  0.00000000000E+00 -0.27204413324E+03  0.16341350573E+04  0.16113315534E+04 0.  0.
        5    1    3    3  502    0 -0.60530241180E+03  0.29384195785E+03  0.31335271663E+03  0.74225744923E+03  0.46999998093E+01 0.  1.
       -5    1    3    3    0  502  0.60530241180E+03 -0.29384195785E+03 -0.58539684987E+03  0.89187760806E+03  0.46999998093E+01 0. -1.
</event>
<event>
 5   0  0.1057872E-03  0.1552970E+04  0.7818609E-02  0.8849973E-01
       -2   -1    0    0    0  501  0.00000000000E+00  0.00000000000E+00  0.70129556024E+03  0.70129556025E+03  0.25500000920E-02 0.  1.
        2   -1    0    0  501    0  0.00000000000E+00  0.00000000000E+00 -0.85973604764E+03  0.85973604764E+03  0.25500000920E-02 0. -1.
    10030    2    1    2    0    0  0.00000000000E+00  0.00000000000E+00 -0.15844048740E+03  0.15610316079E+04  0.15529701519E+04 0.  0.
        2    1    3    3  502    0  0.13531241823E+03  0.37374897160E+03 -0.74971453026E+03  0.84856916111E+03  0.25500000920E-02 0. -1.
       -2    1    3    3    0  502 -0.13531241823E+03 -0.37374897160E+03  0.59127404286E+03  0.71246244678E+03  0.25500000920E-02 0.  1.
</event>
<event>
 5   0  0.5425525E-04  0.1587883E+04  0.7818609E-02  0.8828026E-01
        1   -1    0    0  501    0  0.00000000000E+00  0.00000000000E+00  0.10163144415E+04  0.10163144415E+04  0.50400001928E-02 0. -1.
       -1   -1    0    0    0  501  0.00000000000E+00  0.00000000000E+00 -0.62022484831E+03  0.62022484833E+03  0.50400001928E-02 0.  1.
    10030    2    1    2    0    0  0.00000000000E+00  0.00000000000E+00  0.39608959323E+03  0.16365392899E+04  0.15878834597E+04 0.  0.
        5    1    3    3  502    0 -0.11439170811E+03  0.56889079933E+03  0.75649599538E+03  0.95343090231E+03  0.46999998093E+01 0. -1.
       -5    1    3    3    0  502  0.11439170811E+03 -0.56889079933E+03 -0.36040640215E+03  0.68310838756E+03  0.46999998093E+01 0.  1.
</event>
<event>
 5   0  0.5425525E-04  0.1538706E+04  0.7818609E-02  0.8859114E-01
        1   -1    0    0  501    0  0.00000000000E+00  0.00000000000E+00  0.91957111837E+03  0.91957111839E+03  0.50400001928E-02 0. -1.
       -1   -1    0    0    0  501  0.00000000000E+00  0.00000000000E+00 -0.64367406623E+03  0.64367406625E+03  0.50400001928E-02 0.  1.
    10030    2    1    2    0    0  0.00000000000E+00  0.00000000000E+00  0.27589705214E+03  0.15632451846E+04  0.15387060551E+04 0.  0.
        5    1    3    3  502    0  0.30663920486E+03  0.34530028785E+03 -0.48718734052E+03  0.67129239941E+03  0.46999998093E+01 0.  1.
       -5    1    3    3    0  502 -0.30663920486E+03 -0.34530028785E+03  0.76308439266E+03  0.89195278523E+03  0.46999998093E+01 0. -1.
</event>
<event>
 5   0  0.5281116E-04  0.1596784E+04  0.7818609E-02  0.8822526E-01
        1   -1    0    0  501    0  0.00000000000E+00  0.00000000000E+00  0.61266362983E+03  0.61266362985E+03  0.50400001928E-02 0.  1.
       -1   -1    0    0    0  501  0.00000000000E+00  0.00000000000E+00 -0.10404243619E+04  0.10404243619E+04  0.50400001928E-02 0. -1.
    10030    2    1    2    0    0  0.00000000000E+00  0.00000000000E+00 -0.42776073205E+03  0.16530879918E+04  0.15967844766E+04 0.  0.
        2    1    3    3  502    0  0.69328095426E+03  0.34055846190E+03 -0.42302252120E+03  0.88066259201E+03  0.25500000920E-02 0. -1.
       -2    1    3    3    0  502 -0.69328095426E+03 -0.34055846190E+03 -0.47382108503E+01  0.77242539974E+03  0.25500000920E-02 0.  1.
</event>
<event>
 5   0  0.5288658E-04  0.1660823E+04  0.7818609E-02  0.8784029E-01
       -1   -1    0    0    0  501  0.00000000000E+00  0.00000000000E+00  0.71919916441E+03  0.71919916443E+03  0.50400001928E-02 0. -1.
        1   -1    0    0  501    0  0.00000000000E+00  0.00000000000E+00 -0.95882114658E+03  0.95882114660E+03  0.50400001928E-02 0.  1.
    10030    2    1    2    0    0  0.00000000000E+00  0.00000000000E+00 -0.23962198217E+03  0.16780203110E+04  0.16608231302E+04 0.  0.
        1    1    3    3  502    0 -0.62352051235E+03  0.17399631099E+03  0.40570048510E+03  0.76396690321E+03  0.50400001928E-02 0. -1.
       -1    1    3    3    0  502  0.62352051235E+03 -0.17399631099E+03 -0.64532246727E+03  0.91405340782E+03  0.50400001928E-02 0.  1.
</event>
<event>
 5   0  0.1057872E-03  0.1601604E+04  0.7818609E-02  0.8819564E-01
       -2   -1    0    0    0  501  0.00000000000E+00  0.00000000000E+00  0.40610232436E+03  0.40610232437E+03  0.25500000920E-02 0.  1.
        2   -1    0    0  501    0  0.00000000000E+00  0.00000000000E+00 -0.15791179156E+04  0.15791179156E+04  0.25500000920E-02 0. -1.
    10030    2    1    2    0    0  0.00000000000E+00  0.00000000000E+00 -0.11730155913E+04  0.19852202400E+04  0.16016035165E+04 0.  0.
        2    1    3    3  502    0  0.39489430226E+03 -0.46843851684E+02  0.27506820629E+03  0.48352701529E+03  0.25500000920E-02 0.  1.
       -2    1    3    3    0  502 -0.39489430226E+03  0.46843851684E+02 -0.14480837976E+04  0.15016932247E+04  0.25500000920E-02 0. -1.
</event>
<event>
 5   0  0.5288658E-04  0.1591260E+04  0.7818609E-02  0.8825935E-01
        1   -1    0    0  501    0  0.00000000000E+00  0.00000000000E+00  0.83515812936E+03  0.83515812937E+03  0.50400001928E-02 0.  1.
       -1   -1    0    0    0  501  0.00000000000E+00  0.00000000000E+00 -0.75797300845E+03  0.75797300846E+03  0.50400001928E-02 0. -1.
    10030    2    1    2    0    0  0.00000000000E+00  0.00000000000E+00  0.77185120915E+02  0.15931311378E+04  0.15912602802E+04 0.  0.
        1    1    3    3  502    0  0.21617096062E+02  0.79498413558E+03  0.62289887667E+02  0.79771367344E+03  0.50400001928E-02 0. -1.
       -1    1    3    3    0  502 -0.21617096062E+02 -0.79498413558E+03  0.14895233248E+02  0.79541746439E+03  0.50400001928E-02 0.  1.
</event>
<event>
 5   0  0.1037321E-03  0.1556260E+04  0.7818609E-02  0.8847879E-01
        2   -1    0    0  501    0  0.00000000000E+00  0.00000000000E+00  0.93277716075E+03  0.93277716075E+03  0.25500000920E-02 0. -1.
       -2   -1    0    0    0  501  0.00000000000E+00  0.00000000000E+00 -0.64912215458E+03  0.64912215458E+03  0.25500000920E-02 0.  1.
    10030    2    1    2    0    0  0.00000000000E+00  0.00000000000E+00  0.28365500617E+03  0.15818993153E+04  0.15562600301E+04 0.  0.
        5    1    3    3  502    0 -0.65875809825E+03 -0.32294213506E+03  0.40534826422E+03  0.83820233829E+03  0.46999998093E+01 0.  1.
       -5    1    3    3    0  502  0.65875809825E+03  0.32294213506E+03 -0.12169325805E+03  0.74369697704E+03  0.46999998093E+01 0. -1.
</event>
<event>
 5   0  0.5623061E-04  0.1613289E+04  0.7818609E-02  0.8812425E-01
        1   -1    0    0  501    0  0.00000000000E+00  0.00000000000E+00  0.63328000424E+03  0.63328000426E+03  0.50400001928E-02 0.  1.
       -1   -1    0    0    0  501  0.00000000000E+00  0.00000000000E+00 -0.10274688535E+04  0.10274688535E+04  0.50400001928E-02 0. -1.
    10030    2    1    2    0    0  0.00000000000E+00  0.00000000000E+00 -0.39418884922E+03  0.16607488577E+04  0.16132891618E+04 0.  0.
        3    1    3    3  502    0  0.55077483517E+03 -0.23115411308E+03 -0.75515891851E+03  0.96283443305E+03  0.10100000352E+00 0. -1.
       -3    1    3    3    0  502 -0.55077483517E+03  0.23115411308E+03  0.36097006929E+03  0.69791442468E+03  0.10100000352E+00 0.  1.
</event>
<event>
 5   0  0.5425525E-04  0.1399738E+04  0.7818609E-02  0.8954009E-01
        1   -1    0    0  501    0  0.00000000000E+00  0.00000000000E+00  0.13004917778E+04  0.13004917778E+04  0.50400001928E-02 0.  1.
       -1   -1    0    0    0  501  0.00000000000E+00  0.00000000000E+00 -0.37663927282E+03  0.37663927286E+03  0.50400001928E-02 0. -1.
    10030    2    1    2    0    0  0.00000000000E+00  0.00000000000E+00  0.92385250497E+03  0.16771310507E+04  0.13997375147E+04 0.  0.
        5    1    3    3  502    0 -0.48309500368E+03  0.27400891892E+03  0.97214715015E+03  0.11196221871E+04  0.46999998093E+01 0.  1.
       -5    1    3    3    0  502  0.48309500368E+03 -0.27400891892E+03 -0.48294645186E+02  0.55750886359E+03  0.46999998093E+01 0. -1.
</event>
<event>
 5   0  0.5425525E-04  0.1621747E+04  0.7818609E-02  0.8807298E-01
       -1   -1    0    0    0  501  0.00000000000E+00  0.00000000000E+00  0.59973648101E+03  0.59973648103E+03  0.50400001928E-02 0.  1.
        1   -1    0    0  501    0  0.00000000000E+00  0.00000000000E+00 -0.10963413415E+04  0.10963413415E+04  0.50400001928E-02 0. -1.
    10030    2    1    2    0    0  0.00000000000E+00  0.00000000000E+00 -0.49660486045E+03  0.16960778225E+04  0.16217470803E+04 0.  0.
        5    1    3    3  502    0  0.11424810130E+03  0.78268753561E+03 -0.43492266675E+03  0.90268057645E+03  0.46999998093E+01 0. -1.
       -5    1    3    3    0  502 -0.11424810130E+03 -0.78268753561E+03 -0.61682193705E+02  0.79339724607E+03  0.46999998093E+01 0.  1.
</event>
<event>
 5   0  0.1057872E-03  0.1604870E+04  0.7818609E-02  0.8817562E-01
       -2   -1    0    0    0  501  0.00000000000E+00  0.00000000000E+00  0.38873786071E+03  0.38873786072E+03  0.25500000920E-02 0.  1.
        2   -1    0    0  501    0  0.00000000000E+00  0.00000000000E+00 -0.16563906610E+04  0.16563906610E+04  0.25500000920E-02 0. -1.
    10030    2    1    2    0    0  0.00000000000E+00  0.00000000000E+00 -0.12676528003E+04  0.20451285217E+04  0.16048697917E+04 0.  0.
        2    1    3    3  502    0  0.17371677547E+03  0.50842507051E+03 -0.13933381827E+04  0.14933401694E+04  0.25500000920E-02 0. -1.
       -2    1    3    3    0  502 -0.17371677547E+03 -0.50842507051E+03  0.12568538234E+03  0.55178835231E+03  0.25500000920E-02 0.  1.
</event>
<event>
 5   0  0.5425525E-04  0.1611146E+04  0.7818609E-02  0.8813730E-01
       -1   -1    0    0    0  501  0.00000000000E+00  0.00000000000E+00  0.38800850292E+03  0.38800850296E+03  0.50400001928E-02 0. -1.
        1   -1    0    0  501    0  0.00000000000E+00  0.00000000000E+00 -0.16725083601E+04  0.16725083602E+04  0.50400001928E-02 0.  1.
    10030    2    1    2    0    0  0.00000000000E+00  0.00000000000E+00 -0.12844998572E+04  0.20605168631E+04  0.16111455117E+04 0.  0.
        5    1    3    3  502    0  0.13833721613E+03 -0.73437857818E+03 -0.10269380780E+04  0.12700681035E+04  0.46999998093E+01 0.  1.
       -5    1    3    3    0  502 -0.13833721613E+03  0.73437857818E+03 -0.25756177919E+03  0.79044875960E+03  0.46999998093E+01 0. -1.
</event>
<event>
 5   0  0.5288658E-04  0.1590580E+04  0.7818609E-02  0.8826356E-01
        1   -1    0    0  501    0  0.00000000000E+00  0.00000000000E+00  0.23000489354E+04  0.23000489354E+04  0.50400001928E-02 0. -1.
       -1   -1    0    0    0  501  0.00000000000E+00  0.00000000000E+00 -0.27498799642E+03  0.27498799647E+03  0.50400001928E-02 0.  1.
    10030    2    1    2    0    0  0.00000000000E+00  0.00000000000E+00  0.20250609390E+04  0.25750369318E+04  0.15905795780E+04 0.  0.
        1    1    3    3  502    0  0.54506642010E+03 -0.22784155944E+03  0.15057124594E+03  0.60965636112E+03  0.50400001928E-02 0.  1.
       -1    1    3    3    0  502 -0.54506642010E+03  0.22784155944E+03  0.18744896930E+04  0.19653805707E+04  0.50400001928E-02 0. -1.
</event>
<event>
 5   0  0.1057872E-03  0.1612426E+04  0.7818609E-02  0.8812951E-01
        2   -1    0    0  501    0  0.00000000000E+00  0.00000000000E+00  0.14254441983E+04  0.14254441983E+04  0.25500000920E-02 0.  1.
       -2   -1    0    0    0  501  0.00000000000E+00  0.00000000000E+00 -0.45598348082E+03  0.45598348082E+03  0.25500000920E-02 0. -1.
    10030    2    1    2    0    0  0.00000000000E+00  0.00000000000E+00  0.96946071745E+03  0.18814276791E+04  0.16124255111E+04 0.  0.
        2    1    3    3  502    0 -0.48213197345E+02  0.65971431449E+03  0.10225260824E+04  0.12178288378E+04  0.25500000920E-02 0.  1.
       -2    1    3    3    0  502  0.48213197345E+02 -0.65971431449E+03 -0.53065364926E+02  0.66359884125E+03  0.25500000920E-02 0. -1.
</event>
<event>
 5   0  0.5281116E-04  0.1578417E+04  0.7818609E-02  0.8833918E-01
       -1   -1    0    0    0  501  0.00000000000E+00  0.00000000000E+00  0.57591753425E+03  0.57591753427E+03  0.50400001928E-02 0. -1.
        1   -1    0    0  501    0  0.00000000000E+00  0.00000000000E+00 -0.10814915073E+04  0.10814915073E+04  0.50400001928E-02 0.  1.
    10030    2    1    2    0    0  0.00000000000E+00  0.00000000000E+00 -0.50557397307E+03  0.16574090416E+04  0.15784168299E+04 0.  0.
        2    1    3    3  502    0  0.15876940943E+03  0.77287647706E+03 -0.27109960868E+03  0.83429058007E+03  0.25500000920E-02 0. -1.
       -2    1    3    3    0  502 -0.15876940943E+03 -0.77287647706E+03 -0.23447436439E+03  0.82311846153E+03  0.25500000920E-02 0.  1.
</event>
<event>
 5   0  0.5281116E-04  0.1606439E+04  0.7818609E-02  0.8816602E-01
       -1   -1    0    0    0  501  0.00000000000E+00  0.00000000000E+00  0.94594535933E+03  0.94594535934E+03  0.50400001928E-02 0.  1.
        1   -1    0    0  501    0  0.00000000000E+00  0.00000000000E+00 -0.68202810183E+03  0.68202810185E+03  0.50400001928E-02 0. -1.
    10030    2    1    2    0    0  0.00000000000E+00  0.00000000000E+00  0.26391725750E+03  0.16279734612E+04  0.16064386921E+04 0.  0.
        2    1    3    3  502    0 -0.41328725650E+03 -0.33358753754E+03  0.74259255426E+03  0.91297902672E+03  0.25500000920E-02 0.  1.
       -2    1    3    3    0  502  0.41328725650E+03  0.33358753754E+03 -0.47867529676E+03  0.71499443447E+03  0.25500000920E-02 0. -1.
</event>
<event>
 5   0  0.5532881E-04  0.1600189E+04  0.7818609E-02  0.8820432E-01
        1   -1    0    0  501    0  0.00000000000E+00  0.00000000000E+00  0.16789269092E+04  0.16789269092E+04  0.50400001928E-02 0. -1.
       -1   -1    0    0    0  501  0.00000000000E+00  0.00000000000E+00 -0.38128602164E+03  0.38128602167E+03  0.50400001928E-02 0.  1.
    10030    2    1    2    0    0  0.00000000000E+00  0.00000000000E+00  0.12976408875E+04  0.20602129308E+04  0.16001891911E+04 0.  0.
        4    1    3    3  502    0  0.86784382802E+02  0.10324439099E+03 -0.36654315586E+03  0.39057192856E+03  0.12699999809E+01 0.  1.
       -4    1    3    3    0  502 -0.86784382802E+02 -0.10324439099E+03  0.16641840434E+04  0.16696410023E+04  0.12699999809E+01 0. -1.
</event>
<event>
 5   0  0.5532881E-04  0.1599668E+04  0.7818609E-02  0.8820752E-01
       -1   -1    0    0    0  501  0.00000000000E+00  0.00000000000E+00  0.11613223594E+04  0.11613223594E+04  0.50400001928E-02 0.  1.
        1   -1    0    0  501    0  0.00000000000E+00  0.00000000000E+00 -0.55086721167E+03  0.55086721169E+03  0.50400001928E-02 0. -1.
    10030    2    1    2    0    0  0.00000000000E+00  0.00000000000E+00  0.61045514774E+03  0.17121895711E+04  0.15996679781E+04 0.  0.
        4    1    3    3  502    0 -0.59810839732E+03 -0.47570308581E+03  0.52605161660E+02  0.76602610709E+03  0.12699999809E+01 0. -1.
       -4    1    3    3    0  502  0.59810839732E+03  0.47570308581E+03  0.55784998608E+03  0.94616346404E+03  0.12699999809E+01 0.  1.
</event>
<event>
 5   0  0.5425525E-04  0.1586839E+04  0.7818609E-02  0.8828674E-01
        1   -1    0    0  501    0  0.00000000000E+00  0.00000000000E+00  0.14891341016E+04  0.14891341016E+04  0.50400001928E-02 0. -1.
       -1   -1    0    0    0  501  0.00000000000E+00  0.00000000000E+00 -0.42273852965E+03  0.42273852968E+03  0.50400001928E-02 0.  1.
    10030    2    1    2    0    0  0.00000000000E+00  0.00000000000E+00  0.10663955720E+04  0.19118726313E+04  0.15868388206E+04 0.  0.
        5    1    3    3  502    0 -0.76281211052E+02  0.70981375161E+02 -0.41444228260E+03  0.42736597242E+03  0.46999998093E+01 0.  1.
       -5    1    3    3    0  502  0.76281211052E+02 -0.70981375161E+02  0.14808378546E+04  0.14845066589E+04  0.46999998093E+01 0. -1.
</event>
<event>
 5   0  0.5623061E-04  0.1596091E+04  0.7818609E-02  0.8822953E-01
        1   -1    0    0  501    0  0.00000000000E+00  0.00000000000E+00  0.51058207854E+03  0.51058207856E+03  0.50400001928E-02 0. -1.
       -1   -1    0    0    0  501  0.00000000000E+00  0.00000000000E+00 -0.12473540890E+04  0.12473540890E+04  0.50400001928E-02 0.  1.
    10030    2    1    2    0    0  0.00000000000E+00  0.00000000000E+00 -0.73677201050E+03  0.17579361676E+04  0.15960910293E+04 0.  0.
        3    1    3    3  502    0  0.72678296956E+03 -0.55524960752E+02 -0.72626526888E+03  0.10289595507E+04  0.10100000352E+00 0.  1.
       -3    1    3    3    0  502 -0.72678296956E+03  0.55524960752E+02 -0.10506741624E+02  0.72897661686E+03  0.10100000352E+00 0. -1.
</event>
<event>
 5   0  0.1037321E-03  0.1588022E+04  0.7818609E-02  0.8827941E-01
        2   -1    0    0  501    0  0.00000000000E+00  0.00000000000E+00  0.20621999423E+04  0.20621999423E+04  0.25500000920E-02 0. -1.
       -2   -1    0    0    0  501  0.00000000000E+00  0.00000000000E+00 -0.30571888102E+03  0.30571888103E+03  0.25500000920E-02 0.  1.
    10030    2    1    2    0    0  0.00000000000E+00  0.00000000000E+00  0.17564810612E+04  0.23679188233E+04  0.15880219883E+04 0.  0.
        5    1    3    3  502    0  0.67465657141E+03 -0.40187405559E+03  0.70328330093E+03  0.10541791770E+04  0.46999998093E+01 0.  1.
       -5    1    3    3    0  502 -0.67465657141E+03  0.40187405559E+03  0.10531977603E+04  0.13137396463E+04  0.46999998093E+01 0. -1.
</event>
<event>
 5   0  0.5425525E-04  0.1618802E+04  0.7818609E-02  0.8809080E-01
       -1   -1    0    0    0  501  0.00000000000E+00  0.00000000000E+00  0.25835638676E+03  0.25835638680E+03  0.50400001928E-02 0.  1.
        1   -1    0    0  501    0  0.00000000000E+00  0.00000000000E+00 -0.25357591606E+04  0.25357591606E+04  0.50400001928E-02 0. -1.
    10030    2    1    2    0    0  0.00000000000E+00  0.00000000000E+00 -0.22774027738E+04  0.27941155474E+04  0.16188015005E+04 0.  0.
        5    1    3    3  502    0  0.73265224261E+03 -0.25371079062E+03 -0.73775827893E+03  0.10702606421E+04  0.46999998093E+01 0.  1.
       -5    1    3    3    0  502 -0.73265224261E+03  0.25371079062E+03 -0.15396444949E+04  0.17238549053E+04  0.46999998093E+01 0. -1.
</event>
<event>
 5   0  0.1030027E-03  0.1552647E+04  0.7818609E-02  0.8850179E-01
       -2   -1    0    0    0  501  0.00000000000E+00  0.00000000000E+00  0.10006490914E+04  0.10006490914E+04  0.25500000920E-02 0.  1.
        2   -1    0    0  501    0  0.00000000000E+00  0.00000000000E+00 -0.60228719412E+03  0.60228719413E+03  0.25500000920E-02 0. -1.
    10030    2    1    2    0    0  0.00000000000E+00  0.00000000000E+00  0.39836189730E+03  0.16029362855E+04  0.15526469445E+04 0.  0.
        1    1    3    3  502    0 -0.68954877072E+03  0.22225383437E+03 -0.88786976644E+02  0.72990232315E+03  0.50400001928E-02 0. -1.
       -1    1    3    3    0  502  0.68954877072E+03 -0.22225383437E+03  0.48714887394E+03  0.87303396240E+03  0.50400001928E-02 0.  1.
</event>
<event>
 5   0  0.5623061E-04  0.1650921E+04  0.7818609E-02  0.8789862E-01
       -1   -1    0    0    0  501  0.00000000000E+00  0.00000000000E+00  0.87372315571E+03  0.87372315572E+03  0.50400001928E-02 0. -1.
        1   -1    0    0  501    0  0.00000000000E+00  0.00000000000E+00 -0.77986395350E+03  0.77986395352E+03  0.50400001928E-02 0.  1.
    10030    2    1    2    0    0  0.00000000000E+00  0.00000000000E+00  0.93859202203E+02  0.16535871092E+04  0.16509211907E+04 0.  0.
        3    1    3    3  502    0  0.83742469134E+02 -0.34082447469E+03 -0.70141211367E+03  0.78431695576E+03  0.10100000352E+00 0.  1.
       -3    1    3    3    0  502 -0.83742469134E+02  0.34082447469E+03  0.79527131587E+03  0.86927015348E+03  0.10100000352E+00 0. -1.
</event>
<event>
 5   0  0.5281116E-04  0.1569078E+04  0.7818609E-02  0.8839773E-01
       -1   -1    0    0    0  501  0.00000000000E+00  0.00000000000E+00  0.33556035886E+03  0.33556035890E+03  0.50400001928E-02 0.  1.
        1   -1    0    0  501    0  0.00000000000E+00  0.00000000000E+00 -0.18342496424E+04  0.18342496425E+04  0.50400001928E-02 0. -1.
    10030    2    1    2    0    0  0.00000000000E+00  0.00000000000E+00 -0.14986892836E+04  0.21698100014E+04  0.15690780329E+04 0.  0.
        2    1    3    3  502    0 -0.59480179226E+03  0.32222858838E+03 -0.12988123117E+04  0.14644227041E+04  0.25500000920E-02 0. -1.
       -2    1    3    3    0  502  0.59480179226E+03 -0.32222858838E+03 -0.19987697189E+03  0.70538729726E+03  0.25500000920E-02 0.  1.
</event>
<event>
 5   0  0.3832500E-04  0.1633585E+04  0.7818609E-02  0.8800177E-01
        3   -1    0    0  501    0  0.00000000000E+00  0.00000000000E+00  0.96109843684E+03  0.96109844215E+03  0.10100000352E+00 0.  1.
       -3   -1    0    0    0  501  0.00000000000E+00  0.00000000000E+00 -0.69415364210E+03  0.69415364945E+03  0.10100000352E+00 0. -1.
    10030    2    1    2    0    0  0.00000000000E+00  0.00000000000E+00  0.26694479474E+03  0.16552520916E+04  0.16335850034E+04 0.  0.
        3    1    3    3  502    0  0.55655141343E+03 -0.18766808118E+03  0.70861097926E+03  0.92037944056E+03  0.10100000352E+00 0.  1.
       -3    1    3    3    0  502 -0.55655141343E+03  0.18766808118E+03 -0.44166618453E+03  0.73487265103E+03  0.10100000352E+00 0. -1.
</event>
<event>
 5   0  0.1030027E-03  0.1570416E+04  0.7818609E-02  0.8838931E-01
       -2   -1    0    0    0  501  0.00000000000E+00  0.00000000000E+00  0.43883697284E+03  0.43883697285E+03  0.25500000920E-02 0.  1.
        2   -1    0    0  501    0  0.00000000000E+00  0.00000000000E+00 -0.14049676714E+04  0.14049676714E+04  0.25500000920E-02 0. -1.
    10030    2    1    2    0    0  0.00000000000E+00  0.00000000000E+00 -0.96613069851E+03  0.18438046442E+04  0.15704161994E+04 0.  0.
        1    1    3    3  502    0  0.28008621963E+02  0.72935453794E+03 -0.14316933178E+03  0.74380103691E+03  0.50400001928E-02 0. -1.
       -1    1    3    3    0  502 -0.28008621963E+02 -0.72935453794E+03 -0.82296136673E+03  0.11000036073E+04  0.50400001928E-02 0.  1.
</event>
<event>
 5   0  0.9844690E-04  0.1563979E+04  0.7818609E-02  0.8842988E-01
        2   -1    0    0  501    0  0.00000000000E+00  0.00000000000E+00  0.74537614916E+03  0.74537614916E+03  0.25500000920E-02 0. -1.
       -2   -1    0    0    0  501  0.00000000000E+00  0.00000000000E+00 -0.82040177070E+03  0.82040177071E+03  0.25500000920E-02 0.  1.
    10030    2    1    2    0    0  0.00000000000E+00  0.00000000000E+00 -0.75025621544E+02  0.15657779199E+04  0.15639794278E+04 0.  0.
        3    1    3    3  502    0 -0.15202535102E+03  0.67552683026E+03  0.32630526790E+03  0.76545629778E+03  0.10100000352E+00 0. -1.
       -3    1    3    3    0  502  0.15202535102E+03 -0.67552683026E+03 -0.40133088944E+03  0.80032162208E+03  0.10100000352E+00 0.  1.
</event>
<event>
 5   0  0.1030027E-03  0.1595123E+04  0.7818609E-02  0.8823550E-01
        2   -1    0    0  501    0  0.00000000000E+00  0.00000000000E+00  0.17203650969E+04  0.17203650969E+04  0.25500000920E-02 0. -1.
       -2   -1    0    0    0  501  0.00000000000E+00  0.00000000000E+00 -0.36974961124E+03  0.36974961125E+03  0.25500000920E-02 0.  1.
    10030    2    1    2    0    0  0.00000000000E+00  0.00000000000E+00  0.13506154857E+04  0.20901147082E+04  0.15951229743E+04 0.  0.
        1    1    3    3  502    0  0.49873875032E+03  0.17110648108E+03 -0.10878955977E+03  0.53837991909E+03  0.50400001928E-02 0.  1.
       -1    1    3    3    0  502 -0.49873875032E+03 -0.17110648108E+03  0.14594050454E+04  0.15517347891E+04  0.50400001928E-02 0. -1.
</event>
<event>
 5   0  0.9844690E-04  0.1635357E+04  0.7818609E-02  0.8799116E-01
        2   -1    0    0  501    0  0.00000000000E+00  0.00000000000E+00  0.90991020160E+03  0.90991020160E+03  0.25500000920E-02 0.  1.
       -2   -1    0    0    0  501  0.00000000000E+00  0.00000000000E+00 -0.73479576221E+03  0.73479576221E+03  0.25500000920E-02 0. -1.
    10030    2    1    2    0    0  0.00000000000E+00  0.00000000000E+00  0.17511443939E+03  0.16447059638E+04  0.16353570376E+04 0.  0.
        3    1    3    3  502    0 -0.42130932600E+03  0.70039186521E+03  0.11109694136E+03  0.82485929322E+03  0.10100000352E+00 0. -1.
       -3    1    3    3    0  502  0.42130932600E+03 -0.70039186521E+03  0.64017498031E+02  0.81984667059E+03  0.10100000352E+00 0.  1.
</event>
<event>
 5   0  0.1057872E-03  0.1599039E+04  0.7818609E-02  0.8821139E-01
        2   -1    0    0  501    0  0.00000000000E+00  0.00000000000E+00  0.67958369794E+03  0.67958369794E+03  0.25500000920E-02 0. -1.
       -2   -1    0    0    0  501  0.00000000000E+00  0.00000000000E+00 -0.94062222231E+03  0.94062222232E+03  0.25500000920E-02 0.  1.
    10030    2    1    2    0    0  0.00000000000E+00  0.00000000000E+00 -0.26103852437E+03  0.16202059203E+04  0.15990391217E+04 0.  0.
        2    1    3    3  502    0 -0.20031022740E+03 -0.65930318408E+03 -0.54138245157E+03  0.87629894135E+03  0.25500000920E-02 0.  1.
       -2    1    3    3    0  502  0.20031022740E+03  0.65930318408E+03  0.28034392720E+03  0.74390697891E+03  0.25500000920E-02 0. -1.
</event>
<event>
 5   0  0.1030027E-03  0.1505158E+04  0.7818609E-02  0.8881030E-01
        2   -1    0    0  501    0  0.00000000000E+00  0.00000000000E+00  0.11295943004E+04  0.11295943004E+04  0.25500000920E-02 0. -1.
       -2   -1    0    0    0  501  0.00000000000E+00  0.00000000000E+00 -0.50139696441E+03  0.50139696441E+03  0.25500000920E-02 0.  1.
    10030    2    1    2    0    0  0.00000000000E+00  0.00000000000E+00  0.62819733599E+03  0.16309912648E+04  0.15051580027E+04 0.  0.
        1    1    3    3  502    0  0.55794386664E+03  0.49951895890E+03  0.23333870382E+03  0.78438988988E+03  0.50400001928E-02 0.  1.
       -1    1    3    3    0  502 -0.55794386664E+03 -0.49951895890E+03  0.39485863217E+03  0.84660137493E+03  0.50400001928E-02 0. -1.
</event>
<event>
 5   0  0.5425525E-04  0.1579087E+04  0.7818609E-02  0.8833500E-01
       -1   -1    0    0    0  501  0.00000000000E+00  0.00000000000E+00  0.83299498977E+03  0.83299498979E+03  0.50400001928E-02 0.  1.
        1   -1    0    0  501    0  0.00000000000E+00  0.00000000000E+00 -0.74835835692E+03  0.74835835694E+03  0.50400001928E-02 0. -1.
    10030    2    1    2    0    0  0.00000000000E+00  0.00000000000E+00  0.84636632852E+02  0.15813533467E+04  0.15790867765E+04 0.  0.
        5    1    3    3  502    0 -0.48190211539E+03  0.32783315422E+03  0.57567309670E+03  0.81922269871E+03  0.46999998093E+01 0.  1.
       -5    1    3    3    0  502  0.48190211539E+03 -0.32783315422E+03 -0.49103646385E+03  0.76213064802E+03  0.46999998093E+01 0. -1.
</event>
<event>
 5   0  0.5425525E-04  0.1580683E+04  0.7818609E-02  0.8832504E-01
        1   -1    0    0  501    0  0.00000000000E+00  0.00000000000E+00  0.15086575053E+04  0.15086575053E+04  0.50400001928E-02 0. -1.
       -1   -1    0    0    0  501  0.00000000000E+00  0.00000000000E+00 -0.41403676704E+03  0.41403676707E+03  0.50400001928E-02 0.  1.
    10030    2    1    2    0    0  0.00000000000E+00  0.00000000000E+00  0.10946207383E+04  0.19226942724E+04  0.15806829867E+04 0.  0.
        5    1    3    3  502    0 -0.39904271631E+03 -0.50272136582E+03 -0.13610955484E+02  0.64200561462E+03  0.46999998093E+01 0.  1.
       -5    1    3    3    0  502  0.39904271631E+03  0.50272136582E+03  0.11082316937E+04  0.12806886578E+04  0.46999998093E+01 0. -1.
</event>
<event>
 5   0  0.1057872E-03  0.1604063E+04  0.7818609E-02  0.8818056E-01
       -2   -1    0    0    0  501  0.00000000000E+00  0.00000000000E+00  0.80160090067E+03  0.80160090067E+03  0.25500000920E-02 0.  1.
        2   -1    0    0  501    0  0.00000000000E+00  0.00000000000E+00 -0.80246266390E+03  0.80246266390E+03  0.25500000920E-02 0. -1.
    10030    2    1    2    0    0  0.00000000000E+00  0.00000000000E+00 -0.86176322920E+00  0.16040635646E+04  0.16040633331E+04 0.  0.
        2    1    3    3  502    0  0.66516577825E+03 -0.17146821973E+03  0.41358358754E+03  0.80180935815E+03  0.25500000920E-02 0.  1.
       -2    1    3    3    0  502 -0.66516577825E+03  0.17146821973E+03 -0.41444535076E+03  0.80225420642E+03  0.25500000920E-02 0. -1.
</event>
<event>
 5   0  0.5623061E-04  0.1622138E+04  0.7818609E-02  0.8807062E-01
        1   -1    0    0  501    0  0.00000000000E+00  0.00000000000E+00  0.15501517702E+04  0.15501517702E+04  0.50400001928E-02 0.  1.
       -1   -1    0    0    0  501  0.00000000000E+00  0.00000000000E+00 -0.42436653404E+03  0.42436653407E+03  0.50400001928E-02 0. -1.
    10030    2    1    2    0    0  0.00000000000E+00  0.00000000000E+00  0.11257852362E+04  0.19745183043E+04  0.16221375207E+04 0.  0.
        3    1    3    3  502    0  0.23642664201E+02  0.31550139745E+02 -0.42319944344E+03  0.42503195882E+03  0.10100000352E+00 0. -1.
       -3    1    3    3    0  502 -0.23642664201E+02 -0.31550139745E+02  0.15489846796E+04  0.15494863454E+04  0.10100000352E+00 0.  1.
</event>
<event>
 5   0  0.5425525E-04  0.1618349E+04  0.7818609E-02  0.8809354E-01
        1   -1    0    0  501    0  0.00000000000E+00  0.00000000000E+00  0.73300239679E+03  0.73300239681E+03  0.50400001928E-02 0. -1.
       -1   -1    0    0    0  501  0.00000000000E+00  0.00000000000E+00 -0.89326261291E+03  0.89326261293E+03  0.50400001928E-02 0.  1.
    10030    2    1    2    0    0  0.00000000000E+00  0.00000000000E+00 -0.16026021612E+03  0.16262650097E+04  0.16183493272E+04 0.  0.
        5    1    3    3  502    0 -0.54225038115E+03 -0.30733410516E+03  0.43838968308E+03  0.76203499413E+03  0.46999998093E+01 0. -1.
       -5    1    3    3    0  502  0.54225038115E+03  0.30733410516E+03 -0.59864989920E+03  0.86423001560E+03  0.46999998093E+01 0.  1.
</event>
<event>
 5   0  0.1037321E-03  0.1634519E+04  0.7818609E-02  0.8799618E-01
       -2   -1    0    0    0  501  0.00000000000E+00  0.00000000000E+00  0.39579919545E+03  0.39579919546E+03  0.25500000920E-02 0. -1.
        2   -1    0    0  501    0  0.00000000000E+00  0.00000000000E+00 -0.16875058755E+04  0.16875058755E+04  0.25500000920E-02 0.  1.
    10030    2    1    2    0    0  0.00000000000E+00  0.00000000000E+00 -0.12917066801E+04  0.20833050710E+04  0.16345194619E+04 0.  0.
        5    1    3    3  502    0  0.86005608248E+02  0.78362500534E+03 -0.37122544745E+03  0.87137565750E+03  0.46999998093E+01 0.  1.
       -5    1    3    3    0  502 -0.86005608248E+02 -0.78362500534E+03 -0.92048123261E+03  0.12119294135E+04  0.46999998093E+01 0. -1.
</event>
<event>
 5   0  0.9844690E-04  0.1593866E+04  0.7818609E-02  0.8824325E-01
        2   -1    0    0  501    0  0.00000000000E+00  0.00000000000E+00  0.95768490554E+03  0.95768490554E+03  0.25500000920E-02 0.  1.
       -2   -1    0    0    0  501  0.00000000000E+00  0.00000000000E+00 -0.66316380214E+03  0.66316380215E+03  0.25500000920E-02 0. -1.
    10030    2    1    2    0    0  0.00000000000E+00  0.00000000000E+00  0.29452110340E+03  0.16208487077E+04  0.15938656947E+04 0.  0.
        3    1    3    3  502    0  0.35447369878E+03  0.62602773656E+03 -0.20138401571E+03  0.74707286261E+03  0.10100000352E+00 0. -1.
       -3    1    3    3    0  502 -0.35447369878E+03 -0.62602773656E+03  0.49590511911E+03  0.87377584507E+03  0.10100000352E+00 0.  1.
</event>
<event>
 5   0  0.5425525E-04  0.1630046E+04  0.7818609E-02  0.8802299E-01
        1   -1    0    0  501    0  0.00000000000E+00  0.00000000000E+00  0.11496560862E+04  0.11496560862E+04  0.50400001928E-02 0.  1.
       -1   -1    0    0    0  501  0.00000000000E+00  0.00000000000E+00 -0.57779265154E+03  0.57779265156E+03  0.50400001928E-02 0. -1.
    10030    2    1    2    0    0  0.00000000000E+00  0.00000000000E+00  0.57186343469E+03  0.17274487378E+04  0.16300464269E+04 0.  0.
        5    1    3    3  502    0  0.69340018649E+03  0.21304092209E+03  0.67968499235E+03  0.99407445995E+03  0.46999998093E+01 0.  1.
       -5    1    3    3    0  502 -0.69340018649E+03 -0.21304092209E+03 -0.10782155766E+03  0.73337427784E+03  0.46999998093E+01 0. -1.
</event>
<event>
 5   0  0.1057872E-03  0.1575333E+04  0.7818609E-02  0.8835847E-01
        2   -1    0    0  501    0  0.00000000000E+00  0.00000000000E+00  0.67972941221E+03  0.67972941221E+03  0.25500000920E-02 0.  1.
       -2   -1    0    0    0  501  0.00000000000E+00  0.00000000000E+00 -0.91274301153E+03  0.91274301153E+03  0.25500000920E-02 0. -1.
    10030    2    1    2    0    0  0.00000000000E+00  0.00000000000E+00 -0.23301359932E+03  0.15924724237E+04  0.15753326896E+04 0.  0.
        2    1    3    3  502    0 -0.50959127237E+03 -0.21234967245E+03 -0.68444026082E+03  0.87933731804E+03  0.25500000920E-02 0. -1.
       -2    1    3    3    0  502  0.50959127237E+03  0.21234967245E+03  0.45142666150E+03  0.71313510570E+03  0.25500000920E-02 0.  1.
</event>
<event>
 5   0  0.5288658E-04  0.1596506E+04  0.7818609E-02  0.8822697E-01
       -1   -1    0    0    0  501  0.00000000000E+00  0.00000000000E+00  0.55746091432E+03  0.55746091435E+03  0.50400001928E-02 0.  1.
        1   -1    0    0  501    0  0.00000000000E+00  0.00000000000E+00 -0.11430540424E+04  0.11430540424E+04  0.50400001928E-02 0. -1.
    10030    2    1    2    0    0  0.00000000000E+00  0.00000000000E+00 -0.58559312809E+03  0.17005149568E+04  0.15965061248E+04 0.  0.
        1    1    3    3  502    0  0.51544440921E+03  0.26132465377E+03  0.29374545272E+03  0.64827455963E+03  0.50400001928E-02 0.  1.
       -1    1    3    3    0  502 -0.51544440921E+03 -0.26132465377E+03 -0.87933858080E+03  0.10522403971E+04  0.50400001928E-02 0. -1.
</event>
<event>
 5   0  0.3832500E-04  0.1592408E+04  0.7818609E-02  0.8825226E-01
       -3   -1    0    0    0  501  0.00000000000E+00  0.00000000000E+00  0.34937259948E+03  0.34937261408E+03  0.10100000352E+00 0.  1.
        3   -1    0    0  501    0  0.00000000000E+00  0.00000000000E+00 -0.18145118625E+04  0.18145118653E+04  0.10100000352E+00 0. -1.
    10030    2    1    2    0    0  0.00000000000E+00  0.00000000000E+00 -0.14651392630E+04  0.21638844794E+04  0.15924079189E+04 0.  0.
        4    1    3    3  502    0 -0.50681146175E+03 -0.60886717880E+03 -0.62418250556E+03  0.10085546650E+04  0.12699999809E+01 0.  1.
       -4    1    3    3    0  502  0.50681146175E+03  0.60886717880E+03 -0.84095675749E+03  0.11553298144E+04  0.12699999809E+01 0. -1.
</event>
<event>
 5   0  0.1030027E-03  0.1623710E+04  0.7818609E-02  0.8806113E-01
       -2   -1    0    0    0  501  0.00000000000E+00  0.00000000000E+00  0.87902570883E+03  0.87902570883E+03  0.25500000920E-02 0. -1.
        2   -1    0    0  501    0  0.00000000000E+00  0.00000000000E+00 -0.74981752892E+03  0.74981752893E+03  0.25500000920E-02 0.  1.
    10030    2    1    2    0    0  0.00000000000E+00  0.00000000000E+00  0.12920817991E+03  0.16288432378E+04  0.16237104235E+04 0.  0.
        1    1    3    3  502    0  0.21126828234E+03 -0.34272986719E+03 -0.64261445304E+03  0.75832142543E+03  0.50400001928E-02 0.  1.
       -1    1    3    3    0  502 -0.21126828234E+03  0.34272986719E+03  0.77182263294E+03  0.87052181233E+03  0.50400001928E-02 0. -1.
</event>
<event>
 5   0  0.5281116E-04  0.1532092E+04  0.7818609E-02  0.8863388E-01
        1   -1    0    0  501    0  0.00000000000E+00  0.00000000000E+00  0.82107253472E+03  0.82107253473E+03  0.50400001928E-02 0. -1.
       -1   -1    0    0    0  501  0.00000000000E+00  0.00000000000E+00 -0.71470706012E+03  0.71470706014E+03  0.50400001928E-02 0.  1.
    10030    2    1    2    0    0  0.00000000000E+00  0.00000000000E+00  0.10636547460E+03  0.15357795949E+04  0.15320918216E+04 0.  0.
        2    1    3    3  502    0  0.47604766407E+03 -0.43232085475E+03  0.47048230801E+03  0.79679125376E+03  0.25500000920E-02 0. -1.
       -2    1    3    3    0  502 -0.47604766407E+03  0.43232085475E+03 -0.36411683341E+03  0.73898834111E+03  0.25500000920E-02 0.  1.
</event>
<event>
 5   0  0.5623061E-04  0.1674715E+04  0.7818609E-02  0.8775918E-01
       -1   -1    0    0    0  501  0.00000000000E+00  0.00000000000E+00  0.53329165768E+03  0.53329165771E+03  0.50400001928E-02 0. -1.
        1   -1    0    0  501    0  0.00000000000E+00  0.00000000000E+00 -0.13147913192E+04  0.13147913192E+04  0.50400001928E-02 0.  1.
    10030    2    1    2    0    0  0.00000000000E+00  0.00000000000E+00 -0.78149966155E+03  0.18480829770E+04  0.16747145932E+04 0.  0.
        3    1    3    3  502    0 -0.48499156874E+03  0.54297766494E+03  0.65747494396E+02  0.73100226374E+03  0.10100000352E+00 0. -1.
       -3    1    3    3    0  502  0.48499156874E+03 -0.54297766494E+03 -0.84724715595E+03  0.11170807132E+04  0.10100000352E+00 0.  1.
</event>
<event>
 5   0  0.5425525E-04  0.1580719E+04  0.7818609E-02  0.8832481E-01
       -1   -1    0    0    0  501  0.00000000000E+00  0.00000000000E+00  0.53131244616E+03  0.53131244618E+03  0.50400001928E-02 0. -1.
        1   -1    0    0  501    0  0.00000000000E+00  0.00000000000E+00 -0.11757078438E+04  0.11757078439E+04  0.50400001928E-02 0.  1.
    10030    2    1    2    0    0  0.00000000000E+00  0.00000000000E+00 -0.64439539769E+03  0.17070202900E+04  0.15807190902E+04 0.  0.
        5    1    3    3  502    0  0.75012614042E+03  0.23062987045E+03 -0.22108552090E+03  0.81534057990E+03  0.46999998093E+01 0.  1.
       -5    1    3    3    0  502 -0.75012614042E+03 -0.23062987045E+03 -0.42330987679E+03  0.89167971014E+03  0.46999998093E+01 0. -1.
</event>
<event>
 5   0  0.5281116E-04  0.1036945E+04  0.7818609E-02  0.9268927E-01
        1   -1    0    0  501    0  0.00000000000E+00  0.00000000000E+00  0.85852229302E+03  0.85852229303E+03  0.50400001928E-02 0.  1.
       -1   -1    0    0    0  501  0.00000000000E+00  0.00000000000E+00 -0.31311225162E+03  0.31311225166E+03  0.50400001928E-02 0. -1.
    10030    2    1    2    0    0  0.00000000000E+00  0.00000000000E+00  0.54541004140E+03  0.11716345447E+04  0.10369452218E+04 0.  0.
        2    1    3    3  502    0  0.16660691232E+03 -0.13226959623E+03 -0.26153217433E+03  0.33712340105E+03  0.25500000920E-02 0. -1.
       -2    1    3    3    0  502 -0.16660691232E+03  0.13226959623E+03  0.80694221573E+03  0.83451114364E+03  0.25500000920E-02 0.  1.
</event>
<event>
 5   0  0.1000121E-03  0.1575560E+04  0.7818609E-02  0.8835704E-01
        2   -1    0    0  501    0  0.00000000000E+00  0.00000000000E+00  0.52165114751E+03  0.52165114752E+03  0.25500000920E-02 0.  1.
       -2   -1    0    0    0  501  0.00000000000E+00  0.00000000000E+00 -0.11896793285E+04  0.11896793285E+04  0.25500000920E-02 0. -1.
    10030    2    1    2    0    0  0.00000000000E+00  0.00000000000E+00 -0.66802818097E+03  0.17113304760E+04  0.15755603281E+04 0.  0.
        4    1    3    3  502    0  0.19455959189E+03 -0.61138745790E+03 -0.83051250847E+03  0.10494763923E+04  0.12699999809E+01 0. -1.
       -4    1    3    3    0  502 -0.19455959189E+03  0.61138745790E+03  0.16248432750E+03  0.66185408366E+03  0.12699999809E+01 0.  1.
</event>
<event>
 5   0  0.5532881E-04  0.1584555E+04  0.7818609E-02  0.8830093E-01
        1   -1    0    0  501    0  0.00000000000E+00  0.00000000000E+00  0.15182820189E+04  0.15182820189E+04  0.50400001928E-02 0.  1.
       -1   -1    0    0    0  501  0.00000000000E+00  0.00000000000E+00 -0.41343041516E+03  0.41343041519E+03  0.50400001928E-02 0. -1.
    10030    2    1    2    0    0  0.00000000000E+00  0.00000000000E+00  0.11048516037E+04  0.19317124341E+04  0.15845554146E+04 0.  0.
        4    1    3    3  502    0 -0.23261762688E+03 -0.15873947397E+03 -0.35035239692E+03  0.44950817107E+03  0.12699999809E+01 0. -1.
       -4    1    3    3    0  502  0.23261762688E+03  0.15873947397E+03  0.14552040007E+04  0.14822042630E+04  0.12699999809E+01 0.  1.
</event>
<event>
 5   0  0.5623061E-04  0.1617775E+04  0.7818609E-02  0.8809702E-01
        1   -1    0    0  501    0  0.00000000000E+00  0.00000000000E+00  0.13981878142E+04  0.13981878142E+04  0.50400001928E-02 0. -1.
       -1   -1    0    0    0  501  0.00000000000E+00  0.00000000000E+00 -0.46796216642E+03  0.46796216645E+03  0.50400001928E-02 0.  1.
    10030    2    1    2    0    0  0.00000000000E+00  0.00000000000E+00  0.93022564778E+03  0.18661499807E+04  0.16177750136E+04 0.  0.
        3    1    3    3  502    0  0.64457164148E+03  0.40540173935E+03  0.15031185548E+03  0.77615516192E+03  0.10100000352E+00 0.  1.
       -3    1    3    3    0  502 -0.64457164148E+03 -0.40540173935E+03  0.77991379229E+03  0.10899948187E+04  0.10100000352E+00 0. -1.
</event>
<event>
 5   0  0.3832500E-04  0.1382854E+04  0.7818609E-02  0.8966324E-01
       -4   -1    0    0    0  501  0.00000000000E+00  0.00000000000E+00  0.30026490791E+03  0.30026759369E+03  0.12699999809E+01 0.  1.
        4   -1    0    0  501    0  0.00000000000E+00  0.00000000000E+00 -0.15921542445E+04  0.15921547510E+04  0.12699999809E+01 0. -1.
    10030    2    1    2    0    0  0.00000000000E+00  0.00000000000E+00 -0.12918893366E+04  0.18924223447E+04  0.13828536700E+04 0.  0.
        4    1    3    3  502    0  0.30322757633E+03 -0.57137001289E+03 -0.31168875452E+03  0.71802656446E+03  0.12699999809E+01 0.  1.
       -4    1    3    3    0  502 -0.30322757633E+03  0.57137001289E+03 -0.98020058206E+03  0.11743957802E+04  0.12699999809E+01 0. -1.
</event>
<event>
 5   0  0.1030027E-03  0.1626373E+04  0.7818609E-02  0.8804508E-01
       -2   -1    0    0    0  501  0.00000000000E+00  0.00000000000E+00  0.29943283740E+03  0.29943283742E+03  0.25500000920E-02 0.  1.
        2   -1    0    0  501    0  0.00000000000E+00  0.00000000000E+00 -0.22084147116E+04  0.22084147116E+04  0.25500000920E-02 0. -1.
    10030    2    1    2    0    0  0.00000000000E+00  0.00000000000E+00 -0.19089818742E+04  0.25078475490E+04  0.16263725075E+04 0.  0.
        1    1    3    3  502    0 -0.22966443003E+03 -0.37834634566E+03 -0.20064165934E+04  0.20546530739E+04  0.50400001928E-02 0. -1.
       -1    1    3    3    0  502  0.22966443003E+03  0.37834634566E+03  0.97434719273E+02  0.45319447507E+03  0.50400001928E-02 0.  1.
</event>
<event>
 5   0  0.9844690E-04  0.1597742E+04  0.7818609E-02  0.8821936E-01
        2   -1    0    0  501    0  0.00000000000E+00  0.00000000000E+00  0.77450849976E+03  0.77450849976E+03  0.25500000920E-02 0. -1.
       -2   -1    0    0    0  501  0.00000000000E+00  0.00000000000E+00 -0.82399975652E+03  0.82399975652E+03  0.25500000920E-02 0.  1.
    10030    2    1    2    0    0  0.00000000000E+00  0.00000000000E+00 -0.49491256758E+02  0.15985082563E+04  0.15977419256E+04 0.  0.
        3    1    3    3  502    0  0.48015206477E+02 -0.68174312884E+03 -0.43860531020E+03  0.81206759701E+03  0.10100000352E+00 0.  1.
       -3    1    3    3    0  502 -0.48015206477E+02  0.68174312884E+03  0.38911405344E+03  0.78644065928E+03  0.10100000352E+00 0. -1.
</event>
<event>
 5   0  0.9844690E-04  0.1616725E+04  0.7818609E-02  0.8810339E-01
        2   -1    0    0  501    0  0.00000000000E+00  0.00000000000E+00  0.85085377320E+03  0.85085377321E+03  0.25500000920E-02 0. -1.
       -2   -1    0    0    0  501  0.00000000000E+00  0.00000000000E+00 -0.76799275786E+03  0.76799275786E+03  0.25500000920E-02 0.  1.
    10030    2    1    2    0    0  0.00000000000E+00  0.00000000000E+00  0.82861015344E+02  0.16188465311E+04  0.16167245106E+04 0.  0.
        3    1    3    3  502    0 -0.33504289268E+03 -0.72315634489E+03  0.17666586297E+03  0.81634531690E+03  0.10100000352E+00 0. -1.
       -3    1    3    3    0  502  0.33504289268E+03  0.72315634489E+03 -0.93804847627E+02  0.80250121416E+03  0.10100000352E+00 0.  1.
</event>
<event>
 5   0  0.5532881E-04  0.1627742E+04  0.7818609E-02  0.8803684E-01
       -1   -1    0    0    0  501  0.00000000000E+00  0.00000000000E+00  0.87694665347E+03  0.87694665348E+03  0.50400001928E-02 0.  1.
        1   -1    0    0  501    0  0.00000000000E+00  0.00000000000E+00 -0.75533176302E+03  0.75533176303E+03  0.50400001928E-02 0. -1.
    10030    2    1    2    0    0  0.00000000000E+00  0.00000000000E+00  0.12161489045E+03  0.16322784165E+04  0.16277415788E+04 0.  0.
        4    1    3    3  502    0  0.43729194693E+03  0.34309885727E+03  0.65697516736E+03  0.86055741013E+03  0.12699999809E+01 0.  1.
       -4    1    3    3    0  502 -0.43729194693E+03 -0.34309885727E+03 -0.53536027691E+03  0.77172100639E+03  0.12699999809E+01 0. -1.
</event>
<event>
 5   0  0.1030027E-03  0.1583013E+04  0.7818609E-02  0.8831052E-01
       -2   -1    0    0    0  501  0.00000000000E+00  0.00000000000E+00  0.48546005136E+03  0.48546005137E+03  0.25500000920E-02 0.  1.
        2   -1    0    0  501    0  0.00000000000E+00  0.00000000000E+00 -0.12904931156E+04  0.12904931156E+04  0.25500000920E-02 0. -1.
    10030    2    1    2    0    0  0.00000000000E+00  0.00000000000E+00 -0.80503306421E+03  0.17759531669E+04  0.15830133975E+04 0.  0.
        1    1    3    3  502    0 -0.81594894282E+02 -0.75816505374E+03 -0.16450079974E+03  0.78008492398E+03  0.50400001928E-02 0. -1.
       -1    1    3    3    0  502  0.81594894282E+02  0.75816505374E+03 -0.64053226447E+03  0.99586824296E+03  0.50400001928E-02 0.  1.
</event>
<event>
 5   0  0.5281116E-04  0.1709213E+04  0.7818609E-02  0.8756127E-01
       -1   -1    0    0    0  501  0.00000000000E+00  0.00000000000E+00  0.61608029170E+03  0.61608029172E+03  0.50400001928E-02 0. -1.
        1   -1    0    0  501    0  0.00000000000E+00  0.00000000000E+00 -0.11854818676E+04  0.11854818676E+04  0.50400001928E-02 0.  1.
    10030    2    1    2    0    0  0.00000000000E+00  0.00000000000E+00 -0.56940157586E+03  0.18015621593E+04  0.17092127016E+04 0.  0.
        2    1    3    3  502    0 -0.74510255072E+03  0.44250862087E+02 -0.72338017073E+03  0.10394300464E+04  0.25500000920E-02 0.  1.
       -2    1    3    3    0  502  0.74510255072E+03 -0.44250862087E+02  0.15397859487E+03  0.76213211293E+03  0.25500000920E-02 0. -1.
</event>
<event>
 5   0  0.5288658E-04  0.1657937E+04  0.7818609E-02  0.8785725E-01
       -1   -1    0    0    0  501  0.00000000000E+00  0.00000000000E+00  0.41672162909E+03  0.41672162912E+03  0.50400001928E-02 0. -1.
        1   -1    0    0  501    0  0.00000000000E+00  0.00000000000E+00 -0.16490362293E+04  0.16490362293E+04  0.50400001928E-02 0.  1.
    10030    2    1    2    0    0  0.00000000000E+00  0.00000000000E+00 -0.12323146002E+04  0.20657578584E+04  0.16579373498E+04 0.  0.
        1    1    3    3  502    0  0.53162946235E+03 -0.59817214098E+03 -0.34675660763E+03  0.87216967411E+03  0.50400001928E-02 0. -1.
       -1    1    3    3    0  502 -0.53162946235E+03  0.59817214098E+03 -0.88555799253E+03  0.11935881843E+04  0.50400001928E-02 0.  1.
</event>
<event>
 5   0  0.5425525E-04  0.1597345E+04  0.7818609E-02  0.8822180E-01
       -1   -1    0    0    0  501  0.00000000000E+00  0.00000000000E+00  0.65039185206E+03  0.65039185208E+03  0.50400001928E-02 0.  1.
        1   -1    0    0  501    0  0.00000000000E+00  0.00000000000E+00 -0.98075967069E+03  0.98075967070E+03  0.50400001928E-02 0. -1.
    10030    2    1    2    0    0  0.00000000000E+00  0.00000000000E+00 -0.33036781863E+03  0.16311515228E+04  0.15973454212E+04 0.  0.
        5    1    3    3  502    0 -0.45517861366E+03 -0.60233470440E+03 -0.43119925298E+03  0.86945359406E+03  0.46999998093E+01 0. -1.
       -5    1    3    3    0  502  0.45517861366E+03  0.60233470440E+03  0.10083143435E+03  0.76169792872E+03  0.46999998093E+01 0.  1.
</event>
<event>
 5   0  0.1057872E-03  0.1709915E+04  0.7818609E-02  0.8755729E-01
        2   -1    0    0  501    0  0.00000000000E+00  0.00000000000E+00  0.12848123870E+04  0.12848123870E+04  0.25500000920E-02 0. -1.
       -2   -1    0    0    0  501  0.00000000000E+00  0.00000000000E+00 -0.56891788053E+03  0.56891788054E+03  0.25500000920E-02 0.  1.
    10030    2    1    2    0    0  0.00000000000E+00  0.00000000000E+00  0.71589450649E+03  0.18537302676E+04  0.17099154834E+04 0.  0.
        2    1    3    3  502    0 -0.10703433559E+02 -0.19612291201E+03 -0.54412695412E+03  0.57849192070E+03  0.25500000920E-02 0.  1.
       -2    1    3    3    0  502  0.10703433559E+02  0.19612291201E+03  0.12600214606E+04  0.12752383469E+04  0.25500000920E-02 0. -1.
</event>
<event>
 5   0  0.1030027E-03  0.1626436E+04  0.7818609E-02  0.8804470E-01
       -2   -1    0    0    0  501  0.00000000000E+00  0.00000000000E+00  0.61620898517E+03  0.61620898517E+03  0.25500000920E-02 0. -1.
        2   -1    0    0  501    0  0.00000000000E+00  0.00000000000E+00 -0.10732127909E+04  0.10732127909E+04  0.25500000920E-02 0.  1.
    10030    2    1    2    0    0  0.00000000000E+00  0.00000000000E+00 -0.45700380576E+03  0.16894217761E+04  0.16264358146E+04 0.  0.
        1    1    3    3  502    0 -0.70562946141E+03 -0.24570022482E+03 -0.56193440770E+03  0.93490738357E+03  0.50400001928E-02 0.  1.
       -1    1    3    3    0  502  0.70562946141E+03  0.24570022482E+03  0.10493060194E+03  0.75451439253E+03  0.50400001928E-02 0. -1.
</event>
<event>
 5   0  0.9844690E-04  0.1607241E+04  0.7818609E-02  0.8816112E-01
        2   -1    0    0  501    0  0.00000000000E+00  0.00000000000E+00  0.75037251228E+03  0.75037251229E+03  0.25500000920E-02 0. -1.
       -2   -1    0    0    0  501  0.00000000000E+00  0.00000000000E+00 -0.86064734202E+03  0.86064734203E+03  0.25500000920E-02 0.  1.
    10030    2    1    2    0    0  0.00000000000E+00  0.00000000000E+00 -0.11027482974E+03  0.16110198543E+04  0.16072412491E+04 0.  0.
        3    1    3    3  502    0 -0.94330489845E+02 -0.44288875595E+03 -0.72059385492E+03  0.85106063557E+03  0.10100000352E+00 0.  1.
       -3    1    3    3    0  502  0.94330489845E+02  0.44288875595E+03  0.61031902517E+03  0.75995921875E+03  0.10100000352E+00 0. -1.
</event>
<event>
 5   0  0.3832500E-04  0.1626787E+04  0.7818609E-02  0.8804258E-01
       -3   -1    0    0    0  501  0.00000000000E+00  0.00000000000E+00  0.65300490533E+03  0.65300491314E+03  0.10100000352E+00 0. -1.
        3   -1    0    0  501    0  0.00000000000E+00  0.00000000000E+00 -0.10131765101E+04  0.10131765151E+04  0.10100000352E+00 0.  1.
    10030    2    1    2    0    0  0.00000000000E+00  0.00000000000E+00 -0.36017160476E+03  0.16661814283E+04  0.16267873146E+04 0.  0.
        2    1    3    3  502    0  0.40680251750E+03  0.63399315242E+03  0.13422273811E+03  0.76514792621E+03  0.25500000920E-02 0. -1.
       -2    1    3    3    0  502 -0.40680251750E+03 -0.63399315242E+03 -0.49439434288E+03  0.90103350206E+03  0.25500000920E-02 0.  1.
</event>
<event>
 5   0  0.3832500E-04  0.1583379E+04  0.7818609E-02  0.8830824E-01
       -4   -1    0    0    0  501  0.00000000000E+00  0.00000000000E+00  0.85118761471E+03  0.85118856215E+03  0.12699999809E+01 0.  1.
        4   -1    0    0  501    0  0.00000000000E+00  0.00000000000E+00 -0.73634844265E+03  0.73634953785E+03  0.12699999809E+01 0. -1.
    10030    2    1    2    0    0  0.00000000000E+00  0.00000000000E+00  0.11483917206E+03  0.15875381000E+04  0.15833790397E+04 0.  0.
        2    1    3    3  502    0  0.34706536906E+03  0.55582479278E+03  0.50285755649E+03  0.82599109729E+03  0.25500000920E-02 0.  1.
       -2    1    3    3    0  502 -0.34706536906E+03 -0.55582479278E+03 -0.38801838443E+03  0.76154700271E+03  0.25500000920E-02 0. -1.
</event>
<event>
 5   0  0.1000121E-03  0.1623202E+04  0.7818609E-02  0.8806419E-01
       -2   -1    0    0    0  501  0.00000000000E+00  0.00000000000E+00  0.68092537275E+03  0.68092537276E+03  0.25500000920E-02 0.  1.
        2   -1    0    0  501    0  0.00000000000E+00  0.00000000000E+00 -0.96735495601E+03  0.96735495601E+03  0.25500000920E-02 0. -1.
    10030    2    1    2    0    0  0.00000000000E+00  0.00000000000E+00 -0.28642958326E+03  0.16482803288E+04  0.16232024322E+04 0.  0.
        4    1    3    3  502    0 -0.40340222128E+03 -0.16759039082E+03 -0.83779647228E+03  0.94484095651E+03  0.12699999809E+01 0. -1.
       -4    1    3    3    0  502  0.40340222128E+03  0.16759039082E+03  0.55136688902E+03  0.70343937226E+03  0.12699999809E+01 0.  1.
</event>
<event>
 5   0  0.1030027E-03  0.1657155E+04  0.7818609E-02  0.8786185E-01
        2   -1    0    0  501    0  0.00000000000E+00  0.00000000000E+00  0.77437636215E+03  0.77437636216E+03  0.25500000920E-02 0. -1.
       -2   -1    0    0    0  501  0.00000000000E+00  0.00000000000E+00 -0.88657195683E+03  0.88657195684E+03  0.25500000920E-02 0.  1.
    10030    2    1    2    0    0  0.00000000000E+00  0.00000000000E+00 -0.11219559468E+03  0.16609483190E+04  0.16571546297E+04 0.  0.
        1    1    3    3  502    0 -0.87864528983E+02 -0.65923125161E+03  0.43923428243E+03  0.79701491418E+03  0.50400001928E-02 0. -1.
       -1    1    3    3    0  502  0.87864528983E+02  0.65923125161E+03 -0.55142987711E+03  0.86393340481E+03  0.50400001928E-02 0.  1.
</event>
<event>
 5   0  0.5532881E-04  0.1569926E+04  0.7818609E-02  0.8839240E-01
        1   -1    0    0  501    0  0.00000000000E+00  0.00000000000E+00  0.11985991360E+04  0.11985991360E+04  0.50400001928E-02 0.  1.
       -1   -1    0    0    0  501  0.00000000000E+00  0.00000000000E+00 -0.51407243074E+03  0.51407243077E+03  0.50400001928E-02 0. -1.
    10030    2    1    2    0    0  0.00000000000E+00  0.00000000000E+00  0.68452670522E+03  0.17126715667E+04  0.15699258216E+04 0.  0.
        4    1    3    3  502    0 -0.67339587337E+02  0.53053347618E+03 -0.28458186906E+03  0.60579604032E+03  0.12699999809E+01 0. -1.
       -4    1    3    3    0  502  0.67339587337E+02 -0.53053347618E+03  0.96910857427E+03  0.11068755264E+04  0.12699999809E+01 0.  1.
</event>
<event>
 5   0  0.5425525E-04  0.1590582E+04  0.7818609E-02  0.8826355E-01
       -1   -1    0    0    0  501  0.00000000000E+00  0.00000000000E+00  0.62573082402E+03  0.62573082404E+03  0.50400001928E-02 0.  1.
        1   -1    0    0  501    0  0.00000000000E+00  0.00000000000E+00 -0.10107988610E+04  0.10107988611E+04  0.50400001928E-02 0. -1.
    10030    2    1    2    0    0  0.00000000000E+00  0.00000000000E+00 -0.38506803703E+03  0.16365296851E+04  0.15905822887E+04 0.  0.
        5    1    3    3  502    0 -0.45732367664E+03  0.58089622742E+03 -0.49405333056E+03  0.88921097367E+03  0.46999998093E+01 0. -1.
       -5    1    3    3    0  502  0.45732367664E+03 -0.58089622742E+03  0.10898529354E+03  0.74731871143E+03  0.46999998093E+01 0.  1.
</event>
<event>
 5   0  0.1037321E-03  0.1606196E+04  0.7818609E-02  0.8816751E-01
       -2   -1    0    0    0  501  0.00000000000E+00  0.00000000000E+00  0.45083885551E+03  0.45083885552E+03  0.25500000920E-02 0.  1.
        2   -1    0    0  501    0  0.00000000000E+00  0.00000000000E+00 -0.14305920785E+04  0.14305920785E+04  0.25500000920E-02 0. -1.
    10030    2    1    2    0    0  0.00000000000E+00  0.00000000000E+00 -0.97975322299E+03  0.18814309340E+04  0.16061961218E+04 0.  0.
        5    1    3    3  502    0  0.42689533338E+03  0.35143256138E+03  0.19233261272E+03  0.58545571547E+03  0.46999998093E+01 0.  1.
       -5    1    3    3    0  502 -0.42689533338E+03 -0.35143256138E+03 -0.11720858357E+04  0.12959752186E+04  0.46999998093E+01 0. -1.
</event>
<event>
 5   0  0.1037321E-03  0.1633478E+04  0.7818609E-02  0.8800241E-01
       -2   -1    0    0    0  501  0.00000000000E+00  0.00000000000E+00  0.45253362514E+03  0.45253362515E+03  0.25500000920E-02 0. -1.
        2   -1    0    0  501    0  0.00000000000E+00  0.00000000000E+00 -0.14740623430E+04  0.14740623430E+04  0.25500000920E-02 0.  1.
    10030    2    1    2    0    0  0.00000000000E+00  0.00000000000E+00 -0.10215287179E+04  0.19265959681E+04  0.16334782224E+04 0.  0.
        5    1    3    3  502    0  0.55815861008E+03 -0.59284064200E+03 -0.58572750791E+03  0.10030452953E+04  0.46999998093E+01 0.  1.
       -5    1    3    3    0  502 -0.55815861008E+03  0.59284064200E+03 -0.43580120994E+03  0.92355067289E+03  0.46999998093E+01 0. -1.
</event>
<event>
 5   0  0.1037321E-03  0.1645960E+04  0.7818609E-02  0.8792800E-01
        2   -1    0    0  501    0  0.00000000000E+00  0.00000000000E+00  0.27445486231E+04  0.27445486231E+04  0.25500000920E-02 0. -1.
       -2   -1    0    0    0  501  0.00000000000E+00  0.00000000000E+00 -0.24677872367E+03  0.24677872368E+03  0.25500000920E-02 0.  1.
    10030    2    1    2    0    0  0.00000000000E+00  0.00000000000E+00  0.24977698994E+04  0.29913273467E+04  0.16459601529E+04 0.  0.
        5    1    3    3  502    0 -0.44964094079E+03 -0.11376147759E+03  0.13396551607E+02  0.46402608441E+03  0.46999998093E+01 0.  1.
       -5    1    3    3    0  502  0.44964094079E+03  0.11376147759E+03  0.24843733478E+04  0.25273012623E+04  0.46999998093E+01 0. -1.
</event>
<event>
 5   0  0.1000121E-03  0.1591328E+04  0.7818609E-02  0.8825894E-01
        2   -1    0    0  501    0  0.00000000000E+00  0.00000000000E+00  0.15534845491E+04  0.15534845491E+04  0.25500000920E-02 0.  1.
       -2   -1    0    0    0  501  0.00000000000E+00  0.00000000000E+00 -0.40752312225E+03  0.40752312226E+03  0.25500000920E-02 0. -1.
    10030    2    1    2    0    0  0.00000000000E+00  0.00000000000E+00  0.11459614269E+04  0.19610076714E+04  0.15913275890E+04 0.  0.
        4    1    3    3  502    0 -0.93336271380E+02 -0.59840695163E+03 -0.62915590981E+02  0.60890272113E+03  0.12699999809E+01 0. -1.
       -4    1    3    3    0  502  0.93336271380E+02  0.59840695163E+03  0.12088770179E+04  0.13521049503E+04  0.12699999809E+01 0.  1.
</event>
<event>
 5   0  0.1000121E-03  0.1608290E+04  0.7818609E-02  0.8815471E-01
        2   -1    0    0  501    0  0.00000000000E+00  0.00000000000E+00  0.17935628829E+04  0.17935628829E+04  0.25500000920E-02 0. -1.
       -2   -1    0    0    0  501  0.00000000000E+00  0.00000000000E+00 -0.36053896845E+03  0.36053896846E+03  0.25500000920E-02 0.  1.
    10030    2    1    2    0    0  0.00000000000E+00  0.00000000000E+00  0.14330239144E+04  0.21541018513E+04  0.16082901624E+04 0.  0.
        4    1    3    3  502    0 -0.49283971620E+02 -0.30444506983E+03 -0.27817673676E+03  0.41533073589E+03  0.12699999809E+01 0.  1.
       -4    1    3    3    0  502  0.49283971620E+02  0.30444506983E+03  0.17112006512E+04  0.17387711154E+04  0.12699999809E+01 0. -1.
</event>
<event>
 5   0  0.5425525E-04  0.1771662E+04  0.7818609E-02  0.8721516E-01
       -1   -1    0    0    0  501  0.00000000000E+00  0.00000000000E+00  0.79378759458E+03  0.79378759459E+03  0.50400001928E-02 0.  1.
        1   -1    0    0  501    0  0.00000000000E+00  0.00000000000E+00 -0.98854701990E+03  0.98854701991E+03  0.50400001928E-02 0. -1.
    10030    2    1    2    0    0  0.00000000000E+00  0.00000000000E+00 -0.19475942532E+03  0.17823346145E+04  0.17716617748E+04 0.  0.
        5    1    3    3  502    0 -0.63037991307E+03 -0.61362016814E+03 -0.20176278570E+03  0.90257346362E+03  0.46999998093E+01 0. -1.
       -5    1    3    3    0  502  0.63037991307E+03  0.61362016814E+03  0.70033603751E+01  0.87976115088E+03  0.46999998093E+01 0.  1.
</event>
<event>
 5   0  0.9844690E-04  0.1673610E+04  0.7818609E-02  0.8776560E-01
       -2   -1    0    0    0  501  0.00000000000E+00  0.00000000000E+00  0.50395396724E+03  0.50395396725E+03  0.25500000920E-02 0. -1.
        2   -1    0    0  501    0  0.00000000000E+00  0.00000000000E+00 -0.13894978030E+04  0.13894978030E+04  0.25500000920E-02 0.  1.
    10030    2    1    2    0    0  0.00000000000E+00  0.00000000000E+00 -0.88554383574E+03  0.18934517702E+04  0.16736103851E+04 0.  0.
        3    1    3    3  502    0 -0.22751255660E+03  0.64829379463E+03 -0.98322003239E+03  0.11994867443E+04  0.10100000352E+00 0.  1.
       -3    1    3    3    0  502  0.22751255660E+03 -0.64829379463E+03  0.97676196651E+02  0.69396502588E+03  0.10100000352E+00 0. -1.
</event>
<event>
 5   0  0.1057872E-03  0.1610798E+04  0.7818609E-02  0.8813942E-01
       -2   -1    0    0    0  501  0.00000000000E+00  0.00000000000E+00  0.85103787212E+03  0.85103787213E+03  0.25500000920E-02 0. -1.
        2   -1    0    0  501    0  0.00000000000E+00  0.00000000000E+00 -0.76220773661E+03  0.76220773661E+03  0.25500000920E-02 0.  1.
    10030    2    1    2    0    0  0.00000000000E+00  0.00000000000E+00  0.88830135517E+02  0.16132456087E+04  0.16107981255E+04 0.  0.
        2    1    3    3  502    0  0.52940572287E+03  0.58509894741E+03 -0.11725030979E+03  0.79772102443E+03  0.25500000920E-02 0. -1.
       -2    1    3    3    0  502 -0.52940572287E+03 -0.58509894741E+03  0.20608044531E+03  0.81552458431E+03  0.25500000920E-02 0.  1.
</event>
<event>
 5   0  0.5288658E-04  0.1600364E+04  0.7818609E-02  0.8820325E-01
        1   -1    0    0  501    0  0.00000000000E+00  0.00000000000E+00  0.70768197663E+03  0.70768197665E+03  0.50400001928E-02 0.  1.
       -1   -1    0    0    0  501  0.00000000000E+00  0.00000000000E+00 -0.90477217168E+03  0.90477217170E+03  0.50400001928E-02 0. -1.
    10030    2    1    2    0    0  0.00000000000E+00  0.00000000000E+00 -0.19709019505E+03  0.16124541483E+04  0.16003636573E+04 0.  0.
        1    1    3    3  502    0 -0.11427521391E+03 -0.70158128348E+03 -0.46876609797E+03  0.85147916972E+03  0.50400001928E-02 0.  1.
       -1    1    3    3    0  502  0.11427521391E+03  0.70158128348E+03  0.27167590292E+03  0.76097497862E+03  0.50400001928E-02 0. -1.
</event>
<event>
 5   0  0.1037321E-03  0.1587863E+04  0.7818609E-02  0.8828039E-01
       -2   -1    0    0    0  501  0.00000000000E+00  0.00000000000E+00  0.58925056896E+03  0.58925056897E+03  0.25500000920E-02 0.  1.
        2   -1    0    0  501    0  0.00000000000E+00  0.00000000000E+00 -0.10697103988E+04  0.10697103988E+04  0.25500000920E-02 0. -1.
    10030    2    1    2    0    0  0.00000000000E+00  0.00000000000E+00 -0.48045982983E+03  0.16589609678E+04  0.15878632953E+04 0.  0.
        5    1    3    3  502    0  0.25699675160E+03 -0.70761202785E+03 -0.50359475815E+03  0.90575486900E+03  0.46999998093E+01 0. -1.
       -5    1    3    3    0  502 -0.25699675160E+03  0.70761202785E+03  0.23134928321E+02  0.75320609875E+03  0.46999998093E+01 0.  1.
</event>
<event>
 5   0  0.1057872E-03  0.1547353E+04  0.7818609E-02  0.8853560E-01
        2   -1    0    0  501    0  0.00000000000E+00  0.00000000000E+00  0.78759576518E+03  0.78759576519E+03  0.25500000920E-02 0. -1.
       -2   -1    0    0    0  501  0.00000000000E+00  0.00000000000E+00 -0.76000343033E+03  0.76000343033E+03  0.25500000920E-02 0.  1.
    10030    2    1    2    0    0  0.00000000000E+00  0.00000000000E+00  0.27592334857E+02  0.15475991955E+04  0.15473532024E+04 0.  0.
        2    1    3    3  502    0  0.79314379015E+02 -0.23359932310E+03  0.74720400146E+03  0.78687561551E+03  0.25500000920E-02 0. -1.
       -2    1    3    3    0  502 -0.79314379015E+02  0.23359932310E+03 -0.71961166660E+03  0.76072358001E+03  0.25500000920E-02 0.  1.
</event>
<event>
 5   0  0.5288658E-04  0.1606669E+04  0.7818609E-02  0.8816461E-01
       -1   -1    0    0    0  501  0.00000000000E+00  0.00000000000E+00  0.84861614841E+03  0.84861614842E+03  0.50400001928E-02 0.  1.
        1   -1    0    0  501    0  0.00000000000E+00  0.00000000000E+00 -0.76046896327E+03  0.76046896329E+03  0.50400001928E-02 0. -1.
    10030    2    1    2    0    0  0.00000000000E+00  0.00000000000E+00  0.88147185138E+02  0.16090851117E+04  0.16066689051E+04 0.  0.
        1    1    3    3  502    0  0.52195564387E+03 -0.18660110710E+03  0.62640186451E+03  0.83644304243E+03  0.50400001928E-02 0.  1.
       -1    1    3    3    0  502 -0.52195564387E+03  0.18660110710E+03 -0.53825467937E+03  0.77264206929E+03  0.50400001928E-02 0. -1.
</event>
<event>
 5   0  0.1037321E-03  0.1563328E+04  0.7818609E-02  0.8843399E-01
       -2   -1    0    0    0  501  0.00000000000E+00  0.00000000000E+00  0.35459532450E+03  0.35459532451E+03  0.25500000920E-02 0.  1.
        2   -1    0    0  501    0  0.00000000000E+00  0.00000000000E+00 -0.17230865593E+04  0.17230865593E+04  0.25500000920E-02 0. -1.
    10030    2    1    2    0    0  0.00000000000E+00  0.00000000000E+00 -0.13684912348E+04  0.20776818838E+04  0.15633277809E+04 0.  0.
        5    1    3    3  502    0  0.13610000673E+03 -0.76300291210E+03 -0.54949863199E+03  0.95008814973E+03  0.46999998093E+01 0. -1.
       -5    1    3    3    0  502 -0.13610000673E+03  0.76300291210E+03 -0.81899260285E+03  0.11275937341E+04  0.46999998093E+01 0.  1.
</event>
<event>
 5   0  0.1037321E-03  0.1636158E+04  0.7818609E-02  0.8798638E-01
        2   -1    0    0  501    0  0.00000000000E+00  0.00000000000E+00  0.16664476765E+04  0.16664476765E+04  0.25500000920E-02 0. -1.
       -2   -1    0    0    0  501  0.00000000000E+00  0.00000000000E+00 -0.40160472148E+03  0.40160472149E+03  0.25500000920E-02 0.  1.
    10030    2    1    2    0    0  0.00000000000E+00  0.00000000000E+00  0.12648429550E+04  0.20680523980E+04  0.16361580058E+04 0.  0.
        5    1    3    3  502    0  0.66704216662E+02  0.63745571107E+03 -0.10132151979E+02  0.64103353001E+03  0.46999998093E+01 0.  1.
       -5    1    3    3    0  502 -0.66704216662E+02 -0.63745571107E+03  0.12749751070E+04  0.14270188680E+04  0.46999998093E+01 0. -1.
</event>
<event>
 5   0  0.9844690E-04  0.1610609E+04  0.7818609E-02  0.8814057E-01
       -2   -1    0    0    0  501  0.00000000000E+00  0.00000000000E+00  0.52987929369E+03  0.52987929370E+03  0.25500000920E-02 0. -1.
        2   -1    0    0  501    0  0.00000000000E+00  0.00000000000E+00 -0.12238929132E+04  0.12238929132E+04  0.25500000920E-02 0.  1.
    10030    2    1    2    0    0  0.00000000000E+00  0.00000000000E+00 -0.69401361947E+03  0.17537722069E+04  0.16106092169E+04 0.  0.
        3    1    3    3  502    0 -0.44818381758E+03 -0.66102564231E+03 -0.45959939690E+03  0.92144194064E+03  0.10100000352E+00 0. -1.
       -3    1    3    3    0  502  0.44818381758E+03  0.66102564231E+03 -0.23441422257E+03  0.83233026623E+03  0.10100000352E+00 0.  1.
</event>
<event>
 5   0  0.3832500E-04  0.1588046E+04  0.7818609E-02  0.8827926E-01
       -4   -1    0    0    0  501  0.00000000000E+00  0.00000000000E+00  0.72771094629E+03  0.72771205449E+03  0.12699999809E+01 0. -1.
        4   -1    0    0  501    0  0.00000000000E+00  0.00000000000E+00 -0.86637536859E+03  0.86637629942E+03  0.12699999809E+01 0.  1.
    10030    2    1    2    0    0  0.00000000000E+00  0.00000000000E+00 -0.13866442230E+03  0.15940883539E+04  0.15880459244E+04 0.  0.
        5    1    3    3  502    0 -0.20660945112E+02  0.79051585938E+03  0.24112384706E+01  0.79080345387E+03  0.46999998093E+01 0. -1.
       -5    1    3    3    0  502  0.20660945112E+02 -0.79051585938E+03 -0.14107566077E+03  0.80328490005E+03  0.46999998093E+01 0.  1.
</event>
<event>
 5   0  0.5425525E-04  0.1378377E+04  0.7818609E-02  0.8969621E-01
       -1   -1    0    0    0  501  0.00000000000E+00  0.00000000000E+00  0.43859978683E+03  0.43859978686E+03  0.50400001928E-02 0.  1.
        1   -1    0    0  501    0  0.00000000000E+00  0.00000000000E+00 -0.10829483014E+04  0.10829483014E+04  0.50400001928E-02 0. -1.
    10030    2    1    2    0    0  0.00000000000E+00  0.00000000000E+00 -0.64434851453E+03  0.15215480882E+04  0.13783771533E+04 0.  0.
        5    1    3    3  502    0  0.35407204271E+03 -0.58908187670E+03 -0.37818227088E+03  0.78449244030E+03  0.46999998093E+01 0. -1.
       -5    1    3    3    0  502 -0.35407204271E+03  0.58908187670E+03 -0.26616624365E+03  0.73705564793E+03  0.46999998093E+01 0.  1.
</event>
<event>
 5   0  0.1057872E-03  0.1454114E+04  0.7818609E-02  0.8915553E-01
        2   -1    0    0  501    0  0.00000000000E+00  0.00000000000E+00  0.12358228744E+04  0.12358228744E+04  0.25500000920E-02 0. -1.
       -2   -1    0    0    0  501  0.00000000000E+00  0.00000000000E+00 -0.42774073946E+03  0.42774073947E+03  0.25500000920E-02 0.  1.
    10030    2    1    2    0    0  0.00000000000E+00  0.00000000000E+00  0.80808213496E+03  0.16635636139E+04  0.14541138747E+04 0.  0.
        2    1    3    3  502    0 -0.51013195539E+03 -0.32286968754E+02  0.99556004909E+03  0.11191143246E+04  0.25500000920E-02 0. -1.
       -2    1    3    3    0  502  0.51013195539E+03  0.32286968754E+02 -0.18747791414E+03  0.54444928924E+03  0.25500000920E-02 0.  1.
</event>
<event>
 5   0  0.1030027E-03  0.1631955E+04  0.7818609E-02  0.8801154E-01
        2   -1    0    0  501    0  0.00000000000E+00  0.00000000000E+00  0.70918279217E+03  0.70918279217E+03  0.25500000920E-02 0.  1.
       -2   -1    0    0    0  501  0.00000000000E+00  0.00000000000E+00 -0.93885439855E+03  0.93885439855E+03  0.25500000920E-02 0. -1.
    10030    2    1    2    0    0  0.00000000000E+00  0.00000000000E+00 -0.22967160638E+03  0.16480371907E+04  0.16319551266E+04 0.  0.
        1    1    3    3  502    0 -0.19755852738E+03 -0.10123696447E+02 -0.91427294039E+03  0.93542870949E+03  0.50400001928E-02 0. -1.
       -1    1    3    3    0  502  0.19755852738E+03  0.10123696447E+02  0.68460133401E+03  0.71260848124E+03  0.50400001928E-02 0.  1.
</event>
<event>
 5   0  0.5281116E-04  0.1614971E+04  0.7818609E-02  0.8811403E-01
       -1   -1    0    0    0  501  0.00000000000E+00  0.00000000000E+00  0.91885477903E+03  0.91885477904E+03  0.50400001928E-02 0. -1.
        1   -1    0    0  501    0  0.00000000000E+00  0.00000000000E+00 -0.70961468915E+03  0.70961468917E+03  0.50400001928E-02 0.  1.
    10030    2    1    2    0    0  0.00000000000E+00  0.00000000000E+00  0.20924008988E+03  0.16284694682E+04  0.16149710195E+04 0.  0.
        2    1    3    3  502    0  0.43565277119E+03  0.24546383717E+03 -0.53470379614E+03  0.73208878014E+03  0.25500000920E-02 0.  1.
       -2    1    3    3    0  502 -0.43565277119E+03 -0.24546383717E+03  0.74394388601E+03  0.89638068807E+03  0.25500000920E-02 0. -1.
</event>
<event>
 5   0  0.5623061E-04  0.1567310E+04  0.7818609E-02  0.8840887E-01
        1   -1    0    0  501    0  0.00000000000E+00  0.00000000000E+00  0.30557576469E+03  0.30557576473E+03  0.50400001928E-02 0.  1.
       -1   -1    0    0    0  501  0.00000000000E+00  0.00000000000E+00 -0.20096973537E+04  0.20096973537E+04  0.50400001928E-02 0. -1.
    10030    2    1    2    0    0  0.00000000000E+00  0.00000000000E+00 -0.17041215890E+04  0.23152731184E+04  0.15673095491E+04 0.  0.
        3    1    3    3  502    0  0.53836353647E+03  0.16603389604E+02 -0.16929185202E+04  0.17765371080E+04  0.10100000352E+00 0. -1.
       -3    1    3    3    0  502 -0.53836353647E+03 -0.16603389604E+02 -0.11203068798E+02  0.53873601040E+03  0.10100000352E+00 0.  1.
</event>
<event>
 5   0  0.1057872E-03  0.1616917E+04  0.7818609E-02  0.8810222E-01
        2   -1    0    0  501    0  0.00000000000E+00  0.00000000000E+00  0.16047752810E+04  0.16047752810E+04  0.25500000920E-02 0.  1.
       -2   -1    0    0    0  501  0.00000000000E+00  0.00000000000E+00 -0.40728777093E+03  0.40728777094E+03  0.25500000920E-02 0. -1.
    10030    2    1    2    0    0  0.00000000000E+00  0.00000000000E+00  0.11974875101E+04  0.20120630520E+04  0.16169172484E+04 0.  0.
        2    1    3    3  502    0 -0.41757539171E+03  0.50870136560E+03  0.11830193789E+04  0.13537655402E+04  0.25500000920E-02 0.  1.
       -2    1    3    3    0  502  0.41757539171E+03 -0.50870136560E+03  0.14468131217E+02  0.65829751173E+03  0.25500000920E-02 0. -1.
</event>
<event>
 5   0  0.5288658E-04  0.1619038E+04  0.7818609E-02  0.8808937E-01
        1   -1    0    0  501    0  0.00000000000E+00  0.00000000000E+00  0.80024596101E+03  0.80024596103E+03  0.50400001928E-02 0. -1.
       -1   -1    0    0    0  501  0.00000000000E+00  0.00000000000E+00 -0.81889930699E+03  0.81889930701E+03  0.50400001928E-02 0.  1.
    10030    2    1    2    0    0  0.00000000000E+00  0.00000000000E+00 -0.18653345979E+02  0.16191452680E+04  0.16190378166E+04 0.  0.
        1    1    3    3  502    0  0.63594180282E+03 -0.48438733342E+03  0.11822706832E+03  0.80810315249E+03  0.50400001928E-02 0. -1.
       -1    1    3    3    0  502 -0.63594180282E+03  0.48438733342E+03 -0.13688041430E+03  0.81104211555E+03  0.50400001928E-02 0.  1.
</event>
<event>
 5   0  0.5288658E-04  0.1585050E+04  0.7818609E-02  0.8829785E-01
        1   -1    0    0  501    0  0.00000000000E+00  0.00000000000E+00  0.11760423901E+04  0.11760423901E+04  0.50400001928E-02 0. -1.
       -1   -1    0    0    0  501  0.00000000000E+00  0.00000000000E+00 -0.53407580865E+03  0.53407580867E+03  0.50400001928E-02 0.  1.
    10030    2    1    2    0    0  0.00000000000E+00  0.00000000000E+00  0.64196658142E+03  0.17101181987E+04  0.15850498926E+04 0.  0.
        1    1    3    3  502    0  0.67921086105E+03  0.36903600803E+03  0.50965542640E+03  0.92588531831E+03  0.50400001928E-02 0. -1.
       -1    1    3    3    0  502 -0.67921086105E+03 -0.36903600803E+03  0.13231115502E+03  0.78423288043E+03  0.50400001928E-02 0.  1.
</event>
<event>
 5   0  0.5281116E-04  0.1688993E+04  0.7818609E-02  0.8767667E-01
       -1   -1    0    0    0  501  0.00000000000E+00  0.00000000000E+00  0.12158214126E+04  0.12158214126E+04  0.50400001928E-02 0.  1.
        1   -1    0    0  501    0  0.00000000000E+00  0.00000000000E+00 -0.58657794212E+03  0.58657794214E+03  0.50400001928E-02 0. -1.
    10030    2    1    2    0    0  0.00000000000E+00  0.00000000000E+00  0.62924347050E+03  0.18023993548E+04  0.16889926255E+04 0.  0.
        2    1    3    3  502    0  0.32513668489E+03  0.77007610884E+02 -0.51303815822E+03  0.61225173564E+03  0.25500000920E-02 0. -1.
       -2    1    3    3    0  502 -0.32513668489E+03 -0.77007610884E+02  0.11422816287E+04  0.11901476191E+04  0.25500000920E-02 0.  1.
</event>
<event>
 5   0  0.1000121E-03  0.1602309E+04  0.7818609E-02  0.8819131E-01
        2   -1    0    0  501    0  0.00000000000E+00  0.00000000000E+00  0.83321969185E+03  0.83321969185E+03  0.25500000920E-02 0. -1.
       -2   -1    0    0    0  501  0.00000000000E+00  0.00000000000E+00 -0.77032283473E+03  0.77032283474E+03  0.25500000920E-02 0.  1.
    10030    2    1    2    0    0  0.00000000000E+00  0.00000000000E+00  0.62896857113E+02  0.16035425266E+04  0.16023085283E+04 0.  0.
        4    1    3    3  502    0  0.61228617951E+03  0.24772898717E+03 -0.42231285344E+03  0.78397307083E+03  0.12699999809E+01 0.  1.
       -4    1    3    3    0  502 -0.61228617951E+03 -0.24772898717E+03  0.48520971055E+03  0.81956945576E+03  0.12699999809E+01 0. -1.
</event>
<event>
 5   0  0.1037321E-03  0.1604162E+04  0.7818609E-02  0.8817995E-01
        2   -1    0    0  501    0  0.00000000000E+00  0.00000000000E+00  0.17324445568E+04  0.17324445568E+04  0.25500000920E-02 0. -1.
       -2   -1    0    0    0  501  0.00000000000E+00  0.00000000000E+00 -0.37134459704E+03  0.37134459705E+03  0.25500000920E-02 0.  1.
    10030    2    1    2    0    0  0.00000000000E+00  0.00000000000E+00  0.13610999597E+04  0.21037891538E+04  0.16041619941E+04 0.  0.
        5    1    3    3  502    0 -0.77341797716E+03 -0.78389953494E+01  0.95898377450E+03  0.12320344098E+04  0.46999998093E+01 0. -1.
       -5    1    3    3    0  502  0.77341797716E+03  0.78389953494E+01  0.40211618523E+03  0.87175474399E+03  0.46999998093E+01 0.  1.
</event>
<event>
 5   0  0.1000121E-03  0.1634607E+04  0.7818609E-02  0.8799565E-01
       -2   -1    0    0    0  501  0.00000000000E+00  0.00000000000E+00  0.39730163709E+03  0.39730163710E+03  0.25500000920E-02 0. -1.
        2   -1    0    0  501    0  0.00000000000E+00  0.00000000000E+00 -0.16813037157E+04  0.16813037157E+04  0.25500000920E-02 0.  1.
    10030    2    1    2    0    0  0.00000000000E+00  0.00000000000E+00 -0.12840020786E+04  0.20786053528E+04  0.16346066422E+04 0.  0.
        4    1    3    3  502    0 -0.37789299789E+03 -0.22250479866E+03  0.23502481119E+03  0.49754374487E+03  0.12699999809E+01 0. -1.
       -4    1    3    3    0  502  0.37789299789E+03  0.22250479866E+03 -0.15190268898E+04  0.15810616080E+04  0.12699999809E+01 0.  1.
</event>
<event>
 5   0  0.1030027E-03  0.1594823E+04  0.7818609E-02  0.8823735E-01
        2   -1    0    0  501    0  0.00000000000E+00  0.00000000000E+00  0.12592262860E+04  0.12592262860E+04  0.25500000920E-02 0.  1.
       -2   -1    0    0    0  501  0.00000000000E+00  0.00000000000E+00 -0.50496483636E+03  0.50496483637E+03  0.25500000920E-02 0. -1.
    10030    2    1    2    0    0  0.00000000000E+00  0.00000000000E+00  0.75426144959E+03  0.17641911223E+04  0.15948228685E+04 0.  0.
        1    1    3    3  502    0  0.65436931352E+03  0.90058235236E+02 -0.11702612915E+03  0.67082397031E+03  0.50400001928E-02 0. -1.
       -1    1    3    3    0  502 -0.65436931352E+03 -0.90058235236E+02  0.87128757874E+03  0.10933671520E+04  0.50400001928E-02 0.  1.
</event>
<event>
 5   0  0.1037321E-03  0.1750119E+04  0.7818609E-02  0.8733285E-01
        2   -1    0    0  501    0  0.00000000000E+00  0.00000000000E+00  0.23073416984E+04  0.23073416984E+04  0.25500000920E-02 0.  1.
       -2   -1    0    0    0  501  0.00000000000E+00  0.00000000000E+00 -0.33186644637E+03  0.33186644638E+03  0.25500000920E-02 0. -1.
    10030    2    1    2    0    0  0.00000000000E+00  0.00000000000E+00  0.19754752521E+04  0.26392081448E+04  0.17501191845E+04 0.  0.
        5    1    3    3  502    0  0.15571595169E+03 -0.76290032744E+03  0.38558231913E+03  0.86888444689E+03  0.46999998093E+01 0. -1.
       -5    1    3    3    0  502 -0.15571595169E+03  0.76290032744E+03  0.15898929329E+04  0.17703236979E+04  0.46999998093E+01 0.  1.
</event>
<event>
 5   0  0.9844690E-04  0.1372667E+04  0.7818609E-02  0.8973845E-01
        2   -1    0    0  501    0  0.00000000000E+00  0.00000000000E+00  0.16117968613E+04  0.16117968613E+04  0.25500000920E-02 0.  1.
       -2   -1    0    0    0  501  0.00000000000E+00  0.00000000000E+00 -0.29225369885E+03  0.29225369886E+03  0.25500000920E-02 0. -1.
    10030    2    1    2    0    0  0.00000000000E+00  0.00000000000E+00  0.13195431625E+04  0.19040505602E+04  0.13726668853E+04 0.  0.
        3    1    3    3  502    0 -0.43313230458E+03 -0.43499166998E+03  0.10855788519E+04  0.12471177972E+04  0.10100000352E+00 0.  1.
       -3    1    3    3    0  502  0.43313230458E+03  0.43499166998E+03  0.23396431052E+03  0.65693276293E+03  0.10100000352E+00 0. -1.
</event>
<event>
 5   0  0.1000121E-03  0.1534271E+04  0.7818609E-02  0.8861978E-01
        2   -1    0    0  501    0  0.00000000000E+00  0.00000000000E+00  0.97445466141E+03  0.97445466142E+03  0.25500000920E-02 0. -1.
       -2   -1    0    0    0  501  0.00000000000E+00  0.00000000000E+00 -0.60392414992E+03  0.60392414992E+03  0.25500000920E-02 0.  1.
    10030    2    1    2    0    0  0.00000000000E+00  0.00000000000E+00  0.37053051149E+03  0.15783788113E+04  0.15342707754E+04 0.  0.
        4    1    3    3  502    0  0.44491326052E+03 -0.22518777514E+03  0.78498042931E+03  0.92997485490E+03  0.12699999809E+01 0. -1.
       -4    1    3    3    0  502 -0.44491326052E+03  0.22518777514E+03 -0.41444991781E+03  0.64840395644E+03  0.12699999809E+01 0.  1.
</event>
<event>
 5   0  0.5623061E-04  0.1556301E+04  0.7818609E-02  0.8847853E-01
        1   -1    0    0  501    0  0.00000000000E+00  0.00000000000E+00  0.13158362151E+04  0.13158362151E+04  0.50400001928E-02 0.  1.
       -1   -1    0    0    0  501  0.00000000000E+00  0.00000000000E+00 -0.46017760962E+03  0.46017760964E+03  0.50400001928E-02 0. -1.
    10030    2    1    2    0    0  0.00000000000E+00  0.00000000000E+00  0.85565860547E+03  0.17760138247E+04  0.15563012101E+04 0.  0.
        3    1    3    3  502    0  0.58653258885E+03  0.49741932276E+03  0.56320133748E+03  0.95322726418E+03  0.10100000352E+00 0. -1.
       -3    1    3    3    0  502 -0.58653258885E+03 -0.49741932276E+03  0.29245726800E+03  0.82278656056E+03  0.10100000352E+00 0.  1.
</event>
<event>
 5   0  0.5281116E-04  0.1552645E+04  0.7818609E-02  0.8850180E-01
        1   -1    0    0  501    0  0.00000000000E+00  0.00000000000E+00  0.55705262171E+03  0.55705262173E+03  0.50400001928E-02 0. -1.
       -1   -1    0    0    0  501  0.00000000000E+00  0.00000000000E+00 -0.10819028440E+04  0.10819028440E+04  0.50400001928E-02 0.  1.
    10030    2    1    2    0    0  0.00000000000E+00  0.00000000000E+00 -0.52485022231E+03  0.16389554658E+04  0.15526452470E+04 0.  0.
        2    1    3    3  502    0  0.64499921521E+02 -0.33153997016E+03  0.47542930178E+03  0.58319123166E+03  0.25500000920E-02 0. -1.
       -2    1    3    3    0  502 -0.64499921521E+02  0.33153997016E+03 -0.10002795241E+04  0.10557642341E+04  0.25500000920E-02 0.  1.
</event>
<event>
 5   0  0.5623061E-04  0.1597886E+04  0.7818609E-02  0.8821848E-01
        1   -1    0    0  501    0  0.00000000000E+00  0.00000000000E+00  0.78128563233E+03  0.78128563235E+03  0.50400001928E-02 0.  1.
       -1   -1    0    0    0  501  0.00000000000E+00  0.00000000000E+00 -0.81699905580E+03  0.81699905581E+03  0.50400001928E-02 0. -1.
    10030    2    1    2    0    0  0.00000000000E+00  0.00000000000E+00 -0.35713423464E+02  0.15982846882E+04  0.15978856329E+04 0.  0.
        3    1    3    3  502    0  0.67678915417E+03  0.41098048261E+03  0.88758356620E+02  0.79676004691E+03  0.10100000352E+00 0. -1.
       -3    1    3    3    0  502 -0.67678915417E+03 -0.41098048261E+03 -0.12447178008E+03  0.80152464125E+03  0.10100000352E+00 0.  1.
</event>
<event>
 5   0  0.1000121E-03  0.1582226E+04  0.7818609E-02  0.8831542E-01
       -2   -1    0    0    0  501  0.00000000000E+00  0.00000000000E+00  0.25652098035E+03  0.25652098036E+03  0.25500000920E-02 0.  1.
        2   -1    0    0  501    0  0.00000000000E+00  0.00000000000E+00 -0.24397987213E+04  0.24397987213E+04  0.25500000920E-02 0. -1.
    10030    2    1    2    0    0  0.00000000000E+00  0.00000000000E+00 -0.21832777410E+04  0.26963197017E+04  0.15822257233E+04 0.  0.
        4    1    3    3  502    0 -0.95651192881E+02 -0.60744170801E+03 -0.19398157540E+04  0.20349499629E+04  0.12699999809E+01 0. -1.
       -4    1    3    3    0  502  0.95651192881E+02  0.60744170801E+03 -0.24346198698E+03  0.66136973875E+03  0.12699999809E+01 0.  1.
</event>
<event>
 5   0  0.5288658E-04  0.1580417E+04  0.7818609E-02  0.8832670E-01
       -1   -1    0    0    0  501  0.00000000000E+00  0.00000000000E+00  0.70938505649E+03  0.70938505650E+03  0.50400001928E-02 0.  1.
        1   -1    0    0  501    0  0.00000000000E+00  0.00000000000E+00 -0.88024078332E+03  0.88024078334E+03  0.50400001928E-02 0. -1.
    10030    2    1    2    0    0  0.00000000000E+00  0.00000000000E+00 -0.17085572684E+03  0.15896258398E+04  0.15804172333E+04 0.  0.
        1    1    3    3  502    0 -0.52620407693E+02  0.36815090722E+03 -0.78671751429E+03  0.87018874108E+03  0.50400001928E-02 0. -1.
       -1    1    3    3    0  502  0.52620407693E+02 -0.36815090722E+03  0.61586178746E+03  0.71943709875E+03  0.50400001928E-02 0.  1.
</event>
<event>
 5   0  0.5425525E-04  0.1582035E+04  0.7818609E-02  0.8831661E-01
       -1   -1    0    0    0  501  0.00000000000E+00  0.00000000000E+00  0.61198005610E+03  0.61198005612E+03  0.50400001928E-02 0. -1.
        1   -1    0    0  501    0  0.00000000000E+00  0.00000000000E+00 -0.10224336922E+04  0.10224336923E+04  0.50400001928E-02 0.  1.
    10030    2    1    2    0    0  0.00000000000E+00  0.00000000000E+00 -0.41045363615E+03  0.16344137484E+04  0.15820354337E+04 0.  0.
        5    1    3    3  502    0 -0.73076561316E+03  0.20726096826E+03 -0.43324071673E+03  0.87446846654E+03  0.46999998093E+01 0. -1.
       -5    1    3    3    0  502  0.73076561316E+03 -0.20726096826E+03  0.22787080578E+02  0.75994528184E+03  0.46999998093E+01 0.  1.
</event>
<event>
 5   0  0.5288658E-04  0.1005154E+04  0.7818609E-02  0.9302910E-01
        1   -1    0    0  501    0  0.00000000000E+00  0.00000000000E+00  0.62468027678E+03  0.62468027680E+03  0.50400001928E-02 0. -1.
       -1   -1    0    0    0  501  0.00000000000E+00  0.00000000000E+00 -0.40434092488E+03  0.40434092491E+03  0.50400001928E-02 0.  1.
    10030    2    1    2    0    0  0.00000000000E+00  0.00000000000E+00  0.22033935190E+03  0.10290212017E+04  0.10051543183E+04 0.  0.
        1    1    3    3  502    0 -0.31692073207E+03  0.32119150871E+03 -0.11640203951E+03  0.46599589109E+03  0.50400001928E-02 0.  1.
       -1    1    3    3    0  502  0.31692073207E+03 -0.32119150871E+03  0.33674139142E+03  0.56302531062E+03  0.50400001928E-02 0. -1.
</event>
<event>
 5   0  0.5281116E-04  0.1587355E+04  0.7818609E-02  0.8828354E-01
       -1   -1    0    0    0  501  0.00000000000E+00  0.00000000000E+00  0.44606088348E+03  0.44606088351E+03  0.50400001928E-02 0.  1.
        1   -1    0    0  501    0  0.00000000000E+00  0.00000000000E+00 -0.14121926424E+04  0.14121926425E+04  0.50400001928E-02 0. -1.
    10030    2    1    2    0    0  0.00000000000E+00  0.00000000000E+00 -0.96613175896E+03  0.18582535260E+04  0.15873549039E+04 0.  0.
        2    1    3    3  502    0 -0.36584391872E+03  0.51599972264E+02 -0.13053825824E+04  0.13566606121E+04  0.25500000920E-02 0. -1.
       -2    1    3    3    0  502  0.36584391872E+03 -0.51599972264E+02  0.33925082345E+03  0.50159291385E+03  0.25500000920E-02 0.  1.
</event>
<event>
 5   0  0.1037321E-03  0.1587689E+04  0.7818609E-02  0.8828147E-01
       -2   -1    0    0    0  501  0.00000000000E+00  0.00000000000E+00  0.59460051730E+03  0.59460051730E+03  0.25500000920E-02 0.  1.
        2   -1    0    0  501    0  0.00000000000E+00  0.00000000000E+00 -0.10598533550E+04  0.10598533550E+04  0.25500000920E-02 0. -1.
    10030    2    1    2    0    0  0.00000000000E+00  0.00000000000E+00 -0.46525283768E+03  0.16544538723E+04  0.15876893312E+04 0.  0.
        5    1    3    3  502    0 -0.45069723954E+03 -0.18723637580E+03 -0.88503864132E+03  0.10106933010E+04  0.46999998093E+01 0. -1.
       -5    1    3    3    0  502  0.45069723954E+03  0.18723637580E+03  0.41978580364E+03  0.64376057124E+03  0.46999998093E+01 0.  1.
</event>
<event>
 5   0  0.1000121E-03  0.1610552E+04  0.7818609E-02  0.8814092E-01
       -2   -1    0    0    0  501  0.00000000000E+00  0.00000000000E+00  0.43196688133E+03  0.43196688134E+03  0.25500000920E-02 0.  1.
        2   -1    0    0  501    0  0.00000000000E+00  0.00000000000E+00 -0.15012008925E+04  0.15012008925E+04  0.25500000920E-02 0. -1.
    10030    2    1    2    0    0  0.00000000000E+00  0.00000000000E+00 -0.10692340112E+04  0.19331677738E+04  0.16105515425E+04 0.  0.
        4    1    3    3  502    0  0.39598631194E+03 -0.68376200109E+03 -0.34815516327E+03  0.86345194655E+03  0.12699999809E+01 0.  1.
       -4    1    3    3    0  502 -0.39598631194E+03  0.68376200109E+03 -0.72107884791E+03  0.10697158273E+04  0.12699999809E+01 0. -1.
</event>
<event>
 5   0  0.5623061E-04  0.1606993E+04  0.7818609E-02  0.8816264E-01
       -1   -1    0    0    0  501  0.00000000000E+00  0.00000000000E+00  0.15063895096E+04  0.15063895096E+04  0.50400001928E-02 0. -1.
        1   -1    0    0  501    0  0.00000000000E+00  0.00000000000E+00 -0.42857864123E+03  0.42857864126E+03  0.50400001928E-02 0.  1.
    10030    2    1    2    0    0  0.00000000000E+00  0.00000000000E+00  0.10778108683E+04  0.19349681508E+04  0.16069926810E+04 0.  0.
        3    1    3    3  502    0 -0.48963197205E+03  0.20495386884E+03  0.12652246911E+04  0.13720565169E+04  0.10100000352E+00 0. -1.
       -3    1    3    3    0  502  0.48963197205E+03 -0.20495386884E+03 -0.18741382279E+03  0.56291163390E+03  0.10100000352E+00 0.  1.
</event>
<event>
 5   0  0.5281116E-04  0.1593975E+04  0.7818609E-02  0.8824258E-01
       -1   -1    0    0    0  501  0.00000000000E+00  0.00000000000E+00  0.40531327042E+03  0.40531327045E+03  0.50400001928E-02 0. -1.
        1   -1    0    0  501    0  0.00000000000E+00  0.00000000000E+00 -0.15671561455E+04  0.15671561455E+04  0.50400001928E-02 0.  1.
    10030    2    1    2    0    0  0.00000000000E+00  0.00000000000E+00 -0.11618428751E+04  0.19724694160E+04  0.15939751349E+04 0.  0.
        2    1    3    3  502    0 -0.46491022782E+03  0.43119099842E+03 -0.11783972829E+04  0.13381656674E+04  0.25500000920E-02 0.  1.
       -2    1    3    3    0  502  0.46491022782E+03 -0.43119099842E+03  0.16554407793E+02  0.63430374859E+03  0.25500000920E-02 0. -1.
</event>
<event>
 5   0  0.1000121E-03  0.1646888E+04  0.7818609E-02  0.8792250E-01
        2   -1    0    0  501    0  0.00000000000E+00  0.00000000000E+00  0.44705902754E+03  0.44705902755E+03  0.25500000920E-02 0.  1.
       -2   -1    0    0    0  501  0.00000000000E+00  0.00000000000E+00 -0.15167125247E+04  0.15167125247E+04  0.25500000920E-02 0. -1.
    10030    2    1    2    0    0  0.00000000000E+00  0.00000000000E+00 -0.10696534972E+04  0.19637715523E+04  0.16468880064E+04 0.  0.
        4    1    3    3  502    0 -0.12432179484E+02 -0.34995122144E+03  0.35385178704E+03  0.49782840072E+03  0.12699999809E+01 0.  1.
       -4    1    3    3    0  502  0.12432179484E+02  0.34995122144E+03 -0.14235052842E+04  0.14659431516E+04  0.12699999809E+01 0. -1.
</event>
<event>
 5   0  0.5288658E-04  0.1636782E+04  0.7818609E-02  0.8798265E-01
       -1   -1    0    0    0  501  0.00000000000E+00  0.00000000000E+00  0.33066782001E+03  0.33066782005E+03  0.50400001928E-02 0.  1.
        1   -1    0    0  501    0  0.00000000000E+00  0.00000000000E+00 -0.20254890343E+04  0.20254890343E+04  0.50400001928E-02 0. -1.
    10030    2    1    2    0    0  0.00000000000E+00  0.00000000000E+00 -0.16948212143E+04  0.23561568544E+04  0.16367822622E+04 0.  0.
        1    1    3    3  502    0  0.19318371112E+02 -0.37443542009E+03  0.19976297344E+03  0.42482976457E+03  0.50400001928E-02 0.  1.
       -1    1    3    3    0  502 -0.19318371112E+02  0.37443542009E+03 -0.18945841878E+04  0.19313270898E+04  0.50400001928E-02 0. -1.
</event>
<event>
 5   0  0.1030027E-03  0.1613907E+04  0.7818609E-02  0.8812050E-01
       -2   -1    0    0    0  501  0.00000000000E+00  0.00000000000E+00  0.73251996643E+03  0.73251996643E+03  0.25500000920E-02 0.  1.
        2   -1    0    0  501    0  0.00000000000E+00  0.00000000000E+00 -0.88895057176E+03  0.88895057176E+03  0.25500000920E-02 0. -1.
    10030    2    1    2    0    0  0.00000000000E+00  0.00000000000E+00 -0.15643060533E+03  0.16214705382E+04  0.16139071138E+04 0.  0.
        1    1    3    3  502    0 -0.80644299702E+03  0.11157844213E+02 -0.10478233509E+03  0.81329831102E+03  0.50400001928E-02 0.  1.
       -1    1    3    3    0  502  0.80644299702E+03 -0.11157844213E+02 -0.51648270237E+02  0.80817222718E+03  0.50400001928E-02 0. -1.
</event>
<event>
 5   0  0.5532881E-04  0.1576870E+04  0.7818609E-02  0.8834885E-01
       -1   -1    0    0    0  501  0.00000000000E+00  0.00000000000E+00  0.12790521493E+04  0.12790521493E+04  0.50400001928E-02 0.  1.
        1   -1    0    0  501    0  0.00000000000E+00  0.00000000000E+00 -0.48600827516E+03  0.48600827519E+03  0.50400001928E-02 0. -1.
    10030    2    1    2    0    0  0.00000000000E+00  0.00000000000E+00  0.79304387410E+03  0.17650604245E+04  0.15768702279E+04 0.  0.
        4    1    3    3  502    0  0.36519797569E+03  0.34063020354E+03  0.10794409508E+04  0.11893665861E+04  0.12699999809E+01 0.  1.
       -4    1    3    3    0  502 -0.36519797569E+03 -0.34063020354E+03 -0.28639707673E+03  0.57569383831E+03  0.12699999809E+01 0. -1.
</event>
<event>
 5   0  0.5288658E-04  0.1608250E+04  0.7818609E-02  0.8815496E-01
        1   -1    0    0  501    0  0.00000000000E+00  0.00000000000E+00  0.19297706820E+04  0.19297706820E+04  0.50400001928E-02 0.  1.
       -1   -1    0    0    0  501  0.00000000000E+00  0.00000000000E+00 -0.33507447995E+03  0.33507447999E+03  0.50400001928E-02 0. -1.
    10030    2    1    2    0    0  0.00000000000E+00  0.00000000000E+00  0.15946962021E+04  0.22648451620E+04  0.16082498658E+04 0.  0.
        1    1    3    3  502    0  0.62817424135E+03  0.34805778660E+03  0.28789439686E+03  0.77371201624E+03  0.50400001928E-02 0. -1.
       -1    1    3    3    0  502 -0.62817424135E+03 -0.34805778660E+03  0.13068018052E+04  0.14911331458E+04  0.50400001928E-02 0.  1.
</event>
<event>
 5   0  0.9844690E-04  0.1478209E+04  0.7818609E-02  0.8899075E-01
       -2   -1    0    0    0  501  0.00000000000E+00  0.00000000000E+00  0.84911296645E+03  0.84911296645E+03  0.25500000920E-02 0. -1.
        2   -1    0    0  501    0  0.00000000000E+00  0.00000000000E+00 -0.64334805751E+03  0.64334805751E+03  0.25500000920E-02 0.  1.
    10030    2    1    2    0    0  0.00000000000E+00  0.00000000000E+00  0.20576490894E+03  0.14924610240E+04  0.14782086153E+04 0.  0.
        3    1    3    3  502    0 -0.21166479731E+03  0.25768588391E+03  0.76884134342E+03  0.83804595503E+03  0.10100000352E+00 0. -1.
       -3    1    3    3    0  502  0.21166479731E+03 -0.25768588391E+03 -0.56307643448E+03  0.65441506894E+03  0.10100000352E+00 0.  1.
</event>
<event>
 5   0  0.5425525E-04  0.1611214E+04  0.7818609E-02  0.8813689E-01
       -1   -1    0    0    0  501  0.00000000000E+00  0.00000000000E+00  0.64902583085E+03  0.64902583087E+03  0.50400001928E-02 0.  1.
        1   -1    0    0  501    0  0.00000000000E+00  0.00000000000E+00 -0.99996379921E+03  0.99996379923E+03  0.50400001928E-02 0. -1.
    10030    2    1    2    0    0  0.00000000000E+00  0.00000000000E+00 -0.35093796836E+03  0.16489896301E+04  0.16112136241E+04 0.  0.
        5    1    3    3  502    0  0.41744249443E+03 -0.39233321633E+03  0.40419953583E+03  0.70112976228E+03  0.46999998093E+01 0.  1.
       -5    1    3    3    0  502 -0.41744249443E+03  0.39233321633E+03 -0.75513750419E+03  0.94785986782E+03  0.46999998093E+01 0. -1.
</event>
<event>
 5   0  0.9844690E-04  0.1534182E+04  0.7818609E-02  0.8862035E-01
        2   -1    0    0  501    0  0.00000000000E+00  0.00000000000E+00  0.61959326064E+03  0.61959326065E+03  0.25500000920E-02 0. -1.
       -2   -1    0    0    0  501  0.00000000000E+00  0.00000000000E+00 -0.94970188544E+03  0.94970188544E+03  0.25500000920E-02 0.  1.
    10030    2    1    2    0    0  0.00000000000E+00  0.00000000000E+00 -0.33010862479E+03  0.15692951461E+04  0.15341823723E+04 0.  0.
        3    1    3    3  502    0 -0.19539541744E+03 -0.49544508507E+01 -0.92380271116E+03  0.94425387215E+03  0.10100000352E+00 0.  1.
       -3    1    3    3    0  502  0.19539541744E+03  0.49544508507E+01  0.59369408636E+03  0.62504127394E+03  0.10100000352E+00 0. -1.
</event>
<event>
 5   0  0.1000121E-03  0.1589761E+04  0.7818609E-02  0.8826863E-01
       -2   -1    0    0    0  501  0.00000000000E+00  0.00000000000E+00  0.33707180988E+03  0.33707180989E+03  0.25500000920E-02 0. -1.
        2   -1    0    0  501    0  0.00000000000E+00  0.00000000000E+00 -0.18744809009E+04  0.18744809009E+04  0.25500000920E-02 0.  1.
    10030    2    1    2    0    0  0.00000000000E+00  0.00000000000E+00 -0.15374090910E+04  0.22115527108E+04  0.15897605730E+04 0.  0.
        4    1    3    3  502    0 -0.65897730745E+03  0.35784553990E+03 -0.40188952450E+03  0.85077689494E+03  0.12699999809E+01 0. -1.
       -4    1    3    3    0  502  0.65897730745E+03 -0.35784553990E+03 -0.11355195665E+04  0.13607758158E+04  0.12699999809E+01 0.  1.
</event>
<event>
 5   0  0.9844690E-04  0.1525924E+04  0.7818609E-02  0.8867394E-01
        2   -1    0    0  501    0  0.00000000000E+00  0.00000000000E+00  0.84086745363E+03  0.84086745363E+03  0.25500000920E-02 0.  1.
       -2   -1    0    0    0  501  0.00000000000E+00  0.00000000000E+00 -0.69227467712E+03  0.69227467712E+03  0.25500000920E-02 0. -1.
    10030    2    1    2    0    0  0.00000000000E+00  0.00000000000E+00  0.14859277651E+03  0.15331421308E+04  0.15259243035E+04 0.  0.
        3    1    3    3  502    0 -0.17290383177E+03  0.71412109417E+03  0.28080830479E+03  0.78658628670E+03  0.10100000352E+00 0.  1.
       -3    1    3    3    0  502  0.17290383177E+03 -0.71412109417E+03 -0.13221552828E+03  0.74655584406E+03  0.10100000352E+00 0. -1.
</event>
<event>
 5   0  0.1030027E-03  0.1588374E+04  0.7818609E-02  0.8827722E-01
        2   -1    0    0  501    0  0.00000000000E+00  0.00000000000E+00  0.69417378801E+03  0.69417378801E+03  0.25500000920E-02 0. -1.
       -2   -1    0    0    0  501  0.00000000000E+00  0.00000000000E+00 -0.90860977347E+03  0.90860977348E+03  0.25500000920E-02 0.  1.
    10030    2    1    2    0    0  0.00000000000E+00  0.00000000000E+00 -0.21443598546E+03  0.16027835615E+04  0.15883741225E+04 0.  0.
        1    1    3    3  502    0  0.36664485231E+03 -0.39425000790E+03 -0.69635657886E+03  0.88021247515E+03  0.50400001928E-02 0.  1.
       -1    1    3    3    0  502 -0.36664485231E+03  0.39425000790E+03  0.48192059339E+03  0.72257108634E+03  0.50400001928E-02 0. -1.
</event>
<event>
 5   0  0.5281116E-04  0.1605325E+04  0.7818609E-02  0.8817284E-01
       -1   -1    0    0    0  501  0.00000000000E+00  0.00000000000E+00  0.42870393431E+03  0.42870393434E+03  0.50400001928E-02 0.  1.
        1   -1    0    0  501    0  0.00000000000E+00  0.00000000000E+00 -0.15028244289E+04  0.15028244289E+04  0.50400001928E-02 0. -1.
    10030    2    1    2    0    0  0.00000000000E+00  0.00000000000E+00 -0.10741204946E+04  0.19315283633E+04  0.16053245719E+04 0.  0.
        2    1    3    3  502    0 -0.42648855968E+03  0.64410641771E+03 -0.79929510454E+03  0.11115926561E+04  0.25500000920E-02 0. -1.
       -2    1    3    3    0  502  0.42648855968E+03 -0.64410641771E+03 -0.27482539006E+03  0.81993570718E+03  0.25500000920E-02 0.  1.
</event>
<event>
 5   0  0.5532881E-04  0.1628410E+04  0.7818609E-02  0.8803282E-01
       -1   -1    0    0    0  501  0.00000000000E+00  0.00000000000E+00  0.64137628202E+03  0.64137628204E+03  0.50400001928E-02 0. -1.
        1   -1    0    0  501    0  0.00000000000E+00  0.00000000000E+00 -0.10336056191E+04  0.10336056191E+04  0.50400001928E-02 0.  1.
    10030    2    1    2    0    0  0.00000000000E+00  0.00000000000E+00 -0.39222933704E+03  0.16749819011E+04  0.16284104262E+04 0.  0.
        4    1    3    3  502    0 -0.39223624316E+03  0.53902827639E+03 -0.67695352346E+03  0.95008864798E+03  0.12699999809E+01 0.  1.
       -4    1    3    3    0  502  0.39223624316E+03 -0.53902827639E+03  0.28472418642E+03  0.72489325312E+03  0.12699999809E+01 0. -1.
</event>
<event>
 5   0  0.1037321E-03  0.1580540E+04  0.7818609E-02  0.8832593E-01
        2   -1    0    0  501    0  0.00000000000E+00  0.00000000000E+00  0.10174595146E+04  0.10174595146E+04  0.25500000920E-02 0.  1.
       -2   -1    0    0    0  501  0.00000000000E+00  0.00000000000E+00 -0.61380961494E+03  0.61380961494E+03  0.25500000920E-02 0. -1.
    10030    2    1    2    0    0  0.00000000000E+00  0.00000000000E+00  0.40364989967E+03  0.16312691296E+04  0.15805396963E+04 0.  0.
        5    1    3    3  502    0 -0.54618241870E+03 -0.10890284658E+03 -0.37682061331E+03  0.67245143253E+03  0.46999998093E+01 0. -1.
       -5    1    3    3    0  502  0.54618241870E+03  0.10890284658E+03  0.78047051298E+03  0.95881769702E+03  0.46999998093E+01 0.  1.
</event>
<event>
 5   0  0.5288658E-04  0.1590850E+04  0.7818609E-02  0.8826189E-01
       -1   -1    0    0    0  501  0.00000000000E+00  0.00000000000E+00  0.16713511739E+04  0.16713511739E+04  0.50400001928E-02 0. -1.
        1   -1    0    0  501    0  0.00000000000E+00  0.00000000000E+00 -0.37855671102E+03  0.37855671105E+03  0.50400001928E-02 0.  1.
    10030    2    1    2    0    0  0.00000000000E+00  0.00000000000E+00  0.12927944629E+04  0.20499078850E+04  0.15908503429E+04 0.  0.
        1    1    3    3  502    0  0.59043712325E+03 -0.51456805391E+03  0.46736176312E+03  0.91204347280E+03  0.50400001928E-02 0.  1.
       -1    1    3    3    0  502 -0.59043712325E+03  0.51456805391E+03  0.82543269977E+03  0.11378644122E+04  0.50400001928E-02 0. -1.
</event>
<event>
 5   0  0.5532881E-04  0.1612796E+04  0.7818609E-02  0.8812725E-01
       -1   -1    0    0    0  501  0.00000000000E+00  0.00000000000E+00  0.74742859277E+03  0.74742859278E+03  0.50400001928E-02 0.  1.
        1   -1    0    0  501    0  0.00000000000E+00  0.00000000000E+00 -0.87001976988E+03  0.87001976990E+03  0.50400001928E-02 0. -1.
    10030    2    1    2    0    0  0.00000000000E+00  0.00000000000E+00 -0.12259117711E+03  0.16174483627E+04  0.16127958982E+04 0.  0.
        4    1    3    3  502    0 -0.30974905211E+03 -0.46858901800E+03 -0.64154556577E+03  0.85270303678E+03  0.12699999809E+01 0. -1.
       -4    1    3    3    0  502  0.30974905211E+03  0.46858901800E+03  0.51895438866E+03  0.76474532590E+03  0.12699999809E+01 0.  1.
</event>
<event>
 5   0  0.5425525E-04  0.1625707E+04  0.7818609E-02  0.8804909E-01
        1   -1    0    0  501    0  0.00000000000E+00  0.00000000000E+00  0.14659028033E+04  0.14659028033E+04  0.50400001928E-02 0. -1.
       -1   -1    0    0    0  501  0.00000000000E+00  0.00000000000E+00 -0.45073319637E+03  0.45073319640E+03  0.50400001928E-02 0.  1.
    10030    2    1    2    0    0  0.00000000000E+00  0.00000000000E+00  0.10151696069E+04  0.19166359997E+04  0.16257072997E+04 0.  0.
        5    1    3    3  502    0  0.12785922433E+03  0.25926287943E+03 -0.38806715862E+03  0.48392502673E+03  0.46999998093E+01 0.  1.
       -5    1    3    3    0  502 -0.12785922433E+03 -0.25926287943E+03  0.14032367655E+04  0.14327109729E+04  0.46999998093E+01 0. -1.
</event>
<event>
 5   0  0.1000121E-03  0.1657323E+04  0.7818609E-02  0.8786086E-01
       -2   -1    0    0    0  501  0.00000000000E+00  0.00000000000E+00  0.31904755371E+03  0.31904755372E+03  0.25500000920E-02 0.  1.
        2   -1    0    0  501    0  0.00000000000E+00  0.00000000000E+00 -0.21522809337E+04  0.21522809337E+04  0.25500000920E-02 0. -1.
    10030    2    1    2    0    0  0.00000000000E+00  0.00000000000E+00 -0.18332333800E+04  0.24713284874E+04  0.16573231029E+04 0.  0.
        4    1    3    3  502    0 -0.15328171303E+03  0.26210872730E+03  0.23310487370E+03  0.38279990011E+03  0.12699999809E+01 0.  1.
       -4    1    3    3    0  502  0.15328171303E+03 -0.26210872730E+03 -0.20663382537E+04  0.20885285873E+04  0.12699999809E+01 0. -1.
</event>
<event>
 5   0  0.5288658E-04  0.1603771E+04  0.7818609E-02  0.8818235E-01
       -1   -1    0    0    0  501  0.00000000000E+00  0.00000000000E+00  0.39009910442E+03  0.39009910445E+03  0.50400001928E-02 0. -1.
        1   -1    0    0  501    0  0.00000000000E+00  0.00000000000E+00 -0.16483511007E+04  0.16483511007E+04  0.50400001928E-02 0.  1.
    10030    2    1    2    0    0  0.00000000000E+00  0.00000000000E+00 -0.12582519963E+04  0.20384502052E+04  0.16037709166E+04 0.  0.
        1    1    3    3  502    0 -0.26748533525E+03 -0.69584722079E+03 -0.25364617804E+03  0.78745675622E+03  0.50400001928E-02 0.  1.
       -1    1    3    3    0  502  0.26748533525E+03  0.69584722079E+03 -0.10046058183E+04  0.12509934490E+04  0.50400001928E-02 0. -1.
</event>
<event>
 5   0  0.1057872E-03  0.1573844E+04  0.7818609E-02  0.8836780E-01
        2   -1    0    0  501    0  0.00000000000E+00  0.00000000000E+00  0.78222491265E+03  0.78222491265E+03  0.25500000920E-02 0.  1.
       -2   -1    0    0    0  501  0.00000000000E+00  0.00000000000E+00 -0.79164726899E+03  0.79164726899E+03  0.25500000920E-02 0. -1.
    10030    2    1    2    0    0  0.00000000000E+00  0.00000000000E+00 -0.94223563405E+01  0.15738721816E+04  0.15738439768E+04 0.  0.
        2    1    3    3  502    0 -0.36292711952E+03  0.54827822053E+03  0.42764031577E+03  0.78434771682E+03  0.25500000920E-02 0. -1.
       -2    1    3    3    0  502  0.36292711952E+03 -0.54827822053E+03 -0.43706267211E+03  0.78952446482E+03  0.25500000920E-02 0.  1.
</event>
<event>
 5   0  0.1037321E-03  0.1583134E+04  0.7818609E-02  0.8830977E-01
       -2   -1    0    0    0  501  0.00000000000E+00  0.00000000000E+00  0.45588778613E+03  0.45588778614E+03  0.25500000920E-02 0. -1.
        2   -1    0    0  501    0  0.00000000000E+00  0.00000000000E+00 -0.13744141439E+04  0.13744141439E+04  0.25500000920E-02 0.  1.
    10030    2    1    2    0    0  0.00000000000E+00  0.00000000000E+00 -0.91852635776E+03  0.18303019300E+04  0.15831343863E+04 0.  0.
        5    1    3    3  502    0 -0.44479871733E+03  0.54775099315E+03 -0.44538759914E+02  0.70702393211E+03  0.46999998093E+01 0.  1.
       -5    1    3    3    0  502  0.44479871733E+03 -0.54775099315E+03 -0.87398759785E+03  0.11232779979E+04  0.46999998093E+01 0. -1.
</event>
<event>
 5   0  0.5623061E-04  0.1639951E+04  0.7818609E-02  0.8796374E-01
       -1   -1    0    0    0  501  0.00000000000E+00  0.00000000000E+00  0.28996120471E+03  0.28996120475E+03  0.50400001928E-02 0.  1.
        1   -1    0    0  501    0  0.00000000000E+00  0.00000000000E+00 -0.23187915856E+04  0.23187915856E+04  0.50400001928E-02 0. -1.
    10030    2    1    2    0    0  0.00000000000E+00  0.00000000000E+00 -0.20288303809E+04  0.26087527904E+04  0.16399507330E+04 0.  0.
        3    1    3    3  502    0  0.46998747467E+03  0.48281412225E+03 -0.27106998234E+03  0.72627587631E+03  0.10100000352E+00 0. -1.
       -3    1    3    3    0  502 -0.46998747467E+03 -0.48281412225E+03 -0.17577603986E+04  0.18824769141E+04  0.10100000352E+00 0.  1.
</event>
<event>
 5   0  0.3832500E-04  0.1599474E+04  0.7818609E-02  0.8820871E-01
        3   -1    0    0  501    0  0.00000000000E+00  0.00000000000E+00  0.53695439752E+03  0.53695440702E+03  0.10100000352E+00 0. -1.
       -3   -1    0    0    0  501  0.00000000000E+00  0.00000000000E+00 -0.11911235290E+04  0.11911235333E+04  0.10100000352E+00 0.  1.
    10030    2    1    2    0    0  0.00000000000E+00  0.00000000000E+00 -0.65416913151E+03  0.17280779403E+04  0.15994736995E+04 0.  0.
        3    1    3    3  502    0  0.43675117375E+03  0.59191370687E+03  0.11937898735E+02  0.73570099074E+03  0.10100000352E+00 0. -1.
       -3    1    3    3    0  502 -0.43675117375E+03 -0.59191370687E+03 -0.66610703024E+03  0.99237694960E+03  0.10100000352E+00 0.  1.
</event>
<event>
 5   0  0.5425525E-04  0.1694438E+04  0.7818609E-02  0.8764543E-01
       -1   -1    0    0    0  501  0.00000000000E+00  0.00000000000E+00  0.98458986659E+03  0.98458986660E+03  0.50400001928E-02 0. -1.
        1   -1    0    0  501    0  0.00000000000E+00  0.00000000000E+00 -0.72901456798E+03  0.72901456800E+03  0.50400001928E-02 0.  1.
    10030    2    1    2    0    0  0.00000000000E+00  0.00000000000E+00  0.25557529861E+03  0.17136044346E+04  0.16944383804E+04 0.  0.
        5    1    3    3  502    0  0.76675151634E+03 -0.35162837679E+03  0.20746884858E+03  0.86868625885E+03  0.46999998093E+01 0. -1.
       -5    1    3    3    0  502 -0.76675151634E+03  0.35162837679E+03  0.48106450025E+02  0.84491817575E+03  0.46999998093E+01 0.  1.
</event>
<event>
 5   0  0.1057872E-03  0.1630540E+04  0.7818609E-02  0.8802002E-01
       -2   -1    0    0    0  501  0.00000000000E+00  0.00000000000E+00  0.68714941536E+03  0.68714941537E+03  0.25500000920E-02 0.  1.
        2   -1    0    0  501    0  0.00000000000E+00  0.00000000000E+00 -0.96727949099E+03  0.96727949099E+03  0.25500000920E-02 0. -1.
    10030    2    1    2    0    0  0.00000000000E+00  0.00000000000E+00 -0.28013007563E+03  0.16544289064E+04  0.16305404463E+04 0.  0.
        2    1    3    3  502    0 -0.62315285886E+03  0.97756179337E+02 -0.66414931200E+03  0.91595309091E+03  0.25500000920E-02 0. -1.
       -2    1    3    3    0  502  0.62315285886E+03 -0.97756179337E+02  0.38401923638E+03  0.73847581546E+03  0.25500000920E-02 0.  1.
</event>
<event>
 5   0  0.5532881E-04  0.1591668E+04  0.7818609E-02  0.8825683E-01
        1   -1    0    0  501    0  0.00000000000E+00  0.00000000000E+00  0.18776213757E+04  0.18776213757E+04  0.50400001928E-02 0.  1.
       -1   -1    0    0    0  501  0.00000000000E+00  0.00000000000E+00 -0.33731590907E+03  0.33731590910E+03  0.50400001928E-02 0. -1.
    10030    2    1    2    0    0  0.00000000000E+00  0.00000000000E+00  0.15403054666E+04  0.22149372848E+04  0.15916677559E+04 0.  0.
        4    1    3    3  502    0 -0.12369005767E+03  0.45273460685E+02  0.18623466046E+04  0.18669990373E+04  0.12699999809E+01 0.  1.
       -4    1    3    3    0  502  0.12369005767E+03 -0.45273460685E+02 -0.32204113800E+03  0.34793824750E+03  0.12699999809E+01 0. -1.
</event>
<event>
 5   0  0.9844690E-04  0.1618650E+04  0.7818609E-02  0.8809172E-01
       -2   -1    0    0    0  501  0.00000000000E+00  0.00000000000E+00  0.37918070662E+03  0.37918070663E+03  0.25500000920E-02 0.  1.
        2   -1    0    0  501    0  0.00000000000E+00  0.00000000000E+00 -0.17274261740E+04  0.17274261740E+04  0.25500000920E-02 0. -1.
    10030    2    1    2    0    0  0.00000000000E+00  0.00000000000E+00 -0.13482454674E+04  0.21066068806E+04  0.16186496561E+04 0.  0.
        3    1    3    3  502    0  0.82172558232E+01  0.56639735946E+03 -0.14264216527E+04  0.15347808422E+04  0.10100000352E+00 0. -1.
       -3    1    3    3    0  502 -0.82172558232E+01 -0.56639735946E+03  0.78176185299E+02  0.57182603845E+03  0.10100000352E+00 0.  1.
</event>
<event>
 5   0  0.1037321E-03  0.1599254E+04  0.7818609E-02  0.8821006E-01
       -2   -1    0    0    0  501  0.00000000000E+00  0.00000000000E+00  0.31346528418E+03  0.31346528419E+03  0.25500000920E-02 0.  1.
        2   -1    0    0  501    0  0.00000000000E+00  0.00000000000E+00 -0.20397901574E+04  0.20397901574E+04  0.25500000920E-02 0. -1.
    10030    2    1    2    0    0  0.00000000000E+00  0.00000000000E+00 -0.17263248732E+04  0.23532554416E+04  0.15992540778E+04 0.  0.
        5    1    3    3  502    0 -0.73888237034E+03 -0.20430425855E+03 -0.52860448589E+03  0.93119932332E+03  0.46999998093E+01 0.  1.
       -5    1    3    3    0  502  0.73888237034E+03  0.20430425855E+03 -0.11977203873E+04  0.14220561182E+04  0.46999998093E+01 0. -1.
</event>
<event>
 5   0  0.1030027E-03  0.1626346E+04  0.7818609E-02  0.8804524E-01
       -2   -1    0    0    0  501  0.00000000000E+00  0.00000000000E+00  0.77361574400E+03  0.77361574401E+03  0.25500000920E-02 0.  1.
        2   -1    0    0  501    0  0.00000000000E+00  0.00000000000E+00 -0.85475257190E+03  0.85475257190E+03  0.25500000920E-02 0. -1.
    10030    2    1    2    0    0  0.00000000000E+00  0.00000000000E+00 -0.81136827896E+02  0.16283683159E+04  0.16263456543E+04 0.  0.
        1    1    3    3  502    0 -0.60576138086E+03 -0.62745701793E+02 -0.58009493821E+03  0.84106718578E+03  0.50400001928E-02 0. -1.
       -1    1    3    3    0  502  0.60576138086E+03  0.62745701793E+02  0.49895811031E+03  0.78730113013E+03  0.50400001928E-02 0.  1.
</event>
<event>
 5   0  0.5532881E-04  0.1623205E+04  0.7818609E-02  0.8806418E-01
        1   -1    0    0  501    0  0.00000000000E+00  0.00000000000E+00  0.44771644758E+03  0.44771644761E+03  0.50400001928E-02 0.  1.
       -1   -1    0    0    0  501  0.00000000000E+00  0.00000000000E+00 -0.14712409468E+04  0.14712409468E+04  0.50400001928E-02 0. -1.
    10030    2    1    2    0    0  0.00000000000E+00  0.00000000000E+00 -0.10235244992E+04  0.19189573944E+04  0.16232051876E+04 0.  0.
        4    1    3    3  502    0  0.44047159939E+03 -0.66567630264E+03 -0.33818774023E+03  0.86689833909E+03  0.12699999809E+01 0. -1.
       -4    1    3    3    0  502 -0.44047159939E+03  0.66567630264E+03 -0.68533675900E+03  0.10520590553E+04  0.12699999809E+01 0.  1.
</event>
<event>
 5   0  0.1030027E-03  0.1622032E+04  0.7818609E-02  0.8807126E-01
        2   -1    0    0  501    0  0.00000000000E+00  0.00000000000E+00  0.16862200123E+04  0.16862200123E+04  0.25500000920E-02 0. -1.
       -2   -1    0    0    0  501  0.00000000000E+00  0.00000000000E+00 -0.39007203038E+03  0.39007203039E+03  0.25500000920E-02 0.  1.
    10030    2    1    2    0    0  0.00000000000E+00  0.00000000000E+00  0.12961479819E+04  0.20762920427E+04  0.16220323842E+04 0.  0.
        1    1    3    3  502    0  0.30835339256E+03 -0.76630260239E+02  0.16032334932E+04  0.16344147715E+04  0.50400001928E-02 0. -1.
       -1    1    3    3    0  502 -0.30835339256E+03  0.76630260239E+02 -0.30708551132E+03  0.44187727117E+03  0.50400001928E-02 0.  1.
</event>
<event>
 5   0  0.5532881E-04  0.1605501E+04  0.7818609E-02  0.8817175E-01
       -1   -1    0    0    0  501  0.00000000000E+00  0.00000000000E+00  0.68404797207E+03  0.68404797209E+03  0.50400001928E-02 0.  1.
        1   -1    0    0  501    0  0.00000000000E+00  0.00000000000E+00 -0.94205193156E+03  0.94205193157E+03  0.50400001928E-02 0. -1.
    10030    2    1    2    0    0  0.00000000000E+00  0.00000000000E+00 -0.25800395949E+03  0.16260999037E+04  0.16055014337E+04 0.  0.
        4    1    3    3  502    0 -0.35521614798E+03  0.71927079659E+03 -0.98988872486E+02  0.80828794398E+03  0.12699999809E+01 0. -1.
       -4    1    3    3    0  502  0.35521614798E+03 -0.71927079659E+03 -0.15901508700E+03  0.81781195968E+03  0.12699999809E+01 0.  1.
</event>
<event>
 5   0  0.1000121E-03  0.1564099E+04  0.7818609E-02  0.8842912E-01
        2   -1    0    0  501    0  0.00000000000E+00  0.00000000000E+00  0.46198525243E+03  0.46198525244E+03  0.25500000920E-02 0.  1.
       -2   -1    0    0    0  501  0.00000000000E+00  0.00000000000E+00 -0.13238556399E+04  0.13238556399E+04  0.25500000920E-02 0. -1.
    10030    2    1    2    0    0  0.00000000000E+00  0.00000000000E+00 -0.86187038748E+03  0.17858408923E+04  0.15640994623E+04 0.  0.
        4    1    3    3  502    0 -0.10801172092E+03  0.93884000983E+02 -0.13087765042E+04  0.13165782500E+04  0.12699999809E+01 0. -1.
       -4    1    3    3    0  502  0.10801172092E+03 -0.93884000983E+02  0.44690611670E+03  0.46926264238E+03  0.12699999809E+01 0.  1.
</event>
<event>
 5   0  0.5288658E-04  0.1285146E+04  0.7818609E-02  0.9041428E-01
        1   -1    0    0  501    0  0.00000000000E+00  0.00000000000E+00  0.70164775521E+03  0.70164775523E+03  0.50400001928E-02 0. -1.
       -1   -1    0    0    0  501  0.00000000000E+00  0.00000000000E+00 -0.58847213854E+03  0.58847213856E+03  0.50400001928E-02 0.  1.
    10030    2    1    2    0    0  0.00000000000E+00  0.00000000000E+00  0.11317561667E+03  0.12901198938E+04  0.12851461474E+04 0.  0.
        1    1    3    3  502    0  0.20325467620E+03 -0.25428939310E+03  0.61273967608E+03  0.69384830440E+03  0.50400001928E-02 0. -1.
       -1    1    3    3    0  502 -0.20325467620E+03  0.25428939310E+03 -0.49956405941E+03  0.59627158940E+03  0.50400001928E-02 0.  1.
</event>
<event>
 5   0  0.1037321E-03  0.1638542E+04  0.7818609E-02  0.8797214E-01
        2   -1    0    0  501    0  0.00000000000E+00  0.00000000000E+00  0.15409095598E+04  0.15409095598E+04  0.25500000920E-02 0.  1.
       -2   -1    0    0    0  501  0.00000000000E+00  0.00000000000E+00 -0.43559034450E+03  0.43559034450E+03  0.25500000920E-02 0. -1.
    10030    2    1    2    0    0  0.00000000000E+00  0.00000000000E+00  0.11053192153E+04  0.19764999043E+04  0.16385424328E+04 0.  0.
        5    1    3    3  502    0  0.70556780525E+03 -0.29560244066E+03  0.19896454361E+03  0.79045285144E+03  0.46999998093E+01 0. -1.
       -5    1    3    3    0  502 -0.70556780525E+03  0.29560244066E+03  0.90635467170E+03  0.11860470529E+04  0.46999998093E+01 0.  1.
</event>
<event>
 5   0  0.1037321E-03  0.1611810E+04  0.7818609E-02  0.8813325E-01
       -2   -1    0    0    0  501  0.00000000000E+00  0.00000000000E+00  0.53679200623E+03  0.53679200624E+03  0.25500000920E-02 0.  1.
        2   -1    0    0  501    0  0.00000000000E+00  0.00000000000E+00 -0.12099346761E+04  0.12099346761E+04  0.25500000920E-02 0. -1.
    10030    2    1    2    0    0  0.00000000000E+00  0.00000000000E+00 -0.67314266985E+03  0.17467266823E+04  0.16118104879E+04 0.  0.
        5    1    3    3  502    0 -0.75081931998E+03 -0.26232714281E+03 -0.47751958904E+03  0.92768110309E+03  0.46999998093E+01 0.  1.
       -5    1    3    3    0  502  0.75081931998E+03  0.26232714281E+03 -0.19562308081E+03  0.81904557923E+03  0.46999998093E+01 0. -1.
</event>
<event>
 5   0  0.1057872E-03  0.1611773E+04  0.7818609E-02  0.8813348E-01
       -2   -1    0    0    0  501  0.00000000000E+00  0.00000000000E+00  0.43242435909E+03  0.43242435909E+03  0.25500000920E-02 0. -1.
        2   -1    0    0  501    0  0.00000000000E+00  0.00000000000E+00 -0.15018884098E+04  0.15018884098E+04  0.25500000920E-02 0.  1.
    10030    2    1    2    0    0  0.00000000000E+00  0.00000000000E+00 -0.10694640507E+04  0.19343127689E+04  0.16117731019E+04 0.  0.
        2    1    3    3  502    0  0.45846104483E+03 -0.62606874622E+02 -0.13265777283E+04  0.14049607181E+04  0.25500000920E-02 0.  1.
       -2    1    3    3    0  502 -0.45846104483E+03  0.62606874622E+02  0.25711367760E+03  0.52935205071E+03  0.25500000920E-02 0. -1.
</event>
<event>
 5   0  0.1057872E-03  0.1597951E+04  0.7818609E-02  0.8821808E-01
        2   -1    0    0  501    0  0.00000000000E+00  0.00000000000E+00  0.25431838543E+04  0.25431838543E+04  0.25500000920E-02 0.  1.
       -2   -1    0    0    0  501  0.00000000000E+00  0.00000000000E+00 -0.25100886266E+03  0.25100886267E+03  0.25500000920E-02 0. -1.
    10030    2    1    2    0    0  0.00000000000E+00  0.00000000000E+00  0.22921749917E+04  0.27941927170E+04  0.15979507963E+04 0.  0.
        2    1    3    3  502    0  0.12364235897E+03 -0.23970479399E+03 -0.16899726544E+03  0.31828587296E+03  0.25500000920E-02 0. -1.
       -2    1    3    3    0  502 -0.12364235897E+03  0.23970479399E+03  0.24611722571E+04  0.24759068440E+04  0.25500000920E-02 0.  1.
</event>
<event>
 5   0  0.1030027E-03  0.1622322E+04  0.7818609E-02  0.8806951E-01
        2   -1    0    0  501    0  0.00000000000E+00  0.00000000000E+00  0.15967628776E+04  0.15967628776E+04  0.25500000920E-02 0.  1.
       -2   -1    0    0    0  501  0.00000000000E+00  0.00000000000E+00 -0.41207240522E+03  0.41207240523E+03  0.25500000920E-02 0. -1.
    10030    2    1    2    0    0  0.00000000000E+00  0.00000000000E+00  0.11846904724E+04  0.20088352828E+04  0.16223216938E+04 0.  0.
        1    1    3    3  502    0 -0.29805093756E+03  0.37773751573E+03  0.14009708330E+04  0.14812964818E+04  0.50400001928E-02 0.  1.
       -1    1    3    3    0  502  0.29805093756E+03 -0.37773751573E+03 -0.21628036060E+03  0.52753880102E+03  0.50400001928E-02 0. -1.
</event>
<event>
 5   0  0.5623061E-04  0.1508985E+04  0.7818609E-02  0.8878500E-01
       -1   -1    0    0    0  501  0.00000000000E+00  0.00000000000E+00  0.33266366816E+03  0.33266366820E+03  0.50400001928E-02 0.  1.
        1   -1    0    0  501    0  0.00000000000E+00  0.00000000000E+00 -0.17112154177E+04  0.17112154177E+04  0.50400001928E-02 0. -1.
    10030    2    1    2    0    0  0.00000000000E+00  0.00000000000E+00 -0.13785517495E+04  0.20438790859E+04  0.15089853517E+04 0.  0.
        3    1    3    3  502    0  0.59999533893E+03 -0.10646502107E+03 -0.86680260556E+02  0.61550197824E+03  0.10100000352E+00 0.  1.
       -3    1    3    3    0  502 -0.59999533893E+03  0.10646502107E+03 -0.12918714889E+04  0.14283771076E+04  0.10100000352E+00 0. -1.
</event>
<event>
 5   0  0.5623061E-04  0.1605127E+04  0.7818609E-02  0.8817404E-01
       -1   -1    0    0    0  501  0.00000000000E+00  0.00000000000E+00  0.52322370257E+03  0.52322370259E+03  0.50400001928E-02 0.  1.
        1   -1    0    0  501    0  0.00000000000E+00  0.00000000000E+00 -0.12310378892E+04  0.12310378892E+04  0.50400001928E-02 0. -1.
    10030    2    1    2    0    0  0.00000000000E+00  0.00000000000E+00 -0.70781418665E+03  0.17542615918E+04  0.16051270385E+04 0.  0.
        3    1    3    3  502    0  0.20373756288E+02 -0.34266310714E+03 -0.11467576848E+04  0.11970322856E+04  0.10100000352E+00 0. -1.
       -3    1    3    3    0  502 -0.20373756288E+02  0.34266310714E+03  0.43894349814E+03  0.55722930621E+03  0.10100000352E+00 0.  1.
</event>
<event>
 5   0  0.3832500E-04  0.1605960E+04  0.7818609E-02  0.8816895E-01
       -3   -1    0    0    0  501  0.00000000000E+00  0.00000000000E+00  0.80619197132E+03  0.80619197764E+03  0.10100000352E+00 0. -1.
        3   -1    0    0  501    0  0.00000000000E+00  0.00000000000E+00 -0.79978038806E+03  0.79978039444E+03  0.10100000352E+00 0.  1.
    10030    2    1    2    0    0  0.00000000000E+00  0.00000000000E+00  0.64115832588E+01  0.16059723721E+04  0.16059595734E+04 0.  0.
        1    1    3    3  502    0  0.47981052125E+03 -0.27536802840E+03  0.58521631517E+03  0.80530976831E+03  0.50400001928E-02 0. -1.
       -1    1    3    3    0  502 -0.47981052125E+03  0.27536802840E+03 -0.57880473191E+03  0.80066260377E+03  0.50400001928E-02 0.  1.
</event>
<event>
 5   0  0.9844690E-04  0.1677856E+04  0.7818609E-02  0.8774095E-01
        2   -1    0    0  501    0  0.00000000000E+00  0.00000000000E+00  0.11465931426E+04  0.11465931426E+04  0.25500000920E-02 0. -1.
       -2   -1    0    0    0  501  0.00000000000E+00  0.00000000000E+00 -0.61381888450E+03  0.61381888450E+03  0.25500000920E-02 0.  1.
    10030    2    1    2    0    0  0.00000000000E+00  0.00000000000E+00  0.53277425813E+03  0.17604120271E+04  0.16778563988E+04 0.  0.
        3    1    3    3  502    0 -0.18127119325E+03  0.32172203451E+03  0.10567345819E+04  0.11193981864E+04  0.10100000352E+00 0. -1.
       -3    1    3    3    0  502  0.18127119325E+03 -0.32172203451E+03 -0.52396032372E+03  0.64101384075E+03  0.10100000352E+00 0.  1.
</event>
<event>
 5   0  0.5288658E-04  0.1579959E+04  0.7818609E-02  0.8832955E-01
        1   -1    0    0  501    0  0.00000000000E+00  0.00000000000E+00  0.94519333362E+03  0.94519333364E+03  0.50400001928E-02 0.  1.
       -1   -1    0    0    0  501  0.00000000000E+00  0.00000000000E+00 -0.66025408613E+03  0.66025408615E+03  0.50400001928E-02 0. -1.
    10030    2    1    2    0    0  0.00000000000E+00  0.00000000000E+00  0.28493924750E+03  0.16054474198E+04  0.15799591903E+04 0.  0.
        1    1    3    3  502    0 -0.23437383202E+03  0.75429762578E+03  0.12915250204E+03  0.80036015031E+03  0.50400001928E-02 0.  1.
       -1    1    3    3    0  502  0.23437383202E+03 -0.75429762578E+03  0.15578674546E+03  0.80508726948E+03  0.50400001928E-02 0. -1.
</event>
<event>
 5   0  0.1057872E-03  0.1585212E+04  0.7818609E-02  0.8829685E-01
       -2   -1    0    0    0  501  0.00000000000E+00  0.00000000000E+00  0.52550014561E+03  0.52550014562E+03  0.25500000920E-02 0. -1.
        2   -1    0    0  501    0  0.00000000000E+00  0.00000000000E+00 -0.11954781902E+04  0.11954781902E+04  0.25500000920E-02 0.  1.
    10030    2    1    2    0    0  0.00000000000E+00  0.00000000000E+00 -0.66997804456E+03  0.17209783358E+04  0.15852116111E+04 0.  0.
        2    1    3    3  502    0 -0.55534077020E+03  0.56279230667E+03 -0.27468521857E+03  0.83701285582E+03  0.25500000920E-02 0.  1.
       -2    1    3    3    0  502  0.55534077020E+03 -0.56279230667E+03 -0.39529282599E+03  0.88396547997E+03  0.25500000920E-02 0. -1.
</event>
<event>
 5   0  0.5532881E-04  0.1564387E+04  0.7818609E-02  0.8842730E-01
        1   -1    0    0  501    0  0.00000000000E+00  0.00000000000E+00  0.41976423440E+03  0.41976423443E+03  0.50400001928E-02 0. -1.
       -1   -1    0    0    0  501  0.00000000000E+00  0.00000000000E+00 -0.14575484031E+04  0.14575484031E+04  0.50400001928E-02 0.  1.
    10030    2    1    2    0    0  0.00000000000E+00  0.00000000000E+00 -0.10377841687E+04  0.18773126376E+04  0.15643870232E+04 0.  0.
        4    1    3    3  502    0  0.61084692359E+03  0.48780053612E+03 -0.55157501960E+03  0.95672354536E+03  0.12699999809E+01 0.  1.
       -4    1    3    3    0  502 -0.61084692359E+03 -0.48780053612E+03 -0.48620914911E+03  0.92058909220E+03  0.12699999809E+01 0. -1.
</event>
<event>
 5   0  0.5288658E-04  0.1378061E+04  0.7818609E-02  0.8969854E-01
        1   -1    0    0  501    0  0.00000000000E+00  0.00000000000E+00  0.23411986185E+04  0.23411986185E+04  0.50400001928E-02 0.  1.
       -1   -1    0    0    0  501  0.00000000000E+00  0.00000000000E+00 -0.20278635171E+03  0.20278635177E+03  0.50400001928E-02 0. -1.
    10030    2    1    2    0    0  0.00000000000E+00  0.00000000000E+00  0.21384122667E+04  0.25439849702E+04  0.13780611402E+04 0.  0.
        1    1    3    3  502    0 -0.82794070255E+02  0.20121768266E+03 -0.13769954029E+03  0.25749675203E+03  0.50400001928E-02 0. -1.
       -1    1    3    3    0  502  0.82794070255E+02 -0.20121768266E+03  0.22761118070E+04  0.22864882182E+04  0.50400001928E-02 0.  1.
</event>
<event>
 5   0  0.5281116E-04  0.1618196E+04  0.7818609E-02  0.8809447E-01
       -1   -1    0    0    0  501  0.00000000000E+00  0.00000000000E+00  0.41034416843E+03  0.41034416846E+03  0.50400001928E-02 0. -1.
        1   -1    0    0  501    0  0.00000000000E+00  0.00000000000E+00 -0.15953435381E+04  0.15953435381E+04  0.50400001928E-02 0.  1.
    10030    2    1    2    0    0  0.00000000000E+00  0.00000000000E+00 -0.11849993697E+04  0.20056877066E+04  0.16181964251E+04 0.  0.
        2    1    3    3  502    0  0.18199600412E+03  0.61537097357E+03  0.18285584049E+02  0.64198001777E+03  0.25500000920E-02 0. -1.
       -2    1    3    3    0  502 -0.18199600412E+03 -0.61537097357E+03 -0.12032849537E+04  0.13637076888E+04  0.25500000920E-02 0.  1.
</event>
<event>
 5   0  0.5623061E-04  0.1585168E+04  0.7818609E-02  0.8829712E-01
        1   -1    0    0  501    0  0.00000000000E+00  0.00000000000E+00  0.11146661514E+04  0.11146661514E+04  0.50400001928E-02 0. -1.
       -1   -1    0    0    0  501  0.00000000000E+00  0.00000000000E+00 -0.56356750151E+03  0.56356750154E+03  0.50400001928E-02 0.  1.
    10030    2    1    2    0    0  0.00000000000E+00  0.00000000000E+00  0.55109864984E+03  0.16782336529E+04  0.15851682787E+04 0.  0.
        3    1    3    3  502    0 -0.59753437129E+02  0.52894489934E+03 -0.34615461767E+03  0.63496158098E+03  0.10100000352E+00 0.  1.
       -3    1    3    3    0  502  0.59753437129E+02 -0.52894489934E+03  0.89725326751E+03  0.10432720719E+04  0.10100000352E+00 0. -1.
</event>
<event>
 5   0  0.1000121E-03  0.1615483E+04  0.7818609E-02  0.8811093E-01
       -2   -1    0    0    0  501  0.00000000000E+00  0.00000000000E+00  0.10245840100E+04  0.10245840100E+04  0.25500000920E-02 0.  1.
        2   -1    0    0  501    0  0.00000000000E+00  0.00000000000E+00 -0.63679106263E+03  0.63679106264E+03  0.25500000920E-02 0. -1.
    10030    2    1    2    0    0  0.00000000000E+00  0.00000000000E+00  0.38779294732E+03  0.16613750726E+04  0.16154825167E+04 0.  0.
        4    1    3    3  502    0  0.35952887005E+03  0.46351735624E+03 -0.37715706372E+03  0.69739401457E+03  0.12699999809E+01 0. -1.
       -4    1    3    3    0  502 -0.35952887005E+03 -0.46351735624E+03  0.76495001105E+03  0.96398105803E+03  0.12699999809E+01 0.  1.
</event>
<event>
 5   0  0.1000121E-03  0.1642385E+04  0.7818609E-02  0.8794924E-01
       -2   -1    0    0    0  501  0.00000000000E+00  0.00000000000E+00  0.37192561847E+03  0.37192561848E+03  0.25500000920E-02 0. -1.
        2   -1    0    0  501    0  0.00000000000E+00  0.00000000000E+00 -0.18131500298E+04  0.18131500298E+04  0.25500000920E-02 0.  1.
    10030    2    1    2    0    0  0.00000000000E+00  0.00000000000E+00 -0.14412244113E+04  0.21850756482E+04  0.16423847859E+04 0.  0.
        4    1    3    3  502    0 -0.22439595725E+03 -0.78710887376E+03 -0.80947655397E+03  0.11511506544E+04  0.12699999809E+01 0.  1.
       -4    1    3    3    0  502  0.22439595725E+03  0.78710887376E+03 -0.63174785733E+03  0.10339249939E+04  0.12699999809E+01 0. -1.
</event>
<event>
 5   0  0.5281116E-04  0.1648086E+04  0.7818609E-02  0.8791540E-01
       -1   -1    0    0    0  501  0.00000000000E+00  0.00000000000E+00  0.13333442136E+04  0.13333442136E+04  0.50400001928E-02 0.  1.
        1   -1    0    0  501    0  0.00000000000E+00  0.00000000000E+00 -0.50928088157E+03  0.50928088159E+03  0.50400001928E-02 0. -1.
    10030    2    1    2    0    0  0.00000000000E+00  0.00000000000E+00  0.82406333203E+03  0.18426250952E+04  0.16480858188E+04 0.  0.
        2    1    3    3  502    0  0.50899626657E+03  0.51458946702E+03 -0.28378279182E+02  0.72435132752E+03  0.25500000920E-02 0. -1.
       -2    1    3    3    0  502 -0.50899626657E+03 -0.51458946702E+03  0.85244161122E+03  0.11182737677E+04  0.25500000920E-02 0.  1.
</event>
<event>
 5   0  0.1000121E-03  0.1499811E+04  0.7818609E-02  0.8884579E-01
       -2   -1    0    0    0  501  0.00000000000E+00  0.00000000000E+00  0.10515426040E+04  0.10515426040E+04  0.25500000920E-02 0. -1.
        2   -1    0    0  501    0  0.00000000000E+00  0.00000000000E+00 -0.53479338238E+03  0.53479338239E+03  0.25500000920E-02 0.  1.
    10030    2    1    2    0    0  0.00000000000E+00  0.00000000000E+00  0.51674922158E+03  0.15863359864E+04  0.14998106893E+04 0.  0.
        4    1    3    3  502    0  0.40457395303E+03 -0.31577115738E+03  0.83669544405E+03  0.98155610451E+03  0.12699999809E+01 0. -1.
       -4    1    3    3    0  502 -0.40457395303E+03  0.31577115738E+03 -0.31994622247E+03  0.60477988184E+03  0.12699999809E+01 0.  1.
</event>
<event>
 5   0  0.1030027E-03  0.1587867E+04  0.7818609E-02  0.8828037E-01
       -2   -1    0    0    0  501  0.00000000000E+00  0.00000000000E+00  0.51002593278E+03  0.51002593279E+03  0.25500000920E-02 0.  1.
        2   -1    0    0  501    0  0.00000000000E+00  0.00000000000E+00 -0.12358794031E+04  0.12358794031E+04  0.25500000920E-02 0. -1.
    10030    2    1    2    0    0  0.00000000000E+00  0.00000000000E+00 -0.72585347028E+03  0.17459053359E+04  0.15878671800E+04 0.  0.
        1    1    3    3  502    0 -0.20476416949E+03 -0.15569458733E+03 -0.11887900876E+04  0.12163022002E+04  0.50400001928E-02 0. -1.
       -1    1    3    3    0  502  0.20476416949E+03  0.15569458733E+03  0.46293661735E+03  0.52960313570E+03  0.50400001928E-02 0.  1.
</event>
<event>
 5   0  0.1000121E-03  0.1560129E+04  0.7818609E-02  0.8845424E-01
        2   -1    0    0  501    0  0.00000000000E+00  0.00000000000E+00  0.13277929928E+04  0.13277929928E+04  0.25500000920E-02 0. -1.
       -2   -1    0    0    0  501  0.00000000000E+00  0.00000000000E+00 -0.45827970739E+03  0.45827970740E+03  0.25500000920E-02 0.  1.
    10030    2    1    2    0    0  0.00000000000E+00  0.00000000000E+00  0.86951328537E+03  0.17860727002E+04  0.15601289488E+04 0.  0.
        4    1    3    3  502    0  0.21899441502E+03 -0.66900400953E+03  0.81955037659E+03  0.10803653786E+04  0.12699999809E+01 0. -1.
       -4    1    3    3    0  502 -0.21899441502E+03  0.66900400953E+03  0.49962908782E+02  0.70570732158E+03  0.12699999809E+01 0.  1.
</event>
<event>
 5   0  0.5623061E-04  0.1603268E+04  0.7818609E-02  0.8818543E-01
       -1   -1    0    0    0  501  0.00000000000E+00  0.00000000000E+00  0.61746172838E+03  0.61746172840E+03  0.50400001928E-02 0.  1.
        1   -1    0    0  501    0  0.00000000000E+00  0.00000000000E+00 -0.10407403173E+04  0.10407403173E+04  0.50400001928E-02 0. -1.
    10030    2    1    2    0    0  0.00000000000E+00  0.00000000000E+00 -0.42327858894E+03  0.16582020457E+04  0.16032683059E+04 0.  0.
        3    1    3    3  502    0 -0.37870719481E+03  0.59387895173E+03 -0.60751502697E+03  0.93015367919E+03  0.10100000352E+00 0. -1.
       -3    1    3    3    0  502  0.37870719481E+03 -0.59387895173E+03  0.18423643803E+03  0.72804836653E+03  0.10100000352E+00 0.  1.
</event>
<event>
 5   0  0.1037321E-03  0.1655396E+04  0.7818609E-02  0.8787221E-01
        2   -1    0    0  501    0  0.00000000000E+00  0.00000000000E+00  0.11844977451E+04  0.11844977451E+04  0.25500000920E-02 0.  1.
       -2   -1    0    0    0  501  0.00000000000E+00  0.00000000000E+00 -0.57837474274E+03  0.57837474275E+03  0.25500000920E-02 0. -1.
    10030    2    1    2    0    0  0.00000000000E+00  0.00000000000E+00  0.60612300235E+03  0.17628724878E+04  0.16553955160E+04 0.  0.
        5    1    3    3  502    0 -0.33724025540E+03  0.49842416945E+03 -0.30207832263E+03  0.67337288746E+03  0.46999998093E+01 0. -1.
       -5    1    3    3    0  502  0.33724025540E+03 -0.49842416945E+03  0.90820132498E+03  0.10894996004E+04  0.46999998093E+01 0.  1.
</event>
<event>
 5   0  0.5623061E-04  0.1527366E+04  0.7818609E-02  0.8866456E-01
       -1   -1    0    0    0  501  0.00000000000E+00  0.00000000000E+00  0.46946772361E+03  0.46946772364E+03  0.50400001928E-02 0.  1.
        1   -1    0    0  501    0  0.00000000000E+00  0.00000000000E+00 -0.12422837094E+04  0.12422837094E+04  0.50400001928E-02 0. -1.
    10030    2    1    2    0    0  0.00000000000E+00  0.00000000000E+00 -0.77281598577E+03  0.17117514330E+04  0.15273664985E+04 0.  0.
        3    1    3    3  502    0 -0.80464742176E+02  0.61951458071E+03 -0.87868288020E+03  0.10781263862E+04  0.10100000352E+00 0. -1.
       -3    1    3    3    0  502  0.80464742176E+02 -0.61951458071E+03  0.10586689443E+03  0.63362504684E+03  0.10100000352E+00 0.  1.
</event>
<event>
 5   0  0.5623061E-04  0.1174008E+04  0.7818609E-02  0.9135917E-01
        1   -1    0    0  501    0  0.00000000000E+00  0.00000000000E+00  0.32285553206E+03  0.32285553210E+03  0.50400001928E-02 0.  1.
       -1   -1    0    0    0  501  0.00000000000E+00  0.00000000000E+00 -0.10672686430E+04  0.10672686430E+04  0.50400001928E-02 0. -1.
    10030    2    1    2    0    0  0.00000000000E+00  0.00000000000E+00 -0.74441311089E+03  0.13901241751E+04  0.11740078119E+04 0.  0.
        3    1    3    3  502    0 -0.79637468955E+02  0.54368627293E+03 -0.61670400192E+03  0.82599075419E+03  0.10100000352E+00 0. -1.
       -3    1    3    3    0  502  0.79637468955E+02 -0.54368627293E+03 -0.12770910897E+03  0.56413342087E+03  0.10100000352E+00 0.  1.
</event>
<event>
 5   0  0.9844690E-04  0.1636548E+04  0.7818609E-02  0.8798405E-01
        2   -1    0    0  501    0  0.00000000000E+00  0.00000000000E+00  0.14766353799E+04  0.14766353800E+04  0.25500000920E-02 0.  1.
       -2   -1    0    0    0  501  0.00000000000E+00  0.00000000000E+00 -0.45344449611E+03  0.45344449611E+03  0.25500000920E-02 0. -1.
    10030    2    1    2    0    0  0.00000000000E+00  0.00000000000E+00  0.10231908838E+04  0.19300798761E+04  0.16365478127E+04 0.  0.
        3    1    3    3  502    0 -0.62555582933E+03  0.23491457057E+03 -0.45416448984E+02  0.66975190564E+03  0.10100000352E+00 0. -1.
       -3    1    3    3    0  502  0.62555582933E+03 -0.23491457057E+03  0.10686073328E+04  0.12603279704E+04  0.10100000352E+00 0.  1.
</event>
<event>
 5   0  0.5288658E-04  0.1620319E+04  0.7818609E-02  0.8808162E-01
        1   -1    0    0  501    0  0.00000000000E+00  0.00000000000E+00  0.62860716395E+03  0.62860716397E+03  0.50400001928E-02 0.  1.
       -1   -1    0    0    0  501  0.00000000000E+00  0.00000000000E+00 -0.10441471309E+04  0.10441471309E+04  0.50400001928E-02 0. -1.
    10030    2    1    2    0    0  0.00000000000E+00  0.00000000000E+00 -0.41553996697E+03  0.16727542949E+04  0.16203189399E+04 0.  0.
        1    1    3    3  502    0 -0.77475236009E+03  0.40844735703E+01 -0.45229025708E+03  0.89712004718E+03  0.50400001928E-02 0. -1.
       -1    1    3    3    0  502  0.77475236009E+03 -0.40844735703E+01  0.36750290109E+02  0.77563424772E+03  0.50400001928E-02 0.  1.
</event>
<event>
 5   0  0.5532881E-04  0.1548544E+04  0.7818609E-02  0.8852798E-01
        1   -1    0    0  501    0  0.00000000000E+00  0.00000000000E+00  0.94093401329E+03  0.94093401330E+03  0.50400001928E-02 0.  1.
       -1   -1    0    0    0  501  0.00000000000E+00  0.00000000000E+00 -0.63712978494E+03  0.63712978496E+03  0.50400001928E-02 0. -1.
    10030    2    1    2    0    0  0.00000000000E+00  0.00000000000E+00  0.30380422835E+03  0.15780637983E+04  0.15485439426E+04 0.  0.
        4    1    3    3  502    0 -0.99037182451E+02  0.58855358249E+03  0.65455102960E+03  0.88580039864E+03  0.12699999809E+01 0.  1.
       -4    1    3    3    0  502  0.99037182451E+02 -0.58855358249E+03 -0.35074680125E+03  0.69226339962E+03  0.12699999809E+01 0. -1.
</event>
<event>
 5   0  0.5425525E-04  0.1691665E+04  0.7818609E-02  0.8766132E-01
        1   -1    0    0  501    0  0.00000000000E+00  0.00000000000E+00  0.68561058418E+03  0.68561058419E+03  0.50400001928E-02 0.  1.
       -1   -1    0    0    0  501  0.00000000000E+00  0.00000000000E+00 -0.10434973119E+04  0.10434973119E+04  0.50400001928E-02 0. -1.
    10030    2    1    2    0    0  0.00000000000E+00  0.00000000000E+00 -0.35788672769E+03  0.17291078961E+04  0.16916652170E+04 0.  0.
        5    1    3    3  502    0  0.77412710496E+02  0.17548783710E+03  0.66307515389E+03  0.69027491510E+03  0.46999998093E+01 0.  1.
       -5    1    3    3    0  502 -0.77412710496E+02 -0.17548783710E+03 -0.10209618816E+04  0.10388329810E+04  0.46999998093E+01 0. -1.
</event>
<event>
 5   0  0.5532881E-04  0.1677374E+04  0.7818609E-02  0.8774375E-01
        1   -1    0    0  501    0  0.00000000000E+00  0.00000000000E+00  0.16504616234E+04  0.16504616234E+04  0.50400001928E-02 0. -1.
       -1   -1    0    0    0  501  0.00000000000E+00  0.00000000000E+00 -0.42618134216E+03  0.42618134219E+03  0.50400001928E-02 0.  1.
    10030    2    1    2    0    0  0.00000000000E+00  0.00000000000E+00  0.12242802812E+04  0.20766429656E+04  0.16773740786E+04 0.  0.
        4    1    3    3  502    0  0.74701459975E+03  0.15332698196E+03  0.10443079820E+04  0.12931050807E+04  0.12699999809E+01 0. -1.
       -4    1    3    3    0  502 -0.74701459975E+03 -0.15332698196E+03  0.17997229925E+03  0.78353788487E+03  0.12699999809E+01 0.  1.
</event>
<event>
 5   0  0.5288658E-04  0.1584171E+04  0.7818609E-02  0.8830332E-01
       -1   -1    0    0    0  501  0.00000000000E+00  0.00000000000E+00  0.92221132877E+03  0.92221132878E+03  0.50400001928E-02 0. -1.
        1   -1    0    0  501    0  0.00000000000E+00  0.00000000000E+00 -0.68032104036E+03  0.68032104038E+03  0.50400001928E-02 0.  1.
    10030    2    1    2    0    0  0.00000000000E+00  0.00000000000E+00  0.24189028841E+03  0.16025323692E+04  0.15841714183E+04 0.  0.
        1    1    3    3  502    0 -0.30395014759E+03 -0.48756869754E+03  0.67250849803E+03  0.88452055204E+03  0.50400001928E-02 0. -1.
       -1    1    3    3    0  502  0.30395014759E+03  0.48756869754E+03 -0.43061820962E+03  0.71801181712E+03  0.50400001928E-02 0.  1.
</event>
<event>
 5   0  0.1000121E-03  0.1619210E+04  0.7818609E-02  0.8808833E-01
       -2   -1    0    0    0  501  0.00000000000E+00  0.00000000000E+00  0.68375873231E+03  0.68375873232E+03  0.25500000920E-02 0.  1.
        2   -1    0    0  501    0  0.00000000000E+00  0.00000000000E+00 -0.95861276975E+03  0.95861276976E+03  0.25500000920E-02 0. -1.
    10030    2    1    2    0    0  0.00000000000E+00  0.00000000000E+00 -0.27485403744E+03  0.16423715021E+04  0.16192095012E+04 0.  0.
        4    1    3    3  502    0 -0.28267819366E+03  0.43136512715E+03 -0.77043381972E+03  0.92712065965E+03  0.12699999809E+01 0. -1.
       -4    1    3    3    0  502  0.28267819366E+03 -0.43136512715E+03  0.49557978227E+03  0.71525084242E+03  0.12699999809E+01 0.  1.
</event>
<event>
 5   0  0.5532881E-04  0.1661832E+04  0.7818609E-02  0.8783437E-01
        1   -1    0    0  501    0  0.00000000000E+00  0.00000000000E+00  0.15176246333E+04  0.15176246333E+04  0.50400001928E-02 0.  1.
       -1   -1    0    0    0  501  0.00000000000E+00  0.00000000000E+00 -0.45493579888E+03  0.45493579891E+03  0.50400001928E-02 0. -1.
    10030    2    1    2    0    0  0.00000000000E+00  0.00000000000E+00  0.10626888344E+04  0.19725604322E+04  0.16618324524E+04 0.  0.
        4    1    3    3  502    0 -0.59442423208E+02  0.45138438737E+03  0.13563921641E+04  0.14307629372E+04  0.12699999809E+01 0.  1.
       -4    1    3    3    0  502  0.59442423208E+02 -0.45138438737E+03 -0.29370332966E+03  0.54179749501E+03  0.12699999809E+01 0. -1.
</event>
<event>
 5   0  0.5532881E-04  0.1600384E+04  0.7818609E-02  0.8820312E-01
        1   -1    0    0  501    0  0.00000000000E+00  0.00000000000E+00  0.39437911074E+03  0.39437911078E+03  0.50400001928E-02 0.  1.
       -1   -1    0    0    0  501  0.00000000000E+00  0.00000000000E+00 -0.16235837653E+04  0.16235837653E+04  0.50400001928E-02 0. -1.
    10030    2    1    2    0    0  0.00000000000E+00  0.00000000000E+00 -0.12292046546E+04  0.20179628761E+04  0.16003843559E+04 0.  0.
        4    1    3    3  502    0 -0.46699842117E+03  0.15501543243E+03 -0.14102728803E+04  0.14936493965E+04  0.12699999809E+01 0. -1.
       -4    1    3    3    0  502  0.46699842117E+03 -0.15501543243E+03  0.18106822575E+03  0.52431347965E+03  0.12699999809E+01 0.  1.
</event>
<event>
 5   0  0.5623061E-04  0.1605233E+04  0.7818609E-02  0.8817340E-01
        1   -1    0    0  501    0  0.00000000000E+00  0.00000000000E+00  0.17043561622E+04  0.17043561622E+04  0.50400001928E-02 0. -1.
       -1   -1    0    0    0  501  0.00000000000E+00  0.00000000000E+00 -0.37796844295E+03  0.37796844299E+03  0.50400001928E-02 0.  1.
    10030    2    1    2    0    0  0.00000000000E+00  0.00000000000E+00  0.13263877192E+04  0.20823246052E+04  0.16052325002E+04 0.  0.
        3    1    3    3  502    0 -0.64802267255E+03 -0.22895757672E+03  0.12545683712E+03  0.69863751993E+03  0.10100000352E+00 0.  1.
       -3    1    3    3    0  502  0.64802267255E+03  0.22895757672E+03  0.12009308821E+04  0.13836870852E+04  0.10100000352E+00 0. -1.
</event>
<event>
 5   0  0.5623061E-04  0.1590062E+04  0.7818609E-02  0.8826677E-01
        1   -1    0    0  501    0  0.00000000000E+00  0.00000000000E+00  0.49260146731E+03  0.49260146733E+03  0.50400001928E-02 0. -1.
       -1   -1    0    0    0  501  0.00000000000E+00  0.00000000000E+00 -0.12831354152E+04  0.12831354152E+04  0.50400001928E-02 0.  1.
    10030    2    1    2    0    0  0.00000000000E+00  0.00000000000E+00 -0.79053394791E+03  0.17757368826E+04  0.15900621225E+04 0.  0.
        3    1    3    3  502    0 -0.96101215891E+02  0.14189701701E+03  0.47172808319E+03  0.50189401451E+03  0.10100000352E+00 0. -1.
       -3    1    3    3    0  502  0.96101215891E+02 -0.14189701701E+03 -0.12622620311E+04  0.12738428680E+04  0.10100000352E+00 0.  1.
</event>
<event>
 5   0  0.1000121E-03  0.1378190E+04  0.7818609E-02  0.8969759E-01
        2   -1    0    0  501    0  0.00000000000E+00  0.00000000000E+00  0.35226422514E+03  0.35226422515E+03  0.25500000920E-02 0.  1.
       -2   -1    0    0    0  501  0.00000000000E+00  0.00000000000E+00 -0.13479999410E+04  0.13479999410E+04  0.25500000920E-02 0. -1.
    10030    2    1    2    0    0  0.00000000000E+00  0.00000000000E+00 -0.99573571586E+03  0.17002641661E+04  0.13781903420E+04 0.  0.
        4    1    3    3  502    0  0.13315991661E+03 -0.66310625914E+03 -0.66064557547E+03  0.94546055633E+03  0.12699999809E+01 0. -1.
       -4    1    3    3    0  502 -0.13315991661E+03  0.66310625914E+03 -0.33509014040E+03  0.75480360981E+03  0.12699999809E+01 0.  1.
</event>
<event>
 5   0  0.5281116E-04  0.1536408E+04  0.7818609E-02  0.8860596E-01
        1   -1    0    0  501    0  0.00000000000E+00  0.00000000000E+00  0.61796499817E+03  0.61796499819E+03  0.50400001928E-02 0.  1.
       -1   -1    0    0    0  501  0.00000000000E+00  0.00000000000E+00 -0.95496922455E+03  0.95496922456E+03  0.50400001928E-02 0. -1.
    10030    2    1    2    0    0  0.00000000000E+00  0.00000000000E+00 -0.33700422638E+03  0.15729342228E+04  0.15364082207E+04 0.  0.
        2    1    3    3  502    0  0.10385803926E+03  0.46644894916E+03 -0.78427998763E+03  0.91839872250E+03  0.25500000920E-02 0. -1.
       -2    1    3    3    0  502 -0.10385803926E+03 -0.46644894916E+03  0.44727576125E+03  0.65453550026E+03  0.25500000920E-02 0.  1.
</event>
<event>
 5   0  0.5532881E-04  0.1831742E+04  0.7818609E-02  0.8689599E-01
        1   -1    0    0  501    0  0.00000000000E+00  0.00000000000E+00  0.12917935408E+04  0.12917935409E+04  0.50400001928E-02 0. -1.
       -1   -1    0    0    0  501  0.00000000000E+00  0.00000000000E+00 -0.64934503908E+03  0.64934503909E+03  0.50400001928E-02 0.  1.
    10030    2    1    2    0    0  0.00000000000E+00  0.00000000000E+00  0.64244850177E+03  0.19411385799E+04  0.18317420422E+04 0.  0.
        4    1    3    3  502    0 -0.48421519364E+03 -0.17914109343E+03  0.11228834287E+04  0.12358902428E+04  0.12699999809E+01 0. -1.
       -4    1    3    3    0  502  0.48421519364E+03  0.17914109343E+03 -0.48043492689E+03  0.70524833710E+03  0.12699999809E+01 0.  1.
</event>
<event>
 5   0  0.1000121E-03  0.1633853E+04  0.7818609E-02  0.8800016E-01
        2   -1    0    0  501    0  0.00000000000E+00  0.00000000000E+00  0.12006820008E+04  0.12006820008E+04  0.25500000920E-02 0. -1.
       -2   -1    0    0    0  501  0.00000000000E+00  0.00000000000E+00 -0.55582508166E+03  0.55582508167E+03  0.25500000920E-02 0.  1.
    10030    2    1    2    0    0  0.00000000000E+00  0.00000000000E+00  0.64485691918E+03  0.17565070825E+04  0.16338533241E+04 0.  0.
        4    1    3    3  502    0  0.23902280024E+03  0.56129308772E+03  0.90652484388E+03  0.10926896791E+04  0.12699999809E+01 0. -1.
       -4    1    3    3    0  502 -0.23902280024E+03 -0.56129308772E+03 -0.26166792469E+03  0.66381740341E+03  0.12699999809E+01 0.  1.
</event>
<event>
 5   0  0.1037321E-03  0.1742568E+04  0.7818609E-02  0.8737452E-01
       -2   -1    0    0    0  501  0.00000000000E+00  0.00000000000E+00  0.13949207528E+04  0.13949207528E+04  0.25500000920E-02 0. -1.
        2   -1    0    0  501    0  0.00000000000E+00  0.00000000000E+00 -0.54421428893E+03  0.54421428893E+03  0.25500000920E-02 0.  1.
    10030    2    1    2    0    0  0.00000000000E+00  0.00000000000E+00  0.85070646384E+03  0.19391350417E+04  0.17425679965E+04 0.  0.
        5    1    3    3  502    0  0.56360764491E+03  0.39695262607E+03 -0.16756173418E+03  0.70945330326E+03  0.46999998093E+01 0.  1.
       -5    1    3    3    0  502 -0.56360764491E+03 -0.39695262607E+03  0.10182681980E+04  0.12296817384E+04  0.46999998093E+01 0. -1.
</event>
<event>
 5   0  0.5532881E-04  0.1584925E+04  0.7818609E-02  0.8829863E-01
        1   -1    0    0  501    0  0.00000000000E+00  0.00000000000E+00  0.14802388513E+04  0.14802388513E+04  0.50400001928E-02 0.  1.
       -1   -1    0    0    0  501  0.00000000000E+00  0.00000000000E+00 -0.42425351057E+03  0.42425351060E+03  0.50400001928E-02 0. -1.
    10030    2    1    2    0    0  0.00000000000E+00  0.00000000000E+00  0.10559853407E+04  0.19044923619E+04  0.15849246407E+04 0.  0.
        4    1    3    3  502    0 -0.42478496601E+03 -0.63487652746E+03  0.27455293856E+03  0.81172125846E+03  0.12699999809E+01 0.  1.
       -4    1    3    3    0  502  0.42478496601E+03  0.63487652746E+03  0.78143240214E+03  0.10927711034E+04  0.12699999809E+01 0. -1.
</event>
<event>
 5   0  0.1000121E-03  0.1546417E+04  0.7818609E-02  0.8854159E-01
        2   -1    0    0  501    0  0.00000000000E+00  0.00000000000E+00  0.17551109852E+04  0.17551109852E+04  0.25500000920E-02 0. -1.
       -2   -1    0    0    0  501  0.00000000000E+00  0.00000000000E+00 -0.34063461079E+03  0.34063461080E+03  0.25500000920E-02 0.  1.
    10030    2    1    2    0    0  0.00000000000E+00  0.00000000000E+00  0.14144763744E+04  0.20957455960E+04  0.15464172107E+04 0.  0.
        4    1    3    3  502    0 -0.21047625956E+03 -0.74250015989E+03  0.64305148957E+03  0.10045514295E+04  0.12699999809E+01 0.  1.
       -4    1    3    3    0  502  0.21047625956E+03  0.74250015989E+03  0.77142488486E+03  0.10911941666E+04  0.12699999809E+01 0. -1.
</event>
<event>
 5   0  0.9844690E-04  0.1581312E+04  0.7818609E-02  0.8832112E-01
        2   -1    0    0  501    0  0.00000000000E+00  0.00000000000E+00  0.11198108533E+04  0.11198108533E+04  0.25500000920E-02 0.  1.
       -2   -1    0    0    0  501  0.00000000000E+00  0.00000000000E+00 -0.55825224981E+03  0.55825224982E+03  0.25500000920E-02 0. -1.
    10030    2    1    2    0    0  0.00000000000E+00  0.00000000000E+00  0.56155860348E+03  0.16780631031E+04  0.15813120226E+04 0.  0.
        3    1    3    3  502    0 -0.15385618914E+03  0.48978310736E+03  0.91888339970E+03  0.10525711053E+04  0.10100000352E+00 0.  1.
       -3    1    3    3    0  502  0.15385618914E+03 -0.48978310736E+03 -0.35732479621E+03  0.62549199785E+03  0.10100000352E+00 0. -1.
</event>
<event>
 5   0  0.5425525E-04  0.1594605E+04  0.7818609E-02  0.8823869E-01
       -1   -1    0    0    0  501  0.00000000000E+00  0.00000000000E+00  0.58687361447E+03  0.58687361449E+03  0.50400001928E-02 0. -1.
        1   -1    0    0  501    0  0.00000000000E+00  0.00000000000E+00 -0.10831831050E+04  0.10831831050E+04  0.50400001928E-02 0.  1.
    10030    2    1    2    0    0  0.00000000000E+00  0.00000000000E+00 -0.49630949051E+03  0.16700567195E+04  0.15946053856E+04 0.  0.
        5    1    3    3  502    0  0.61849680847E+03  0.29537566376E+03  0.17840589515E+03  0.70826254895E+03  0.46999998093E+01 0. -1.
       -5    1    3    3    0  502 -0.61849680847E+03 -0.29537566376E+03 -0.67471538566E+03  0.96179417053E+03  0.46999998093E+01 0.  1.
</event>
<event>
 5   0  0.1057872E-03  0.1602870E+04  0.7818609E-02  0.8818787E-01
       -2   -1    0    0    0  501  0.00000000000E+00  0.00000000000E+00  0.11509146463E+04  0.11509146463E+04  0.25500000920E-02 0.  1.
        2   -1    0    0  501    0  0.00000000000E+00  0.00000000000E+00 -0.55807630862E+03  0.55807630862E+03  0.25500000920E-02 0. -1.
    10030    2    1    2    0    0  0.00000000000E+00  0.00000000000E+00  0.59283833768E+03  0.17089909549E+04  0.16028701723E+04 0.  0.
        2    1    3    3  502    0 -0.46287819759E+03  0.32781222979E+02  0.99310785280E+03  0.10961724507E+04  0.25500000920E-02 0.  1.
       -2    1    3    3    0  502  0.46287819759E+03 -0.32781222979E+02 -0.40026951512E+03  0.61281850422E+03  0.25500000920E-02 0. -1.
</event>
<event>
 5   0  0.5425525E-04  0.1611030E+04  0.7818609E-02  0.8813800E-01
        1   -1    0    0  501    0  0.00000000000E+00  0.00000000000E+00  0.11100996774E+04  0.11100996775E+04  0.50400001928E-02 0. -1.
       -1   -1    0    0    0  501  0.00000000000E+00  0.00000000000E+00 -0.58450104205E+03  0.58450104207E+03  0.50400001928E-02 0.  1.
    10030    2    1    2    0    0  0.00000000000E+00  0.00000000000E+00  0.52559863539E+03  0.16946007195E+04  0.16110300038E+04 0.  0.
        5    1    3    3  502    0  0.30781260300E+03  0.42222927093E+03 -0.38203139177E+03  0.64729918129E+03  0.46999998093E+01 0.  1.
       -5    1    3    3    0  502 -0.30781260300E+03 -0.42222927093E+03  0.90763002716E+03  0.10473015382E+04  0.46999998093E+01 0. -1.
</event>
<event>
 5   0  0.1057872E-03  0.1593942E+04  0.7818609E-02  0.8824278E-01
       -2   -1    0    0    0  501  0.00000000000E+00  0.00000000000E+00  0.47802629591E+03  0.47802629591E+03  0.25500000920E-02 0.  1.
        2   -1    0    0  501    0  0.00000000000E+00  0.00000000000E+00 -0.13287197811E+04  0.13287197811E+04  0.25500000920E-02 0. -1.
    10030    2    1    2    0    0  0.00000000000E+00  0.00000000000E+00 -0.85069348515E+03  0.18067460770E+04  0.15939422766E+04 0.  0.
        2    1    3    3  502    0  0.58615320704E+03  0.47707798388E+03 -0.71206824221E+03  0.10383738086E+04  0.25500000920E-02 0.  1.
       -2    1    3    3    0  502 -0.58615320704E+03 -0.47707798388E+03 -0.13862524295E+03  0.76837226838E+03  0.25500000920E-02 0. -1.
</event>
<event>
 5   0  0.5623061E-04  0.1652387E+04  0.7818609E-02  0.8788996E-01
       -1   -1    0    0    0  501  0.00000000000E+00  0.00000000000E+00  0.60145038798E+03  0.60145038800E+03  0.50400001928E-02 0. -1.
        1   -1    0    0  501    0  0.00000000000E+00  0.00000000000E+00 -0.11349159992E+04  0.11349159992E+04  0.50400001928E-02 0.  1.
    10030    2    1    2    0    0  0.00000000000E+00  0.00000000000E+00 -0.53346561125E+03  0.17363663872E+04  0.16523869620E+04 0.  0.
        3    1    3    3  502    0  0.77476021028E+03 -0.15964549581E+03 -0.16170234804E+02  0.79120260013E+03  0.10100000352E+00 0. -1.
       -3    1    3    3    0  502 -0.77476021028E+03  0.15964549581E+03 -0.51729537645E+03  0.94516378711E+03  0.10100000352E+00 0.  1.
</event>
<event>
 5   0  0.9844690E-04  0.1615424E+04  0.7818609E-02  0.8811128E-01
       -2   -1    0    0    0  501  0.00000000000E+00  0.00000000000E+00  0.10180178573E+04  0.10180178573E+04  0.25500000920E-02 0. -1.
        2   -1    0    0  501    0  0.00000000000E+00  0.00000000000E+00 -0.64085209312E+03  0.64085209312E+03  0.25500000920E-02 0.  1.
    10030    2    1    2    0    0  0.00000000000E+00  0.00000000000E+00  0.37716576417E+03  0.16588699504E+04  0.16154242473E+04 0.  0.
        3    1    3    3  502    0  0.79317876815E+02 -0.50552294971E+03  0.83033355970E+03  0.97534537926E+03  0.10100000352E+00 0. -1.
       -3    1    3    3    0  502 -0.79317876815E+02  0.50552294971E+03 -0.45316779554E+03  0.68352457116E+03  0.10100000352E+00 0.  1.
</event>
<event>
 5   0  0.5281116E-04  0.1574425E+04  0.7818609E-02  0.8836415E-01
        1   -1    0    0  501    0  0.00000000000E+00  0.00000000000E+00  0.39910095860E+03  0.39910095863E+03  0.50400001928E-02 0. -1.
       -1   -1    0    0    0  501  0.00000000000E+00  0.00000000000E+00 -0.15527490303E+04  0.15527490303E+04  0.50400001928E-02 0.  1.
    10030    2    1    2    0    0  0.00000000000E+00  0.00000000000E+00 -0.11536480717E+04  0.19518499890E+04  0.15744251351E+04 0.  0.
        2    1    3    3  502    0 -0.57435805041E+03  0.45581289162E+02  0.88179015388E+02  0.58287250986E+03  0.25500000920E-02 0. -1.
       -2    1    3    3    0  502  0.57435805041E+03 -0.45581289162E+02 -0.12418270871E+04  0.13689774791E+04  0.25500000920E-02 0.  1.
</event>
<event>
 5   0  0.5288658E-04  0.1689502E+04  0.7818609E-02  0.8767375E-01
       -1   -1    0    0    0  501  0.00000000000E+00  0.00000000000E+00  0.42431356127E+03  0.42431356130E+03  0.50400001928E-02 0.  1.
        1   -1    0    0  501    0  0.00000000000E+00  0.00000000000E+00 -0.16817847757E+04  0.16817847757E+04  0.50400001928E-02 0. -1.
    10030    2    1    2    0    0  0.00000000000E+00  0.00000000000E+00 -0.12574712144E+04  0.21060983370E+04  0.16895018053E+04 0.  0.
        1    1    3    3  502    0  0.63109017062E+03 -0.45740198075E+03 -0.22266300156E+03  0.81059866009E+03  0.50400001928E-02 0.  1.
       -1    1    3    3    0  502 -0.63109017062E+03  0.45740198075E+03 -0.10348082128E+04  0.12954996769E+04  0.50400001928E-02 0. -1.
</event>
<event>
 5   0  0.1057872E-03  0.1612194E+04  0.7818609E-02  0.8813091E-01
        2   -1    0    0  501    0  0.00000000000E+00  0.00000000000E+00  0.12102649519E+04  0.12102649519E+04  0.25500000920E-02 0. -1.
       -2   -1    0    0    0  501  0.00000000000E+00  0.00000000000E+00 -0.53690111973E+03  0.53690111974E+03  0.25500000920E-02 0.  1.
    10030    2    1    2    0    0  0.00000000000E+00  0.00000000000E+00  0.67336383216E+03  0.17471660716E+04  0.16121942908E+04 0.  0.
        2    1    3    3  502    0  0.35731840911E+03  0.66679748813E+03  0.34992540154E+02  0.75731090943E+03  0.25500000920E-02 0.  1.
       -2    1    3    3    0  502 -0.35731840911E+03 -0.66679748813E+03  0.63837129201E+03  0.98985516220E+03  0.25500000920E-02 0. -1.
</event>
<event>
 5   0  0.5623061E-04  0.1603835E+04  0.7818609E-02  0.8818195E-01
        1   -1    0    0  501    0  0.00000000000E+00  0.00000000000E+00  0.75413202466E+03  0.75413202467E+03  0.50400001928E-02 0. -1.
       -1   -1    0    0    0  501  0.00000000000E+00  0.00000000000E+00 -0.85273122099E+03  0.85273122100E+03  0.50400001928E-02 0.  1.
    10030    2    1    2    0    0  0.00000000000E+00  0.00000000000E+00 -0.98599196330E+02  0.16068632457E+04  0.16038353060E+04 0.  0.
        3    1    3    3  502    0  0.66205784575E+03  0.18128171593E+03 -0.46467641667E+03  0.82891967889E+03  0.10100000352E+00 0.  1.
       -3    1    3    3    0  502 -0.66205784575E+03 -0.18128171593E+03  0.36607722034E+03  0.77794356678E+03  0.10100000352E+00 0. -1.
</event>
<event>
 5   0  0.1000121E-03  0.1520309E+04  0.7818609E-02  0.8871059E-01
        2   -1    0    0  501    0  0.00000000000E+00  0.00000000000E+00  0.14442225019E+04  0.14442225019E+04  0.25500000920E-02 0. -1.
       -2   -1    0    0    0  501  0.00000000000E+00  0.00000000000E+00 -0.40010122962E+03  0.40010122963E+03  0.25500000920E-02 0.  1.
    10030    2    1    2    0    0  0.00000000000E+00  0.00000000000E+00  0.10441212722E+04  0.18443237315E+04  0.15203094407E+04 0.  0.
        4    1    3    3  502    0  0.56926382224E+03 -0.16437003337E+03  0.10997353878E+04  0.12491990807E+04  0.12699999809E+01 0. -1.
       -4    1    3    3    0  502 -0.56926382224E+03  0.16437003337E+03 -0.55614115574E+02  0.59512465075E+03  0.12699999809E+01 0.  1.
</event>
<event>
 5   0  0.9844690E-04  0.1598321E+04  0.7818609E-02  0.8821580E-01
       -2   -1    0    0    0  501  0.00000000000E+00  0.00000000000E+00  0.44680407541E+03  0.44680407542E+03  0.25500000920E-02 0.  1.
        2   -1    0    0  501    0  0.00000000000E+00  0.00000000000E+00 -0.14293897963E+04  0.14293897963E+04  0.25500000920E-02 0. -1.
    10030    2    1    2    0    0  0.00000000000E+00  0.00000000000E+00 -0.98258572090E+03  0.18761938717E+04  0.15983206016E+04 0.  0.
        3    1    3    3  502    0 -0.82507563412E+02 -0.36145174164E+03  0.33974412119E+03  0.50287268532E+03  0.10100000352E+00 0.  1.
       -3    1    3    3    0  502  0.82507563412E+02  0.36145174164E+03 -0.13223298421E+04  0.13733211864E+04  0.10100000352E+00 0. -1.
</event>
<event>
 5   0  0.1037321E-03  0.1464036E+04  0.7818609E-02  0.8908727E-01
        2   -1    0    0  501    0  0.00000000000E+00  0.00000000000E+00  0.12702940585E+04  0.12702940585E+04  0.25500000920E-02 0.  1.
       -2   -1    0    0    0  501  0.00000000000E+00  0.00000000000E+00 -0.42183161042E+03  0.42183161043E+03  0.25500000920E-02 0. -1.
    10030    2    1    2    0    0  0.00000000000E+00  0.00000000000E+00  0.84846244807E+03  0.16921256689E+04  0.14640357761E+04 0.  0.
        5    1    3    3  502    0  0.13907493592E+03  0.62958535227E+03  0.23670948893E+02  0.64521465995E+03  0.46999998093E+01 0. -1.
       -5    1    3    3    0  502 -0.13907493592E+03 -0.62958535227E+03  0.82479149918E+03  0.10469110090E+04  0.46999998093E+01 0.  1.
</event>
<event>
 5   0  0.5532881E-04  0.1542237E+04  0.7818609E-02  0.8856842E-01
        1   -1    0    0  501    0  0.00000000000E+00  0.00000000000E+00  0.52854829910E+03  0.52854829913E+03  0.50400001928E-02 0. -1.
       -1   -1    0    0    0  501  0.00000000000E+00  0.00000000000E+00 -0.11250128628E+04  0.11250128628E+04  0.50400001928E-02 0.  1.
    10030    2    1    2    0    0  0.00000000000E+00  0.00000000000E+00 -0.59646456372E+03  0.16535611620E+04  0.15422368627E+04 0.  0.
        4    1    3    3  502    0 -0.20584797625E+03 -0.13128957943E+03 -0.10824755784E+04  0.11096690199E+04  0.12699999809E+01 0.  1.
       -4    1    3    3    0  502  0.20584797625E+03  0.13128957943E+03  0.48601101464E+03  0.54389214210E+03  0.12699999809E+01 0. -1.
</event>
<event>
 5   0  0.5288658E-04  0.1574989E+04  0.7818609E-02  0.8836062E-01
        1   -1    0    0  501    0  0.00000000000E+00  0.00000000000E+00  0.13694585984E+04  0.13694585984E+04  0.50400001928E-02 0.  1.
       -1   -1    0    0    0  501  0.00000000000E+00  0.00000000000E+00 -0.45284130311E+03  0.45284130314E+03  0.50400001928E-02 0. -1.
    10030    2    1    2    0    0  0.00000000000E+00  0.00000000000E+00  0.91661729527E+03  0.18222999015E+04  0.15749887825E+04 0.  0.
        1    1    3    3  502    0  0.39992453864E+03 -0.45260659384E+03  0.10429837670E+04  0.12052416785E+04  0.50400001928E-02 0.  1.
       -1    1    3    3    0  502 -0.39992453864E+03  0.45260659384E+03 -0.12636647172E+03  0.61705822302E+03  0.50400001928E-02 0. -1.
</event>
<event>
 5   0  0.5425525E-04  0.1563007E+04  0.7818609E-02  0.8843602E-01
       -1   -1    0    0    0  501  0.00000000000E+00  0.00000000000E+00  0.65532336191E+03  0.65532336193E+03  0.50400001928E-02 0. -1.
        1   -1    0    0  501    0  0.00000000000E+00  0.00000000000E+00 -0.93197907323E+03  0.93197907324E+03  0.50400001928E-02 0.  1.
    10030    2    1    2    0    0  0.00000000000E+00  0.00000000000E+00 -0.27665571132E+03  0.15873024352E+04  0.15630069220E+04 0.  0.
        5    1    3    3  502    0 -0.11905813021E+03  0.26430302366E+03  0.59869037692E+03  0.66519409506E+03  0.46999998093E+01 0. -1.
       -5    1    3    3    0  502  0.11905813021E+03 -0.26430302366E+03 -0.87534608825E+03  0.92210834011E+03  0.46999998093E+01 0.  1.
</event>
<event>
 5   0  0.1000121E-03  0.1589487E+04  0.7818609E-02  0.8827033E-01
       -2   -1    0    0    0  501  0.00000000000E+00  0.00000000000E+00  0.11009485748E+04  0.11009485748E+04  0.25500000920E-02 0. -1.
        2   -1    0    0  501    0  0.00000000000E+00  0.00000000000E+00 -0.57370254908E+03  0.57370254908E+03  0.25500000920E-02 0.  1.
    10030    2    1    2    0    0  0.00000000000E+00  0.00000000000E+00  0.52724602573E+03  0.16746511239E+04  0.15894867144E+04 0.  0.
        4    1    3    3  502    0 -0.27999337563E+03 -0.11938658994E+03  0.10371012602E+04  0.10808469295E+04  0.12699999809E+01 0. -1.
       -4    1    3    3    0  502  0.27999337563E+03  0.11938658994E+03 -0.50985523446E+03  0.59380419438E+03  0.12699999809E+01 0.  1.
</event>
<event>
 5   0  0.1030027E-03  0.1651762E+04  0.7818609E-02  0.8789365E-01
       -2   -1    0    0    0  501  0.00000000000E+00  0.00000000000E+00  0.50217503225E+03  0.50217503226E+03  0.25500000920E-02 0. -1.
        2   -1    0    0  501    0  0.00000000000E+00  0.00000000000E+00 -0.13582505603E+04  0.13582505603E+04  0.25500000920E-02 0.  1.
    10030    2    1    2    0    0  0.00000000000E+00  0.00000000000E+00 -0.85607552800E+03  0.18604255925E+04  0.16517621123E+04 0.  0.
        1    1    3    3  502    0  0.15044952593E+03 -0.52359314872E+02  0.48470687813E+03  0.51021300987E+03  0.50400001928E-02 0. -1.
       -1    1    3    3    0  502 -0.15044952593E+03  0.52359314872E+02 -0.13407824061E+04  0.13502125826E+04  0.50400001928E-02 0.  1.
</event>
<event>
 5   0  0.1037321E-03  0.1636761E+04  0.7818609E-02  0.8798277E-01
        2   -1    0    0  501    0  0.00000000000E+00  0.00000000000E+00  0.80779198170E+03  0.80779198170E+03  0.25500000920E-02 0. -1.
       -2   -1    0    0    0  501  0.00000000000E+00  0.00000000000E+00 -0.82910761914E+03  0.82910761915E+03  0.25500000920E-02 0.  1.
    10030    2    1    2    0    0  0.00000000000E+00  0.00000000000E+00 -0.21315637445E+02  0.16368996009E+04  0.16367608093E+04 0.  0.
        5    1    3    3  502    0 -0.57993236070E+03  0.52812218969E+03  0.22279249284E+03  0.81540982033E+03  0.46999998093E+01 0.  1.
       -5    1    3    3    0  502  0.57993236070E+03 -0.52812218969E+03 -0.24410813028E+03  0.82148978052E+03  0.46999998093E+01 0. -1.
</event>
<event>
 5   0  0.1000121E-03  0.1625713E+04  0.7818609E-02  0.8804905E-01
       -2   -1    0    0    0  501  0.00000000000E+00  0.00000000000E+00  0.71534547405E+03  0.71534547406E+03  0.25500000920E-02 0.  1.
        2   -1    0    0  501    0  0.00000000000E+00  0.00000000000E+00 -0.92365977012E+03  0.92365977013E+03  0.25500000920E-02 0. -1.
    10030    2    1    2    0    0  0.00000000000E+00  0.00000000000E+00 -0.20831429607E+03  0.16390052442E+04  0.16257131803E+04 0.  0.
        4    1    3    3  502    0  0.62571222130E+03  0.32623092286E+03 -0.51093070347E+03  0.87120272931E+03  0.12699999809E+01 0. -1.
       -4    1    3    3    0  502 -0.62571222130E+03 -0.32623092286E+03  0.30261640739E+03  0.76780251487E+03  0.12699999809E+01 0.  1.
</event>
<event>
 5   0  0.1057872E-03  0.1625014E+04  0.7818609E-02  0.8805327E-01
       -2   -1    0    0    0  501  0.00000000000E+00  0.00000000000E+00  0.12469458368E+04  0.12469458368E+04  0.25500000920E-02 0. -1.
        2   -1    0    0  501    0  0.00000000000E+00  0.00000000000E+00 -0.52942772095E+03  0.52942772096E+03  0.25500000920E-02 0.  1.
    10030    2    1    2    0    0  0.00000000000E+00  0.00000000000E+00  0.71751811581E+03  0.17763735577E+04  0.16250140830E+04 0.  0.
        2    1    3    3  502    0  0.39831388147E+03 -0.60696759932E+03  0.75757531288E+03  0.10492778324E+04  0.25500000920E-02 0. -1.
       -2    1    3    3    0  502 -0.39831388147E+03  0.60696759932E+03 -0.40057197067E+02  0.72709572536E+03  0.25500000920E-02 0.  1.
</event>
<event>
 5   0  0.1037321E-03  0.1631124E+04  0.7818609E-02  0.8801652E-01
        2   -1    0    0  501    0  0.00000000000E+00  0.00000000000E+00  0.85644614938E+03  0.85644614939E+03  0.25500000920E-02 0.  1.
       -2   -1    0    0    0  501  0.00000000000E+00  0.00000000000E+00 -0.77662962942E+03  0.77662962943E+03  0.25500000920E-02 0. -1.
    10030    2    1    2    0    0  0.00000000000E+00  0.00000000000E+00  0.79816519958E+02  0.16330757788E+04  0.16311240978E+04 0.  0.
        5    1    3    3  502    0 -0.33525966567E+03  0.43250018018E+03  0.64533331066E+03  0.84612801699E+03  0.46999998093E+01 0.  1.
       -5    1    3    3    0  502  0.33525966567E+03 -0.43250018018E+03 -0.56551679070E+03  0.78694776183E+03  0.46999998093E+01 0. -1.
</event>
<event>
 5   0  0.1037321E-03  0.1580502E+04  0.7818609E-02  0.8832616E-01
        2   -1    0    0  501    0  0.00000000000E+00  0.00000000000E+00  0.70836135211E+03  0.70836135212E+03  0.25500000920E-02 0. -1.
       -2   -1    0    0    0  501  0.00000000000E+00  0.00000000000E+00 -0.88160800170E+03  0.88160800170E+03  0.25500000920E-02 0.  1.
    10030    2    1    2    0    0  0.00000000000E+00  0.00000000000E+00 -0.17324664959E+03  0.15899693538E+04  0.15805024975E+04 0.  0.
        5    1    3    3  502    0  0.13417202730E+03  0.19560336479E+03  0.67169023175E+03  0.71235712016E+03  0.46999998093E+01 0. -1.
       -5    1    3    3    0  502 -0.13417202730E+03 -0.19560336479E+03 -0.84493688133E+03  0.87761223366E+03  0.46999998093E+01 0.  1.
</event>
<event>
 5   0  0.5281116E-04  0.1007686E+04  0.7818609E-02  0.9300155E-01
       -1   -1    0    0    0  501  0.00000000000E+00  0.00000000000E+00  0.16528537748E+03  0.16528537755E+03  0.50400001928E-02 0.  1.
        1   -1    0    0  501    0  0.00000000000E+00  0.00000000000E+00 -0.15358754472E+04  0.15358754472E+04  0.50400001928E-02 0. -1.
    10030    2    1    2    0    0  0.00000000000E+00  0.00000000000E+00 -0.13705900697E+04  0.17011608248E+04  0.10076859692E+04 0.  0.
        2    1    3    3  502    0 -0.35843733415E+03  0.20328133915E+03 -0.19584604739E+03  0.45624149268E+03  0.25500000920E-02 0.  1.
       -2    1    3    3    0  502  0.35843733415E+03 -0.20328133915E+03 -0.11747440223E+04  0.12449193321E+04  0.25500000920E-02 0. -1.
</event>
<event>
 5   0  0.5281116E-04  0.1600161E+04  0.7818609E-02  0.8820449E-01
       -1   -1    0    0    0  501  0.00000000000E+00  0.00000000000E+00  0.40487167905E+03  0.40487167908E+03  0.50400001928E-02 0. -1.
        1   -1    0    0  501    0  0.00000000000E+00  0.00000000000E+00 -0.15810664281E+04  0.15810664281E+04  0.50400001928E-02 0.  1.
    10030    2    1    2    0    0  0.00000000000E+00  0.00000000000E+00 -0.11761947490E+04  0.19859381072E+04  0.16001612662E+04 0.  0.
        2    1    3    3  502    0 -0.31708734798E+02 -0.11113951826E+03 -0.15706517744E+04  0.15748982293E+04  0.25500000920E-02 0.  1.
       -2    1    3    3    0  502  0.31708734798E+02  0.11113951826E+03  0.39445702531E+03  0.41103987787E+03  0.25500000920E-02 0. -1.
</event>
<event>
 5   0  0.3832500E-04  0.1575425E+04  0.7818609E-02  0.8835789E-01
       -4   -1    0    0    0  501  0.00000000000E+00  0.00000000000E+00  0.64725792849E+03  0.64725917443E+03  0.12699999809E+01 0.  1.
        4   -1    0    0  501    0  0.00000000000E+00  0.00000000000E+00 -0.95864300013E+03  0.95864384137E+03  0.12699999809E+01 0. -1.
    10030    2    1    2    0    0  0.00000000000E+00  0.00000000000E+00 -0.31138507165E+03  0.16059030158E+04  0.15754249691E+04 0.  0.
        4    1    3    3  502    0 -0.38768648070E+03  0.55638149622E+03  0.25284545003E+03  0.72373587113E+03  0.12699999809E+01 0. -1.
       -4    1    3    3    0  502  0.38768648070E+03 -0.55638149622E+03 -0.56423052167E+03  0.88216714468E+03  0.12699999809E+01 0.  1.
</event>
<event>
 5   0  0.5425525E-04  0.1610595E+04  0.7818609E-02  0.8814065E-01
        1   -1    0    0  501    0  0.00000000000E+00  0.00000000000E+00  0.86167742438E+03  0.86167742439E+03  0.50400001928E-02 0.  1.
       -1   -1    0    0    0  501  0.00000000000E+00  0.00000000000E+00 -0.75260675145E+03  0.75260675147E+03  0.50400001928E-02 0. -1.
    10030    2    1    2    0    0  0.00000000000E+00  0.00000000000E+00  0.10907067292E+03  0.16142841759E+04  0.16105952281E+04 0.  0.
        5    1    3    3  502    0 -0.71099782808E+03 -0.15674425712E+03 -0.29033921552E+03  0.78384030500E+03  0.46999998093E+01 0. -1.
       -5    1    3    3    0  502  0.71099782808E+03  0.15674425712E+03  0.39940988844E+03  0.83044387087E+03  0.46999998093E+01 0.  1.
</event>
<event>
 5   0  0.9844690E-04  0.1610974E+04  0.7818609E-02  0.8813834E-01
        2   -1    0    0  501    0  0.00000000000E+00  0.00000000000E+00  0.11301000881E+04  0.11301000881E+04  0.25500000920E-02 0.  1.
       -2   -1    0    0    0  501  0.00000000000E+00  0.00000000000E+00 -0.57411676852E+03  0.57411676853E+03  0.25500000920E-02 0. -1.
    10030    2    1    2    0    0  0.00000000000E+00  0.00000000000E+00  0.55598331955E+03  0.17042168566E+04  0.16109741285E+04 0.  0.
        3    1    3    3  502    0  0.59539789278E+03 -0.19764555397E+03  0.81245337483E+03  0.10264710966E+04  0.10100000352E+00 0.  1.
       -3    1    3    3    0  502 -0.59539789278E+03  0.19764555397E+03 -0.25647005528E+03  0.67774575999E+03  0.10100000352E+00 0. -1.
</event>
<event>
 5   0  0.5288658E-04  0.1608414E+04  0.7818609E-02  0.8815396E-01
       -1   -1    0    0    0  501  0.00000000000E+00  0.00000000000E+00  0.53368414665E+03  0.53368414668E+03  0.50400001928E-02 0.  1.
        1   -1    0    0  501    0  0.00000000000E+00  0.00000000000E+00 -0.12118564646E+04  0.12118564646E+04  0.50400001928E-02 0. -1.
    10030    2    1    2    0    0  0.00000000000E+00  0.00000000000E+00 -0.67817231795E+03  0.17455406113E+04  0.16084136075E+04 0.  0.
        1    1    3    3  502    0 -0.47738384227E+03 -0.19662521096E+03  0.33007939698E+03  0.61278806677E+03  0.50400001928E-02 0.  1.
       -1    1    3    3    0  502  0.47738384227E+03  0.19662521096E+03 -0.10082517149E+04  0.11327525445E+04  0.50400001928E-02 0. -1.
</event>
<event>
 5   0  0.5281116E-04  0.1610502E+04  0.7818609E-02  0.8814122E-01
       -1   -1    0    0    0  501  0.00000000000E+00  0.00000000000E+00  0.86956572616E+03  0.86956572618E+03  0.50400001928E-02 0. -1.
        1   -1    0    0  501    0  0.00000000000E+00  0.00000000000E+00 -0.74569337110E+03  0.74569337112E+03  0.50400001928E-02 0.  1.
    10030    2    1    2    0    0  0.00000000000E+00  0.00000000000E+00  0.12387235506E+03  0.16152590973E+04  0.16105022791E+04 0.  0.
        2    1    3    3  502    0 -0.71336053223E+03  0.24033733172E+03  0.34876007530E+03  0.82962574218E+03  0.25500000920E-02 0.  1.
       -2    1    3    3    0  502  0.71336053223E+03 -0.24033733172E+03 -0.22488772024E+03  0.78563335512E+03  0.25500000920E-02 0. -1.
</event>
<event>
 5   0  0.5425525E-04  0.1587069E+04  0.7818609E-02  0.8828531E-01
       -1   -1    0    0    0  501  0.00000000000E+00  0.00000000000E+00  0.52461928438E+03  0.52461928440E+03  0.50400001928E-02 0. -1.
        1   -1    0    0  501    0  0.00000000000E+00  0.00000000000E+00 -0.12002937131E+04  0.12002937131E+04  0.50400001928E-02 0.  1.
    10030    2    1    2    0    0  0.00000000000E+00  0.00000000000E+00 -0.67567442872E+03  0.17249129975E+04  0.15870692850E+04 0.  0.
        5    1    3    3  502    0 -0.87881862987E+02  0.10715942259E+03  0.51134919614E+03  0.52981737805E+03  0.46999998093E+01 0. -1.
       -5    1    3    3    0  502  0.87881862987E+02 -0.10715942259E+03 -0.11870236249E+04  0.11950956195E+04  0.46999998093E+01 0.  1.
</event>
<event>
 5   0  0.1057872E-03  0.1629180E+04  0.7818609E-02  0.8802819E-01
        2   -1    0    0  501    0  0.00000000000E+00  0.00000000000E+00  0.13687632062E+04  0.13687632062E+04  0.25500000920E-02 0.  1.
       -2   -1    0    0    0  501  0.00000000000E+00  0.00000000000E+00 -0.48478577553E+03  0.48478577554E+03  0.25500000920E-02 0. -1.
    10030    2    1    2    0    0  0.00000000000E+00  0.00000000000E+00  0.88397743068E+03  0.18535489817E+04  0.16291800790E+04 0.  0.
        2    1    3    3  502    0 -0.40855889947E+03 -0.53023091540E+03  0.97013020304E+03  0.11786508426E+04  0.25500000920E-02 0.  1.
       -2    1    3    3    0  502  0.40855889947E+03  0.53023091540E+03 -0.86152772362E+02  0.67489813911E+03  0.25500000920E-02 0. -1.
</event>
<event>
 5   0  0.1000121E-03  0.1250136E+04  0.7818609E-02  0.9070070E-01
       -2   -1    0    0    0  501  0.00000000000E+00  0.00000000000E+00  0.21699154150E+03  0.21699154152E+03  0.25500000920E-02 0.  1.
        2   -1    0    0  501    0  0.00000000000E+00  0.00000000000E+00 -0.18005758734E+04  0.18005758734E+04  0.25500000920E-02 0. -1.
    10030    2    1    2    0    0  0.00000000000E+00  0.00000000000E+00 -0.15835843319E+04  0.20175674150E+04  0.12501355677E+04 0.  0.
        4    1    3    3  502    0 -0.51141703669E+03 -0.34003195443E+03 -0.60400568025E+03  0.86139049805E+03  0.12699999809E+01 0.  1.
       -4    1    3    3    0  502  0.51141703669E+03  0.34003195443E+03 -0.97957865168E+03  0.11561769169E+04  0.12699999809E+01 0. -1.
</event>
<event>
 5   0  0.5623061E-04  0.1479984E+04  0.7818609E-02  0.8897873E-01
       -1   -1    0    0    0  501  0.00000000000E+00  0.00000000000E+00  0.44216199758E+03  0.44216199761E+03  0.50400001928E-02 0.  1.
        1   -1    0    0  501    0  0.00000000000E+00  0.00000000000E+00 -0.12384333243E+04  0.12384333244E+04  0.50400001928E-02 0. -1.
    10030    2    1    2    0    0  0.00000000000E+00  0.00000000000E+00 -0.79627132676E+03  0.16805953220E+04  0.14799839899E+04 0.  0.
        3    1    3    3  502    0  0.58722595797E+03 -0.35439281108E+03 -0.82707126062E+02  0.69084663215E+03  0.10100000352E+00 0.  1.
       -3    1    3    3    0  502 -0.58722595797E+03  0.35439281108E+03 -0.71356420070E+03  0.98974868981E+03  0.10100000352E+00 0. -1.
</event>
<event>
 5   0  0.1057872E-03  0.1602855E+04  0.7818609E-02  0.8818796E-01
       -2   -1    0    0    0  501  0.00000000000E+00  0.00000000000E+00  0.89928361947E+03  0.89928361948E+03  0.25500000920E-02 0.  1.
        2   -1    0    0  501    0  0.00000000000E+00  0.00000000000E+00 -0.71421963270E+03  0.71421963271E+03  0.25500000920E-02 0. -1.
    10030    2    1    2    0    0  0.00000000000E+00  0.00000000000E+00  0.18506398677E+03  0.16135032522E+04  0.16028549734E+04 0.  0.
        2    1    3    3  502    0 -0.39543971375E+03  0.13965931897E+03 -0.59494623402E+03  0.72789993403E+03  0.25500000920E-02 0. -1.
       -2    1    3    3    0  502  0.39543971375E+03 -0.13965931897E+03  0.78001022079E+03  0.88560331815E+03  0.25500000920E-02 0.  1.
</event>
<event>
 5   0  0.5425525E-04  0.1542147E+04  0.7818609E-02  0.8856899E-01
       -1   -1    0    0    0  501  0.00000000000E+00  0.00000000000E+00  0.56407652115E+03  0.56407652117E+03  0.50400001928E-02 0. -1.
        1   -1    0    0  501    0  0.00000000000E+00  0.00000000000E+00 -0.10540319549E+04  0.10540319549E+04  0.50400001928E-02 0.  1.
    10030    2    1    2    0    0  0.00000000000E+00  0.00000000000E+00 -0.48995543372E+03  0.16181084761E+04  0.15421474356E+04 0.  0.
        5    1    3    3  502    0 -0.57134469793E+03 -0.51642583928E+03 -0.28426781883E+03  0.82095109120E+03  0.46999998093E+01 0.  1.
       -5    1    3    3    0  502  0.57134469793E+03  0.51642583928E+03 -0.20568761489E+03  0.79715738486E+03  0.46999998093E+01 0. -1.
</event>
<event>
 5   0  0.3832500E-04  0.1592586E+04  0.7818609E-02  0.8825116E-01
       -3   -1    0    0    0  501  0.00000000000E+00  0.00000000000E+00  0.83854842346E+03  0.83854842954E+03  0.10100000352E+00 0.  1.
        3   -1    0    0  501    0  0.00000000000E+00  0.00000000000E+00 -0.75616643428E+03  0.75616644103E+03  0.10100000352E+00 0. -1.
    10030    2    1    2    0    0  0.00000000000E+00  0.00000000000E+00  0.82381989173E+02  0.15947148706E+04  0.15925855476E+04 0.  0.
        1    1    3    3  502    0  0.40878784261E+02  0.16731479156E+03  0.81967296976E+03  0.83757333521E+03  0.50400001928E-02 0.  1.
       -1    1    3    3    0  502 -0.40878784261E+02 -0.16731479156E+03 -0.73729098059E+03  0.75714153536E+03  0.50400001928E-02 0. -1.
</event>
<event>
 5   0  0.5532881E-04  0.1650830E+04  0.7818609E-02  0.8789916E-01
       -1   -1    0    0    0  501  0.00000000000E+00  0.00000000000E+00  0.11766304999E+04  0.11766304999E+04  0.50400001928E-02 0.  1.
        1   -1    0    0  501    0  0.00000000000E+00  0.00000000000E+00 -0.57903450479E+03  0.57903450481E+03  0.50400001928E-02 0. -1.
    10030    2    1    2    0    0  0.00000000000E+00  0.00000000000E+00  0.59759599507E+03  0.17556650047E+04  0.16508296809E+04 0.  0.
        4    1    3    3  502    0  0.71603909516E+02  0.26204541864E+03 -0.53013077849E+03  0.59568043151E+03  0.12699999809E+01 0. -1.
       -4    1    3    3    0  502 -0.71603909516E+02 -0.26204541864E+03  0.11277267736E+04  0.11599845732E+04  0.12699999809E+01 0.  1.
</event>
<event>
 5   0  0.5281116E-04  0.1626264E+04  0.7818609E-02  0.8804574E-01
       -1   -1    0    0    0  501  0.00000000000E+00  0.00000000000E+00  0.17847364191E+04  0.17847364191E+04  0.50400001928E-02 0.  1.
        1   -1    0    0  501    0  0.00000000000E+00  0.00000000000E+00 -0.37046570206E+03  0.37046570209E+03  0.50400001928E-02 0. -1.
    10030    2    1    2    0    0  0.00000000000E+00  0.00000000000E+00  0.14142707171E+04  0.21552021212E+04  0.16262639768E+04 0.  0.
        2    1    3    3  502    0 -0.79212097357E+03  0.13203837903E+03  0.87629975245E+03  0.11886088618E+04  0.25500000920E-02 0. -1.
       -2    1    3    3    0  502  0.79212097357E+03 -0.13203837903E+03  0.53797096462E+03  0.96659325938E+03  0.25500000920E-02 0.  1.
</event>
<event>
 5   0  0.5425525E-04  0.1580521E+04  0.7818609E-02  0.8832605E-01
        1   -1    0    0  501    0  0.00000000000E+00  0.00000000000E+00  0.94104648747E+03  0.94104648749E+03  0.50400001928E-02 0. -1.
       -1   -1    0    0    0  501  0.00000000000E+00  0.00000000000E+00 -0.66363507438E+03  0.66363507440E+03  0.50400001928E-02 0.  1.
    10030    2    1    2    0    0  0.00000000000E+00  0.00000000000E+00  0.27741141310E+03  0.16046815619E+04  0.15805207442E+04 0.  0.
        5    1    3    3  502    0 -0.61905133550E+02  0.30609194319E+02  0.93796277816E+03  0.94051338723E+03  0.46999998093E+01 0. -1.
       -5    1    3    3    0  502  0.61905133550E+02 -0.30609194319E+02 -0.66055136507E+03  0.66416817466E+03  0.46999998093E+01 0.  1.
</event>
<event>
 5   0  0.5288658E-04  0.1573415E+04  0.7818609E-02  0.8837049E-01
        1   -1    0    0  501    0  0.00000000000E+00  0.00000000000E+00  0.19383224472E+04  0.19383224472E+04  0.50400001928E-02 0. -1.
       -1   -1    0    0    0  501  0.00000000000E+00  0.00000000000E+00 -0.31930128644E+03  0.31930128648E+03  0.50400001928E-02 0.  1.
    10030    2    1    2    0    0  0.00000000000E+00  0.00000000000E+00  0.16190211608E+04  0.22576237337E+04  0.15734152039E+04 0.  0.
        1    1    3    3  502    0  0.20406045974E+03  0.36319731775E+03 -0.14804020952E+03  0.44211861135E+03  0.50400001928E-02 0.  1.
       -1    1    3    3    0  502 -0.20406045974E+03 -0.36319731775E+03  0.17670613703E+04  0.18155051223E+04  0.50400001928E-02 0. -1.
</event>
<event>
 5   0  0.9844690E-04  0.1597637E+04  0.7818609E-02  0.8822001E-01
       -2   -1    0    0    0  501  0.00000000000E+00  0.00000000000E+00  0.26030534736E+03  0.26030534737E+03  0.25500000920E-02 0. -1.
        2   -1    0    0  501    0  0.00000000000E+00  0.00000000000E+00 -0.24513945758E+04  0.24513945758E+04  0.25500000920E-02 0.  1.
    10030    2    1    2    0    0  0.00000000000E+00  0.00000000000E+00 -0.21910892285E+04  0.27116999232E+04  0.15976371510E+04 0.  0.
        3    1    3    3  502    0  0.12763373557E+03 -0.63529003680E+03 -0.18884438927E+04  0.19965230145E+04  0.10100000352E+00 0.  1.
       -3    1    3    3    0  502 -0.12763373557E+03  0.63529003680E+03 -0.30264533580E+03  0.71517690874E+03  0.10100000352E+00 0. -1.
</event>
<event>
 5   0  0.9844690E-04  0.1412970E+04  0.7818609E-02  0.8944483E-01
       -2   -1    0    0    0  501  0.00000000000E+00  0.00000000000E+00  0.47890377790E+03  0.47890377790E+03  0.25500000920E-02 0.  1.
        2   -1    0    0  501    0  0.00000000000E+00  0.00000000000E+00 -0.10422155102E+04  0.10422155102E+04  0.25500000920E-02 0. -1.
    10030    2    1    2    0    0  0.00000000000E+00  0.00000000000E+00 -0.56331173226E+03  0.15211192881E+04  0.14129698443E+04 0.  0.
        3    1    3    3  502    0  0.56018743235E+03  0.42033004722E+03 -0.18162661392E+03  0.72351609868E+03  0.10100000352E+00 0.  1.
       -3    1    3    3    0  502 -0.56018743235E+03 -0.42033004722E+03 -0.38168511833E+03  0.79760318938E+03  0.10100000352E+00 0. -1.
</event>
<event>
 5   0  0.5425525E-04  0.1624397E+04  0.7818609E-02  0.8805699E-01
       -1   -1    0    0    0  501  0.00000000000E+00  0.00000000000E+00  0.12464206677E+04  0.12464206677E+04  0.50400001928E-02 0. -1.
        1   -1    0    0  501    0  0.00000000000E+00  0.00000000000E+00 -0.52924831468E+03  0.52924831470E+03  0.50400001928E-02 0.  1.
    10030    2    1    2    0    0  0.00000000000E+00  0.00000000000E+00  0.71717235305E+03  0.17756689824E+04  0.16243965499E+04 0.  0.
        5    1    3    3  502    0 -0.39409610728E+03  0.58124137491E+03 -0.87444676288E+02  0.70768774123E+03  0.46999998093E+01 0.  1.
       -5    1    3    3    0  502  0.39409610728E+03 -0.58124137491E+03  0.80461702934E+03  0.10679812412E+04  0.46999998093E+01 0. -1.
</event>
<event>
 5   0  0.5623061E-04  0.1623904E+04  0.7818609E-02  0.8805996E-01
       -1   -1    0    0    0  501  0.00000000000E+00  0.00000000000E+00  0.12248105350E+04  0.12248105350E+04  0.50400001928E-02 0.  1.
        1   -1    0    0  501    0  0.00000000000E+00  0.00000000000E+00 -0.53825941487E+03  0.53825941489E+03  0.50400001928E-02 0. -1.
    10030    2    1    2    0    0  0.00000000000E+00  0.00000000000E+00  0.68655112012E+03  0.17630699499E+04  0.16239036941E+04 0.  0.
        3    1    3    3  502    0 -0.60105650186E+03 -0.11989818451E+03 -0.23492524784E+03  0.65637974935E+03  0.10100000352E+00 0. -1.
       -3    1    3    3    0  502  0.60105650186E+03  0.11989818451E+03  0.92147636796E+03  0.11066902005E+04  0.10100000352E+00 0.  1.
</event>
<event>
 5   0  0.5623061E-04  0.1570807E+04  0.7818609E-02  0.8838686E-01
        1   -1    0    0  501    0  0.00000000000E+00  0.00000000000E+00  0.13446755422E+04  0.13446755422E+04  0.50400001928E-02 0.  1.
       -1   -1    0    0    0  501  0.00000000000E+00  0.00000000000E+00 -0.45874150741E+03  0.45874150743E+03  0.50400001928E-02 0. -1.
    10030    2    1    2    0    0  0.00000000000E+00  0.00000000000E+00  0.88593403479E+03  0.18034170496E+04  0.15708067803E+04 0.  0.
        3    1    3    3  502    0 -0.56347792199E+03  0.11386405791E+03 -0.17143036762E+03  0.59988396661E+03  0.10100000352E+00 0.  1.
       -3    1    3    3    0  502  0.56347792199E+03 -0.11386405791E+03  0.10573644024E+04  0.12035330830E+04  0.10100000352E+00 0. -1.
</event>
<event>
 5   0  0.1057872E-03  0.1574376E+04  0.7818609E-02  0.8836446E-01
        2   -1    0    0  501    0  0.00000000000E+00  0.00000000000E+00  0.14876720325E+04  0.14876720326E+04  0.25500000920E-02 0.  1.
       -2   -1    0    0    0  501  0.00000000000E+00  0.00000000000E+00 -0.41653354135E+03  0.41653354136E+03  0.25500000920E-02 0. -1.
    10030    2    1    2    0    0  0.00000000000E+00  0.00000000000E+00  0.10711384912E+04  0.19042055739E+04  0.15743764481E+04 0.  0.
        2    1    3    3  502    0 -0.24002810240E+03  0.53841648768E+03  0.11665512796E+04  0.13070377547E+04  0.25500000920E-02 0.  1.
       -2    1    3    3    0  502  0.24002810240E+03 -0.53841648768E+03 -0.95412788417E+02  0.59716781925E+03  0.25500000920E-02 0. -1.
</event>
<event>
 5   0  0.1057872E-03  0.1590649E+04  0.7818609E-02  0.8826313E-01
       -2   -1    0    0    0  501  0.00000000000E+00  0.00000000000E+00  0.44480653577E+03  0.44480653578E+03  0.25500000920E-02 0.  1.
        2   -1    0    0  501    0  0.00000000000E+00  0.00000000000E+00 -0.14220584401E+04  0.14220584401E+04  0.25500000920E-02 0. -1.
    10030    2    1    2    0    0  0.00000000000E+00  0.00000000000E+00 -0.97725190434E+03  0.18668649759E+04  0.15906487839E+04 0.  0.
        2    1    3    3  502    0  0.12232888213E+02 -0.49103347384E+02  0.44291516276E+03  0.44579661695E+03  0.25500000920E-02 0.  1.
       -2    1    3    3    0  502 -0.12232888213E+02  0.49103347384E+02 -0.14201670671E+04  0.14210683589E+04  0.25500000920E-02 0. -1.
</event>
<event>
 5   0  0.5532881E-04  0.1579152E+04  0.7818609E-02  0.8833459E-01
        1   -1    0    0  501    0  0.00000000000E+00  0.00000000000E+00  0.62788702773E+03  0.62788702775E+03  0.50400001928E-02 0. -1.
       -1   -1    0    0    0  501  0.00000000000E+00  0.00000000000E+00 -0.99290142073E+03  0.99290142074E+03  0.50400001928E-02 0.  1.
    10030    2    1    2    0    0  0.00000000000E+00  0.00000000000E+00 -0.36501439300E+03  0.16207884485E+04  0.15791515721E+04 0.  0.
        4    1    3    3  502    0  0.67236640613E+03  0.29866799585E+03  0.11166665138E+03  0.74414394426E+03  0.12699999809E+01 0.  1.
       -4    1    3    3    0  502 -0.67236640613E+03 -0.29866799585E+03 -0.47668104438E+03  0.87664450424E+03  0.12699999809E+01 0. -1.
</event>
<event>
 5   0  0.1030027E-03  0.1569891E+04  0.7818609E-02  0.8839261E-01
       -2   -1    0    0    0  501  0.00000000000E+00  0.00000000000E+00  0.33862403130E+03  0.33862403131E+03  0.25500000920E-02 0. -1.
        2   -1    0    0  501    0  0.00000000000E+00  0.00000000000E+00 -0.18195389956E+04  0.18195389956E+04  0.25500000920E-02 0.  1.
    10030    2    1    2    0    0  0.00000000000E+00  0.00000000000E+00 -0.14809149643E+04  0.21581630269E+04  0.15698912444E+04 0.  0.
        1    1    3    3  502    0  0.76416346610E+03  0.12031760850E+03 -0.55747230929E+03  0.95351848723E+03  0.50400001928E-02 0.  1.
       -1    1    3    3    0  502 -0.76416346610E+03 -0.12031760850E+03 -0.92344265497E+03  0.12046445396E+04  0.50400001928E-02 0. -1.
</event>
<event>
 5   0  0.3832500E-04  0.1568130E+04  0.7818609E-02  0.8840370E-01
       -3   -1    0    0    0  501  0.00000000000E+00  0.00000000000E+00  0.58361986747E+03  0.58361987621E+03  0.10100000352E+00 0.  1.
        3   -1    0    0  501    0  0.00000000000E+00  0.00000000000E+00 -0.10533527110E+04  0.10533527158E+04  0.10100000352E+00 0. -1.
    10030    2    1    2    0    0  0.00000000000E+00  0.00000000000E+00 -0.46973284348E+03  0.16369725920E+04  0.15681295618E+04 0.  0.
        4    1    3    3  502    0  0.53135972356E+03  0.56846003594E+03 -0.13438041172E+03  0.78965161701E+03  0.12699999809E+01 0.  1.
       -4    1    3    3    0  502 -0.53135972356E+03 -0.56846003594E+03 -0.33535243176E+03  0.84732097500E+03  0.12699999809E+01 0. -1.
</event>
<event>
 5   0  0.1037321E-03  0.1344973E+04  0.7818609E-02  0.8994643E-01
       -2   -1    0    0    0  501  0.00000000000E+00  0.00000000000E+00  0.17048549962E+03  0.17048549964E+03  0.25500000920E-02 0.  1.
        2   -1    0    0  501    0  0.00000000000E+00  0.00000000000E+00 -0.26526467334E+04  0.26526467334E+04  0.25500000920E-02 0. -1.
    10030    2    1    2    0    0  0.00000000000E+00  0.00000000000E+00 -0.24821612338E+04  0.28231322330E+04  0.13449725702E+04 0.  0.
        5    1    3    3  502    0  0.55551928960E+03  0.88921675918E+02 -0.20143287270E+04  0.20914232130E+04  0.46999998093E+01 0. -1.
       -5    1    3    3    0  502 -0.55551928960E+03 -0.88921675918E+02 -0.46783250678E+03  0.73170902001E+03  0.46999998093E+01 0.  1.
</event>
<event>
 5   0  0.1037321E-03  0.1685818E+04  0.7818609E-02  0.8769495E-01
        2   -1    0    0  501    0  0.00000000000E+00  0.00000000000E+00  0.92146229157E+03  0.92146229157E+03  0.25500000920E-02 0. -1.
       -2   -1    0    0    0  501  0.00000000000E+00  0.00000000000E+00 -0.77105199886E+03  0.77105199887E+03  0.25500000920E-02 0.  1.
    10030    2    1    2    0    0  0.00000000000E+00  0.00000000000E+00  0.15041029271E+03  0.16925142904E+04  0.16858177147E+04 0.  0.
        5    1    3    3  502    0  0.43832095593E+03 -0.30258234125E+03 -0.58068306416E+03  0.78796969779E+03  0.46999998093E+01 0. -1.
       -5    1    3    3    0  502 -0.43832095593E+03  0.30258234125E+03  0.73109335687E+03  0.90454459265E+03  0.46999998093E+01 0.  1.
</event>
<event>
 5   0  0.1057872E-03  0.1611974E+04  0.7818609E-02  0.8813226E-01
       -2   -1    0    0    0  501  0.00000000000E+00  0.00000000000E+00  0.41723239649E+03  0.41723239649E+03  0.25500000920E-02 0.  1.
        2   -1    0    0  501    0  0.00000000000E+00  0.00000000000E+00 -0.15569616716E+04  0.15569616716E+04  0.25500000920E-02 0. -1.
    10030    2    1    2    0    0  0.00000000000E+00  0.00000000000E+00 -0.11397292751E+04  0.19741940681E+04  0.16119737584E+04 0.  0.
        2    1    3    3  502    0  0.69094633087E+03 -0.33798410406E+03 -0.86474874349E+03  0.11573376673E+04  0.25500000920E-02 0. -1.
       -2    1    3    3    0  502 -0.69094633087E+03  0.33798410406E+03 -0.27498053160E+03  0.81685640078E+03  0.25500000920E-02 0.  1.
</event>
<event>
 5   0  0.5425525E-04  0.1608315E+04  0.7818609E-02  0.8815456E-01
        1   -1    0    0  501    0  0.00000000000E+00  0.00000000000E+00  0.10776406128E+04  0.10776406128E+04  0.50400001928E-02 0. -1.
       -1   -1    0    0    0  501  0.00000000000E+00  0.00000000000E+00 -0.60007891744E+03  0.60007891746E+03  0.50400001928E-02 0.  1.
    10030    2    1    2    0    0  0.00000000000E+00  0.00000000000E+00  0.47756169534E+03  0.16777195302E+04  0.16083151586E+04 0.  0.
        5    1    3    3  502    0  0.94993543671E+02  0.52020562140E+03 -0.39317531435E+03  0.65897388392E+03  0.46999998093E+01 0.  1.
       -5    1    3    3    0  502 -0.94993543671E+02 -0.52020562140E+03  0.87073700968E+03  0.10187456463E+04  0.46999998093E+01 0. -1.
</event>
<event>
 5   0  0.9844690E-04  0.1578519E+04  0.7818609E-02  0.8833855E-01
       -2   -1    0    0    0  501  0.00000000000E+00  0.00000000000E+00  0.34810184336E+03  0.34810184337E+03  0.25500000920E-02 0. -1.
        2   -1    0    0  501    0  0.00000000000E+00  0.00000000000E+00 -0.17895055423E+04  0.17895055423E+04  0.25500000920E-02 0.  1.
    10030    2    1    2    0    0  0.00000000000E+00  0.00000000000E+00 -0.14414036989E+04  0.21376073857E+04  0.15785185181E+04 0.  0.
        3    1    3    3  502    0  0.52335272965E+02 -0.28652493572E+03 -0.17140639731E+04  0.17386347614E+04  0.10100000352E+00 0.  1.
       -3    1    3    3    0  502 -0.52335272965E+02  0.28652493572E+03  0.27266027416E+03  0.39897262424E+03  0.10100000352E+00 0. -1.
</event>
<event>
 5   0  0.5623061E-04  0.1649331E+04  0.7818609E-02  0.8790802E-01
        1   -1    0    0  501    0  0.00000000000E+00  0.00000000000E+00  0.87299452674E+03  0.87299452675E+03  0.50400001928E-02 0.  1.
       -1   -1    0    0    0  501  0.00000000000E+00  0.00000000000E+00 -0.77901219199E+03  0.77901219201E+03  0.50400001928E-02 0. -1.
    10030    2    1    2    0    0  0.00000000000E+00  0.00000000000E+00  0.93982334746E+02  0.16520067188E+04  0.16493312340E+04 0.  0.
        3    1    3    3  502    0  0.24721138357E+03  0.13361439374E+03  0.82355981527E+03  0.87018219582E+03  0.10100000352E+00 0.  1.
       -3    1    3    3    0  502 -0.24721138357E+03 -0.13361439374E+03 -0.72957748053E+03  0.78182452294E+03  0.10100000352E+00 0. -1.
</event>
<event>
 5   0  0.1000121E-03  0.1602947E+04  0.7818609E-02  0.8818740E-01
        2   -1    0    0  501    0  0.00000000000E+00  0.00000000000E+00  0.87980494737E+03  0.87980494737E+03  0.25500000920E-02 0. -1.
       -2   -1    0    0    0  501  0.00000000000E+00  0.00000000000E+00 -0.73011578879E+03  0.73011578879E+03  0.25500000920E-02 0.  1.
    10030    2    1    2    0    0  0.00000000000E+00  0.00000000000E+00  0.14968915858E+03  0.16099207362E+04  0.16029466406E+04 0.  0.
        4    1    3    3  502    0  0.67574807453E+03 -0.17776187430E+03  0.46913782094E+03  0.84162144229E+03  0.12699999809E+01 0. -1.
       -4    1    3    3    0  502 -0.67574807453E+03  0.17776187430E+03 -0.31944866236E+03  0.76829929388E+03  0.12699999809E+01 0.  1.
</event>
<event>
 5   0  0.5281116E-04  0.1588171E+04  0.7818609E-02  0.8827848E-01
        1   -1    0    0  501    0  0.00000000000E+00  0.00000000000E+00  0.63074652798E+03  0.63074652800E+03  0.50400001928E-02 0. -1.
       -1   -1    0    0    0  501  0.00000000000E+00  0.00000000000E+00 -0.99972282667E+03  0.99972282668E+03  0.50400001928E-02 0.  1.
    10030    2    1    2    0    0  0.00000000000E+00  0.00000000000E+00 -0.36897629869E+03  0.16304693547E+04  0.15881709000E+04 0.  0.
        2    1    3    3  502    0 -0.73935714719E+03 -0.27655280801E+03 -0.27304833224E+03  0.83527590559E+03  0.25500000920E-02 0.  1.
       -2    1    3    3    0  502  0.73935714719E+03  0.27655280801E+03 -0.95927966449E+02  0.79519344909E+03  0.25500000920E-02 0. -1.
</event>
<event>
 5   0  0.5288658E-04  0.1621755E+04  0.7818609E-02  0.8807293E-01
        1   -1    0    0  501    0  0.00000000000E+00  0.00000000000E+00  0.19445539056E+04  0.19445539056E+04  0.50400001928E-02 0.  1.
       -1   -1    0    0    0  501  0.00000000000E+00  0.00000000000E+00 -0.33813530378E+03  0.33813530382E+03  0.50400001928E-02 0. -1.
    10030    2    1    2    0    0  0.00000000000E+00  0.00000000000E+00  0.16064186018E+04  0.22826892094E+04  0.16217550069E+04 0.  0.
        1    1    3    3  502    0  0.37410342769E+03 -0.10245339066E+03 -0.19908777199E+03  0.43598854670E+03  0.50400001928E-02 0. -1.
       -1    1    3    3    0  502 -0.37410342769E+03  0.10245339066E+03  0.18055063738E+04  0.18467006627E+04  0.50400001928E-02 0.  1.
</event>
<event>
 5   0  0.1037321E-03  0.1615498E+04  0.7818609E-02  0.8811083E-01
        2   -1    0    0  501    0  0.00000000000E+00  0.00000000000E+00  0.14227374216E+04  0.14227374216E+04  0.25500000920E-02 0.  1.
       -2   -1    0    0    0  501  0.00000000000E+00  0.00000000000E+00 -0.45859350312E+03  0.45859350312E+03  0.25500000920E-02 0. -1.
    10030    2    1    2    0    0  0.00000000000E+00  0.00000000000E+00  0.96414391845E+03  0.18813309247E+04  0.16154976177E+04 0.  0.
        5    1    3    3  502    0  0.49846647432E+03 -0.52964460243E+03  0.89123231160E+03  0.11503518393E+04  0.46999998093E+01 0.  1.
       -5    1    3    3    0  502 -0.49846647432E+03  0.52964460243E+03  0.72911606847E+02  0.73097908541E+03  0.46999998093E+01 0. -1.
</event>
<event>
 5   0  0.5425525E-04  0.1568440E+04  0.7818609E-02  0.8840175E-01
       -1   -1    0    0    0  501  0.00000000000E+00  0.00000000000E+00  0.72259662793E+03  0.72259662795E+03  0.50400001928E-02 0.  1.
        1   -1    0    0  501    0  0.00000000000E+00  0.00000000000E+00 -0.85109813399E+03  0.85109813400E+03  0.50400001928E-02 0. -1.
    10030    2    1    2    0    0  0.00000000000E+00  0.00000000000E+00 -0.12850150606E+03  0.15736947620E+04  0.15684395324E+04 0.  0.
        5    1    3    3  502    0  0.73961534540E+02 -0.74415334561E+02 -0.84401015296E+03  0.85051935834E+03  0.46999998093E+01 0. -1.
       -5    1    3    3    0  502 -0.73961534540E+02  0.74415334561E+02  0.71550864690E+03  0.72317540362E+03  0.46999998093E+01 0.  1.
</event>
<event>
 5   0  0.9844690E-04  0.1643719E+04  0.7818609E-02  0.8794131E-01
       -2   -1    0    0    0  501  0.00000000000E+00  0.00000000000E+00  0.10746925972E+04  0.10746925972E+04  0.25500000920E-02 0.  1.
        2   -1    0    0  501    0  0.00000000000E+00  0.00000000000E+00 -0.62850849777E+03  0.62850849777E+03  0.25500000920E-02 0. -1.
    10030    2    1    2    0    0  0.00000000000E+00  0.00000000000E+00  0.44618409944E+03  0.17032010950E+04  0.16437194771E+04 0.  0.
        3    1    3    3  502    0  0.73564105740E+02  0.78544430317E+03 -0.15723788095E+02  0.78903845201E+03  0.10100000352E+00 0. -1.
       -3    1    3    3    0  502 -0.73564105740E+02 -0.78544430317E+03  0.46190788753E+03  0.91416264297E+03  0.10100000352E+00 0.  1.
</event>
<event>
 5   0  0.1030027E-03  0.1603070E+04  0.7818609E-02  0.8818664E-01
       -2   -1    0    0    0  501  0.00000000000E+00  0.00000000000E+00  0.81722736343E+03  0.81722736343E+03  0.25500000920E-02 0.  1.
        2   -1    0    0  501    0  0.00000000000E+00  0.00000000000E+00 -0.78614434831E+03  0.78614434831E+03  0.25500000920E-02 0. -1.
    10030    2    1    2    0    0  0.00000000000E+00  0.00000000000E+00  0.31083015119E+02  0.16033717117E+04  0.16030703953E+04 0.  0.
        1    1    3    3  502    0  0.16276401958E+02 -0.25957596763E+03  0.77384894892E+03  0.81638642810E+03  0.50400001928E-02 0.  1.
       -1    1    3    3    0  502 -0.16276401958E+02  0.25957596763E+03 -0.74276593380E+03  0.78698528364E+03  0.50400001928E-02 0. -1.
</event>
<event>
 5   0  0.5281116E-04  0.1588772E+04  0.7818609E-02  0.8827476E-01
        1   -1    0    0  501    0  0.00000000000E+00  0.00000000000E+00  0.13847032243E+04  0.13847032243E+04  0.50400001928E-02 0. -1.
       -1   -1    0    0    0  501  0.00000000000E+00  0.00000000000E+00 -0.45572873654E+03  0.45572873657E+03  0.50400001928E-02 0.  1.
    10030    2    1    2    0    0  0.00000000000E+00  0.00000000000E+00  0.92897448774E+03  0.18404319609E+04  0.15887719168E+04 0.  0.
        2    1    3    3  502    0  0.28774837965E+03  0.71811081064E+03  0.67353506852E+03  0.10257347390E+04  0.25500000920E-02 0.  1.
       -2    1    3    3    0  502 -0.28774837965E+03 -0.71811081064E+03  0.25543941922E+03  0.81469722182E+03  0.25500000920E-02 0. -1.
</event>
<event>
 5   0  0.5281116E-04  0.1622597E+04  0.7818609E-02  0.8806785E-01
       -1   -1    0    0    0  501  0.00000000000E+00  0.00000000000E+00  0.16091789092E+04  0.16091789092E+04  0.50400001928E-02 0. -1.
        1   -1    0    0  501    0  0.00000000000E+00  0.00000000000E+00 -0.40903157108E+03  0.40903157111E+03  0.50400001928E-02 0.  1.
    10030    2    1    2    0    0  0.00000000000E+00  0.00000000000E+00  0.12001473381E+04  0.20182104803E+04  0.16225966565E+04 0.  0.
        2    1    3    3  502    0  0.28332334680E+03 -0.75561868157E+03  0.49620752333E+03  0.94734028574E+03  0.25500000920E-02 0.  1.
       -2    1    3    3    0  502 -0.28332334680E+03  0.75561868157E+03  0.70393981479E+03  0.10708701946E+04  0.25500000920E-02 0. -1.
</event>
<event>
 5   0  0.9844690E-04  0.1614276E+04  0.7818609E-02  0.8811826E-01
        2   -1    0    0  501    0  0.00000000000E+00  0.00000000000E+00  0.15287284805E+04  0.15287284805E+04  0.25500000920E-02 0. -1.
       -2   -1    0    0    0  501  0.00000000000E+00  0.00000000000E+00 -0.42615254522E+03  0.42615254523E+03  0.25500000920E-02 0.  1.
    10030    2    1    2    0    0  0.00000000000E+00  0.00000000000E+00  0.11025759353E+04  0.19548810258E+04  0.16142757298E+04 0.  0.
        3    1    3    3  502    0  0.78353647579E+03  0.90485360513E+02  0.75876979136E+03  0.10944627065E+04  0.10100000352E+00 0. -1.
       -3    1    3    3    0  502 -0.78353647579E+03 -0.90485360513E+02  0.34380614394E+03  0.86041831929E+03  0.10100000352E+00 0.  1.
</event>
<event>
 5   0  0.9844690E-04  0.1618006E+04  0.7818609E-02  0.8809562E-01
       -2   -1    0    0    0  501  0.00000000000E+00  0.00000000000E+00  0.64603460730E+03  0.64603460730E+03  0.25500000920E-02 0.  1.
        2   -1    0    0  501    0  0.00000000000E+00  0.00000000000E+00 -0.10130822124E+04  0.10130822125E+04  0.25500000920E-02 0. -1.
    10030    2    1    2    0    0  0.00000000000E+00  0.00000000000E+00 -0.36704760515E+03  0.16591168198E+04  0.16180063897E+04 0.  0.
        3    1    3    3  502    0 -0.78471377817E+03 -0.35485956852E+02  0.14916352628E+02  0.78565735188E+03  0.10100000352E+00 0.  1.
       -3    1    3    3    0  502  0.78471377817E+03  0.35485956852E+02 -0.38196395778E+03  0.87345946788E+03  0.10100000352E+00 0. -1.
</event>
<event>
 5   0  0.5532881E-04  0.1622515E+04  0.7818609E-02  0.8806835E-01
        1   -1    0    0  501    0  0.00000000000E+00  0.00000000000E+00  0.78344053760E+03  0.78344053762E+03  0.50400001928E-02 0. -1.
       -1   -1    0    0    0  501  0.00000000000E+00  0.00000000000E+00 -0.84006182424E+03  0.84006182426E+03  0.50400001928E-02 0.  1.
    10030    2    1    2    0    0  0.00000000000E+00  0.00000000000E+00 -0.56621286642E+02  0.16235023619E+04  0.16225146991E+04 0.  0.
        4    1    3    3  502    0  0.58643310684E+03 -0.17307112385E+03 -0.56181385054E+03  0.83035764479E+03  0.12699999809E+01 0.  1.
       -4    1    3    3    0  502 -0.58643310684E+03  0.17307112385E+03  0.50519256390E+03  0.79314471708E+03  0.12699999809E+01 0. -1.
</event>
<event>
 5   0  0.5532881E-04  0.1606849E+04  0.7818609E-02  0.8816351E-01
       -1   -1    0    0    0  501  0.00000000000E+00  0.00000000000E+00  0.44504818249E+03  0.44504818252E+03  0.50400001928E-02 0.  1.
        1   -1    0    0  501    0  0.00000000000E+00  0.00000000000E+00 -0.14503851257E+04  0.14503851257E+04  0.50400001928E-02 0. -1.
    10030    2    1    2    0    0  0.00000000000E+00  0.00000000000E+00 -0.10053369432E+04  0.18954333082E+04  0.16068494194E+04 0.  0.
        4    1    3    3  502    0  0.73617795367E+03 -0.26222529618E+03 -0.72262302741E+03  0.10643804480E+04  0.12699999809E+01 0. -1.
       -4    1    3    3    0  502 -0.73617795367E+03  0.26222529618E+03 -0.28271391581E+03  0.83105286024E+03  0.12699999809E+01 0.  1.
</event>
<event>
 5   0  0.5288658E-04  0.1658652E+04  0.7818609E-02  0.8785305E-01
        1   -1    0    0  501    0  0.00000000000E+00  0.00000000000E+00  0.16482562845E+04  0.16482562845E+04  0.50400001928E-02 0.  1.
       -1   -1    0    0    0  501  0.00000000000E+00  0.00000000000E+00 -0.41727809269E+03  0.41727809272E+03  0.50400001928E-02 0. -1.
    10030    2    1    2    0    0  0.00000000000E+00  0.00000000000E+00  0.12309781919E+04  0.20655343773E+04  0.16586515471E+04 0.  0.
        1    1    3    3  502    0 -0.34681523342E+03  0.10796433079E+02 -0.32253881671E+03  0.47373901824E+03  0.50400001928E-02 0. -1.
       -1    1    3    3    0  502  0.34681523342E+03 -0.10796433079E+02  0.15535170086E+04  0.15917953590E+04  0.50400001928E-02 0.  1.
</event>
<event>
 5   0  0.5288658E-04  0.1642147E+04  0.7818609E-02  0.8795066E-01
        1   -1    0    0  501    0  0.00000000000E+00  0.00000000000E+00  0.11991620988E+04  0.11991620988E+04  0.50400001928E-02 0.  1.
       -1   -1    0    0    0  501  0.00000000000E+00  0.00000000000E+00 -0.56219365782E+03  0.56219365784E+03  0.50400001928E-02 0. -1.
    10030    2    1    2    0    0  0.00000000000E+00  0.00000000000E+00  0.63696844096E+03  0.17613557566E+04  0.16421465546E+04 0.  0.
        1    1    3    3  502    0 -0.67709302526E+03  0.35251041136E+03  0.64283120177E+03  0.99797320053E+03  0.50400001928E-02 0.  1.
       -1    1    3    3    0  502  0.67709302526E+03 -0.35251041136E+03 -0.58627608096E+01  0.76338255610E+03  0.50400001928E-02 0. -1.
</event>
<event>
 5   0  0.5281116E-04  0.1595789E+04  0.7818609E-02  0.8823139E-01
        1   -1    0    0  501    0  0.00000000000E+00  0.00000000000E+00  0.93795312704E+03  0.93795312705E+03  0.50400001928E-02 0.  1.
       -1   -1    0    0    0  501  0.00000000000E+00  0.00000000000E+00 -0.67875006494E+03  0.67875006496E+03  0.50400001928E-02 0. -1.
    10030    2    1    2    0    0  0.00000000000E+00  0.00000000000E+00  0.25920306210E+03  0.16167031920E+04  0.15957891413E+04 0.  0.
        2    1    3    3  502    0  0.71644215734E+03  0.19011611331E+03  0.42877193100E+03  0.85631703835E+03  0.25500000920E-02 0.  1.
       -2    1    3    3    0  502 -0.71644215734E+03 -0.19011611331E+03 -0.16956886890E+03  0.76038615365E+03  0.25500000920E-02 0. -1.
</event>
<event>
 5   0  0.5425525E-04  0.1634336E+04  0.7818609E-02  0.8799727E-01
        1   -1    0    0  501    0  0.00000000000E+00  0.00000000000E+00  0.59333812833E+03  0.59333812835E+03  0.50400001928E-02 0. -1.
       -1   -1    0    0    0  501  0.00000000000E+00  0.00000000000E+00 -0.11254356572E+04  0.11254356572E+04  0.50400001928E-02 0.  1.
    10030    2    1    2    0    0  0.00000000000E+00  0.00000000000E+00 -0.53209752883E+03  0.17187737855E+04  0.16343364236E+04 0.  0.
        5    1    3    3  502    0 -0.35540726372E+03 -0.55313933882E+03 -0.77636553234E+03  0.10173706213E+04  0.46999998093E+01 0.  1.
       -5    1    3    3    0  502  0.35540726372E+03  0.55313933882E+03  0.24426800351E+03  0.70140316423E+03  0.46999998093E+01 0. -1.
</event>
<event>
 5   0  0.5281116E-04  0.1621750E+04  0.7818609E-02  0.8807296E-01
        1   -1    0    0  501    0  0.00000000000E+00  0.00000000000E+00  0.21308161843E+04  0.21308161843E+04  0.50400001928E-02 0.  1.
       -1   -1    0    0    0  501  0.00000000000E+00  0.00000000000E+00 -0.30857581787E+03  0.30857581791E+03  0.50400001928E-02 0. -1.
    10030    2    1    2    0    0  0.00000000000E+00  0.00000000000E+00  0.18222403664E+04  0.24393920022E+04  0.16217501002E+04 0.  0.
        2    1    3    3  502    0  0.14757104091E+03 -0.25444326248E+03 -0.22550068501E+03  0.37063343736E+03  0.25500000920E-02 0. -1.
       -2    1    3    3    0  502 -0.14757104091E+03  0.25444326248E+03  0.20477410514E+04  0.20687585649E+04  0.25500000920E-02 0.  1.
</event>
<event>
 5   0  0.1030027E-03  0.1602320E+04  0.7818609E-02  0.8819124E-01
       -2   -1    0    0    0  501  0.00000000000E+00  0.00000000000E+00  0.11441287839E+04  0.11441287839E+04  0.25500000920E-02 0. -1.
        2   -1    0    0  501    0  0.00000000000E+00  0.00000000000E+00 -0.56100068886E+03  0.56100068887E+03  0.25500000920E-02 0.  1.
    10030    2    1    2    0    0  0.00000000000E+00  0.00000000000E+00  0.58312809499E+03  0.17051294727E+04  0.16023196134E+04 0.  0.
        1    1    3    3  502    0 -0.65196385425E+03 -0.30339247528E+03 -0.84302794696E+02  0.72402404830E+03  0.50400001928E-02 0.  1.
       -1    1    3    3    0  502  0.65196385425E+03  0.30339247528E+03  0.66743088969E+03  0.98110542442E+03  0.50400001928E-02 0. -1.
</event>
<event>
 5   0  0.1030027E-03  0.1089223E+04  0.7818609E-02  0.9215760E-01
       -2   -1    0    0    0  501  0.00000000000E+00  0.00000000000E+00  0.17425173938E+03  0.17425173940E+03  0.25500000920E-02 0.  1.
        2   -1    0    0  501    0  0.00000000000E+00  0.00000000000E+00 -0.17021446731E+04  0.17021446731E+04  0.25500000920E-02 0. -1.
    10030    2    1    2    0    0  0.00000000000E+00  0.00000000000E+00 -0.15278929337E+04  0.18763964125E+04  0.10892229707E+04 0.  0.
        1    1    3    3  502    0 -0.14364481465E+03 -0.22377678574E+03  0.54816183550E+02  0.27150450570E+03  0.50400001928E-02 0.  1.
       -1    1    3    3    0  502  0.14364481465E+03  0.22377678574E+03 -0.15827091173E+04  0.16048919068E+04  0.50400001928E-02 0. -1.
</event>
<event>
 5   0  0.1057872E-03  0.1620606E+04  0.7818609E-02  0.8807988E-01
       -2   -1    0    0    0  501  0.00000000000E+00  0.00000000000E+00  0.11017095261E+04  0.11017095261E+04  0.25500000920E-02 0. -1.
        2   -1    0    0  501    0  0.00000000000E+00  0.00000000000E+00 -0.59597476721E+03  0.59597476722E+03  0.25500000920E-02 0.  1.
    10030    2    1    2    0    0  0.00000000000E+00  0.00000000000E+00  0.50573475887E+03  0.16976842933E+04  0.16206061562E+04 0.  0.
        2    1    3    3  502    0  0.76791682842E+03 -0.42157167159E+02  0.52018564003E+03  0.92847540744E+03  0.25500000920E-02 0. -1.
       -2    1    3    3    0  502 -0.76791682842E+03  0.42157167159E+02 -0.14450881162E+02  0.76920888586E+03  0.25500000920E-02 0.  1.
</event>
<event>
 5   0  0.5532881E-04  0.1592886E+04  0.7818609E-02  0.8824930E-01
       -1   -1    0    0    0  501  0.00000000000E+00  0.00000000000E+00  0.40518739175E+03  0.40518739178E+03  0.50400001928E-02 0.  1.
        1   -1    0    0  501    0  0.00000000000E+00  0.00000000000E+00 -0.15655012429E+04  0.15655012429E+04  0.50400001928E-02 0. -1.
    10030    2    1    2    0    0  0.00000000000E+00  0.00000000000E+00 -0.11603138512E+04  0.19706886347E+04  0.15928858910E+04 0.  0.
        4    1    3    3  502    0  0.11915915038E+03 -0.90507439928E+02 -0.15479532176E+04  0.15551692115E+04  0.12699999809E+01 0. -1.
       -4    1    3    3    0  502 -0.11915915038E+03  0.90507439928E+02  0.38763936637E+03  0.41551942320E+03  0.12699999809E+01 0.  1.
</event>
<event>
 5   0  0.5532881E-04  0.1539576E+04  0.7818609E-02  0.8858554E-01
       -1   -1    0    0    0  501  0.00000000000E+00  0.00000000000E+00  0.26254177936E+03  0.26254177941E+03  0.50400001928E-02 0. -1.
        1   -1    0    0  501    0  0.00000000000E+00  0.00000000000E+00 -0.22570628534E+04  0.22570628534E+04  0.50400001928E-02 0.  1.
    10030    2    1    2    0    0  0.00000000000E+00  0.00000000000E+00 -0.19945210740E+04  0.25196046328E+04  0.15395756529E+04 0.  0.
        4    1    3    3  502    0  0.12421747476E+03 -0.36195523234E+03  0.95845098219E+02  0.39449900761E+03  0.12699999809E+01 0. -1.
       -4    1    3    3    0  502 -0.12421747476E+03  0.36195523234E+03 -0.20903661722E+04  0.21251056252E+04  0.12699999809E+01 0.  1.
</event>
<event>
 5   0  0.5288658E-04  0.1562389E+04  0.7818609E-02  0.8843993E-01
        1   -1    0    0  501    0  0.00000000000E+00  0.00000000000E+00  0.13073362447E+04  0.13073362447E+04  0.50400001928E-02 0.  1.
       -1   -1    0    0    0  501  0.00000000000E+00  0.00000000000E+00 -0.46680031543E+03  0.46680031546E+03  0.50400001928E-02 0. -1.
    10030    2    1    2    0    0  0.00000000000E+00  0.00000000000E+00  0.84053592923E+03  0.17741365601E+04  0.15623891595E+04 0.  0.
        1    1    3    3  502    0 -0.66395359398E+03  0.10516551393E+03  0.87216074107E+03  0.11011623489E+04  0.50400001928E-02 0.  1.
       -1    1    3    3    0  502  0.66395359398E+03 -0.10516551393E+03 -0.31624811841E+02  0.67297421127E+03  0.50400001928E-02 0. -1.
</event>
<event>
 5   0  0.5281116E-04  0.1723470E+04  0.7818609E-02  0.8748090E-01
        1   -1    0    0  501    0  0.00000000000E+00  0.00000000000E+00  0.11084691588E+04  0.11084691588E+04  0.50400001928E-02 0. -1.
       -1   -1    0    0    0  501  0.00000000000E+00  0.00000000000E+00 -0.66992175121E+03  0.66992175123E+03  0.50400001928E-02 0.  1.
    10030    2    1    2    0    0  0.00000000000E+00  0.00000000000E+00  0.43854740758E+03  0.17783909100E+04  0.17234704524E+04 0.  0.
        2    1    3    3  502    0  0.75507546312E+03 -0.99152031206E+02 -0.19683524343E+03  0.78658387561E+03  0.25500000920E-02 0.  1.
       -2    1    3    3    0  502 -0.75507546312E+03  0.99152031206E+02  0.63538265102E+03  0.99180703442E+03  0.25500000920E-02 0. -1.
</event>
<event>
 5   0  0.5281116E-04  0.1467395E+04  0.7818609E-02  0.8906429E-01
        1   -1    0    0  501    0  0.00000000000E+00  0.00000000000E+00  0.13852278486E+04  0.13852278486E+04  0.50400001928E-02 0.  1.
       -1   -1    0    0    0  501  0.00000000000E+00  0.00000000000E+00 -0.38860904636E+03  0.38860904640E+03  0.50400001928E-02 0. -1.
    10030    2    1    2    0    0  0.00000000000E+00  0.00000000000E+00  0.99661880219E+03  0.17738368950E+04  0.14673950705E+04 0.  0.
        2    1    3    3  502    0  0.63963600256E+03 -0.31589783056E+03  0.70553335452E+03  0.10033458872E+04  0.25500000920E-02 0.  1.
       -2    1    3    3    0  502 -0.63963600256E+03  0.31589783056E+03  0.29108544768E+03  0.77049100772E+03  0.25500000920E-02 0. -1.
</event>
<event>
 5   0  0.9844690E-04  0.1634739E+04  0.7818609E-02  0.8799486E-01
       -2   -1    0    0    0  501  0.00000000000E+00  0.00000000000E+00  0.85262155385E+03  0.85262155385E+03  0.25500000920E-02 0.  1.
        2   -1    0    0  501    0  0.00000000000E+00  0.00000000000E+00 -0.78357510709E+03  0.78357510710E+03  0.25500000920E-02 0. -1.
    10030    2    1    2    0    0  0.00000000000E+00  0.00000000000E+00  0.69046446756E+02  0.16361966610E+04  0.16347391540E+04 0.  0.
        3    1    3    3  502    0 -0.58321140832E+03  0.56134745295E+03 -0.78920256530E+02  0.81331108859E+03  0.10100000352E+00 0. -1.
       -3    1    3    3    0  502  0.58321140832E+03 -0.56134745295E+03  0.14796670329E+03  0.82288557237E+03  0.10100000352E+00 0.  1.
</event>
<event>
 5   0  0.1030027E-03  0.1804863E+04  0.7818609E-02  0.8703718E-01
        2   -1    0    0  501    0  0.00000000000E+00  0.00000000000E+00  0.17623991150E+04  0.17623991150E+04  0.25500000920E-02 0.  1.
       -2   -1    0    0    0  501  0.00000000000E+00  0.00000000000E+00 -0.46208746683E+03  0.46208746684E+03  0.25500000920E-02 0. -1.
    10030    2    1    2    0    0  0.00000000000E+00  0.00000000000E+00  0.13003116482E+04  0.22244865819E+04  0.18048629229E+04 0.  0.
        1    1    3    3  502    0 -0.56390505129E+03  0.52184050058E+03  0.12335785773E+04  0.14532799184E+04  0.50400001928E-02 0.  1.
       -1    1    3    3    0  502  0.56390505129E+03 -0.52184050058E+03  0.66733070863E+02  0.77120666341E+03  0.50400001928E-02 0. -1.
</event>
<event>
 5   0  0.9844690E-04  0.1806455E+04  0.7818609E-02  0.8702874E-01
        2   -1    0    0  501    0  0.00000000000E+00  0.00000000000E+00  0.12421856163E+04  0.12421856163E+04  0.25500000920E-02 0.  1.
       -2   -1    0    0    0  501  0.00000000000E+00  0.00000000000E+00 -0.65676142398E+03  0.65676142399E+03  0.25500000920E-02 0. -1.
    10030    2    1    2    0    0  0.00000000000E+00  0.00000000000E+00  0.58542419231E+03  0.18989470403E+04  0.18064546429E+04 0.  0.
        3    1    3    3  502    0  0.87779810599E+03  0.20807923095E+03  0.24578208702E+03  0.93500552177E+03  0.10100000352E+00 0.  1.
       -3    1    3    3    0  502 -0.87779810599E+03 -0.20807923095E+03  0.33964210529E+03  0.96394151852E+03  0.10100000352E+00 0. -1.
</event>
<event>
 5   0  0.5532881E-04  0.1606092E+04  0.7818609E-02  0.8816814E-01
       -1   -1    0    0    0  501  0.00000000000E+00  0.00000000000E+00  0.84156675126E+03  0.84156675128E+03  0.50400001928E-02 0.  1.
        1   -1    0    0  501    0  0.00000000000E+00  0.00000000000E+00 -0.76628878376E+03  0.76628878378E+03  0.50400001928E-02 0. -1.
    10030    2    1    2    0    0  0.00000000000E+00  0.00000000000E+00  0.75277967499E+02  0.16078555351E+04  0.16060923539E+04 0.  0.
        4    1    3    3  502    0 -0.24422490153E+01 -0.53510933734E+03  0.63707306364E+03  0.83199258940E+03  0.12699999809E+01 0.  1.
       -4    1    3    3    0  502  0.24422490153E+01  0.53510933734E+03 -0.56179509614E+03  0.77586294566E+03  0.12699999809E+01 0. -1.
</event>
<event>
 5   0  0.1057872E-03  0.1647073E+04  0.7818609E-02  0.8792140E-01
       -2   -1    0    0    0  501  0.00000000000E+00  0.00000000000E+00  0.99879925532E+03  0.99879925532E+03  0.25500000920E-02 0.  1.
        2   -1    0    0  501    0  0.00000000000E+00  0.00000000000E+00 -0.67902732970E+03  0.67902732970E+03  0.25500000920E-02 0. -1.
    10030    2    1    2    0    0  0.00000000000E+00  0.00000000000E+00  0.31977192562E+03  0.16778265850E+04  0.16470725439E+04 0.  0.
        2    1    3    3  502    0  0.52229981301E+03  0.27572606188E+02 -0.48811643117E+03  0.71541246401E+03  0.25500000920E-02 0. -1.
       -2    1    3    3    0  502 -0.52229981301E+03 -0.27572606188E+02  0.80788835679E+03  0.96241412101E+03  0.25500000920E-02 0.  1.
</event>
<event>
 5   0  0.1057872E-03  0.1614736E+04  0.7818609E-02  0.8811546E-01
        2   -1    0    0  501    0  0.00000000000E+00  0.00000000000E+00  0.14661157400E+04  0.14661157400E+04  0.25500000920E-02 0. -1.
       -2   -1    0    0    0  501  0.00000000000E+00  0.00000000000E+00 -0.44460553472E+03  0.44460553472E+03  0.25500000920E-02 0.  1.
    10030    2    1    2    0    0  0.00000000000E+00  0.00000000000E+00  0.10215102052E+04  0.19107212747E+04  0.16147361054E+04 0.  0.
        2    1    3    3  502    0 -0.12287911637E+03 -0.20104476976E+03 -0.40301565044E+03  0.46684032730E+03  0.25500000920E-02 0.  1.
       -2    1    3    3    0  502  0.12287911637E+03  0.20104476976E+03  0.14245258557E+04  0.14438809474E+04  0.25500000920E-02 0. -1.
</event>
<event>
 5   0  0.5532881E-04  0.1605771E+04  0.7818609E-02  0.8817011E-01
        1   -1    0    0  501    0  0.00000000000E+00  0.00000000000E+00  0.62763896492E+03  0.62763896494E+03  0.50400001928E-02 0.  1.
       -1   -1    0    0    0  501  0.00000000000E+00  0.00000000000E+00 -0.10270635285E+04  0.10270635285E+04  0.50400001928E-02 0. -1.
    10030    2    1    2    0    0  0.00000000000E+00  0.00000000000E+00 -0.39942456353E+03  0.16547024934E+04  0.16057709549E+04 0.  0.
        4    1    3    3  502    0  0.70527605215E+03  0.11785029537E+02  0.19547120007E+03  0.73195887836E+03  0.12699999809E+01 0.  1.
       -4    1    3    3    0  502 -0.70527605215E+03 -0.11785029537E+02 -0.59489576360E+03  0.92274361504E+03  0.12699999809E+01 0. -1.
</event>
<event>
 5   0  0.5281116E-04  0.1591521E+04  0.7818609E-02  0.8825774E-01
        1   -1    0    0  501    0  0.00000000000E+00  0.00000000000E+00  0.38054204556E+03  0.38054204559E+03  0.50400001928E-02 0.  1.
       -1   -1    0    0    0  501  0.00000000000E+00  0.00000000000E+00 -0.16640337889E+04  0.16640337889E+04  0.50400001928E-02 0. -1.
    10030    2    1    2    0    0  0.00000000000E+00  0.00000000000E+00 -0.12834917434E+04  0.20445758345E+04  0.15915210611E+04 0.  0.
        2    1    3    3  502    0 -0.38522691526E+03 -0.18973163061E+03  0.21892109878E+03  0.48200032718E+03  0.25500000920E-02 0.  1.
       -2    1    3    3    0  502  0.38522691526E+03  0.18973163061E+03 -0.15024128422E+04  0.15625755074E+04  0.25500000920E-02 0. -1.
</event>
<event>
 5   0  0.5425525E-04  0.1383714E+04  0.7818609E-02  0.8965693E-01
        1   -1    0    0  501    0  0.00000000000E+00  0.00000000000E+00  0.10750575802E+04  0.10750575802E+04  0.50400001928E-02 0. -1.
       -1   -1    0    0    0  501  0.00000000000E+00  0.00000000000E+00 -0.44524671008E+03  0.44524671011E+03  0.50400001928E-02 0.  1.
    10030    2    1    2    0    0  0.00000000000E+00  0.00000000000E+00  0.62981087013E+03  0.15203042903E+04  0.13837136276E+04 0.  0.
        5    1    3    3  502    0 -0.11177736789E+03 -0.20036766251E+02  0.10647303260E+04  0.10707793466E+04  0.46999998093E+01 0. -1.
       -5    1    3    3    0  502  0.11177736789E+03  0.20036766251E+02 -0.43491945586E+03  0.44952494376E+03  0.46999998093E+01 0.  1.
</event>
<event>
 5   0  0.1000121E-03  0.1586996E+04  0.7818609E-02  0.8828577E-01
       -2   -1    0    0    0  501  0.00000000000E+00  0.00000000000E+00  0.40305429259E+03  0.40305429260E+03  0.25500000920E-02 0.  1.
        2   -1    0    0  501    0  0.00000000000E+00  0.00000000000E+00 -0.15621703520E+04  0.15621703520E+04  0.25500000920E-02 0. -1.
    10030    2    1    2    0    0  0.00000000000E+00  0.00000000000E+00 -0.11591160594E+04  0.19652246446E+04  0.15869964917E+04 0.  0.
        4    1    3    3  502    0 -0.75747747290E+03 -0.23365885211E+03 -0.53544025441E+03  0.95659106209E+03  0.12699999809E+01 0.  1.
       -4    1    3    3    0  502  0.75747747290E+03  0.23365885211E+03 -0.62367580500E+03  0.10086335825E+04  0.12699999809E+01 0. -1.
</event>
<event>
 5   0  0.5425525E-04  0.1595119E+04  0.7818609E-02  0.8823552E-01
       -1   -1    0    0    0  501  0.00000000000E+00  0.00000000000E+00  0.72595593401E+03  0.72595593403E+03  0.50400001928E-02 0. -1.
        1   -1    0    0  501    0  0.00000000000E+00  0.00000000000E+00 -0.87622574404E+03  0.87622574405E+03  0.50400001928E-02 0.  1.
    10030    2    1    2    0    0  0.00000000000E+00  0.00000000000E+00 -0.15026981003E+03  0.16021816781E+04  0.15951191535E+04 0.  0.
        5    1    3    3  502    0 -0.65859708858E+03  0.22427103535E+03 -0.46677352874E+03  0.83782291655E+03  0.46999998093E+01 0.  1.
       -5    1    3    3    0  502  0.65859708858E+03 -0.22427103535E+03  0.31650371871E+03  0.76435876153E+03  0.46999998093E+01 0. -1.
</event>
<event>
 5   0  0.1030027E-03  0.1616258E+04  0.7818609E-02  0.8810622E-01
       -2   -1    0    0    0  501  0.00000000000E+00  0.00000000000E+00  0.76920774839E+03  0.76920774839E+03  0.25500000920E-02 0.  1.
        2   -1    0    0  501    0  0.00000000000E+00  0.00000000000E+00 -0.84901986560E+03  0.84901986561E+03  0.25500000920E-02 0. -1.
    10030    2    1    2    0    0  0.00000000000E+00  0.00000000000E+00 -0.79812117214E+02  0.16182276140E+04  0.16162582209E+04 0.  0.
        1    1    3    3  502    0  0.65229723258E+03 -0.13855403811E+03  0.41714086909E+03  0.78657193301E+03  0.50400001928E-02 0.  1.
       -1    1    3    3    0  502 -0.65229723258E+03  0.13855403811E+03 -0.49695298631E+03  0.83165568099E+03  0.50400001928E-02 0. -1.
</event>
<event>
 5   0  0.5425525E-04  0.1606484E+04  0.7818609E-02  0.8816575E-01
       -1   -1    0    0    0  501  0.00000000000E+00  0.00000000000E+00  0.65597678062E+03  0.65597678064E+03  0.50400001928E-02 0.  1.
        1   -1    0    0  501    0  0.00000000000E+00  0.00000000000E+00 -0.98356765384E+03  0.98356765385E+03  0.50400001928E-02 0. -1.
    10030    2    1    2    0    0  0.00000000000E+00  0.00000000000E+00 -0.32759087321E+03  0.16395444345E+04  0.16064837915E+04 0.  0.
        5    1    3    3  502    0 -0.68600931854E+03  0.12748012248E+03  0.24228170451E+03  0.73863555364E+03  0.46999998093E+01 0.  1.
       -5    1    3    3    0  502  0.68600931854E+03 -0.12748012248E+03 -0.56987257773E+03  0.90090888085E+03  0.46999998093E+01 0. -1.
</event>
<event>
 5   0  0.5288658E-04  0.1596172E+04  0.7818609E-02  0.8822903E-01
        1   -1    0    0  501    0  0.00000000000E+00  0.00000000000E+00  0.10532935911E+04  0.10532935911E+04  0.50400001928E-02 0. -1.
       -1   -1    0    0    0  501  0.00000000000E+00  0.00000000000E+00 -0.60471399160E+03  0.60471399162E+03  0.50400001928E-02 0.  1.
    10030    2    1    2    0    0  0.00000000000E+00  0.00000000000E+00  0.44857959947E+03  0.16580075827E+04  0.15961721358E+04 0.  0.
        1    1    3    3  502    0  0.31931222922E+03  0.15935443101E+03  0.96579817135E+03  0.10296214072E+04  0.50400001928E-02 0. -1.
       -1    1    3    3    0  502 -0.31931222922E+03 -0.15935443101E+03 -0.51721857188E+03  0.62838617548E+03  0.50400001928E-02 0.  1.
</event>
<event>
 5   0  0.5623061E-04  0.1600362E+04  0.7818609E-02  0.8820326E-01
        1   -1    0    0  501    0  0.00000000000E+00  0.00000000000E+00  0.10979827670E+04  0.10979827670E+04  0.50400001928E-02 0.  1.
       -1   -1    0    0    0  501  0.00000000000E+00  0.00000000000E+00 -0.58315054529E+03  0.58315054531E+03  0.50400001928E-02 0. -1.
    10030    2    1    2    0    0  0.00000000000E+00  0.00000000000E+00  0.51483222174E+03  0.16811333123E+04  0.16003615208E+04 0.  0.
        3    1    3    3  502    0 -0.77396623197E+02 -0.43882033451E+03 -0.44076052420E+03  0.62675623105E+03  0.10100000352E+00 0. -1.
       -3    1    3    3    0  502  0.77396623197E+02  0.43882033451E+03  0.95559274594E+03  0.10543770813E+04  0.10100000352E+00 0.  1.
</event>
<event>
 5   0  0.5425525E-04  0.9851153E+03  0.7818609E-02  0.9325022E-01
       -1   -1    0    0    0  501  0.00000000000E+00  0.00000000000E+00  0.13844467090E+03  0.13844467100E+03  0.50400001928E-02 0.  1.
        1   -1    0    0  501    0  0.00000000000E+00  0.00000000000E+00 -0.17524187625E+04  0.17524187625E+04  0.50400001928E-02 0. -1.
    10030    2    1    2    0    0  0.00000000000E+00  0.00000000000E+00 -0.16139740916E+04  0.18908634335E+04  0.98511530077E+03 0.  0.
        5    1    3    3  502    0  0.36672528155E+02  0.26999148473E+02  0.13435205111E+03  0.14193798637E+03  0.46999998093E+01 0.  1.
       -5    1    3    3    0  502 -0.36672528155E+02 -0.26999148473E+02 -0.17483261427E+04  0.17489254471E+04  0.46999998093E+01 0. -1.
</event>
<event>
 5   0  0.1000121E-03  0.1619953E+04  0.7818609E-02  0.8808383E-01
        2   -1    0    0  501    0  0.00000000000E+00  0.00000000000E+00  0.17746835612E+04  0.17746835612E+04  0.25500000920E-02 0. -1.
       -2   -1    0    0    0  501  0.00000000000E+00  0.00000000000E+00 -0.36967830169E+03  0.36967830170E+03  0.25500000920E-02 0.  1.
    10030    2    1    2    0    0  0.00000000000E+00  0.00000000000E+00  0.14050052595E+04  0.21443618629E+04  0.16199530919E+04 0.  0.
        4    1    3    3  502    0 -0.22711746119E+03  0.59586249922E+03  0.13636015355E+04  0.15053389052E+04  0.12699999809E+01 0. -1.
       -4    1    3    3    0  502  0.22711746119E+03 -0.59586249922E+03  0.41403724030E+02  0.63902295766E+03  0.12699999809E+01 0.  1.
</event>
<event>
 5   0  0.9844690E-04  0.1562665E+04  0.7818609E-02  0.8843818E-01
       -2   -1    0    0    0  501  0.00000000000E+00  0.00000000000E+00  0.54367626152E+03  0.54367626152E+03  0.25500000920E-02 0.  1.
        2   -1    0    0  501    0  0.00000000000E+00  0.00000000000E+00 -0.11228750054E+04  0.11228750054E+04  0.25500000920E-02 0. -1.
    10030    2    1    2    0    0  0.00000000000E+00  0.00000000000E+00 -0.57919874391E+03  0.16665512669E+04  0.15626650122E+04 0.  0.
        3    1    3    3  502    0  0.23478727719E+03 -0.73917119049E+03 -0.39066974171E+03  0.86840196434E+03  0.10100000352E+00 0.  1.
       -3    1    3    3    0  502 -0.23478727719E+03  0.73917119049E+03 -0.18852900220E+03  0.79814930261E+03  0.10100000352E+00 0. -1.
</event>
<event>
 5   0  0.1057872E-03  0.1567678E+04  0.7818609E-02  0.8840654E-01
        2   -1    0    0  501    0  0.00000000000E+00  0.00000000000E+00  0.15950301290E+04  0.15950301290E+04  0.25500000920E-02 0.  1.
       -2   -1    0    0    0  501  0.00000000000E+00  0.00000000000E+00 -0.38519875716E+03  0.38519875717E+03  0.25500000920E-02 0. -1.
    10030    2    1    2    0    0  0.00000000000E+00  0.00000000000E+00  0.12098313719E+04  0.19802288862E+04  0.15676780580E+04 0.  0.
        2    1    3    3  502    0 -0.70468945201E+03  0.15084973149E+03  0.21545901401E+03  0.75217381767E+03  0.25500000920E-02 0. -1.
       -2    1    3    3    0  502  0.70468945201E+03 -0.15084973149E+03  0.99437235787E+03  0.12280550685E+04  0.25500000920E-02 0.  1.
</event>
<event>
 5   0  0.1030027E-03  0.1546771E+04  0.7818609E-02  0.8853933E-01
       -2   -1    0    0    0  501  0.00000000000E+00  0.00000000000E+00  0.36312521853E+03  0.36312521854E+03  0.25500000920E-02 0. -1.
        2   -1    0    0  501    0  0.00000000000E+00  0.00000000000E+00 -0.16471595190E+04  0.16471595190E+04  0.25500000920E-02 0.  1.
    10030    2    1    2    0    0  0.00000000000E+00  0.00000000000E+00 -0.12840343005E+04  0.20102847375E+04  0.15467710371E+04 0.  0.
        1    1    3    3  502    0  0.71759204899E+03 -0.22409740280E+02 -0.26829925142E+03  0.76643658157E+03  0.50400001928E-02 0.  1.
       -1    1    3    3    0  502 -0.71759204899E+03  0.22409740280E+02 -0.10157350491E+04  0.12438481560E+04  0.50400001928E-02 0. -1.
</event>
<event>
 5   0  0.1037321E-03  0.1577603E+04  0.7818609E-02  0.8834426E-01
        2   -1    0    0  501    0  0.00000000000E+00  0.00000000000E+00  0.29858744757E+04  0.29858744757E+04  0.25500000920E-02 0. -1.
       -2   -1    0    0    0  501  0.00000000000E+00  0.00000000000E+00 -0.20838386717E+03  0.20838386719E+03  0.25500000920E-02 0.  1.
    10030    2    1    2    0    0  0.00000000000E+00  0.00000000000E+00  0.27774906085E+04  0.31942583429E+04  0.15776033344E+04 0.  0.
        5    1    3    3  502    0 -0.26551246811E+03  0.40747350699E+03  0.13135126839E+03  0.50379239308E+03  0.46999998093E+01 0.  1.
       -5    1    3    3    0  502  0.26551246811E+03 -0.40747350699E+03  0.26461393401E+04  0.26904659498E+04  0.46999998093E+01 0. -1.
</event>
<event>
 5   0  0.9844690E-04  0.1438118E+04  0.7818609E-02  0.8926680E-01
        2   -1    0    0  501    0  0.00000000000E+00  0.00000000000E+00  0.97503192731E+03  0.97503192731E+03  0.25500000920E-02 0. -1.
       -2   -1    0    0    0  501  0.00000000000E+00  0.00000000000E+00 -0.53028598120E+03  0.53028598120E+03  0.25500000920E-02 0.  1.
    10030    2    1    2    0    0  0.00000000000E+00  0.00000000000E+00  0.44474594611E+03  0.15053179085E+04  0.14381178843E+04 0.  0.
        3    1    3    3  502    0  0.49191310783E+03  0.44289939998E+03  0.51640356602E+03  0.83953024803E+03  0.10100000352E+00 0. -1.
       -3    1    3    3    0  502 -0.49191310783E+03 -0.44289939998E+03 -0.71657619912E+02  0.66578766048E+03  0.10100000352E+00 0.  1.
</event>
<event>
 5   0  0.5288658E-04  0.1596025E+04  0.7818609E-02  0.8822994E-01
       -1   -1    0    0    0  501  0.00000000000E+00  0.00000000000E+00  0.41739868846E+03  0.41739868849E+03  0.50400001928E-02 0. -1.
        1   -1    0    0  501    0  0.00000000000E+00  0.00000000000E+00 -0.15256976031E+04  0.15256976032E+04  0.50400001928E-02 0.  1.
    10030    2    1    2    0    0  0.00000000000E+00  0.00000000000E+00 -0.11082989147E+04  0.19430962916E+04  0.15960252862E+04 0.  0.
        1    1    3    3  502    0  0.73719051530E+03  0.25493181933E+03 -0.34903699685E+03  0.85455655960E+03  0.50400001928E-02 0. -1.
       -1    1    3    3    0  502 -0.73719051530E+03 -0.25493181933E+03 -0.75926191783E+03  0.10885397320E+04  0.50400001928E-02 0.  1.
</event>
<event>
 5   0  0.5623061E-04  0.1493295E+04  0.7818609E-02  0.8888924E-01
        1   -1    0    0  501    0  0.00000000000E+00  0.00000000000E+00  0.10198362966E+04  0.10198362966E+04  0.50400001928E-02 0. -1.
       -1   -1    0    0    0  501  0.00000000000E+00  0.00000000000E+00 -0.54663929331E+03  0.54663929333E+03  0.50400001928E-02 0.  1.
    10030    2    1    2    0    0  0.00000000000E+00  0.00000000000E+00  0.47319700325E+03  0.15664755899E+04  0.14932951382E+04 0.  0.
        3    1    3    3  502    0 -0.47366040436E+03 -0.45432784847E+03  0.61001312867E+03  0.89603794557E+03  0.10100000352E+00 0. -1.
       -3    1    3    3    0  502  0.47366040436E+03  0.45432784847E+03 -0.13681612542E+03  0.67043764433E+03  0.10100000352E+00 0.  1.
</event>
<event>
 5   0  0.5425525E-04  0.1632985E+04  0.7818609E-02  0.8800536E-01
        1   -1    0    0  501    0  0.00000000000E+00  0.00000000000E+00  0.19098695545E+04  0.19098695545E+04  0.50400001928E-02 0. -1.
       -1   -1    0    0    0  501  0.00000000000E+00  0.00000000000E+00 -0.34906063430E+03  0.34906063434E+03  0.50400001928E-02 0.  1.
    10030    2    1    2    0    0  0.00000000000E+00  0.00000000000E+00  0.15608089202E+04  0.22589301889E+04  0.16329853376E+04 0.  0.
        5    1    3    3  502    0  0.72262307036E+03  0.35650395340E+03  0.59814793086E+03  0.10035348563E+04  0.46999998093E+01 0. -1.
       -5    1    3    3    0  502 -0.72262307036E+03 -0.35650395340E+03  0.96266098937E+03  0.12553953326E+04  0.46999998093E+01 0.  1.
</event>
<event>
 5   0  0.5623061E-04  0.1588218E+04  0.7818609E-02  0.8827819E-01
       -1   -1    0    0    0  501  0.00000000000E+00  0.00000000000E+00  0.98953561601E+03  0.98953561602E+03  0.50400001928E-02 0.  1.
        1   -1    0    0  501    0  0.00000000000E+00  0.00000000000E+00 -0.63727752324E+03  0.63727752326E+03  0.50400001928E-02 0. -1.
    10030    2    1    2    0    0  0.00000000000E+00  0.00000000000E+00  0.35225809277E+03  0.16268131393E+04  0.15882176256E+04 0.  0.
        3    1    3    3  502    0 -0.55345437857E+03 -0.54720191853E+03  0.14603843064E+02  0.77843109601E+03  0.10100000352E+00 0.  1.
       -3    1    3    3    0  502  0.55345437857E+03  0.54720191853E+03  0.33765424971E+03  0.84838204327E+03  0.10100000352E+00 0. -1.
</event>
<event>
 5   0  0.1057872E-03  0.1618181E+04  0.7818609E-02  0.8809456E-01
        2   -1    0    0  501    0  0.00000000000E+00  0.00000000000E+00  0.76428396176E+03  0.76428396176E+03  0.25500000920E-02 0.  1.
       -2   -1    0    0    0  501  0.00000000000E+00  0.00000000000E+00 -0.85652406839E+03  0.85652406839E+03  0.25500000920E-02 0. -1.
    10030    2    1    2    0    0  0.00000000000E+00  0.00000000000E+00 -0.92240106624E+02  0.16208080302E+04  0.16181812115E+04 0.  0.
        2    1    3    3  502    0 -0.76863244095E+03  0.21473042991E+03  0.87222389417E+02  0.80281550311E+03  0.25500000920E-02 0. -1.
       -2    1    3    3    0  502  0.76863244095E+03 -0.21473042991E+03 -0.17946249604E+03  0.81799252705E+03  0.25500000920E-02 0.  1.
</event>
<event>
 5   0  0.9844690E-04  0.1562771E+04  0.7818609E-02  0.8843752E-01
       -2   -1    0    0    0  501  0.00000000000E+00  0.00000000000E+00  0.47287037155E+03  0.47287037155E+03  0.25500000920E-02 0.  1.
        2   -1    0    0  501    0  0.00000000000E+00  0.00000000000E+00 -0.12911846297E+04  0.12911846297E+04  0.25500000920E-02 0. -1.
    10030    2    1    2    0    0  0.00000000000E+00  0.00000000000E+00 -0.81831425819E+03  0.17640550013E+04  0.15627705598E+04 0.  0.
        3    1    3    3  502    0  0.30638263450E+01 -0.24072847255E+02  0.47244490305E+03  0.47306773894E+03  0.10100000352E+00 0.  1.
       -3    1    3    3    0  502 -0.30638263450E+01  0.24072847255E+02 -0.12907591612E+04  0.12909872624E+04  0.10100000352E+00 0. -1.
</event>
<event>
 5   0  0.5623061E-04  0.1603504E+04  0.7818609E-02  0.8818398E-01
        1   -1    0    0  501    0  0.00000000000E+00  0.00000000000E+00  0.58107061531E+03  0.58107061534E+03  0.50400001928E-02 0.  1.
       -1   -1    0    0    0  501  0.00000000000E+00  0.00000000000E+00 -0.11062445338E+04  0.11062445338E+04  0.50400001928E-02 0. -1.
    10030    2    1    2    0    0  0.00000000000E+00  0.00000000000E+00 -0.52517391852E+03  0.16873151492E+04  0.16035039033E+04 0.  0.
        3    1    3    3  502    0  0.28723194615E+03  0.29353630039E+03 -0.98715584293E+03  0.10691783850E+04  0.10100000352E+00 0. -1.
       -3    1    3    3    0  502 -0.28723194615E+03 -0.29353630039E+03  0.46198192441E+03  0.61813676417E+03  0.10100000352E+00 0.  1.
</event>
<event>
 5   0  0.5281116E-04  0.1528016E+04  0.7818609E-02  0.8866034E-01
       -1   -1    0    0    0  501  0.00000000000E+00  0.00000000000E+00  0.36915060076E+03  0.36915060080E+03  0.50400001928E-02 0. -1.
        1   -1    0    0  501    0  0.00000000000E+00  0.00000000000E+00 -0.15812193259E+04  0.15812193260E+04  0.50400001928E-02 0.  1.
    10030    2    1    2    0    0  0.00000000000E+00  0.00000000000E+00 -0.12120687252E+04  0.19503699267E+04  0.15280157907E+04 0.  0.
        2    1    3    3  502    0  0.52627380371E+03  0.43601257006E+03 -0.17011386102E+03  0.70427963441E+03  0.25500000920E-02 0. -1.
       -2    1    3    3    0  502 -0.52627380371E+03 -0.43601257006E+03 -0.10419548642E+04  0.12460902923E+04  0.25500000920E-02 0.  1.
</event>
<event>
 5   0  0.1057872E-03  0.1573988E+04  0.7818609E-02  0.8836689E-01
        2   -1    0    0  501    0  0.00000000000E+00  0.00000000000E+00  0.20534734573E+04  0.20534734573E+04  0.25500000920E-02 0.  1.
       -2   -1    0    0    0  501  0.00000000000E+00  0.00000000000E+00 -0.30161571314E+03  0.30161571315E+03  0.25500000920E-02 0. -1.
    10030    2    1    2    0    0  0.00000000000E+00  0.00000000000E+00  0.17518577442E+04  0.23550891704E+04  0.15739883878E+04 0.  0.
        2    1    3    3  502    0 -0.36549754240E+03 -0.14471460097E+03  0.18960517372E+04  0.19363736622E+04  0.25500000920E-02 0.  1.
       -2    1    3    3    0  502  0.36549754240E+03  0.14471460097E+03 -0.14419399308E+03  0.41871550829E+03  0.25500000920E-02 0. -1.
</event>
<event>
 5   0  0.5281116E-04  0.1596405E+04  0.7818609E-02  0.8822759E-01
        1   -1    0    0  501    0  0.00000000000E+00  0.00000000000E+00  0.78819097506E+03  0.78819097508E+03  0.50400001928E-02 0.  1.
       -1   -1    0    0    0  501  0.00000000000E+00  0.00000000000E+00 -0.80834150881E+03  0.80834150882E+03  0.50400001928E-02 0. -1.
    10030    2    1    2    0    0  0.00000000000E+00  0.00000000000E+00 -0.20150533749E+02  0.15965324839E+04  0.15964053145E+04 0.  0.
        2    1    3    3  502    0  0.74329220705E+03  0.25154891559E+03  0.13611202532E+03  0.79642114829E+03  0.25500000920E-02 0.  1.
       -2    1    3    3    0  502 -0.74329220705E+03 -0.25154891559E+03 -0.15626255907E+03  0.80011133561E+03  0.25500000920E-02 0. -1.
</event>
<event>
 5   0  0.3832500E-04  0.1597954E+04  0.7818609E-02  0.8821806E-01
       -3   -1    0    0    0  501  0.00000000000E+00  0.00000000000E+00  0.22513684422E+04  0.22513684445E+04  0.10100000352E+00 0. -1.
        3   -1    0    0  501    0  0.00000000000E+00  0.00000000000E+00 -0.28354510656E+03  0.28354512455E+03  0.10100000352E+00 0.  1.
    10030    2    1    2    0    0  0.00000000000E+00  0.00000000000E+00  0.19678233357E+04  0.25349135690E+04  0.15979543555E+04 0.  0.
        1    1    3    3  502    0 -0.15808982939E+03  0.50048090465E+03  0.28288026481E+02  0.52561748691E+03  0.50400001928E-02 0.  1.
       -1    1    3    3    0  502  0.15808982939E+03 -0.50048090465E+03  0.19395353092E+04  0.20092960821E+04  0.50400001928E-02 0. -1.
</event>
<event>
 5   0  0.1030027E-03  0.1615449E+04  0.7818609E-02  0.8811113E-01
       -2   -1    0    0    0  501  0.00000000000E+00  0.00000000000E+00  0.69136229886E+03  0.69136229886E+03  0.25500000920E-02 0.  1.
        2   -1    0    0  501    0  0.00000000000E+00  0.00000000000E+00 -0.94367090424E+03  0.94367090424E+03  0.25500000920E-02 0. -1.
    10030    2    1    2    0    0  0.00000000000E+00  0.00000000000E+00 -0.25230860538E+03  0.16350332031E+04  0.16154485269E+04 0.  0.
        1    1    3    3  502    0  0.42080847759E+03 -0.68896991846E+03 -0.15213971715E+03  0.82152651626E+03  0.50400001928E-02 0. -1.
       -1    1    3    3    0  502 -0.42080847759E+03  0.68896991846E+03 -0.10016888824E+03  0.81350668685E+03  0.50400001928E-02 0.  1.
</event>
<event>
 5   0  0.5532881E-04  0.1616586E+04  0.7818609E-02  0.8810423E-01
       -1   -1    0    0    0  501  0.00000000000E+00  0.00000000000E+00  0.81128650660E+03  0.81128650661E+03  0.50400001928E-02 0.  1.
        1   -1    0    0  501    0  0.00000000000E+00  0.00000000000E+00 -0.80531039356E+03  0.80531039358E+03  0.50400001928E-02 0. -1.
    10030    2    1    2    0    0  0.00000000000E+00  0.00000000000E+00  0.59761130374E+01  0.16165969002E+04  0.16165858541E+04 0.  0.
        4    1    3    3  502    0  0.72508850162E+03  0.23877537471E+03 -0.26266169914E+03  0.80731641619E+03  0.12699999809E+01 0. -1.
       -4    1    3    3    0  502 -0.72508850162E+03 -0.23877537471E+03  0.26863781217E+03  0.80928048400E+03  0.12699999809E+01 0.  1.
</event>
<event>
 5   0  0.5288658E-04  0.1613983E+04  0.7818609E-02  0.8812004E-01
       -1   -1    0    0    0  501  0.00000000000E+00  0.00000000000E+00  0.84460741065E+03  0.84460741066E+03  0.50400001928E-02 0.  1.
        1   -1    0    0  501    0  0.00000000000E+00  0.00000000000E+00 -0.77105049690E+03  0.77105049692E+03  0.50400001928E-02 0. -1.
    10030    2    1    2    0    0  0.00000000000E+00  0.00000000000E+00  0.73556913744E+02  0.16156579076E+04  0.16139826067E+04 0.  0.
        1    1    3    3  502    0 -0.30082133005E+03  0.18075147258E+03  0.76421727269E+03  0.84094744625E+03  0.50400001928E-02 0.  1.
       -1    1    3    3    0  502  0.30082133005E+03 -0.18075147258E+03 -0.69066035894E+03  0.77471046133E+03  0.50400001928E-02 0. -1.
</event>
<event>
 5   0  0.5281116E-04  0.1551272E+04  0.7818609E-02  0.8851056E-01
       -1   -1    0    0    0  501  0.00000000000E+00  0.00000000000E+00  0.12493634346E+04  0.12493634346E+04  0.50400001928E-02 0.  1.
        1   -1    0    0  501    0  0.00000000000E+00  0.00000000000E+00 -0.48153411711E+03  0.48153411714E+03  0.50400001928E-02 0. -1.
    10030    2    1    2    0    0  0.00000000000E+00  0.00000000000E+00  0.76782931749E+03  0.17308975518E+04  0.15512718891E+04 0.  0.
        2    1    3    3  502    0  0.57782347639E+03  0.22636272237E+03 -0.13524797980E+03  0.63514728055E+03  0.25500000920E-02 0. -1.
       -2    1    3    3    0  502 -0.57782347639E+03 -0.22636272237E+03  0.90307729729E+03  0.10957502712E+04  0.25500000920E-02 0.  1.
</event>
<event>
 5   0  0.1030027E-03  0.1672972E+04  0.7818609E-02  0.8776931E-01
       -2   -1    0    0    0  501  0.00000000000E+00  0.00000000000E+00  0.71177616726E+03  0.71177616727E+03  0.25500000920E-02 0.  1.
        2   -1    0    0  501    0  0.00000000000E+00  0.00000000000E+00 -0.98304645683E+03  0.98304645684E+03  0.25500000920E-02 0. -1.
    10030    2    1    2    0    0  0.00000000000E+00  0.00000000000E+00 -0.27127028957E+03  0.16948226241E+04  0.16729722524E+04 0.  0.
        1    1    3    3  502    0  0.39687424800E+03 -0.26461527451E+03  0.56049217376E+03  0.73599041373E+03  0.50400001928E-02 0.  1.
       -1    1    3    3    0  502 -0.39687424800E+03  0.26461527451E+03 -0.83176246333E+03  0.95883221038E+03  0.50400001928E-02 0. -1.
</event>
<event>
 5   0  0.1037321E-03  0.1628842E+04  0.7818609E-02  0.8803023E-01
        2   -1    0    0  501    0  0.00000000000E+00  0.00000000000E+00  0.10429009729E+04  0.10429009729E+04  0.25500000920E-02 0.  1.
       -2   -1    0    0    0  501  0.00000000000E+00  0.00000000000E+00 -0.63599674200E+03  0.63599674201E+03  0.25500000920E-02 0. -1.
    10030    2    1    2    0    0  0.00000000000E+00  0.00000000000E+00  0.40690423093E+03  0.16788977149E+04  0.16288420685E+04 0.  0.
        5    1    3    3  502    0 -0.18199690796E+03 -0.55353272088E+03 -0.38301305281E+03  0.69731086053E+03  0.46999998093E+01 0. -1.
       -5    1    3    3    0  502  0.18199690796E+03  0.55353272088E+03  0.78991728374E+03  0.98158685441E+03  0.46999998093E+01 0.  1.
</event>
<event>
 5   0  0.5623061E-04  0.1523438E+04  0.7818609E-02  0.8869015E-01
        1   -1    0    0  501    0  0.00000000000E+00  0.00000000000E+00  0.24554042493E+04  0.24554042493E+04  0.50400001928E-02 0.  1.
       -1   -1    0    0    0  501  0.00000000000E+00  0.00000000000E+00 -0.23630161145E+03  0.23630161150E+03  0.50400001928E-02 0. -1.
    10030    2    1    2    0    0  0.00000000000E+00  0.00000000000E+00  0.22191026379E+04  0.26917058608E+04  0.15234381917E+04 0.  0.
        3    1    3    3  502    0 -0.64417285967E+02  0.49201554001E+02 -0.22865966824E+03  0.24260180075E+03  0.10100000352E+00 0. -1.
       -3    1    3    3    0  502  0.64417285967E+02 -0.49201554001E+02  0.24477623061E+04  0.24491040601E+04  0.10100000352E+00 0.  1.
</event>
<event>
 5   0  0.1000121E-03  0.1581138E+04  0.7818609E-02  0.8832220E-01
        2   -1    0    0  501    0  0.00000000000E+00  0.00000000000E+00  0.91743935645E+03  0.91743935646E+03  0.25500000920E-02 0.  1.
       -2   -1    0    0    0  501  0.00000000000E+00  0.00000000000E+00 -0.68124285517E+03  0.68124285517E+03  0.25500000920E-02 0. -1.
    10030    2    1    2    0    0  0.00000000000E+00  0.00000000000E+00  0.23619650128E+03  0.15986822116E+04  0.15811375736E+04 0.  0.
        4    1    3    3  502    0  0.38893665215E+03  0.82858779320E+02 -0.57275508911E+03  0.69727132574E+03  0.12699999809E+01 0. -1.
       -4    1    3    3    0  502 -0.38893665215E+03 -0.82858779320E+02  0.80895159039E+03  0.90141088589E+03  0.12699999809E+01 0.  1.
</event>
<event>
 5   0  0.5532881E-04  0.1645831E+04  0.7818609E-02  0.8792877E-01
        1   -1    0    0  501    0  0.00000000000E+00  0.00000000000E+00  0.12998389470E+04  0.12998389470E+04  0.50400001928E-02 0. -1.
       -1   -1    0    0    0  501  0.00000000000E+00  0.00000000000E+00 -0.52097957912E+03  0.52097957915E+03  0.50400001928E-02 0.  1.
    10030    2    1    2    0    0  0.00000000000E+00  0.00000000000E+00  0.77885936784E+03  0.18208185261E+04  0.16458305472E+04 0.  0.
        4    1    3    3  502    0  0.60955393482E+03 -0.39045069787E+03  0.82242464616E+03  0.10956238672E+04  0.12699999809E+01 0. -1.
       -4    1    3    3    0  502 -0.60955393482E+03  0.39045069787E+03 -0.43565278319E+02  0.72519465889E+03  0.12699999809E+01 0.  1.
</event>
<event>
 5   0  0.5425525E-04  0.1613890E+04  0.7818609E-02  0.8812060E-01
       -1   -1    0    0    0  501  0.00000000000E+00  0.00000000000E+00  0.67417977919E+03  0.67417977921E+03  0.50400001928E-02 0. -1.
        1   -1    0    0  501    0  0.00000000000E+00  0.00000000000E+00 -0.96585591028E+03  0.96585591030E+03  0.50400001928E-02 0.  1.
    10030    2    1    2    0    0  0.00000000000E+00  0.00000000000E+00 -0.29167613109E+03  0.16400356895E+04  0.16138903610E+04 0.  0.
        5    1    3    3  502    0  0.70918198272E+02  0.33762708830E+03  0.59544287730E+03  0.68818293479E+03  0.46999998093E+01 0. -1.
       -5    1    3    3    0  502 -0.70918198272E+02 -0.33762708830E+03 -0.88711900840E+03  0.95185275472E+03  0.46999998093E+01 0.  1.
</event>
<event>
 5   0  0.5281116E-04  0.1463922E+04  0.7818609E-02  0.8908805E-01
        1   -1    0    0  501    0  0.00000000000E+00  0.00000000000E+00  0.56652626472E+03  0.56652626475E+03  0.50400001928E-02 0. -1.
       -1   -1    0    0    0  501  0.00000000000E+00  0.00000000000E+00 -0.94570559960E+03  0.94570559961E+03  0.50400001928E-02 0.  1.
    10030    2    1    2    0    0  0.00000000000E+00  0.00000000000E+00 -0.37917933487E+03  0.15122318644E+04  0.14639222123E+04 0.  0.
        2    1    3    3  502    0  0.30930956936E+03 -0.13861458482E+03 -0.85975176723E+03  0.92415340397E+03  0.25500000920E-02 0.  1.
       -2    1    3    3    0  502 -0.30930956936E+03  0.13861458482E+03  0.48057243235E+03  0.58807846038E+03  0.25500000920E-02 0. -1.
</event>
<event>
 5   0  0.5281116E-04  0.1619329E+04  0.7818609E-02  0.8808760E-01
        1   -1    0    0  501    0  0.00000000000E+00  0.00000000000E+00  0.17077041548E+04  0.17077041548E+04  0.50400001928E-02 0. -1.
       -1   -1    0    0    0  501  0.00000000000E+00  0.00000000000E+00 -0.38388200389E+03  0.38388200392E+03  0.50400001928E-02 0.  1.
    10030    2    1    2    0    0  0.00000000000E+00  0.00000000000E+00  0.13238221509E+04  0.20915861587E+04  0.16193293588E+04 0.  0.
        2    1    3    3  502    0 -0.42774237608E+03 -0.68448204090E+03  0.57943127746E+03  0.99358935679E+03  0.25500000920E-02 0.  1.
       -2    1    3    3    0  502  0.42774237608E+03  0.68448204090E+03  0.74439087346E+03  0.10979968020E+04  0.25500000920E-02 0. -1.
</event>
<event>
 5   0  0.5425525E-04  0.1624584E+04  0.7818609E-02  0.8805586E-01
        1   -1    0    0  501    0  0.00000000000E+00  0.00000000000E+00  0.12871536034E+04  0.12871536034E+04  0.50400001928E-02 0.  1.
       -1   -1    0    0    0  501  0.00000000000E+00  0.00000000000E+00 -0.51261823381E+03  0.51261823383E+03  0.50400001928E-02 0. -1.
    10030    2    1    2    0    0  0.00000000000E+00  0.00000000000E+00  0.77453536959E+03  0.17997718372E+04  0.16245841398E+04 0.  0.
        5    1    3    3  502    0  0.28747561016E+03 -0.57431355246E+03  0.93820620131E+03  0.11369833988E+04  0.46999998093E+01 0.  1.
       -5    1    3    3    0  502 -0.28747561016E+03  0.57431355246E+03 -0.16367083172E+03  0.66278843844E+03  0.46999998093E+01 0. -1.
</event>
<event>
 5   0  0.5425525E-04  0.1596261E+04  0.7818609E-02  0.8822848E-01
        1   -1    0    0  501    0  0.00000000000E+00  0.00000000000E+00  0.88384181919E+03  0.88384181921E+03  0.50400001928E-02 0. -1.
       -1   -1    0    0    0  501  0.00000000000E+00  0.00000000000E+00 -0.72073155436E+03  0.72073155438E+03  0.50400001928E-02 0.  1.
    10030    2    1    2    0    0  0.00000000000E+00  0.00000000000E+00  0.16311026484E+03  0.16045733736E+04  0.15962614926E+04 0.  0.
        5    1    3    3  502    0  0.25518216939E+03  0.11442470949E+03 -0.66985289890E+03  0.72590354034E+03  0.46999998093E+01 0.  1.
       -5    1    3    3    0  502 -0.25518216939E+03 -0.11442470949E+03  0.83296316373E+03  0.87866983324E+03  0.46999998093E+01 0. -1.
</event>
<event>
 5   0  0.5281116E-04  0.1546558E+04  0.7818609E-02  0.8854069E-01
       -1   -1    0    0    0  501  0.00000000000E+00  0.00000000000E+00  0.28347842998E+03  0.28347843003E+03  0.50400001928E-02 0. -1.
        1   -1    0    0  501    0  0.00000000000E+00  0.00000000000E+00 -0.21093678851E+04  0.21093678851E+04  0.50400001928E-02 0.  1.
    10030    2    1    2    0    0  0.00000000000E+00  0.00000000000E+00 -0.18258894551E+04  0.23928463151E+04  0.15465578507E+04 0.  0.
        2    1    3    3  502    0  0.91463384386E+02 -0.27565810637E+03 -0.20217729034E+04  0.20425275066E+04  0.25500000920E-02 0.  1.
       -2    1    3    3    0  502 -0.91463384386E+02  0.27565810637E+03  0.19588344829E+03  0.35031880853E+03  0.25500000920E-02 0. -1.
</event>
<event>
 5   0  0.5281116E-04  0.1683661E+04  0.7818609E-02  0.8770739E-01
        1   -1    0    0  501    0  0.00000000000E+00  0.00000000000E+00  0.93814473363E+03  0.93814473364E+03  0.50400001928E-02 0. -1.
       -1   -1    0    0    0  501  0.00000000000E+00  0.00000000000E+00 -0.75540404540E+03  0.75540404541E+03  0.50400001928E-02 0.  1.
    10030    2    1    2    0    0  0.00000000000E+00  0.00000000000E+00  0.18274068823E+03  0.16935487791E+04  0.16836606867E+04 0.  0.
        2    1    3    3  502    0  0.40588014551E+03 -0.61694818790E+03  0.49786571275E+03  0.89063686597E+03  0.25500000920E-02 0. -1.
       -2    1    3    3    0  502 -0.40588014551E+03  0.61694818790E+03 -0.31512502452E+03  0.80291191308E+03  0.25500000920E-02 0.  1.
</event>
<event>
 5   0  0.3832500E-04  0.1036837E+04  0.7818609E-02  0.9269041E-01
        4   -1    0    0  501    0  0.00000000000E+00  0.00000000000E+00  0.12399829058E+04  0.12399835562E+04  0.12699999809E+01 0. -1.
       -4   -1    0    0    0  501  0.00000000000E+00  0.00000000000E+00 -0.21674034675E+03  0.21674406753E+03  0.12699999809E+01 0.  1.
    10030    2    1    2    0    0  0.00000000000E+00  0.00000000000E+00  0.10232425591E+04  0.14567276237E+04  0.10368365517E+04 0.  0.
        4    1    3    3  502    0  0.46632602467E+03  0.11951450220E+03  0.24132465986E+03  0.53850058670E+03  0.12699999809E+01 0.  1.
       -4    1    3    3    0  502 -0.46632602467E+03 -0.11951450220E+03  0.78191789921E+03  0.91822703702E+03  0.12699999809E+01 0. -1.
</event>
<event>
 5   0  0.1030027E-03  0.1646698E+04  0.7818609E-02  0.8792362E-01
        2   -1    0    0  501    0  0.00000000000E+00  0.00000000000E+00  0.13168794449E+04  0.13168794449E+04  0.25500000920E-02 0.  1.
       -2   -1    0    0    0  501  0.00000000000E+00  0.00000000000E+00 -0.51478047212E+03  0.51478047212E+03  0.25500000920E-02 0. -1.
    10030    2    1    2    0    0  0.00000000000E+00  0.00000000000E+00  0.80209897276E+03  0.18316599170E+04  0.16466982995E+04 0.  0.
        1    1    3    3  502    0 -0.48214643096E+03  0.54344844275E+03 -0.29898314036E+02  0.72711436517E+03  0.50400001928E-02 0. -1.
       -1    1    3    3    0  502  0.48214643096E+03 -0.54344844275E+03  0.83199728679E+03  0.11045455518E+04  0.50400001928E-02 0.  1.
</event>
<event>
 5   0  0.5425525E-04  0.1527885E+04  0.7818609E-02  0.8866119E-01
       -1   -1    0    0    0  501  0.00000000000E+00  0.00000000000E+00  0.58247961221E+03  0.58247961224E+03  0.50400001928E-02 0.  1.
        1   -1    0    0  501    0  0.00000000000E+00  0.00000000000E+00 -0.10019368767E+04  0.10019368767E+04  0.50400001928E-02 0. -1.
    10030    2    1    2    0    0  0.00000000000E+00  0.00000000000E+00 -0.41945726444E+03  0.15844164889E+04  0.15278845551E+04 0.  0.
        5    1    3    3  502    0 -0.25391092876E+03 -0.51535348912E+03 -0.73187208634E+03  0.93044012126E+03  0.46999998093E+01 0. -1.
       -5    1    3    3    0  502  0.25391092876E+03  0.51535348912E+03  0.31241482190E+03  0.65397636764E+03  0.46999998093E+01 0.  1.
</event>
<event>
 5   0  0.5281116E-04  0.1188762E+04  0.7818609E-02  0.9122751E-01
       -1   -1    0    0    0  501  0.00000000000E+00  0.00000000000E+00  0.53177897223E+03  0.53177897226E+03  0.50400001928E-02 0.  1.
        1   -1    0    0  501    0  0.00000000000E+00  0.00000000000E+00 -0.66435237819E+03  0.66435237821E+03  0.50400001928E-02 0. -1.
    10030    2    1    2    0    0  0.00000000000E+00  0.00000000000E+00 -0.13257340596E+03  0.11961313505E+04  0.11887617506E+04 0.  0.
        2    1    3    3  502    0 -0.90122084073E+02  0.24501897030E+03  0.47100148001E+03  0.53851525515E+03  0.25500000920E-02 0.  1.
       -2    1    3    3    0  502  0.90122084073E+02 -0.24501897030E+03 -0.60357488597E+03  0.65761609532E+03  0.25500000920E-02 0. -1.
</event>
<event>
 5   0  0.5288658E-04  0.1579212E+04  0.7818609E-02  0.8833422E-01
       -1   -1    0    0    0  501  0.00000000000E+00  0.00000000000E+00  0.46032266726E+03  0.46032266729E+03  0.50400001928E-02 0.  1.
        1   -1    0    0  501    0  0.00000000000E+00  0.00000000000E+00 -0.13544356398E+04  0.13544356398E+04  0.50400001928E-02 0. -1.
    10030    2    1    2    0    0  0.00000000000E+00  0.00000000000E+00 -0.89411297257E+03  0.18147583071E+04  0.15792117355E+04 0.  0.
        1    1    3    3  502    0  0.37284611182E+03 -0.54809499600E+03 -0.94006263196E+03  0.11502782706E+04  0.50400001928E-02 0. -1.
       -1    1    3    3    0  502 -0.37284611182E+03  0.54809499600E+03  0.45949659390E+02  0.66448003654E+03  0.50400001928E-02 0.  1.
</event>
<event>
 5   0  0.1037321E-03  0.1634799E+04  0.7818609E-02  0.8799451E-01
        2   -1    0    0  501    0  0.00000000000E+00  0.00000000000E+00  0.10015472602E+04  0.10015472602E+04  0.25500000920E-02 0.  1.
       -2   -1    0    0    0  501  0.00000000000E+00  0.00000000000E+00 -0.66710936999E+03  0.66710936999E+03  0.25500000920E-02 0. -1.
    10030    2    1    2    0    0  0.00000000000E+00  0.00000000000E+00  0.33443789021E+03  0.16686566302E+04  0.16347985341E+04 0.  0.
        5    1    3    3  502    0 -0.70739460686E+03 -0.36920932802E+03 -0.13642305390E+02  0.79807948238E+03  0.46999998093E+01 0. -1.
       -5    1    3    3    0  502  0.70739460686E+03  0.36920932802E+03  0.34808019560E+03  0.87057714780E+03  0.46999998093E+01 0.  1.
</event>
<event>
 5   0  0.1037321E-03  0.1588494E+04  0.7818609E-02  0.8827648E-01
        2   -1    0    0  501    0  0.00000000000E+00  0.00000000000E+00  0.11567056313E+04  0.11567056313E+04  0.25500000920E-02 0.  1.
       -2   -1    0    0    0  501  0.00000000000E+00  0.00000000000E+00 -0.54536645269E+03  0.54536645269E+03  0.25500000920E-02 0. -1.
    10030    2    1    2    0    0  0.00000000000E+00  0.00000000000E+00  0.61133917865E+03  0.17020720840E+04  0.15884941888E+04 0.  0.
        5    1    3    3  502    0  0.54120901382E+03 -0.57545412251E+03  0.21762568117E+03  0.81941300384E+03  0.46999998093E+01 0.  1.
       -5    1    3    3    0  502 -0.54120901382E+03  0.57545412251E+03  0.39371349747E+03  0.88265908019E+03  0.46999998093E+01 0. -1.
</event>
<event>
 5   0  0.1000121E-03  0.1602879E+04  0.7818609E-02  0.8818782E-01
       -2   -1    0    0    0  501  0.00000000000E+00  0.00000000000E+00  0.75949093979E+03  0.75949093979E+03  0.25500000920E-02 0.  1.
        2   -1    0    0  501    0  0.00000000000E+00  0.00000000000E+00 -0.84570457532E+03  0.84570457532E+03  0.25500000920E-02 0. -1.
    10030    2    1    2    0    0  0.00000000000E+00  0.00000000000E+00 -0.86213635530E+02  0.16051955151E+04  0.16028786139E+04 0.  0.
        4    1    3    3  502    0 -0.66170406989E+02 -0.24257297072E+03  0.71896829474E+03  0.76166737532E+03  0.12699999809E+01 0.  1.
       -4    1    3    3    0  502  0.66170406989E+02  0.24257297072E+03 -0.80518193027E+03  0.84352813979E+03  0.12699999809E+01 0. -1.
</event>
<event>
 5   0  0.5425525E-04  0.1570902E+04  0.7818609E-02  0.8838626E-01
       -1   -1    0    0    0  501  0.00000000000E+00  0.00000000000E+00  0.51266933767E+03  0.51266933770E+03  0.50400001928E-02 0. -1.
        1   -1    0    0  501    0  0.00000000000E+00  0.00000000000E+00 -0.12033746007E+04  0.12033746007E+04  0.50400001928E-02 0.  1.
    10030    2    1    2    0    0  0.00000000000E+00  0.00000000000E+00 -0.69070526302E+03  0.17160439384E+04  0.15709019824E+04 0.  0.
        5    1    3    3  502    0 -0.70288661793E+03  0.20552034644E+03 -0.35176280360E+02  0.73317642568E+03  0.46999998093E+01 0. -1.
       -5    1    3    3    0  502  0.70288661793E+03 -0.20552034644E+03 -0.65552898266E+03  0.98286751273E+03  0.46999998093E+01 0.  1.
</event>
<event>
 5   0  0.1057872E-03  0.1590386E+04  0.7818609E-02  0.8826476E-01
        2   -1    0    0  501    0  0.00000000000E+00  0.00000000000E+00  0.13485849278E+04  0.13485849278E+04  0.25500000920E-02 0. -1.
       -2   -1    0    0    0  501  0.00000000000E+00  0.00000000000E+00 -0.46888558669E+03  0.46888558669E+03  0.25500000920E-02 0.  1.
    10030    2    1    2    0    0  0.00000000000E+00  0.00000000000E+00  0.87969934112E+03  0.18174705145E+04  0.15903861607E+04 0.  0.
        2    1    3    3  502    0 -0.37190647760E+03  0.36240891899E+03 -0.24836673694E+03  0.57562200155E+03  0.25500000920E-02 0.  1.
       -2    1    3    3    0  502  0.37190647760E+03 -0.36240891899E+03  0.11280660781E+04  0.12418485129E+04  0.25500000920E-02 0. -1.
</event>
<event>
 5   0  0.5281116E-04  0.1597752E+04  0.7818609E-02  0.8821930E-01
        1   -1    0    0  501    0  0.00000000000E+00  0.00000000000E+00  0.85269607020E+03  0.85269607021E+03  0.50400001928E-02 0.  1.
       -1   -1    0    0    0  501  0.00000000000E+00  0.00000000000E+00 -0.74845290663E+03  0.74845290665E+03  0.50400001928E-02 0. -1.
    10030    2    1    2    0    0  0.00000000000E+00  0.00000000000E+00  0.10424316357E+03  0.16011489769E+04  0.15977519861E+04 0.  0.
        2    1    3    3  502    0  0.13689574956E+03 -0.48007849434E+03 -0.57289270552E+03  0.75988279295E+03  0.25500000920E-02 0. -1.
       -2    1    3    3    0  502 -0.13689574956E+03  0.48007849434E+03  0.67713586909E+03  0.84126618391E+03  0.25500000920E-02 0.  1.
</event>
<event>
 5   0  0.1057872E-03  0.1673239E+04  0.7818609E-02  0.8776776E-01
        2   -1    0    0  501    0  0.00000000000E+00  0.00000000000E+00  0.25273797237E+04  0.25273797237E+04  0.25500000920E-02 0.  1.
       -2   -1    0    0    0  501  0.00000000000E+00  0.00000000000E+00 -0.27694000859E+03  0.27694000860E+03  0.25500000920E-02 0. -1.
    10030    2    1    2    0    0  0.00000000000E+00  0.00000000000E+00  0.22504397151E+04  0.28043197323E+04  0.16732394478E+04 0.  0.
        2    1    3    3  502    0 -0.37419956016E+03  0.12095595000E+03 -0.11237354853E+03  0.40900301598E+03  0.25500000920E-02 0. -1.
       -2    1    3    3    0  502  0.37419956016E+03 -0.12095595000E+03  0.23628132637E+04  0.23953167164E+04  0.25500000920E-02 0.  1.
</event>
<event>
 5   0  0.5425525E-04  0.1620981E+04  0.7818609E-02  0.8807761E-01
        1   -1    0    0  501    0  0.00000000000E+00  0.00000000000E+00  0.11075441456E+04  0.11075441456E+04  0.50400001928E-02 0. -1.
       -1   -1    0    0    0  501  0.00000000000E+00  0.00000000000E+00 -0.59310943219E+03  0.59310943221E+03  0.50400001928E-02 0.  1.
    10030    2    1    2    0    0  0.00000000000E+00  0.00000000000E+00  0.51443471338E+03  0.17006535778E+04  0.16209810355E+04 0.  0.
        5    1    3    3  502    0 -0.47901931310E+03  0.63805934542E+03  0.40667462133E+03  0.89553646952E+03  0.46999998093E+01 0. -1.
       -5    1    3    3    0  502  0.47901931310E+03 -0.63805934542E+03  0.10776009206E+03  0.80511710828E+03  0.46999998093E+01 0.  1.
</event>
<event>
 5   0  0.1000121E-03  0.1618515E+04  0.7818609E-02  0.8809254E-01
       -2   -1    0    0    0  501  0.00000000000E+00  0.00000000000E+00  0.92140062624E+03  0.92140062624E+03  0.25500000920E-02 0. -1.
        2   -1    0    0  501    0  0.00000000000E+00  0.00000000000E+00 -0.71076299503E+03  0.71076299503E+03  0.25500000920E-02 0.  1.
    10030    2    1    2    0    0  0.00000000000E+00  0.00000000000E+00  0.21063763121E+03  0.16321636213E+04  0.16185147126E+04 0.  0.
        4    1    3    3  502    0 -0.65980286658E+03  0.46609652012E+03  0.56850343127E+02  0.80982674889E+03  0.12699999809E+01 0.  1.
       -4    1    3    3    0  502  0.65980286658E+03 -0.46609652012E+03  0.15378728808E+03  0.82233687238E+03  0.12699999809E+01 0. -1.
</event>
<event>
 5   0  0.5288658E-04  0.1651449E+04  0.7818609E-02  0.8789550E-01
       -1   -1    0    0    0  501  0.00000000000E+00  0.00000000000E+00  0.25804274658E+03  0.25804274662E+03  0.50400001928E-02 0.  1.
        1   -1    0    0  501    0  0.00000000000E+00  0.00000000000E+00 -0.26422781163E+04  0.26422781163E+04  0.50400001928E-02 0. -1.
    10030    2    1    2    0    0  0.00000000000E+00  0.00000000000E+00 -0.23842353698E+04  0.29003208630E+04  0.16514487003E+04 0.  0.
        1    1    3    3  502    0 -0.48258696840E+03  0.82123708701E+02 -0.24277111054E+02  0.49012637528E+03  0.50400001928E-02 0.  1.
       -1    1    3    3    0  502  0.48258696840E+03 -0.82123708701E+02 -0.23599582587E+04  0.24101944877E+04  0.50400001928E-02 0. -1.
</event>
<event>
 5   0  0.5425525E-04  0.1552098E+04  0.7818609E-02  0.8850529E-01
       -1   -1    0    0    0  501  0.00000000000E+00  0.00000000000E+00  0.69213491048E+03  0.69213491050E+03  0.50400001928E-02 0.  1.
        1   -1    0    0  501    0  0.00000000000E+00  0.00000000000E+00 -0.87013703900E+03  0.87013703902E+03  0.50400001928E-02 0. -1.
    10030    2    1    2    0    0  0.00000000000E+00  0.00000000000E+00 -0.17800212852E+03  0.15622719495E+04  0.15520982206E+04 0.  0.
        5    1    3    3  502    0 -0.48346174296E+03 -0.57893549465E+03  0.94756725904E+02  0.76019898117E+03  0.46999998093E+01 0.  1.
       -5    1    3    3    0  502  0.48346174296E+03  0.57893549465E+03 -0.27275885443E+03  0.80207296834E+03  0.46999998093E+01 0. -1.
</event>
<event>
 5   0  0.5532881E-04  0.1555431E+04  0.7818609E-02  0.8848406E-01
        1   -1    0    0  501    0  0.00000000000E+00  0.00000000000E+00  0.14096585415E+04  0.14096585415E+04  0.50400001928E-02 0. -1.
       -1   -1    0    0    0  501  0.00000000000E+00  0.00000000000E+00 -0.42906955068E+03  0.42906955071E+03  0.50400001928E-02 0.  1.
    10030    2    1    2    0    0  0.00000000000E+00  0.00000000000E+00  0.98058899078E+03  0.18387280922E+04  0.15554312033E+04 0.  0.
        4    1    3    3  502    0 -0.23289096299E+03  0.14059137763E+03 -0.37099035796E+03  0.46004303571E+03  0.12699999809E+01 0.  1.
       -4    1    3    3    0  502  0.23289096299E+03 -0.14059137763E+03  0.13515793487E+04  0.13786850565E+04  0.12699999809E+01 0. -1.
</event>
<event>
 5   0  0.1057872E-03  0.1612445E+04  0.7818609E-02  0.8812939E-01
       -2   -1    0    0    0  501  0.00000000000E+00  0.00000000000E+00  0.39173614814E+03  0.39173614814E+03  0.25500000920E-02 0.  1.
        2   -1    0    0  501    0  0.00000000000E+00  0.00000000000E+00 -0.16592659953E+04  0.16592659953E+04  0.25500000920E-02 0. -1.
    10030    2    1    2    0    0  0.00000000000E+00  0.00000000000E+00 -0.12675298472E+04  0.20510021435E+04  0.16124446902E+04 0.  0.
        2    1    3    3  502    0 -0.56683853001E+03  0.13797986330E+03 -0.13415752684E+04  0.14629314962E+04  0.25500000920E-02 0. -1.
       -2    1    3    3    0  502  0.56683853001E+03 -0.13797986330E+03  0.74045421207E+02  0.58807064728E+03  0.25500000920E-02 0.  1.
</event>
<event>
 5   0  0.9844690E-04  0.1249524E+04  0.7818609E-02  0.9070580E-01
       -2   -1    0    0    0  501  0.00000000000E+00  0.00000000000E+00  0.29580197893E+03  0.29580197895E+03  0.25500000920E-02 0. -1.
        2   -1    0    0  501    0  0.00000000000E+00  0.00000000000E+00 -0.13195566117E+04  0.13195566118E+04  0.25500000920E-02 0.  1.
    10030    2    1    2    0    0  0.00000000000E+00  0.00000000000E+00 -0.10237546328E+04  0.16153585907E+04  0.12495238406E+04 0.  0.
        3    1    3    3  502    0  0.28555432855E+03  0.54442760634E+03 -0.36800803068E+03  0.71650025397E+03  0.10100000352E+00 0. -1.
       -3    1    3    3    0  502 -0.28555432855E+03 -0.54442760634E+03 -0.65574660214E+03  0.89885833673E+03  0.10100000352E+00 0.  1.
</event>
<event>
 5   0  0.5425525E-04  0.1612030E+04  0.7818609E-02  0.8813192E-01
        1   -1    0    0  501    0  0.00000000000E+00  0.00000000000E+00  0.69699597023E+03  0.69699597025E+03  0.50400001928E-02 0.  1.
       -1   -1    0    0    0  501  0.00000000000E+00  0.00000000000E+00 -0.93208565848E+03  0.93208565849E+03  0.50400001928E-02 0. -1.
    10030    2    1    2    0    0  0.00000000000E+00  0.00000000000E+00 -0.23508968825E+03  0.16290816287E+04  0.16120297118E+04 0.  0.
        5    1    3    3  502    0 -0.35669123560E+03  0.71509278237E+03 -0.22378313259E+03  0.82987186082E+03  0.46999998093E+01 0. -1.
       -5    1    3    3    0  502  0.35669123560E+03 -0.71509278237E+03 -0.11306555655E+02  0.79920976792E+03  0.46999998093E+01 0.  1.
</event>
<event>
 5   0  0.1037321E-03  0.1588042E+04  0.7818609E-02  0.8827928E-01
        2   -1    0    0  501    0  0.00000000000E+00  0.00000000000E+00  0.77229165333E+03  0.77229165333E+03  0.25500000920E-02 0. -1.
       -2   -1    0    0    0  501  0.00000000000E+00  0.00000000000E+00 -0.81636177491E+03  0.81636177491E+03  0.25500000920E-02 0.  1.
    10030    2    1    2    0    0  0.00000000000E+00  0.00000000000E+00 -0.44070121583E+02  0.15886534282E+04  0.15880420459E+04 0.  0.
        5    1    3    3  502    0 -0.54691577781E+03  0.91995913022E+02  0.54639772222E+03  0.77855807547E+03  0.46999998093E+01 0. -1.
       -5    1    3    3    0  502  0.54691577781E+03 -0.91995913022E+02 -0.59046784380E+03  0.81009535278E+03  0.46999998093E+01 0.  1.
</event>
<event>
 5   0  0.1037321E-03  0.1606307E+04  0.7818609E-02  0.8816683E-01
       -2   -1    0    0    0  501  0.00000000000E+00  0.00000000000E+00  0.36709698900E+03  0.36709698901E+03  0.25500000920E-02 0.  1.
        2   -1    0    0  501    0  0.00000000000E+00  0.00000000000E+00 -0.17571790782E+04  0.17571790782E+04  0.25500000920E-02 0. -1.
    10030    2    1    2    0    0  0.00000000000E+00  0.00000000000E+00 -0.13900820892E+04  0.21242760672E+04  0.16063065072E+04 0.  0.
        5    1    3    3  502    0 -0.17647477742E+03  0.31293501997E+03  0.25488793609E+03  0.44052426011E+03  0.46999998093E+01 0.  1.
       -5    1    3    3    0  502  0.17647477742E+03 -0.31293501997E+03 -0.16449700253E+04  0.16837518071E+04  0.46999998093E+01 0. -1.
</event>
<event>
 5   0  0.1037321E-03  0.1612079E+04  0.7818609E-02  0.8813162E-01
        2   -1    0    0  501    0  0.00000000000E+00  0.00000000000E+00  0.14886280938E+04  0.14886280939E+04  0.25500000920E-02 0. -1.
       -2   -1    0    0    0  501  0.00000000000E+00  0.00000000000E+00 -0.43644182764E+03  0.43644182765E+03  0.25500000920E-02 0.  1.
    10030    2    1    2    0    0  0.00000000000E+00  0.00000000000E+00  0.10521862662E+04  0.19250699215E+04  0.16120788640E+04 0.  0.
        5    1    3    3  502    0  0.53378934526E+02 -0.32420712764E+02 -0.43353181922E+03  0.43803235216E+03  0.46999998093E+01 0.  1.
       -5    1    3    3    0  502 -0.53378934526E+02  0.32420712764E+02  0.14857180854E+04  0.14870375693E+04  0.46999998093E+01 0. -1.
</event>
<event>
 5   0  0.5532881E-04  0.1542433E+04  0.7818609E-02  0.8856716E-01
        1   -1    0    0  501    0  0.00000000000E+00  0.00000000000E+00  0.32153839107E+03  0.32153839111E+03  0.50400001928E-02 0.  1.
       -1   -1    0    0    0  501  0.00000000000E+00  0.00000000000E+00 -0.18497777080E+04  0.18497777080E+04  0.50400001928E-02 0. -1.
    10030    2    1    2    0    0  0.00000000000E+00  0.00000000000E+00 -0.15282393169E+04  0.21713160991E+04  0.15424325568E+04 0.  0.
        4    1    3    3  502    0 -0.43757032389E+03  0.45296274428E+03 -0.13751751213E+03  0.64463611061E+03  0.12699999809E+01 0.  1.
       -4    1    3    3    0  502  0.43757032389E+03 -0.45296274428E+03 -0.13907218048E+04  0.15266799885E+04  0.12699999809E+01 0. -1.
</event>
<event>
 5   0  0.1000121E-03  0.1482868E+04  0.7818609E-02  0.8895926E-01
        2   -1    0    0  501    0  0.00000000000E+00  0.00000000000E+00  0.10443411744E+04  0.10443411744E+04  0.25500000920E-02 0.  1.
       -2   -1    0    0    0  501  0.00000000000E+00  0.00000000000E+00 -0.52638362214E+03  0.52638362215E+03  0.25500000920E-02 0. -1.
    10030    2    1    2    0    0  0.00000000000E+00  0.00000000000E+00  0.51795755223E+03  0.15707247965E+04  0.14828676139E+04 0.  0.
        4    1    3    3  502    0  0.14710158144E+03  0.44288337706E+02  0.10272967811E+04  0.10387206658E+04  0.12699999809E+01 0.  1.
       -4    1    3    3    0  502 -0.14710158144E+03 -0.44288337706E+02 -0.50933922890E+03  0.53200413073E+03  0.12699999809E+01 0. -1.
</event>
<event>
 5   0  0.5288658E-04  0.1623014E+04  0.7818609E-02  0.8806533E-01
        1   -1    0    0  501    0  0.00000000000E+00  0.00000000000E+00  0.19536159588E+04  0.19536159589E+04  0.50400001928E-02 0. -1.
       -1   -1    0    0    0  501  0.00000000000E+00  0.00000000000E+00 -0.33708941855E+03  0.33708941859E+03  0.50400001928E-02 0.  1.
    10030    2    1    2    0    0  0.00000000000E+00  0.00000000000E+00  0.16165265403E+04  0.22907053774E+04  0.16230135769E+04 0.  0.
        1    1    3    3  502    0  0.41609082437E+03 -0.14992126294E+03 -0.15203740797E+03  0.46767866389E+03  0.50400001928E-02 0.  1.
       -1    1    3    3    0  502 -0.41609082437E+03  0.14992126294E+03  0.17685639483E+04  0.18230267136E+04  0.50400001928E-02 0. -1.
</event>
<event>
 5   0  0.5288658E-04  0.1604240E+04  0.7818609E-02  0.8817947E-01
       -1   -1    0    0    0  501  0.00000000000E+00  0.00000000000E+00  0.35691042979E+03  0.35691042982E+03  0.50400001928E-02 0. -1.
        1   -1    0    0  501    0  0.00000000000E+00  0.00000000000E+00 -0.18026835712E+04  0.18026835712E+04  0.50400001928E-02 0.  1.
    10030    2    1    2    0    0  0.00000000000E+00  0.00000000000E+00 -0.14457731414E+04  0.21595940011E+04  0.16042400920E+04 0.  0.
        1    1    3    3  502    0 -0.16743135070E+03 -0.58315552208E+03 -0.14292045966E+04  0.15526523755E+04  0.50400001928E-02 0.  1.
       -1    1    3    3    0  502  0.16743135070E+03  0.58315552208E+03 -0.16568544827E+02  0.60694162556E+03  0.50400001928E-02 0. -1.
</event>
<event>
 5   0  0.5281116E-04  0.1631336E+04  0.7818609E-02  0.8801525E-01
        1   -1    0    0  501    0  0.00000000000E+00  0.00000000000E+00  0.14214437252E+04  0.14214437252E+04  0.50400001928E-02 0.  1.
       -1   -1    0    0    0  501  0.00000000000E+00  0.00000000000E+00 -0.46805543133E+03  0.46805543135E+03  0.50400001928E-02 0. -1.
    10030    2    1    2    0    0  0.00000000000E+00  0.00000000000E+00  0.95338829389E+03  0.18894991566E+04  0.16313362081E+04 0.  0.
        2    1    3    3  502    0  0.14721664517E+03 -0.53676691012E+03  0.11673108494E+04  0.12932154018E+04  0.25500000920E-02 0.  1.
       -2    1    3    3    0  502 -0.14721664517E+03  0.53676691012E+03 -0.21392255550E+03  0.59628375475E+03  0.25500000920E-02 0. -1.
</event>
<event>
 5   0  0.1000121E-03  0.1765317E+04  0.7818609E-02  0.8724964E-01
        2   -1    0    0  501    0  0.00000000000E+00  0.00000000000E+00  0.13709292918E+04  0.13709292918E+04  0.25500000920E-02 0. -1.
       -2   -1    0    0    0  501  0.00000000000E+00  0.00000000000E+00 -0.56829064074E+03  0.56829064075E+03  0.25500000920E-02 0.  1.
    10030    2    1    2    0    0  0.00000000000E+00  0.00000000000E+00  0.80263865105E+03  0.19392199325E+04  0.17653172923E+04 0.  0.
        4    1    3    3  502    0 -0.84995813038E+03  0.57536421716E+02  0.65503822434E+03  0.10746236325E+04  0.12699999809E+01 0.  1.
       -4    1    3    3    0  502  0.84995813038E+03 -0.57536421716E+02  0.14760042671E+03  0.86459630007E+03  0.12699999809E+01 0. -1.
</event>
<event>
 5   0  0.5532881E-04  0.1495140E+04  0.7818609E-02  0.8887691E-01
        1   -1    0    0  501    0  0.00000000000E+00  0.00000000000E+00  0.10516859955E+04  0.10516859955E+04  0.50400001928E-02 0. -1.
       -1   -1    0    0    0  501  0.00000000000E+00  0.00000000000E+00 -0.53139555238E+03  0.53139555241E+03  0.50400001928E-02 0.  1.
    10030    2    1    2    0    0  0.00000000000E+00  0.00000000000E+00  0.52029044311E+03  0.15830815479E+04  0.14951404757E+04 0.  0.
        4    1    3    3  502    0 -0.25940199353E+03 -0.56216884726E+02 -0.47982377554E+03  0.54834496519E+03  0.12699999809E+01 0.  1.
       -4    1    3    3    0  502  0.25940199353E+03  0.56216884726E+02  0.10001142187E+04  0.10347365827E+04  0.12699999809E+01 0. -1.
</event>
<event>
 5   0  0.5288658E-04  0.1614477E+04  0.7818609E-02  0.8811703E-01
       -1   -1    0    0    0  501  0.00000000000E+00  0.00000000000E+00  0.44872400601E+03  0.44872400604E+03  0.50400001928E-02 0.  1.
        1   -1    0    0  501    0  0.00000000000E+00  0.00000000000E+00 -0.14521941832E+04  0.14521941832E+04  0.50400001928E-02 0. -1.
    10030    2    1    2    0    0  0.00000000000E+00  0.00000000000E+00 -0.10034701772E+04  0.19009181893E+04  0.16144774900E+04 0.  0.
        1    1    3    3  502    0  0.71494318397E+03  0.18354634153E+03 -0.88652161404E+03  0.11535829350E+04  0.50400001928E-02 0. -1.
       -1    1    3    3    0  502 -0.71494318397E+03 -0.18354634153E+03 -0.11694856319E+03  0.74733525426E+03  0.50400001928E-02 0.  1.
</event>
<event>
 5   0  0.1030027E-03  0.1593297E+04  0.7818609E-02  0.8824676E-01
       -2   -1    0    0    0  501  0.00000000000E+00  0.00000000000E+00  0.72113029361E+03  0.72113029362E+03  0.25500000920E-02 0.  1.
        2   -1    0    0  501    0  0.00000000000E+00  0.00000000000E+00 -0.88007530495E+03  0.88007530495E+03  0.25500000920E-02 0. -1.
    10030    2    1    2    0    0  0.00000000000E+00  0.00000000000E+00 -0.15894501134E+03  0.16012055986E+04  0.15932971638E+04 0.  0.
        1    1    3    3  502    0 -0.43229607841E+03  0.66657487687E+03 -0.20469955903E+02  0.79474586190E+03  0.50400001928E-02 0.  1.
       -1    1    3    3    0  502  0.43229607841E+03 -0.66657487687E+03 -0.13847505543E+03  0.80645973668E+03  0.50400001928E-02 0. -1.
</event>
<event>
 5   0  0.1037321E-03  0.1575240E+04  0.7818609E-02  0.8835905E-01
        2   -1    0    0  501    0  0.00000000000E+00  0.00000000000E+00  0.78813871124E+03  0.78813871125E+03  0.25500000920E-02 0.  1.
       -2   -1    0    0    0  501  0.00000000000E+00  0.00000000000E+00 -0.78710202883E+03  0.78710202884E+03  0.25500000920E-02 0. -1.
    10030    2    1    2    0    0  0.00000000000E+00  0.00000000000E+00  0.10366824122E+01  0.15752407401E+04  0.15752403990E+04 0.  0.
        5    1    3    3  502    0  0.22889615412E+03 -0.75333957121E+03  0.20755185749E+02  0.78763368812E+03  0.46999998093E+01 0. -1.
       -5    1    3    3    0  502 -0.22889615412E+03  0.75333957121E+03 -0.19718503337E+02  0.78760705196E+03  0.46999998093E+01 0.  1.
</event>
<event>
 5   0  0.5532881E-04  0.1607364E+04  0.7818609E-02  0.8816037E-01
       -1   -1    0    0    0  501  0.00000000000E+00  0.00000000000E+00  0.11362311156E+04  0.11362311156E+04  0.50400001928E-02 0.  1.
        1   -1    0    0  501    0  0.00000000000E+00  0.00000000000E+00 -0.56846215388E+03  0.56846215390E+03  0.50400001928E-02 0. -1.
    10030    2    1    2    0    0  0.00000000000E+00  0.00000000000E+00  0.56776896172E+03  0.17046932695E+04  0.16073635398E+04 0.  0.
        4    1    3    3  502    0  0.20108709910E+03  0.35676698490E+02 -0.54048197392E+03  0.57778129536E+03  0.12699999809E+01 0. -1.
       -4    1    3    3    0  502 -0.20108709910E+03 -0.35676698490E+02  0.11082509356E+04  0.11269119741E+04  0.12699999809E+01 0.  1.
</event>
<event>
 5   0  0.1000121E-03  0.1553395E+04  0.7818609E-02  0.8849702E-01
       -2   -1    0    0    0  501  0.00000000000E+00  0.00000000000E+00  0.75090362049E+03  0.75090362050E+03  0.25500000920E-02 0. -1.
        2   -1    0    0  501    0  0.00000000000E+00  0.00000000000E+00 -0.80337736530E+03  0.80337736530E+03  0.25500000920E-02 0.  1.
    10030    2    1    2    0    0  0.00000000000E+00  0.00000000000E+00 -0.52473744804E+02  0.15542809858E+04  0.15533949559E+04 0.  0.
        4    1    3    3  502    0 -0.53448583993E+03  0.66134892081E+00 -0.59010228068E+03  0.79617703121E+03  0.12699999809E+01 0.  1.
       -4    1    3    3    0  502  0.53448583993E+03 -0.66134892081E+00  0.53762853588E+03  0.75810395458E+03  0.12699999809E+01 0. -1.
</event>
<event>
 5   0  0.1057872E-03  0.1586320E+04  0.7818609E-02  0.8828996E-01
       -2   -1    0    0    0  501  0.00000000000E+00  0.00000000000E+00  0.70863757159E+03  0.70863757159E+03  0.25500000920E-02 0.  1.
        2   -1    0    0  501    0  0.00000000000E+00  0.00000000000E+00 -0.88776435580E+03  0.88776435580E+03  0.25500000920E-02 0. -1.
    10030    2    1    2    0    0  0.00000000000E+00  0.00000000000E+00 -0.17912678421E+03  0.15964019274E+04  0.15863204938E+04 0.  0.
        2    1    3    3  502    0  0.24077580380E+03  0.75526368193E+03 -0.62805689560E+02  0.79519857368E+03  0.25500000920E-02 0. -1.
       -2    1    3    3    0  502 -0.24077580380E+03 -0.75526368193E+03 -0.11632109465E+03  0.80120335371E+03  0.25500000920E-02 0.  1.
</event>
<event>
 5   0  0.5288658E-04  0.1615117E+04  0.7818609E-02  0.8811314E-01
        1   -1    0    0  501    0  0.00000000000E+00  0.00000000000E+00  0.96702338014E+03  0.96702338016E+03  0.50400001928E-02 0. -1.
       -1   -1    0    0    0  501  0.00000000000E+00  0.00000000000E+00 -0.67439009828E+03  0.67439009830E+03  0.50400001928E-02 0.  1.
    10030    2    1    2    0    0  0.00000000000E+00  0.00000000000E+00  0.29263328186E+03  0.16414134785E+04  0.16151173238E+04 0.  0.
        1    1    3    3  502    0 -0.44789243203E+03 -0.14715529857E+02  0.82906315042E+03  0.94242765500E+03  0.50400001928E-02 0. -1.
       -1    1    3    3    0  502  0.44789243203E+03  0.14715529857E+02 -0.53642986856E+03  0.69898582346E+03  0.50400001928E-02 0.  1.
</event>
<event>
 5   0  0.1057872E-03  0.1622388E+04  0.7818609E-02  0.8806911E-01
       -2   -1    0    0    0  501  0.00000000000E+00  0.00000000000E+00  0.31313543795E+03  0.31313543796E+03  0.25500000920E-02 0.  1.
        2   -1    0    0  501    0  0.00000000000E+00  0.00000000000E+00 -0.21014408824E+04  0.21014408824E+04  0.25500000920E-02 0. -1.
    10030    2    1    2    0    0  0.00000000000E+00  0.00000000000E+00 -0.17883054444E+04  0.24145763203E+04  0.16223878834E+04 0.  0.
        2    1    3    3  502    0  0.68981344915E+03  0.25205093274E+03 -0.38147489634E+03  0.82758405245E+03  0.25500000920E-02 0. -1.
       -2    1    3    3    0  502 -0.68981344915E+03 -0.25205093274E+03 -0.14068305481E+04  0.15869922679E+04  0.25500000920E-02 0.  1.
</event>
<event>
 5   0  0.5281116E-04  0.1598859E+04  0.7818609E-02  0.8821250E-01
        1   -1    0    0  501    0  0.00000000000E+00  0.00000000000E+00  0.12890126478E+04  0.12890126478E+04  0.50400001928E-02 0. -1.
       -1   -1    0    0    0  501  0.00000000000E+00  0.00000000000E+00 -0.49579586598E+03  0.49579586600E+03  0.50400001928E-02 0.  1.
    10030    2    1    2    0    0  0.00000000000E+00  0.00000000000E+00  0.79321678183E+03  0.17848085138E+04  0.15988585203E+04 0.  0.
        2    1    3    3  502    0  0.49743321286E+03 -0.48292495146E+03 -0.47717320352E+02  0.69493399159E+03  0.25500000920E-02 0.  1.
       -2    1    3    3    0  502 -0.49743321286E+03  0.48292495146E+03  0.84093410218E+03  0.10898745222E+04  0.25500000920E-02 0. -1.
</event>
<event>
 5   0  0.5532881E-04  0.1605940E+04  0.7818609E-02  0.8816907E-01
        1   -1    0    0  501    0  0.00000000000E+00  0.00000000000E+00  0.85634837541E+03  0.85634837542E+03  0.50400001928E-02 0. -1.
       -1   -1    0    0    0  501  0.00000000000E+00  0.00000000000E+00 -0.75291844762E+03  0.75291844763E+03  0.50400001928E-02 0.  1.
    10030    2    1    2    0    0  0.00000000000E+00  0.00000000000E+00  0.10342992779E+03  0.16092668231E+04  0.16059395872E+04 0.  0.
        4    1    3    3  502    0 -0.40896785146E+03  0.19667168488E+03 -0.61209573604E+03  0.76196932887E+03  0.12699999809E+01 0.  1.
       -4    1    3    3    0  502  0.40896785146E+03 -0.19667168488E+03  0.71552566383E+03  0.84729749419E+03  0.12699999809E+01 0. -1.
</event>
<event>
 5   0  0.1030027E-03  0.1618564E+04  0.7818609E-02  0.8809224E-01
       -2   -1    0    0    0  501  0.00000000000E+00  0.00000000000E+00  0.49512884351E+03  0.49512884351E+03  0.25500000920E-02 0.  1.
        2   -1    0    0  501    0  0.00000000000E+00  0.00000000000E+00 -0.13227621981E+04  0.13227621981E+04  0.25500000920E-02 0. -1.
    10030    2    1    2    0    0  0.00000000000E+00  0.00000000000E+00 -0.82763335460E+03  0.18178910416E+04  0.16185644471E+04 0.  0.
        1    1    3    3  502    0  0.53828599148E+03 -0.57180484808E+03 -0.19422680458E+03  0.80897258578E+03  0.50400001928E-02 0.  1.
       -1    1    3    3    0  502 -0.53828599148E+03  0.57180484808E+03 -0.63340655002E+03  0.10089184558E+04  0.50400001928E-02 0. -1.
</event>
<event>
 5   0  0.1057872E-03  0.1640296E+04  0.7818609E-02  0.8796168E-01
        2   -1    0    0  501    0  0.00000000000E+00  0.00000000000E+00  0.14790549013E+04  0.14790549013E+04  0.25500000920E-02 0. -1.
       -2   -1    0    0    0  501  0.00000000000E+00  0.00000000000E+00 -0.45477862649E+03  0.45477862650E+03  0.25500000920E-02 0.  1.
    10030    2    1    2    0    0  0.00000000000E+00  0.00000000000E+00  0.10242762748E+04  0.19338335278E+04  0.16402957740E+04 0.  0.
        2    1    3    3  502    0 -0.75592238762E+03  0.26553485895E+02  0.13835423411E+03  0.76893799348E+03  0.25500000920E-02 0.  1.
       -2    1    3    3    0  502  0.75592238762E+03 -0.26553485895E+02  0.88592204074E+03  0.11648955344E+04  0.25500000920E-02 0. -1.
</event>
<event>
 5   0  0.5288658E-04  0.1605640E+04  0.7818609E-02  0.8817091E-01
       -1   -1    0    0    0  501  0.00000000000E+00  0.00000000000E+00  0.86828943643E+03  0.86828943644E+03  0.50400001928E-02 0. -1.
        1   -1    0    0  501    0  0.00000000000E+00  0.00000000000E+00 -0.74228680172E+03  0.74228680173E+03  0.50400001928E-02 0.  1.
    10030    2    1    2    0    0  0.00000000000E+00  0.00000000000E+00  0.12600263471E+03  0.16105762382E+04  0.16056397962E+04 0.  0.
        1    1    3    3  502    0  0.78425330554E+03  0.13190737897E+03 -0.47186237924E+02  0.79666765025E+03  0.50400001928E-02 0. -1.
       -1    1    3    3    0  502 -0.78425330554E+03 -0.13190737897E+03  0.17318887263E+03  0.81390858793E+03  0.50400001928E-02 0.  1.
</event>
<event>
 5   0  0.5281116E-04  0.1599217E+04  0.7818609E-02  0.8821029E-01
       -1   -1    0    0    0  501  0.00000000000E+00  0.00000000000E+00  0.49719685902E+03  0.49719685904E+03  0.50400001928E-02 0. -1.
        1   -1    0    0  501    0  0.00000000000E+00  0.00000000000E+00 -0.12859567681E+04  0.12859567682E+04  0.50400001928E-02 0.  1.
    10030    2    1    2    0    0  0.00000000000E+00  0.00000000000E+00 -0.78875990913E+03  0.17831536272E+04  0.15992168908E+04 0.  0.
        2    1    3    3  502    0 -0.42079790727E+03  0.72023075153E+02  0.35948638079E+03  0.55811169142E+03  0.25500000920E-02 0. -1.
       -2    1    3    3    0  502  0.42079790727E+03 -0.72023075153E+02 -0.11482462899E+04  0.12250419358E+04  0.25500000920E-02 0.  1.
</event>
<event>
 5   0  0.1030027E-03  0.1581832E+04  0.7818609E-02  0.8831788E-01
        2   -1    0    0  501    0  0.00000000000E+00  0.00000000000E+00  0.92367510219E+03  0.92367510219E+03  0.25500000920E-02 0. -1.
       -2   -1    0    0    0  501  0.00000000000E+00  0.00000000000E+00 -0.67723840815E+03  0.67723840816E+03  0.25500000920E-02 0.  1.
    10030    2    1    2    0    0  0.00000000000E+00  0.00000000000E+00  0.24643669403E+03  0.16009135103E+04  0.15818321730E+04 0.  0.
        1    1    3    3  502    0 -0.34051629534E+02  0.30421312161E+03  0.86129120980E+03  0.91407203488E+03  0.50400001928E-02 0. -1.
       -1    1    3    3    0  502  0.34051629534E+02 -0.30421312161E+03 -0.61485451577E+03  0.68684147547E+03  0.50400001928E-02 0.  1.
</event>
<event>
 5   0  0.5281116E-04  0.1605773E+04  0.7818609E-02  0.8817009E-01
       -1   -1    0    0    0  501  0.00000000000E+00  0.00000000000E+00  0.33541120941E+03  0.33541120945E+03  0.50400001928E-02 0.  1.
        1   -1    0    0  501    0  0.00000000000E+00  0.00000000000E+00 -0.19219001682E+04  0.19219001682E+04  0.50400001928E-02 0. -1.
    10030    2    1    2    0    0  0.00000000000E+00  0.00000000000E+00 -0.15864889588E+04  0.22573113777E+04  0.16057731594E+04 0.  0.
        2    1    3    3  502    0 -0.69912291654E+03  0.28149483241E+03 -0.40414268412E+03  0.85518623834E+03  0.25500000920E-02 0.  1.
       -2    1    3    3    0  502  0.69912291654E+03 -0.28149483241E+03 -0.11823462747E+04  0.14021251394E+04  0.25500000920E-02 0. -1.
</event>
<event>
 5   0  0.5623061E-04  0.1566784E+04  0.7818609E-02  0.8841218E-01
        1   -1    0    0  501    0  0.00000000000E+00  0.00000000000E+00  0.45628829401E+03  0.45628829404E+03  0.50400001928E-02 0.  1.
       -1   -1    0    0    0  501  0.00000000000E+00  0.00000000000E+00 -0.13449899284E+04  0.13449899284E+04  0.50400001928E-02 0. -1.
    10030    2    1    2    0    0  0.00000000000E+00  0.00000000000E+00 -0.88870163439E+03  0.18012782224E+04  0.15667841714E+04 0.  0.
        3    1    3    3  502    0  0.39520286377E+03 -0.25697971749E+03  0.27497559744E+03  0.54574304221E+03  0.10100000352E+00 0.  1.
       -3    1    3    3    0  502 -0.39520286377E+03  0.25697971749E+03 -0.11636772318E+04  0.12555351802E+04  0.10100000352E+00 0. -1.
</event>
<event>
 5   0  0.1000121E-03  0.1601236E+04  0.7818609E-02  0.8819789E-01
       -2   -1    0    0    0  501  0.00000000000E+00  0.00000000000E+00  0.45692547921E+03  0.45692547922E+03  0.25500000920E-02 0. -1.
        2   -1    0    0  501    0  0.00000000000E+00  0.00000000000E+00 -0.14028310645E+04  0.14028310645E+04  0.25500000920E-02 0.  1.
    10030    2    1    2    0    0  0.00000000000E+00  0.00000000000E+00 -0.94590558526E+03  0.18597565437E+04  0.16012360930E+04 0.  0.
        4    1    3    3  502    0  0.27334617340E+03 -0.72547223854E+03 -0.70512540442E+03  0.10479654328E+04  0.12699999809E+01 0.  1.
       -4    1    3    3    0  502 -0.27334617340E+03  0.72547223854E+03 -0.24078018084E+03  0.81179111093E+03  0.12699999809E+01 0. -1.
</event>
<event>
 5   0  0.1000121E-03  0.1578964E+04  0.7818609E-02  0.8833577E-01
        2   -1    0    0  501    0  0.00000000000E+00  0.00000000000E+00  0.57670689675E+03  0.57670689676E+03  0.25500000920E-02 0.  1.
       -2   -1    0    0    0  501  0.00000000000E+00  0.00000000000E+00 -0.10807597261E+04  0.10807597261E+04  0.25500000920E-02 0. -1.
    10030    2    1    2    0    0  0.00000000000E+00  0.00000000000E+00 -0.50405282930E+03  0.16574666228E+04  0.15789636953E+04 0.  0.
        4    1    3    3  502    0 -0.12809422954E+03  0.90747139326E+02 -0.10642102702E+04  0.10757268645E+04  0.12699999809E+01 0. -1.
       -4    1    3    3    0  502  0.12809422954E+03 -0.90747139326E+02  0.56015744088E+03  0.58173975832E+03  0.12699999809E+01 0.  1.
</event>
<event>
 5   0  0.1000121E-03  0.1587277E+04  0.7818609E-02  0.8828403E-01
       -2   -1    0    0    0  501  0.00000000000E+00  0.00000000000E+00  0.55465303757E+03  0.55465303758E+03  0.25500000920E-02 0.  1.
        2   -1    0    0  501    0  0.00000000000E+00  0.00000000000E+00 -0.11355965290E+04  0.11355965290E+04  0.25500000920E-02 0. -1.
    10030    2    1    2    0    0  0.00000000000E+00  0.00000000000E+00 -0.58094349147E+03  0.16902495666E+04  0.15872769945E+04 0.  0.
        4    1    3    3  502    0  0.28643936667E+02 -0.52382256453E+03  0.34368706485E+03  0.62716263095E+03  0.12699999809E+01 0.  1.
       -4    1    3    3    0  502 -0.28643936667E+02  0.52382256453E+03 -0.92463055631E+03  0.10630869357E+04  0.12699999809E+01 0. -1.
</event>
<event>
 5   0  0.9844690E-04  0.1637074E+04  0.7818609E-02  0.8798090E-01
       -2   -1    0    0    0  501  0.00000000000E+00  0.00000000000E+00  0.71183557162E+03  0.71183557163E+03  0.25500000920E-02 0.  1.
        2   -1    0    0  501    0  0.00000000000E+00  0.00000000000E+00 -0.94123289446E+03  0.94123289447E+03  0.25500000920E-02 0. -1.
    10030    2    1    2    0    0  0.00000000000E+00  0.00000000000E+00 -0.22939732284E+03  0.16530684661E+04  0.16370742872E+04 0.  0.
        3    1    3    3  502    0 -0.66481661643E+02  0.58038804209E+03  0.46425536094E+03  0.74619242900E+03  0.10100000352E+00 0.  1.
       -3    1    3    3    0  502  0.66481661643E+02 -0.58038804209E+03 -0.69365268378E+03  0.90687603709E+03  0.10100000352E+00 0. -1.
</event>
<event>
 5   0  0.5288658E-04  0.1187864E+04  0.7818609E-02  0.9123546E-01
       -1   -1    0    0    0  501  0.00000000000E+00  0.00000000000E+00  0.67248344456E+03  0.67248344458E+03  0.50400001928E-02 0. -1.
        1   -1    0    0  501    0  0.00000000000E+00  0.00000000000E+00 -0.52455592839E+03  0.52455592842E+03  0.50400001928E-02 0.  1.
    10030    2    1    2    0    0  0.00000000000E+00  0.00000000000E+00  0.14792751616E+03  0.11970393730E+04  0.11878639276E+04 0.  0.
        1    1    3    3  502    0  0.28685376998E+03 -0.40566604513E+03  0.40190820804E+03  0.63904634670E+03  0.50400001928E-02 0. -1.
       -1    1    3    3    0  502 -0.28685376998E+03  0.40566604513E+03 -0.25398069187E+03  0.55799302629E+03  0.50400001928E-02 0.  1.
</event>
<event>
 5   0  0.1057872E-03  0.1608700E+04  0.7818609E-02  0.8815221E-01
       -2   -1    0    0    0  501  0.00000000000E+00  0.00000000000E+00  0.11213110570E+04  0.11213110570E+04  0.25500000920E-02 0.  1.
        2   -1    0    0  501    0  0.00000000000E+00  0.00000000000E+00 -0.57698460707E+03  0.57698460708E+03  0.25500000920E-02 0. -1.
    10030    2    1    2    0    0  0.00000000000E+00  0.00000000000E+00  0.54432644995E+03  0.16982956641E+04  0.16087003694E+04 0.  0.
        2    1    3    3  502    0 -0.28461407845E+03  0.75001972231E+03  0.21020501719E+03  0.82928939868E+03  0.25500000920E-02 0. -1.
       -2    1    3    3    0  502  0.28461407845E+03 -0.75001972231E+03  0.33412143276E+03  0.86900626542E+03  0.25500000920E-02 0.  1.
</event>
<event>
 5   0  0.1030027E-03  0.1498159E+04  0.7818609E-02  0.8885678E-01
       -2   -1    0    0    0  501  0.00000000000E+00  0.00000000000E+00  0.34540214363E+03  0.34540214364E+03  0.25500000920E-02 0.  1.
        2   -1    0    0  501    0  0.00000000000E+00  0.00000000000E+00 -0.16245424447E+04  0.16245424447E+04  0.25500000920E-02 0. -1.
    10030    2    1    2    0    0  0.00000000000E+00  0.00000000000E+00 -0.12791403011E+04  0.19699445884E+04  0.14981594613E+04 0.  0.
        1    1    3    3  502    0  0.49312854202E+03 -0.51609255673E+03 -0.93824043778E+03  0.11789072929E+04  0.50400001928E-02 0. -1.
       -1    1    3    3    0  502 -0.49312854202E+03  0.51609255673E+03 -0.34089986333E+03  0.79103729552E+03  0.50400001928E-02 0.  1.
</event>
<event>
 5   0  0.5281116E-04  0.1569502E+04  0.7818609E-02  0.8839506E-01
       -1   -1    0    0    0  501  0.00000000000E+00  0.00000000000E+00  0.50905757526E+03  0.50905757528E+03  0.50400001928E-02 0. -1.
        1   -1    0    0  501    0  0.00000000000E+00  0.00000000000E+00 -0.12097535719E+04  0.12097535719E+04  0.50400001928E-02 0.  1.
    10030    2    1    2    0    0  0.00000000000E+00  0.00000000000E+00 -0.70069599663E+03  0.17188111472E+04  0.15695021121E+04 0.  0.
        2    1    3    3  502    0  0.18757650906E+02  0.73880711660E+03 -0.61336154806E+02  0.74158609002E+03  0.25500000920E-02 0. -1.
       -2    1    3    3    0  502 -0.18757650906E+02 -0.73880711660E+03 -0.63935984182E+03  0.97722505717E+03  0.25500000920E-02 0.  1.
</event>
<event>
 5   0  0.5281116E-04  0.1607732E+04  0.7818609E-02  0.8815812E-01
       -1   -1    0    0    0  501  0.00000000000E+00  0.00000000000E+00  0.10347599302E+04  0.10347599302E+04  0.50400001928E-02 0.  1.
        1   -1    0    0  501    0  0.00000000000E+00  0.00000000000E+00 -0.62449358683E+03  0.62449358685E+03  0.50400001928E-02 0. -1.
    10030    2    1    2    0    0  0.00000000000E+00  0.00000000000E+00  0.41026634340E+03  0.16592535171E+04  0.16077324906E+04 0.  0.
        2    1    3    3  502    0  0.75481187357E+03  0.24324489512E+02  0.48940192229E+03  0.89991493310E+03  0.25500000920E-02 0.  1.
       -2    1    3    3    0  502 -0.75481187357E+03 -0.24324489512E+02 -0.79135578885E+02  0.75933858399E+03  0.25500000920E-02 0. -1.
</event>
<event>
 5   0  0.1000121E-03  0.1752563E+04  0.7818609E-02  0.8731941E-01
       -2   -1    0    0    0  501  0.00000000000E+00  0.00000000000E+00  0.61549968954E+03  0.61549968954E+03  0.25500000920E-02 0.  1.
        2   -1    0    0  501    0  0.00000000000E+00  0.00000000000E+00 -0.12475537365E+04  0.12475537365E+04  0.25500000920E-02 0. -1.
    10030    2    1    2    0    0  0.00000000000E+00  0.00000000000E+00 -0.63205404692E+03  0.18630534260E+04  0.17525626237E+04 0.  0.
        4    1    3    3  502    0 -0.51091833052E+03 -0.68938454093E+03 -0.50493450344E+03  0.99561491120E+03  0.12699999809E+01 0. -1.
       -4    1    3    3    0  502  0.51091833052E+03  0.68938454093E+03 -0.12711954348E+03  0.86743851481E+03  0.12699999809E+01 0.  1.
</event>
<event>
 5   0  0.1000121E-03  0.1610879E+04  0.7818609E-02  0.8813893E-01
       -2   -1    0    0    0  501  0.00000000000E+00  0.00000000000E+00  0.40605720566E+03  0.40605720567E+03  0.25500000920E-02 0. -1.
        2   -1    0    0  501    0  0.00000000000E+00  0.00000000000E+00 -0.15976383186E+04  0.15976383186E+04  0.25500000920E-02 0.  1.
    10030    2    1    2    0    0  0.00000000000E+00  0.00000000000E+00 -0.11915811129E+04  0.20036955243E+04  0.16108787059E+04 0.  0.
        4    1    3    3  502    0  0.25407736974E+03 -0.55044079020E+03 -0.12553732618E+04  0.13940961275E+04  0.12699999809E+01 0.  1.
       -4    1    3    3    0  502 -0.25407736974E+03  0.55044079020E+03  0.63792148929E+02  0.60959939673E+03  0.12699999809E+01 0. -1.
</event>
<event>
 5   0  0.1000121E-03  0.1549115E+04  0.7818609E-02  0.8852433E-01
       -2   -1    0    0    0  501  0.00000000000E+00  0.00000000000E+00  0.47253762273E+03  0.47253762274E+03  0.25500000920E-02 0.  1.
        2   -1    0    0  501    0  0.00000000000E+00  0.00000000000E+00 -0.12696111578E+04  0.12696111578E+04  0.25500000920E-02 0. -1.
    10030    2    1    2    0    0  0.00000000000E+00  0.00000000000E+00 -0.79707353502E+03  0.17421487805E+04  0.15491146352E+04 0.  0.
        4    1    3    3  502    0  0.64961703924E+03 -0.24961473553E+02 -0.87209218890E+03  0.10877369956E+04  0.12699999809E+01 0. -1.
       -4    1    3    3    0  502 -0.64961703924E+03  0.24961473553E+02  0.75018653881E+02  0.65441178486E+03  0.12699999809E+01 0.  1.
</event>
<event>
 5   0  0.5623061E-04  0.1104968E+04  0.7818609E-02  0.9200364E-01
        1   -1    0    0  501    0  0.00000000000E+00  0.00000000000E+00  0.76426199688E+03  0.76426199690E+03  0.50400001928E-02 0. -1.
       -1   -1    0    0    0  501  0.00000000000E+00  0.00000000000E+00 -0.39938965548E+03  0.39938965551E+03  0.50400001928E-02 0.  1.
    10030    2    1    2    0    0  0.00000000000E+00  0.00000000000E+00  0.36487234140E+03  0.11636516524E+04  0.11049675754E+04 0.  0.
        3    1    3    3  502    0  0.50432139634E+03 -0.11025518791E+03  0.38971967634E+03  0.64682123775E+03  0.10100000352E+00 0. -1.
       -3    1    3    3    0  502 -0.50432139634E+03  0.11025518791E+03 -0.24847334935E+02  0.51683041467E+03  0.10100000352E+00 0.  1.
</event>
<event>
 5   0  0.3832500E-04  0.1616322E+04  0.7818609E-02  0.8810583E-01
       -3   -1    0    0    0  501  0.00000000000E+00  0.00000000000E+00  0.50772168332E+03  0.50772169336E+03  0.10100000352E+00 0. -1.
        3   -1    0    0  501    0  0.00000000000E+00  0.00000000000E+00 -0.12863821865E+04  0.12863821905E+04  0.10100000352E+00 0.  1.
    10030    2    1    2    0    0  0.00000000000E+00  0.00000000000E+00 -0.77866050323E+03  0.17941038839E+04  0.16163219255E+04 0.  0.
        5    1    3    3  502    0  0.78688946549E+03 -0.13697885502E+03 -0.25273444817E+03  0.83776788486E+03  0.46999998093E+01 0. -1.
       -5    1    3    3    0  502 -0.78688946549E+03  0.13697885502E+03 -0.52592605506E+03  0.95633599901E+03  0.46999998093E+01 0.  1.
</event>
<event>
 5   0  0.5623061E-04  0.1588214E+04  0.7818609E-02  0.8827822E-01
        1   -1    0    0  501    0  0.00000000000E+00  0.00000000000E+00  0.16975286494E+04  0.16975286494E+04  0.50400001928E-02 0.  1.
       -1   -1    0    0    0  501  0.00000000000E+00  0.00000000000E+00 -0.37148456652E+03  0.37148456655E+03  0.50400001928E-02 0. -1.
    10030    2    1    2    0    0  0.00000000000E+00  0.00000000000E+00  0.13260440829E+04  0.20690132159E+04  0.15882137067E+04 0.  0.
        3    1    3    3  502    0  0.44227369245E+03  0.29735144241E+03 -0.10391054678E+03  0.54297450333E+03  0.10100000352E+00 0. -1.
       -3    1    3    3    0  502 -0.44227369245E+03 -0.29735144241E+03  0.14299546296E+04  0.15260387126E+04  0.10100000352E+00 0.  1.
</event>
<event>
 5   0  0.1057872E-03  0.1576185E+04  0.7818609E-02  0.8835314E-01
        2   -1    0    0  501    0  0.00000000000E+00  0.00000000000E+00  0.70389856464E+03  0.70389856465E+03  0.25500000920E-02 0.  1.
       -2   -1    0    0    0  501  0.00000000000E+00  0.00000000000E+00 -0.88235695536E+03  0.88235695537E+03  0.25500000920E-02 0. -1.
    10030    2    1    2    0    0  0.00000000000E+00  0.00000000000E+00 -0.17845839072E+03  0.15862555200E+04  0.15761850074E+04 0.  0.
        2    1    3    3  502    0  0.27961253809E+03 -0.65193496941E+03 -0.43477027286E+03  0.83200214300E+03  0.25500000920E-02 0. -1.
       -2    1    3    3    0  502 -0.27961253809E+03  0.65193496941E+03  0.25631188214E+03  0.75425337701E+03  0.25500000920E-02 0.  1.
</event>
<event>
 5   0  0.5281116E-04  0.1694937E+04  0.7818609E-02  0.8764257E-01
       -1   -1    0    0    0  501  0.00000000000E+00  0.00000000000E+00  0.30599715036E+03  0.30599715040E+03  0.50400001928E-02 0.  1.
        1   -1    0    0  501    0  0.00000000000E+00  0.00000000000E+00 -0.23470900910E+04  0.23470900910E+04  0.50400001928E-02 0. -1.
    10030    2    1    2    0    0  0.00000000000E+00  0.00000000000E+00 -0.20410929406E+04  0.26530872414E+04  0.16949370248E+04 0.  0.
        2    1    3    3  502    0  0.81299732399E+03  0.81433879251E+02 -0.66841713620E+03  0.10556408449E+04  0.25500000920E-02 0.  1.
       -2    1    3    3    0  502 -0.81299732399E+03 -0.81433879251E+02 -0.13726758044E+04  0.15974463964E+04  0.25500000920E-02 0. -1.
</event>
<event>
 5   0  0.5281116E-04  0.1525992E+04  0.7818609E-02  0.8867350E-01
       -1   -1    0    0    0  501  0.00000000000E+00  0.00000000000E+00  0.53481558701E+03  0.53481558704E+03  0.50400001928E-02 0. -1.
        1   -1    0    0  501    0  0.00000000000E+00  0.00000000000E+00 -0.10885303256E+04  0.10885303256E+04  0.50400001928E-02 0.  1.
    10030    2    1    2    0    0  0.00000000000E+00  0.00000000000E+00 -0.55371473862E+03  0.16233459127E+04  0.15259921168E+04 0.  0.
        2    1    3    3  502    0  0.29118335198E+03  0.69780674801E+03 -0.16815738598E+03  0.77459596469E+03  0.25500000920E-02 0. -1.
       -2    1    3    3    0  502 -0.29118335198E+03 -0.69780674801E+03 -0.38555735264E+03  0.84874994800E+03  0.25500000920E-02 0.  1.
</event>
<event>
 5   0  0.5288658E-04  0.1663468E+04  0.7818609E-02  0.8782479E-01
       -1   -1    0    0    0  501  0.00000000000E+00  0.00000000000E+00  0.49196452765E+03  0.49196452767E+03  0.50400001928E-02 0.  1.
        1   -1    0    0  501    0  0.00000000000E+00  0.00000000000E+00 -0.14061608993E+04  0.14061608993E+04  0.50400001928E-02 0. -1.
    10030    2    1    2    0    0  0.00000000000E+00  0.00000000000E+00 -0.91419637167E+03  0.18981254270E+04  0.16634678027E+04 0.  0.
        1    1    3    3  502    0 -0.73536273323E+03 -0.61363359924E+02 -0.89497220439E+03  0.11599564897E+04  0.50400001928E-02 0. -1.
       -1    1    3    3    0  502  0.73536273323E+03  0.61363359924E+02 -0.19224167283E+02  0.73816893730E+03  0.50400001928E-02 0.  1.
</event>
<event>
 5   0  0.1057872E-03  0.1546599E+04  0.7818609E-02  0.8854043E-01
       -2   -1    0    0    0  501  0.00000000000E+00  0.00000000000E+00  0.62147397492E+03  0.62147397493E+03  0.25500000920E-02 0.  1.
        2   -1    0    0  501    0  0.00000000000E+00  0.00000000000E+00 -0.96221647708E+03  0.96221647708E+03  0.25500000920E-02 0. -1.
    10030    2    1    2    0    0  0.00000000000E+00  0.00000000000E+00 -0.34074250216E+03  0.15836904520E+04  0.15465994941E+04 0.  0.
        2    1    3    3  502    0  0.29080937975E+03  0.51327793071E+03 -0.68232978809E+03  0.90199682330E+03  0.25500000920E-02 0. -1.
       -2    1    3    3    0  502 -0.29080937975E+03 -0.51327793071E+03  0.34158728593E+03  0.68169362871E+03  0.25500000920E-02 0.  1.
</event>
<event>
 5   0  0.1000121E-03  0.1581712E+04  0.7818609E-02  0.8831862E-01
        2   -1    0    0  501    0  0.00000000000E+00  0.00000000000E+00  0.17168371785E+04  0.17168371785E+04  0.25500000920E-02 0.  1.
       -2   -1    0    0    0  501  0.00000000000E+00  0.00000000000E+00 -0.36430553041E+03  0.36430553042E+03  0.25500000920E-02 0. -1.
    10030    2    1    2    0    0  0.00000000000E+00  0.00000000000E+00  0.13525316481E+04  0.20811427089E+04  0.15817120837E+04 0.  0.
        4    1    3    3  502    0  0.55199426014E+03 -0.52954428923E+03  0.94052216168E+03  0.12123111676E+04  0.12699999809E+01 0. -1.
       -4    1    3    3    0  502 -0.55199426014E+03  0.52954428923E+03  0.41200948643E+03  0.86883154138E+03  0.12699999809E+01 0.  1.
</event>
<event>
 5   0  0.5288658E-04  0.1573708E+04  0.7818609E-02  0.8836865E-01
       -1   -1    0    0    0  501  0.00000000000E+00  0.00000000000E+00  0.71654726960E+03  0.71654726962E+03  0.50400001928E-02 0.  1.
        1   -1    0    0  501    0  0.00000000000E+00  0.00000000000E+00 -0.86405914167E+03  0.86405914168E+03  0.50400001928E-02 0. -1.
    10030    2    1    2    0    0  0.00000000000E+00  0.00000000000E+00 -0.14751187206E+03  0.15806064113E+04  0.15737080018E+04 0.  0.
        1    1    3    3  502    0 -0.55677921024E+02  0.53238367655E+03  0.50549287874E+03  0.73624415816E+03  0.50400001928E-02 0.  1.
       -1    1    3    3    0  502  0.55677921024E+02 -0.53238367655E+03 -0.65300475080E+03  0.84436225315E+03  0.50400001928E-02 0. -1.
</event>
<event>
 5   0  0.1030027E-03  0.1582278E+04  0.7818609E-02  0.8831510E-01
       -2   -1    0    0    0  501  0.00000000000E+00  0.00000000000E+00  0.86675717425E+03  0.86675717425E+03  0.25500000920E-02 0. -1.
        2   -1    0    0  501    0  0.00000000000E+00  0.00000000000E+00 -0.72211772518E+03  0.72211772518E+03  0.25500000920E-02 0.  1.
    10030    2    1    2    0    0  0.00000000000E+00  0.00000000000E+00  0.14463944907E+03  0.15888748994E+04  0.15822777493E+04 0.  0.
        1    1    3    3  502    0 -0.17255638677E+03 -0.55073858985E+03 -0.47105750127E+03  0.74497239579E+03  0.50400001928E-02 0.  1.
       -1    1    3    3    0  502  0.17255638677E+03  0.55073858985E+03  0.61569695034E+03  0.84390250364E+03  0.50400001928E-02 0. -1.
</event>
<event>
 5   0  0.5281116E-04  0.1554786E+04  0.7818609E-02  0.8848817E-01
       -1   -1    0    0    0  501  0.00000000000E+00  0.00000000000E+00  0.88449010949E+03  0.88449010951E+03  0.50400001928E-02 0. -1.
        1   -1    0    0  501    0  0.00000000000E+00  0.00000000000E+00 -0.68326346006E+03  0.68326346008E+03  0.50400001928E-02 0.  1.
    10030    2    1    2    0    0  0.00000000000E+00  0.00000000000E+00  0.20122664943E+03  0.15677535696E+04  0.15547858665E+04 0.  0.
        2    1    3    3  502    0  0.55670892291E+03  0.38048798811E+03 -0.28945136175E+03  0.73381061914E+03  0.25500000920E-02 0.  1.
       -2    1    3    3    0  502 -0.55670892291E+03 -0.38048798811E+03  0.49067801118E+03  0.83394295045E+03  0.25500000920E-02 0. -1.
</event>
<event>
 5   0  0.5532881E-04  0.1288414E+04  0.7818609E-02  0.9038804E-01
       -1   -1    0    0    0  501  0.00000000000E+00  0.00000000000E+00  0.62504879592E+03  0.62504879594E+03  0.50400001928E-02 0.  1.
        1   -1    0    0  501    0  0.00000000000E+00  0.00000000000E+00 -0.66395272000E+03  0.66395272002E+03  0.50400001928E-02 0. -1.
    10030    2    1    2    0    0  0.00000000000E+00  0.00000000000E+00 -0.38903924087E+02  0.12890015160E+04  0.12884142939E+04 0.  0.
        4    1    3    3  502    0 -0.50372057737E+03  0.25142245077E+03  0.29382581698E+03  0.63504558296E+03  0.12699999809E+01 0.  1.
       -4    1    3    3    0  502  0.50372057737E+03 -0.25142245077E+03 -0.33272974106E+03  0.65395593300E+03  0.12699999809E+01 0. -1.
</event>
<event>
 5   0  0.5288658E-04  0.1648815E+04  0.7818609E-02  0.8791108E-01
       -1   -1    0    0    0  501  0.00000000000E+00  0.00000000000E+00  0.80678439379E+03  0.80678439380E+03  0.50400001928E-02 0. -1.
        1   -1    0    0  501    0  0.00000000000E+00  0.00000000000E+00 -0.84241550282E+03  0.84241550284E+03  0.50400001928E-02 0.  1.
    10030    2    1    2    0    0  0.00000000000E+00  0.00000000000E+00 -0.35631109037E+02  0.16491998966E+04  0.16488149451E+04 0.  0.
        1    1    3    3  502    0  0.12993708737E+03 -0.31845344432E+03 -0.76722438005E+03  0.84079099201E+03  0.50400001928E-02 0.  1.
       -1    1    3    3    0  502 -0.12993708737E+03  0.31845344432E+03  0.73159327101E+03  0.80840890463E+03  0.50400001928E-02 0. -1.
</event>
<event>
 5   0  0.5288658E-04  0.1581246E+04  0.7818609E-02  0.8832153E-01
       -1   -1    0    0    0  501  0.00000000000E+00  0.00000000000E+00  0.43066462799E+03  0.43066462802E+03  0.50400001928E-02 0. -1.
        1   -1    0    0  501    0  0.00000000000E+00  0.00000000000E+00 -0.14514416121E+04  0.14514416121E+04  0.50400001928E-02 0.  1.
    10030    2    1    2    0    0  0.00000000000E+00  0.00000000000E+00 -0.10207769841E+04  0.18821062402E+04  0.15812457898E+04 0.  0.
        1    1    3    3  502    0  0.11689824911E+03  0.13816980102E+03  0.40567601163E+03  0.44421742536E+03  0.50400001928E-02 0. -1.
       -1    1    3    3    0  502 -0.11689824911E+03 -0.13816980102E+03 -0.14264529958E+04  0.14378888148E+04  0.50400001928E-02 0.  1.
</event>
<event>
 5   0  0.5288658E-04  0.1602978E+04  0.7818609E-02  0.8818721E-01
        1   -1    0    0  501    0  0.00000000000E+00  0.00000000000E+00  0.16779313912E+04  0.16779313912E+04  0.50400001928E-02 0. -1.
       -1   -1    0    0    0  501  0.00000000000E+00  0.00000000000E+00 -0.38284307412E+03  0.38284307416E+03  0.50400001928E-02 0.  1.
    10030    2    1    2    0    0  0.00000000000E+00  0.00000000000E+00  0.12950883171E+04  0.20607744654E+04  0.16029777441E+04 0.  0.
        1    1    3    3  502    0 -0.62437920229E+02  0.16353344746E+03 -0.35796812447E+03  0.39847567113E+03  0.50400001928E-02 0.  1.
       -1    1    3    3    0  502  0.62437920229E+02 -0.16353344746E+03  0.16530564416E+04  0.16622987942E+04  0.50400001928E-02 0. -1.
</event>
<event>
 5   0  0.5281116E-04  0.1577671E+04  0.7818609E-02  0.8834384E-01
       -1   -1    0    0    0  501  0.00000000000E+00  0.00000000000E+00  0.79504122545E+03  0.79504122546E+03  0.50400001928E-02 0.  1.
        1   -1    0    0  501    0  0.00000000000E+00  0.00000000000E+00 -0.78267774234E+03  0.78267774236E+03  0.50400001928E-02 0. -1.
    10030    2    1    2    0    0  0.00000000000E+00  0.00000000000E+00  0.12363483107E+02  0.15777189678E+04  0.15776705251E+04 0.  0.
        2    1    3    3  502    0 -0.68424614232E+03 -0.33832548132E+03  0.20519578371E+03  0.79041901815E+03  0.25500000920E-02 0. -1.
       -2    1    3    3    0  502  0.68424614232E+03  0.33832548132E+03 -0.19283230060E+03  0.78729994967E+03  0.25500000920E-02 0.  1.
</event>
<event>
 5   0  0.5532881E-04  0.1616094E+04  0.7818609E-02  0.8810721E-01
       -1   -1    0    0    0  501  0.00000000000E+00  0.00000000000E+00  0.51433319929E+03  0.51433319931E+03  0.50400001928E-02 0. -1.
        1   -1    0    0  501    0  0.00000000000E+00  0.00000000000E+00 -0.12694889569E+04  0.12694889569E+04  0.50400001928E-02 0.  1.
    10030    2    1    2    0    0  0.00000000000E+00  0.00000000000E+00 -0.75515575759E+03  0.17838221562E+04  0.16160944486E+04 0.  0.
        4    1    3    3  502    0 -0.20809004469E+03 -0.29548711529E+03  0.42015052605E+03  0.55420409548E+03  0.12699999809E+01 0. -1.
       -4    1    3    3    0  502  0.20809004469E+03  0.29548711529E+03 -0.11753062836E+04  0.12296180607E+04  0.12699999809E+01 0.  1.
</event>
<event>
 5   0  0.1057872E-03  0.1298918E+04  0.7818609E-02  0.9030423E-01
       -2   -1    0    0    0  501  0.00000000000E+00  0.00000000000E+00  0.49357972248E+03  0.49357972248E+03  0.25500000920E-02 0.  1.
        2   -1    0    0  501    0  0.00000000000E+00  0.00000000000E+00 -0.85456744239E+03  0.85456744239E+03  0.25500000920E-02 0. -1.
    10030    2    1    2    0    0  0.00000000000E+00  0.00000000000E+00 -0.36098771991E+03  0.13481471649E+04  0.12989182593E+04 0.  0.
        2    1    3    3  502    0 -0.33488437732E+03  0.44219828619E+03  0.17011096343E+03  0.58019359731E+03  0.25500000920E-02 0.  1.
       -2    1    3    3    0  502  0.33488437732E+03 -0.44219828619E+03 -0.53109868334E+03  0.76795356756E+03  0.25500000920E-02 0. -1.
</event>
<event>
 5   0  0.5281116E-04  0.1421779E+04  0.7818609E-02  0.8938203E-01
       -1   -1    0    0    0  501  0.00000000000E+00  0.00000000000E+00  0.57105876898E+03  0.57105876900E+03  0.50400001928E-02 0.  1.
        1   -1    0    0  501    0  0.00000000000E+00  0.00000000000E+00 -0.88495928716E+03  0.88495928717E+03  0.50400001928E-02 0. -1.
    10030    2    1    2    0    0  0.00000000000E+00  0.00000000000E+00 -0.31390051818E+03  0.14560180562E+04  0.14217788311E+04 0.  0.
        2    1    3    3  502    0  0.27635588185E+03  0.60721773129E+03 -0.40837815785E+03  0.78221395183E+03  0.25500000920E-02 0. -1.
       -2    1    3    3    0  502 -0.27635588185E+03 -0.60721773129E+03  0.94477639666E+02  0.67380410434E+03  0.25500000920E-02 0.  1.
</event>
<event>
 5   0  0.5425525E-04  0.1590565E+04  0.7818609E-02  0.8826365E-01
       -1   -1    0    0    0  501  0.00000000000E+00  0.00000000000E+00  0.43170177011E+03  0.43170177014E+03  0.50400001928E-02 0.  1.
        1   -1    0    0  501    0  0.00000000000E+00  0.00000000000E+00 -0.14650726458E+04  0.14650726458E+04  0.50400001928E-02 0. -1.
    10030    2    1    2    0    0  0.00000000000E+00  0.00000000000E+00 -0.10333708757E+04  0.18967744159E+04  0.15905652512E+04 0.  0.
        5    1    3    3  502    0 -0.51149655692E+03 -0.54500153792E+03 -0.84063950013E+03  0.11248787771E+04  0.46999998093E+01 0. -1.
       -5    1    3    3    0  502  0.51149655692E+03  0.54500153792E+03 -0.19273137556E+03  0.77189563880E+03  0.46999998093E+01 0.  1.
</event>
<event>
 5   0  0.1030027E-03  0.1612735E+04  0.7818609E-02  0.8812762E-01
       -2   -1    0    0    0  501  0.00000000000E+00  0.00000000000E+00  0.11956565269E+04  0.11956565269E+04  0.25500000920E-02 0.  1.
        2   -1    0    0  501    0  0.00000000000E+00  0.00000000000E+00 -0.54382545757E+03  0.54382545758E+03  0.25500000920E-02 0. -1.
    10030    2    1    2    0    0  0.00000000000E+00  0.00000000000E+00  0.65183106936E+03  0.17394819845E+04  0.16127348919E+04 0.  0.
        1    1    3    3  502    0  0.45215015492E+03  0.53242507092E+03 -0.10862729444E+03  0.70690601063E+03  0.50400001928E-02 0. -1.
       -1    1    3    3    0  502 -0.45215015492E+03 -0.53242507092E+03  0.76045836380E+03  0.10325759739E+04  0.50400001928E-02 0.  1.
</event>
<event>
 5   0  0.1030027E-03  0.1569588E+04  0.7818609E-02  0.8839452E-01
        2   -1    0    0  501    0  0.00000000000E+00  0.00000000000E+00  0.88830795236E+03  0.88830795236E+03  0.25500000920E-02 0.  1.
       -2   -1    0    0    0  501  0.00000000000E+00  0.00000000000E+00 -0.69334257531E+03  0.69334257532E+03  0.25500000920E-02 0. -1.
    10030    2    1    2    0    0  0.00000000000E+00  0.00000000000E+00  0.19496537704E+03  0.15816505277E+04  0.15695881286E+04 0.  0.
        1    1    3    3  502    0 -0.26082473228E+03  0.24266814471E+02  0.84295398302E+03  0.88271730286E+03  0.50400001928E-02 0.  1.
       -1    1    3    3    0  502  0.26082473228E+03 -0.24266814471E+02 -0.64798860598E+03  0.69893322482E+03  0.50400001928E-02 0. -1.
</event>
<event>
 5   0  0.1057872E-03  0.1601634E+04  0.7818609E-02  0.8819545E-01
        2   -1    0    0  501    0  0.00000000000E+00  0.00000000000E+00  0.24635715812E+04  0.24635715812E+04  0.25500000920E-02 0.  1.
       -2   -1    0    0    0  501  0.00000000000E+00  0.00000000000E+00 -0.26031619165E+03  0.26031619167E+03  0.25500000920E-02 0. -1.
    10030    2    1    2    0    0  0.00000000000E+00  0.00000000000E+00  0.22032553895E+04  0.27238877728E+04  0.16016336309E+04 0.  0.
        2    1    3    3  502    0  0.63241155455E+03 -0.13538394960E+03  0.19048059479E+04  0.20116060467E+04  0.25500000920E-02 0. -1.
       -2    1    3    3    0  502 -0.63241155455E+03  0.13538394960E+03  0.29844944163E+03  0.71228172611E+03  0.25500000920E-02 0.  1.
</event>
<event>
 5   0  0.1037321E-03  0.1611784E+04  0.7818609E-02  0.8813341E-01
       -2   -1    0    0    0  501  0.00000000000E+00  0.00000000000E+00  0.49568688617E+03  0.49568688617E+03  0.25500000920E-02 0. -1.
        2   -1    0    0  501    0  0.00000000000E+00  0.00000000000E+00 -0.13102254412E+04  0.13102254413E+04  0.25500000920E-02 0.  1.
    10030    2    1    2    0    0  0.00000000000E+00  0.00000000000E+00 -0.81453855508E+03  0.18059123274E+04  0.16117835700E+04 0.  0.
        5    1    3    3  502    0 -0.67571553155E+03  0.41537784751E+03 -0.56694423538E+03  0.97497594422E+03  0.46999998093E+01 0.  1.
       -5    1    3    3    0  502  0.67571553155E+03 -0.41537784751E+03 -0.24759431970E+03  0.83093638320E+03  0.46999998093E+01 0. -1.
</event>
<event>
 5   0  0.5532881E-04  0.1738131E+04  0.7818609E-02  0.8739911E-01
       -1   -1    0    0    0  501  0.00000000000E+00  0.00000000000E+00  0.75704254243E+03  0.75704254244E+03  0.50400001928E-02 0. -1.
        1   -1    0    0  501    0  0.00000000000E+00  0.00000000000E+00 -0.99766473492E+03  0.99766473494E+03  0.50400001928E-02 0.  1.
    10030    2    1    2    0    0  0.00000000000E+00  0.00000000000E+00 -0.24062219250E+03  0.17547072774E+04  0.17381307746E+04 0.  0.
        4    1    3    3  502    0 -0.17520744097E+02  0.28650189081E+03 -0.94842851057E+03  0.99091299440E+03  0.12699999809E+01 0.  1.
       -4    1    3    3    0  502  0.17520744097E+02 -0.28650189081E+03  0.70780631807E+03  0.76379428298E+03  0.12699999809E+01 0. -1.
</event>
<event>
 5   0  0.1030027E-03  0.1595433E+04  0.7818609E-02  0.8823359E-01
        2   -1    0    0  501    0  0.00000000000E+00  0.00000000000E+00  0.50552968021E+03  0.50552968022E+03  0.25500000920E-02 0. -1.
       -2   -1    0    0    0  501  0.00000000000E+00  0.00000000000E+00 -0.12587819181E+04  0.12587819181E+04  0.25500000920E-02 0.  1.
    10030    2    1    2    0    0  0.00000000000E+00  0.00000000000E+00 -0.75325223791E+03  0.17643115983E+04  0.15954330077E+04 0.  0.
        1    1    3    3  502    0  0.24320896416E+03 -0.61010494267E+03  0.12403633417E+03  0.66840381023E+03  0.50400001928E-02 0. -1.
       -1    1    3    3    0  502 -0.24320896416E+03  0.61010494267E+03 -0.87728857208E+03  0.10959077881E+04  0.50400001928E-02 0.  1.
</event>
<event>
 5   0  0.5288658E-04  0.1600417E+04  0.7818609E-02  0.8820292E-01
       -1   -1    0    0    0  501  0.00000000000E+00  0.00000000000E+00  0.82796279507E+03  0.82796279509E+03  0.50400001928E-02 0. -1.
        1   -1    0    0  501    0  0.00000000000E+00  0.00000000000E+00 -0.77338430011E+03  0.77338430012E+03  0.50400001928E-02 0.  1.
    10030    2    1    2    0    0  0.00000000000E+00  0.00000000000E+00  0.54578494969E+02  0.16013470952E+04  0.16004167292E+04 0.  0.
        1    1    3    3  502    0  0.58506420469E+03 -0.44998254778E+03 -0.28200047535E+03  0.79013206810E+03  0.50400001928E-02 0.  1.
       -1    1    3    3    0  502 -0.58506420469E+03  0.44998254778E+03  0.33657897032E+03  0.81121502711E+03  0.50400001928E-02 0. -1.
</event>
<event>
 5   0  0.3832500E-04  0.1607879E+04  0.7818609E-02  0.8815722E-01
        4   -1    0    0  501    0  0.00000000000E+00  0.00000000000E+00  0.11522763439E+04  0.11522770438E+04  0.12699999809E+01 0. -1.
       -4   -1    0    0    0  501  0.00000000000E+00  0.00000000000E+00 -0.56090433373E+03  0.56090577149E+03  0.12699999809E+01 0.  1.
    10030    2    1    2    0    0  0.00000000000E+00  0.00000000000E+00  0.59137201015E+03  0.17131828152E+04  0.16078788835E+04 0.  0.
        5    1    3    3  502    0 -0.13144035571E+03 -0.78172126522E+03  0.43836587788E+03  0.90584294251E+03  0.46999998093E+01 0.  1.
       -5    1    3    3    0  502  0.13144035571E+03  0.78172126522E+03  0.15300613227E+03  0.80733987274E+03  0.46999998093E+01 0. -1.
</event>
<event>
 5   0  0.5288658E-04  0.1570902E+04  0.7818609E-02  0.8838626E-01
        1   -1    0    0  501    0  0.00000000000E+00  0.00000000000E+00  0.78599734519E+03  0.78599734520E+03  0.50400001928E-02 0. -1.
       -1   -1    0    0    0  501  0.00000000000E+00  0.00000000000E+00 -0.78490477105E+03  0.78490477107E+03  0.50400001928E-02 0.  1.
    10030    2    1    2    0    0  0.00000000000E+00  0.00000000000E+00  0.10925741330E+01  0.15709021163E+04  0.15709017363E+04 0.  0.
        1    1    3    3  502    0  0.59315879583E+03  0.31383765178E+03 -0.40762245024E+03  0.78516717374E+03  0.50400001928E-02 0.  1.
       -1    1    3    3    0  502 -0.59315879583E+03 -0.31383765178E+03  0.40871502437E+03  0.78573494253E+03  0.50400001928E-02 0. -1.
</event>
<event>
 5   0  0.5425525E-04  0.1650877E+04  0.7818609E-02  0.8789888E-01
        1   -1    0    0  501    0  0.00000000000E+00  0.00000000000E+00  0.25390503675E+04  0.25390503675E+04  0.50400001928E-02 0.  1.
       -1   -1    0    0    0  501  0.00000000000E+00  0.00000000000E+00 -0.26834784534E+03  0.26834784539E+03  0.50400001928E-02 0. -1.
    10030    2    1    2    0    0  0.00000000000E+00  0.00000000000E+00  0.22707025222E+04  0.28073982129E+04  0.16508769735E+04 0.  0.
        5    1    3    3  502    0  0.81639168196E+03  0.10183793049E+03  0.12489228080E+04  0.14955589633E+04  0.46999998093E+01 0. -1.
       -5    1    3    3    0  502 -0.81639168196E+03 -0.10183793049E+03  0.10217797142E+04  0.13118392496E+04  0.46999998093E+01 0.  1.
</event>
<event>
 5   0  0.5281116E-04  0.1608959E+04  0.7818609E-02  0.8815063E-01
        1   -1    0    0  501    0  0.00000000000E+00  0.00000000000E+00  0.45167596042E+03  0.45167596045E+03  0.50400001928E-02 0.  1.
       -1   -1    0    0    0  501  0.00000000000E+00  0.00000000000E+00 -0.14328574990E+04  0.14328574990E+04  0.50400001928E-02 0. -1.
    10030    2    1    2    0    0  0.00000000000E+00  0.00000000000E+00 -0.98118153854E+03  0.18845334594E+04  0.16089590262E+04 0.  0.
        2    1    3    3  502    0  0.26407227128E+03 -0.71843803204E+03 -0.78058463429E+03  0.10932519113E+04  0.25500000920E-02 0.  1.
       -2    1    3    3    0  502 -0.26407227128E+03  0.71843803204E+03 -0.20059690425E+03  0.79128154808E+03  0.25500000920E-02 0. -1.
</event>
<event>
 5   0  0.1030027E-03  0.1572957E+04  0.7818609E-02  0.8837336E-01
       -2   -1    0    0    0  501  0.00000000000E+00  0.00000000000E+00  0.73428739540E+03  0.73428739541E+03  0.25500000920E-02 0.  1.
        2   -1    0    0  501    0  0.00000000000E+00  0.00000000000E+00 -0.84237871296E+03  0.84237871296E+03  0.25500000920E-02 0. -1.
    10030    2    1    2    0    0  0.00000000000E+00  0.00000000000E+00 -0.10809131755E+03  0.15766661084E+04  0.15729565424E+04 0.  0.
        1    1    3    3  502    0  0.15595876016E+03 -0.48069694603E+02 -0.82521970042E+03  0.84120234450E+03  0.50400001928E-02 0. -1.
       -1    1    3    3    0  502 -0.15595876016E+03  0.48069694603E+02  0.71712838287E+03  0.73546376386E+03  0.50400001928E-02 0.  1.
</event>
<event>
 5   0  0.9844690E-04  0.1607446E+04  0.7818609E-02  0.8815986E-01
       -2   -1    0    0    0  501  0.00000000000E+00  0.00000000000E+00  0.41631316272E+03  0.41631316273E+03  0.25500000920E-02 0.  1.
        2   -1    0    0  501    0  0.00000000000E+00  0.00000000000E+00 -0.15516465681E+04  0.15516465681E+04  0.25500000920E-02 0. -1.
    10030    2    1    2    0    0  0.00000000000E+00  0.00000000000E+00 -0.11353334054E+04  0.19679597308E+04  0.16074462855E+04 0.  0.
        3    1    3    3  502    0 -0.12612456412E+03 -0.75489955414E+03 -0.86802691709E+03  0.11572603344E+04  0.10100000352E+00 0. -1.
       -3    1    3    3    0  502  0.12612456412E+03  0.75489955414E+03 -0.26730648826E+03  0.81069939643E+03  0.10100000352E+00 0.  1.
</event>
<event>
 5   0  0.5288658E-04  0.1670085E+04  0.7818609E-02  0.8778612E-01
        1   -1    0    0  501    0  0.00000000000E+00  0.00000000000E+00  0.14360250764E+04  0.14360250764E+04  0.50400001928E-02 0.  1.
       -1   -1    0    0    0  501  0.00000000000E+00  0.00000000000E+00 -0.48557368426E+03  0.48557368429E+03  0.50400001928E-02 0. -1.
    10030    2    1    2    0    0  0.00000000000E+00  0.00000000000E+00  0.95045139212E+03  0.19215987607E+04  0.16700850123E+04 0.  0.
        1    1    3    3  502    0  0.10708869485E+03 -0.39616247330E+03  0.13119917543E+04  0.13746763463E+04  0.50400001928E-02 0.  1.
       -1    1    3    3    0  502 -0.10708869485E+03  0.39616247330E+03 -0.36154036217E+03  0.54692241435E+03  0.50400001928E-02 0. -1.
</event>
<event>
 5   0  0.5281116E-04  0.1596768E+04  0.7818609E-02  0.8822536E-01
        1   -1    0    0  501    0  0.00000000000E+00  0.00000000000E+00  0.94653111942E+03  0.94653111943E+03  0.50400001928E-02 0. -1.
       -1   -1    0    0    0  501  0.00000000000E+00  0.00000000000E+00 -0.67342445254E+03  0.67342445256E+03  0.50400001928E-02 0.  1.
    10030    2    1    2    0    0  0.00000000000E+00  0.00000000000E+00  0.27310666687E+03  0.16199555720E+04  0.15967682373E+04 0.  0.
        2    1    3    3  502    0  0.14185629584E+03 -0.23430765203E+03 -0.62426597529E+03  0.68171203039E+03  0.25500000920E-02 0.  1.
       -2    1    3    3    0  502 -0.14185629584E+03  0.23430765203E+03  0.89737264216E+03  0.93824354161E+03  0.25500000920E-02 0. -1.
</event>
<event>
 5   0  0.3832500E-04  0.1561513E+04  0.7818609E-02  0.8844547E-01
        3   -1    0    0  501    0  0.00000000000E+00  0.00000000000E+00  0.54101789466E+03  0.54101790408E+03  0.10100000352E+00 0.  1.
       -3   -1    0    0    0  501  0.00000000000E+00  0.00000000000E+00 -0.11267291003E+04  0.11267291048E+04  0.10100000352E+00 0. -1.
    10030    2    1    2    0    0  0.00000000000E+00  0.00000000000E+00 -0.58571120559E+03  0.16677470089E+04  0.15615128783E+04 0.  0.
        3    1    3    3  502    0 -0.37257022703E+03  0.60121804087E+03 -0.64596751015E+03  0.95788607940E+03  0.10100000352E+00 0.  1.
       -3    1    3    3    0  502  0.37257022703E+03 -0.60121804087E+03  0.60256304558E+02  0.70986092946E+03  0.10100000352E+00 0. -1.
</event>
<event>
 5   0  0.5532881E-04  0.1606639E+04  0.7818609E-02  0.8816480E-01
        1   -1    0    0  501    0  0.00000000000E+00  0.00000000000E+00  0.20385579393E+03  0.20385579399E+03  0.50400001928E-02 0. -1.
       -1   -1    0    0    0  501  0.00000000000E+00  0.00000000000E+00 -0.31655809665E+04  0.31655809665E+04  0.50400001928E-02 0.  1.
    10030    2    1    2    0    0  0.00000000000E+00  0.00000000000E+00 -0.29617251725E+04  0.33694367605E+04  0.16066387538E+04 0.  0.
        4    1    3    3  502    0 -0.44916127022E+03  0.12086104759E+03 -0.10729163192E+03  0.47735348189E+03  0.12699999809E+01 0. -1.
       -4    1    3    3    0  502  0.44916127022E+03 -0.12086104759E+03 -0.28544335406E+04  0.28920832786E+04  0.12699999809E+01 0.  1.
</event>
<event>
 5   0  0.5281116E-04  0.1539164E+04  0.7818609E-02  0.8858819E-01
       -1   -1    0    0    0  501  0.00000000000E+00  0.00000000000E+00  0.60285653907E+03  0.60285653909E+03  0.50400001928E-02 0. -1.
        1   -1    0    0  501    0  0.00000000000E+00  0.00000000000E+00 -0.98241746077E+03  0.98241746079E+03  0.50400001928E-02 0.  1.
    10030    2    1    2    0    0  0.00000000000E+00  0.00000000000E+00 -0.37956092171E+03  0.15852739999E+04  0.15391644361E+04 0.  0.
        2    1    3    3  502    0  0.12004276952E+03 -0.21440516112E+03  0.56136647836E+03  0.61279047208E+03  0.25500000920E-02 0. -1.
       -2    1    3    3    0  502 -0.12004276952E+03  0.21440516112E+03 -0.94092740007E+03  0.97248352780E+03  0.25500000920E-02 0.  1.
</event>
<event>
 5   0  0.5623061E-04  0.1362276E+04  0.7818609E-02  0.8981587E-01
       -1   -1    0    0    0  501  0.00000000000E+00  0.00000000000E+00  0.98360640195E+03  0.98360640196E+03  0.50400001928E-02 0.  1.
        1   -1    0    0  501    0  0.00000000000E+00  0.00000000000E+00 -0.47168134325E+03  0.47168134327E+03  0.50400001928E-02 0. -1.
    10030    2    1    2    0    0  0.00000000000E+00  0.00000000000E+00  0.51192505870E+03  0.14552877452E+04  0.13622757268E+04 0.  0.
        3    1    3    3  502    0 -0.53236688026E+03  0.64546143111E+01  0.70981382564E+03  0.88729467175E+03  0.10100000352E+00 0.  1.
       -3    1    3    3    0  502  0.53236688026E+03 -0.64546143111E+01 -0.19788876695E+03  0.56799307348E+03  0.10100000352E+00 0. -1.
</event>
<event>
 5   0  0.1030027E-03  0.1643570E+04  0.7818609E-02  0.8794220E-01
       -2   -1    0    0    0  501  0.00000000000E+00  0.00000000000E+00  0.86567524255E+03  0.86567524255E+03  0.25500000920E-02 0. -1.
        2   -1    0    0  501    0  0.00000000000E+00  0.00000000000E+00 -0.78011985399E+03  0.78011985399E+03  0.25500000920E-02 0.  1.
    10030    2    1    2    0    0  0.00000000000E+00  0.00000000000E+00  0.85555388563E+02  0.16457950965E+04  0.16435698267E+04 0.  0.
        1    1    3    3  502    0  0.79335306558E+03 -0.16568314672E+03  0.17886774198E+03  0.82997208442E+03  0.50400001928E-02 0. -1.
       -1    1    3    3    0  502 -0.79335306558E+03  0.16568314672E+03 -0.93312353418E+02  0.81582301212E+03  0.50400001928E-02 0.  1.
</event>
<event>
 5   0  0.5425525E-04  0.1642662E+04  0.7818609E-02  0.8794760E-01
        1   -1    0    0  501    0  0.00000000000E+00  0.00000000000E+00  0.19873259174E+04  0.19873259174E+04  0.50400001928E-02 0. -1.
       -1   -1    0    0    0  501  0.00000000000E+00  0.00000000000E+00 -0.33944321909E+03  0.33944321913E+03  0.50400001928E-02 0.  1.
    10030    2    1    2    0    0  0.00000000000E+00  0.00000000000E+00  0.16478826983E+04  0.23267691366E+04  0.16426616290E+04 0.  0.
        5    1    3    3  502    0 -0.77957814010E+03  0.15535514928E+03  0.53129547394E+03  0.95612460985E+03  0.46999998093E+01 0.  1.
       -5    1    3    3    0  502  0.77957814010E+03 -0.15535514928E+03  0.11165872244E+04  0.13706445267E+04  0.46999998093E+01 0. -1.
</event>
<event>
 5   0  0.1057872E-03  0.1594433E+04  0.7818609E-02  0.8823975E-01
       -2   -1    0    0    0  501  0.00000000000E+00  0.00000000000E+00  0.49803477976E+03  0.49803477977E+03  0.25500000920E-02 0. -1.
        2   -1    0    0  501    0  0.00000000000E+00  0.00000000000E+00 -0.12761241696E+04  0.12761241696E+04  0.25500000920E-02 0.  1.
    10030    2    1    2    0    0  0.00000000000E+00  0.00000000000E+00 -0.77808938980E+03  0.17741589493E+04  0.15944330902E+04 0.  0.
        2    1    3    3  502    0  0.28078730970E+03 -0.44434408763E+03 -0.10560009222E+04  0.11795851513E+04  0.25500000920E-02 0.  1.
       -2    1    3    3    0  502 -0.28078730970E+03  0.44434408763E+03  0.27791153237E+03  0.59457379805E+03  0.25500000920E-02 0. -1.
</event>
<event>
 5   0  0.5281116E-04  0.1575523E+04  0.7818609E-02  0.8835728E-01
       -1   -1    0    0    0  501  0.00000000000E+00  0.00000000000E+00  0.54528173829E+03  0.54528173832E+03  0.50400001928E-02 0. -1.
        1   -1    0    0  501    0  0.00000000000E+00  0.00000000000E+00 -0.11380692909E+04  0.11380692909E+04  0.50400001928E-02 0.  1.
    10030    2    1    2    0    0  0.00000000000E+00  0.00000000000E+00 -0.59278755256E+03  0.16833510292E+04  0.15755232797E+04 0.  0.
        2    1    3    3  502    0  0.15409176523E+03 -0.63601857808E+03  0.17214397069E+03  0.67668120295E+03  0.25500000920E-02 0. -1.
       -2    1    3    3    0  502 -0.15409176523E+03  0.63601857808E+03 -0.76493152325E+03  0.10066698262E+04  0.25500000920E-02 0.  1.
</event>
<event>
 5   0  0.9844690E-04  0.1602187E+04  0.7818609E-02  0.8819205E-01
       -2   -1    0    0    0  501  0.00000000000E+00  0.00000000000E+00  0.30226526855E+03  0.30226526856E+03  0.25500000920E-02 0. -1.
        2   -1    0    0  501    0  0.00000000000E+00  0.00000000000E+00 -0.21231388745E+04  0.21231388745E+04  0.25500000920E-02 0.  1.
    10030    2    1    2    0    0  0.00000000000E+00  0.00000000000E+00 -0.18208736059E+04  0.24254041430E+04  0.16021874323E+04 0.  0.
        3    1    3    3  502    0 -0.54299407625E+03 -0.55904767684E+03 -0.11911012960E+04  0.14234111070E+04  0.10100000352E+00 0. -1.
       -3    1    3    3    0  502  0.54299407625E+03  0.55904767684E+03 -0.62977230989E+03  0.10019930361E+04  0.10100000352E+00 0.  1.
</event>
<event>
 5   0  0.5288658E-04  0.1601944E+04  0.7818609E-02  0.8819355E-01
        1   -1    0    0  501    0  0.00000000000E+00  0.00000000000E+00  0.52526892780E+03  0.52526892783E+03  0.50400001928E-02 0.  1.
       -1   -1    0    0    0  501  0.00000000000E+00  0.00000000000E+00 -0.12213858690E+04  0.12213858691E+04  0.50400001928E-02 0. -1.
    10030    2    1    2    0    0  0.00000000000E+00  0.00000000000E+00 -0.69611694124E+03  0.17466547969E+04  0.16019438765E+04 0.  0.
        1    1    3    3  502    0  0.30271957734E+03  0.26539978394E+03  0.40693808145E+03  0.57242885145E+03  0.50400001928E-02 0.  1.
       -1    1    3    3    0  502 -0.30271957734E+03 -0.26539978394E+03 -0.11030550227E+04  0.11742259454E+04  0.50400001928E-02 0. -1.
</event>
<event>
 5   0  0.9844690E-04  0.1492783E+04  0.7818609E-02  0.8889267E-01
        2   -1    0    0  501    0  0.00000000000E+00  0.00000000000E+00  0.10623177077E+04  0.10623177077E+04  0.25500000920E-02 0.  1.
       -2   -1    0    0    0  501  0.00000000000E+00  0.00000000000E+00 -0.52441941456E+03  0.52441941456E+03  0.25500000920E-02 0. -1.
    10030    2    1    2    0    0  0.00000000000E+00  0.00000000000E+00  0.53789829317E+03  0.15867371223E+04  0.14927826772E+04 0.  0.
        3    1    3    3  502    0 -0.50582801514E+03  0.19168064699E+03 -0.27771226302E+03  0.60805226960E+03  0.10100000352E+00 0. -1.
       -3    1    3    3    0  502  0.50582801514E+03 -0.19168064699E+03  0.81561055619E+03  0.97868485270E+03  0.10100000352E+00 0.  1.
</event>
<event>
 5   0  0.5623061E-04  0.1617500E+04  0.7818609E-02  0.8809868E-01
        1   -1    0    0  501    0  0.00000000000E+00  0.00000000000E+00  0.17458983469E+04  0.17458983469E+04  0.50400001928E-02 0. -1.
       -1   -1    0    0    0  501  0.00000000000E+00  0.00000000000E+00 -0.37463627802E+03  0.37463627806E+03  0.50400001928E-02 0.  1.
    10030    2    1    2    0    0  0.00000000000E+00  0.00000000000E+00  0.13712620689E+04  0.21205346250E+04  0.16175003661E+04 0.  0.
        3    1    3    3  502    0 -0.74543334031E+03 -0.17983235813E+03  0.10226008455E+04  0.12781717574E+04  0.10100000352E+00 0.  1.
       -3    1    3    3    0  502  0.74543334031E+03  0.17983235813E+03  0.34866122340E+03  0.84236286764E+03  0.10100000352E+00 0. -1.
</event>
<event>
 5   0  0.5425525E-04  0.1623114E+04  0.7818609E-02  0.8806473E-01
       -1   -1    0    0    0  501  0.00000000000E+00  0.00000000000E+00  0.10546202560E+04  0.10546202560E+04  0.50400001928E-02 0. -1.
        1   -1    0    0  501    0  0.00000000000E+00  0.00000000000E+00 -0.62451380677E+03  0.62451380679E+03  0.50400001928E-02 0.  1.
    10030    2    1    2    0    0  0.00000000000E+00  0.00000000000E+00  0.43010644924E+03  0.16791340628E+04  0.16231141806E+04 0.  0.
        5    1    3    3  502    0 -0.80032360608E+03 -0.12953281969E+03  0.17766452978E+03  0.82999000052E+03  0.46999998093E+01 0. -1.
       -5    1    3    3    0  502  0.80032360608E+03  0.12953281969E+03  0.25244191946E+03  0.84914406229E+03  0.46999998093E+01 0.  1.
</event>
<event>
 5   0  0.5623061E-04  0.1636753E+04  0.7818609E-02  0.8798282E-01
        1   -1    0    0  501    0  0.00000000000E+00  0.00000000000E+00  0.15159013025E+04  0.15159013025E+04  0.50400001928E-02 0.  1.
       -1   -1    0    0    0  501  0.00000000000E+00  0.00000000000E+00 -0.44180977853E+03  0.44180977856E+03  0.50400001928E-02 0. -1.
    10030    2    1    2    0    0  0.00000000000E+00  0.00000000000E+00  0.10740915240E+04  0.19577110811E+04  0.16367529059E+04 0.  0.
        3    1    3    3  502    0 -0.36784072493E+03  0.31492862030E+03  0.13261537718E+04  0.14117969654E+04  0.10100000352E+00 0.  1.
       -3    1    3    3    0  502  0.36784072493E+03 -0.31492862030E+03 -0.25206224778E+03  0.54591411574E+03  0.10100000352E+00 0. -1.
</event>
<event>
 5   0  0.1037321E-03  0.1661633E+04  0.7818609E-02  0.8783554E-01
        2   -1    0    0  501    0  0.00000000000E+00  0.00000000000E+00  0.75685714497E+03  0.75685714498E+03  0.25500000920E-02 0.  1.
       -2   -1    0    0    0  501  0.00000000000E+00  0.00000000000E+00 -0.91200287139E+03  0.91200287139E+03  0.25500000920E-02 0. -1.
    10030    2    1    2    0    0  0.00000000000E+00  0.00000000000E+00 -0.15514572642E+03  0.16688600164E+04  0.16616327987E+04 0.  0.
        5    1    3    3  502    0  0.52776508431E+03 -0.14498056871E+03 -0.70533422478E+03  0.89278990147E+03  0.46999998093E+01 0. -1.
       -5    1    3    3    0  502 -0.52776508431E+03  0.14498056871E+03  0.55018849836E+03  0.77607011490E+03  0.46999998093E+01 0.  1.
</event>
<event>
 5   0  0.1030027E-03  0.1595666E+04  0.7818609E-02  0.8823215E-01
       -2   -1    0    0    0  501  0.00000000000E+00  0.00000000000E+00  0.78117467829E+03  0.78117467829E+03  0.25500000920E-02 0.  1.
        2   -1    0    0  501    0  0.00000000000E+00  0.00000000000E+00 -0.81484610098E+03  0.81484610099E+03  0.25500000920E-02 0. -1.
    10030    2    1    2    0    0  0.00000000000E+00  0.00000000000E+00 -0.33671422696E+02  0.15960207793E+04  0.15956655549E+04 0.  0.
        1    1    3    3  502    0  0.69680400193E+03  0.35559760067E+03  0.13988889614E+03  0.79470395368E+03  0.50400001928E-02 0.  1.
       -1    1    3    3    0  502 -0.69680400193E+03 -0.35559760067E+03 -0.17356031883E+03  0.80131682561E+03  0.50400001928E-02 0. -1.
</event>
<event>
 5   0  0.1030027E-03  0.1598286E+04  0.7818609E-02  0.8821601E-01
       -2   -1    0    0    0  501  0.00000000000E+00  0.00000000000E+00  0.39445575719E+03  0.39445575719E+03  0.25500000920E-02 0.  1.
        2   -1    0    0  501    0  0.00000000000E+00  0.00000000000E+00 -0.16190151490E+04  0.16190151490E+04  0.25500000920E-02 0. -1.
    10030    2    1    2    0    0  0.00000000000E+00  0.00000000000E+00 -0.12245593918E+04  0.20134709062E+04  0.15982863905E+04 0.  0.
        1    1    3    3  502    0  0.48267471815E+03 -0.61932239417E+03 -0.79953544303E+03  0.11206212724E+04  0.50400001928E-02 0. -1.
       -1    1    3    3    0  502 -0.48267471815E+03  0.61932239417E+03 -0.42502394874E+03  0.89284963376E+03  0.50400001928E-02 0.  1.
</event>
<event>
 5   0  0.5281116E-04  0.1611152E+04  0.7818609E-02  0.8813726E-01
       -1   -1    0    0    0  501  0.00000000000E+00  0.00000000000E+00  0.10831522514E+04  0.10831522514E+04  0.50400001928E-02 0. -1.
        1   -1    0    0  501    0  0.00000000000E+00  0.00000000000E+00 -0.59913351724E+03  0.59913351726E+03  0.50400001928E-02 0.  1.
    10030    2    1    2    0    0  0.00000000000E+00  0.00000000000E+00  0.48401873418E+03  0.16822857687E+04  0.16111521568E+04 0.  0.
        2    1    3    3  502    0 -0.69719591181E+03  0.40347523680E+03  0.25125537727E+03  0.84380309953E+03  0.25500000920E-02 0.  1.
       -2    1    3    3    0  502  0.69719591181E+03 -0.40347523680E+03  0.23276335692E+03  0.83848266916E+03  0.25500000920E-02 0. -1.
</event>
<event>
 5   0  0.3832500E-04  0.1605439E+04  0.7818609E-02  0.8817214E-01
       -4   -1    0    0    0  501  0.00000000000E+00  0.00000000000E+00  0.83588207256E+03  0.83588303735E+03  0.12699999809E+01 0. -1.
        4   -1    0    0  501    0  0.00000000000E+00  0.00000000000E+00 -0.77087067821E+03  0.77087172437E+03  0.12699999809E+01 0.  1.
    10030    2    1    2    0    0  0.00000000000E+00  0.00000000000E+00  0.65011394349E+02  0.16067547617E+04  0.16054390001E+04 0.  0.
        2    1    3    3  502    0  0.28213422668E+03 -0.28979048351E+03  0.72645723293E+03  0.83145556555E+03  0.25500000920E-02 0. -1.
       -2    1    3    3    0  502 -0.28213422668E+03  0.28979048351E+03 -0.66144583858E+03  0.77529919617E+03  0.25500000920E-02 0.  1.
</event>
<event>
 5   0  0.1057872E-03  0.1596724E+04  0.7818609E-02  0.8822563E-01
       -2   -1    0    0    0  501  0.00000000000E+00  0.00000000000E+00  0.87665549871E+03  0.87665549871E+03  0.25500000920E-02 0. -1.
        2   -1    0    0  501    0  0.00000000000E+00  0.00000000000E+00 -0.72706091080E+03  0.72706091081E+03  0.25500000920E-02 0.  1.
    10030    2    1    2    0    0  0.00000000000E+00  0.00000000000E+00  0.14959458790E+03  0.16037164095E+04  0.15967240781E+04 0.  0.
        2    1    3    3  502    0  0.71377100405E+03  0.34657812575E+02  0.43232204893E+03  0.83520809634E+03  0.25500000920E-02 0.  1.
       -2    1    3    3    0  502 -0.71377100405E+03 -0.34657812575E+02 -0.28272746103E+03  0.76850831318E+03  0.25500000920E-02 0. -1.
</event>
<event>
 5   0  0.5425525E-04  0.1585478E+04  0.7818609E-02  0.8829519E-01
        1   -1    0    0  501    0  0.00000000000E+00  0.00000000000E+00  0.18440677172E+04  0.18440677172E+04  0.50400001928E-02 0.  1.
       -1   -1    0    0    0  501  0.00000000000E+00  0.00000000000E+00 -0.34078762545E+03  0.34078762548E+03  0.50400001928E-02 0. -1.
    10030    2    1    2    0    0  0.00000000000E+00  0.00000000000E+00  0.15032800918E+04  0.21848553427E+04  0.15854784244E+04 0.  0.
        5    1    3    3  502    0 -0.63822179871E+03 -0.25268506249E+03  0.20520427281E+03  0.71645494536E+03  0.46999998093E+01 0. -1.
       -5    1    3    3    0  502  0.63822179871E+03  0.25268506249E+03  0.12980758189E+04  0.14684003973E+04  0.46999998093E+01 0.  1.
</event>
<event>
 5   0  0.5532881E-04  0.1600671E+04  0.7818609E-02  0.8820136E-01
        1   -1    0    0  501    0  0.00000000000E+00  0.00000000000E+00  0.76088653508E+03  0.76088653509E+03  0.50400001928E-02 0.  1.
       -1   -1    0    0    0  501  0.00000000000E+00  0.00000000000E+00 -0.84182951376E+03  0.84182951378E+03  0.50400001928E-02 0. -1.
    10030    2    1    2    0    0  0.00000000000E+00  0.00000000000E+00 -0.80942978687E+02  0.16027160489E+04  0.16006707867E+04 0.  0.
        4    1    3    3  502    0  0.26339474154E+03 -0.75554270198E+03 -0.22741107875E+02  0.80046257581E+03  0.12699999809E+01 0.  1.
       -4    1    3    3    0  502 -0.26339474154E+03  0.75554270198E+03 -0.58201870812E+02  0.80225347307E+03  0.12699999809E+01 0. -1.
</event>
<event>
 5   0  0.5623061E-04  0.1597622E+04  0.7818609E-02  0.8822010E-01
        1   -1    0    0  501    0  0.00000000000E+00  0.00000000000E+00  0.58495946465E+03  0.58495946467E+03  0.50400001928E-02 0. -1.
       -1   -1    0    0    0  501  0.00000000000E+00  0.00000000000E+00 -0.10908429907E+04  0.10908429907E+04  0.50400001928E-02 0.  1.
    10030    2    1    2    0    0  0.00000000000E+00  0.00000000000E+00 -0.50588352608E+03  0.16758024554E+04  0.15976218976E+04 0.  0.
        3    1    3    3  502    0 -0.54693538741E+03 -0.43494175284E+03  0.15301971841E+03  0.71535144565E+03  0.10100000352E+00 0. -1.
       -3    1    3    3    0  502  0.54693538741E+03  0.43494175284E+03 -0.65890324449E+03  0.96045100977E+03  0.10100000352E+00 0.  1.
</event>
<event>
 5   0  0.5623061E-04  0.1627978E+04  0.7818609E-02  0.8803542E-01
       -1   -1    0    0    0  501  0.00000000000E+00  0.00000000000E+00  0.12183799245E+04  0.12183799245E+04  0.50400001928E-02 0. -1.
        1   -1    0    0  501    0  0.00000000000E+00  0.00000000000E+00 -0.54381915959E+03  0.54381915961E+03  0.50400001928E-02 0.  1.
    10030    2    1    2    0    0  0.00000000000E+00  0.00000000000E+00  0.67456076488E+03  0.17621990841E+04  0.16279783126E+04 0.  0.
        3    1    3    3  502    0 -0.10594118103E+03  0.13006951127E+03 -0.52490471775E+03  0.55105951087E+03  0.10100000352E+00 0.  1.
       -3    1    3    3    0  502  0.10594118103E+03 -0.13006951127E+03  0.11994654826E+04  0.12111395732E+04  0.10100000352E+00 0. -1.
</event>
<event>
 5   0  0.1057872E-03  0.1578542E+04  0.7818609E-02  0.8833840E-01
       -2   -1    0    0    0  501  0.00000000000E+00  0.00000000000E+00  0.39269180294E+03  0.39269180295E+03  0.25500000920E-02 0. -1.
        2   -1    0    0  501    0  0.00000000000E+00  0.00000000000E+00 -0.15863543816E+04  0.15863543816E+04  0.25500000920E-02 0.  1.
    10030    2    1    2    0    0  0.00000000000E+00  0.00000000000E+00 -0.11936625786E+04  0.19790461845E+04  0.15785415575E+04 0.  0.
        2    1    3    3  502    0 -0.64004020845E+03 -0.31064639684E+03 -0.10252943195E+04  0.12479507578E+04  0.25500000920E-02 0.  1.
       -2    1    3    3    0  502  0.64004020845E+03  0.31064639684E+03 -0.16836825916E+03  0.73109542674E+03  0.25500000920E-02 0. -1.
</event>
<event>
 5   0  0.1057872E-03  0.1564524E+04  0.7818609E-02  0.8842643E-01
        2   -1    0    0  501    0  0.00000000000E+00  0.00000000000E+00  0.10048774787E+04  0.10048774787E+04  0.25500000920E-02 0.  1.
       -2   -1    0    0    0  501  0.00000000000E+00  0.00000000000E+00 -0.60896384298E+03  0.60896384299E+03  0.25500000920E-02 0. -1.
    10030    2    1    2    0    0  0.00000000000E+00  0.00000000000E+00  0.39591363575E+03  0.16138413217E+04  0.15645242743E+04 0.  0.
        2    1    3    3  502    0 -0.61784874327E+02 -0.60627990488E+03  0.70386698120E+03  0.93103244895E+03  0.25500000920E-02 0.  1.
       -2    1    3    3    0  502  0.61784874327E+02  0.60627990488E+03 -0.30795334545E+03  0.68280887278E+03  0.25500000920E-02 0. -1.
</event>
<event>
 5   0  0.5532881E-04  0.1597052E+04  0.7818609E-02  0.8822361E-01
        1   -1    0    0  501    0  0.00000000000E+00  0.00000000000E+00  0.63782710656E+03  0.63782710658E+03  0.50400001928E-02 0. -1.
       -1   -1    0    0    0  501  0.00000000000E+00  0.00000000000E+00 -0.99971316383E+03  0.99971316384E+03  0.50400001928E-02 0.  1.
    10030    2    1    2    0    0  0.00000000000E+00  0.00000000000E+00 -0.36188605726E+03  0.16375402704E+04  0.15970524784E+04 0.  0.
        4    1    3    3  502    0  0.36442693259E+02 -0.26241373936E+03  0.59144928252E+03  0.64807631278E+03  0.12699999809E+01 0. -1.
       -4    1    3    3    0  502 -0.36442693259E+02  0.26241373936E+03 -0.95333533978E+03  0.98946395764E+03  0.12699999809E+01 0.  1.
</event>
<event>
 5   0  0.5288658E-04  0.1526053E+04  0.7818609E-02  0.8867310E-01
       -1   -1    0    0    0  501  0.00000000000E+00  0.00000000000E+00  0.14019744203E+04  0.14019744204E+04  0.50400001928E-02 0.  1.
        1   -1    0    0  501    0  0.00000000000E+00  0.00000000000E+00 -0.41527838634E+03  0.41527838637E+03  0.50400001928E-02 0. -1.
    10030    2    1    2    0    0  0.00000000000E+00  0.00000000000E+00  0.98669603400E+03  0.18172528067E+04  0.15260533084E+04 0.  0.
        1    1    3    3  502    0  0.44760885893E+03  0.40001547154E+03 -0.67530883076E+02  0.60409145687E+03  0.50400001928E-02 0. -1.
       -1    1    3    3    0  502 -0.44760885893E+03 -0.40001547154E+03  0.10542269171E+04  0.12131613499E+04  0.50400001928E-02 0.  1.
</event>
<event>
 5   0  0.5288658E-04  0.1617082E+04  0.7818609E-02  0.8810122E-01
        1   -1    0    0  501    0  0.00000000000E+00  0.00000000000E+00  0.53004578624E+03  0.53004578626E+03  0.50400001928E-02 0.  1.
       -1   -1    0    0    0  501  0.00000000000E+00  0.00000000000E+00 -0.12333620517E+04  0.12333620517E+04  0.50400001928E-02 0. -1.
    10030    2    1    2    0    0  0.00000000000E+00  0.00000000000E+00 -0.70331626546E+03  0.17634078380E+04  0.16170817647E+04 0.  0.
        1    1    3    3  502    0  0.44649425643E+03 -0.72480543377E+02  0.37915401873E+03  0.59022734615E+03  0.50400001928E-02 0.  1.
       -1    1    3    3    0  502 -0.44649425643E+03  0.72480543377E+02 -0.10824702842E+04  0.11731804918E+04  0.50400001928E-02 0. -1.
</event>
<event>
 5   0  0.3832500E-04  0.1597455E+04  0.7818609E-02  0.8822113E-01
       -3   -1    0    0    0  501  0.00000000000E+00  0.00000000000E+00  0.15129019719E+04  0.15129019752E+04  0.10100000352E+00 0.  1.
        3   -1    0    0  501    0  0.00000000000E+00  0.00000000000E+00 -0.42168315349E+03  0.42168316559E+03  0.10100000352E+00 0. -1.
    10030    2    1    2    0    0  0.00000000000E+00  0.00000000000E+00  0.10912188184E+04  0.19345851408E+04  0.15974545870E+04 0.  0.
        3    1    3    3  502    0  0.54590203827E+02  0.23916045352E+03 -0.37493211857E+03  0.44805347518E+03  0.10100000352E+00 0. -1.
       -3    1    3    3    0  502 -0.54590203827E+02 -0.23916045352E+03  0.14661509369E+04  0.14865316656E+04  0.10100000352E+00 0.  1.
</event>
<event>
 5   0  0.5425525E-04  0.1502266E+04  0.7818609E-02  0.8882948E-01
       -1   -1    0    0    0  501  0.00000000000E+00  0.00000000000E+00  0.91771394586E+03  0.91771394587E+03  0.50400001928E-02 0. -1.
        1   -1    0    0  501    0  0.00000000000E+00  0.00000000000E+00 -0.61478906785E+03  0.61478906787E+03  0.50400001928E-02 0.  1.
    10030    2    1    2    0    0  0.00000000000E+00  0.00000000000E+00  0.30292487801E+03  0.15325030137E+04  0.15022656241E+04 0.  0.
        5    1    3    3  502    0  0.40148731362E+03 -0.47622274156E+03  0.57967105506E+03  0.85089410895E+03  0.46999998093E+01 0. -1.
       -5    1    3    3    0  502 -0.40148731362E+03  0.47622274156E+03 -0.27674617705E+03  0.68160890479E+03  0.46999998093E+01 0.  1.
</event>
<event>
 5   0  0.1000121E-03  0.1612406E+04  0.7818609E-02  0.8812962E-01
        2   -1    0    0  501    0  0.00000000000E+00  0.00000000000E+00  0.64205262225E+03  0.64205262225E+03  0.25500000920E-02 0.  1.
       -2   -1    0    0    0  501  0.00000000000E+00  0.00000000000E+00 -0.10123212553E+04  0.10123212553E+04  0.25500000920E-02 0. -1.
    10030    2    1    2    0    0  0.00000000000E+00  0.00000000000E+00 -0.37026863303E+03  0.16543738775E+04  0.16124062968E+04 0.  0.
        4    1    3    3  502    0  0.36603382239E+03  0.61576035319E+02 -0.91943600938E+03  0.99153242786E+03  0.12699999809E+01 0. -1.
       -4    1    3    3    0  502 -0.36603382239E+03 -0.61576035319E+02  0.54916737635E+03  0.66284144967E+03  0.12699999809E+01 0.  1.
</event>
<event>
 5   0  0.9844690E-04  0.1598151E+04  0.7818609E-02  0.8821685E-01
        2   -1    0    0  501    0  0.00000000000E+00  0.00000000000E+00  0.62177567531E+03  0.62177567532E+03  0.25500000920E-02 0. -1.
       -2   -1    0    0    0  501  0.00000000000E+00  0.00000000000E+00 -0.10269327964E+04  0.10269327964E+04  0.25500000920E-02 0.  1.
    10030    2    1    2    0    0  0.00000000000E+00  0.00000000000E+00 -0.40515712113E+03  0.16487084718E+04  0.15981512232E+04 0.  0.
        3    1    3    3  502    0  0.21548567549E+03  0.74976985304E+03 -0.38106305629E+03  0.86821539490E+03  0.10100000352E+00 0.  1.
       -3    1    3    3    0  502 -0.21548567549E+03 -0.74976985304E+03 -0.24094064837E+02  0.78049307686E+03  0.10100000352E+00 0. -1.
</event>
<event>
 5   0  0.1030027E-03  0.1619781E+04  0.7818609E-02  0.8808487E-01
        2   -1    0    0  501    0  0.00000000000E+00  0.00000000000E+00  0.12337103430E+04  0.12337103430E+04  0.25500000920E-02 0. -1.
       -2   -1    0    0    0  501  0.00000000000E+00  0.00000000000E+00 -0.53166670756E+03  0.53166670757E+03  0.25500000920E-02 0.  1.
    10030    2    1    2    0    0  0.00000000000E+00  0.00000000000E+00  0.70204363545E+03  0.17653770506E+04  0.16197811163E+04 0.  0.
        1    1    3    3  502    0 -0.18058518010E+03 -0.23076086970E+03 -0.47186832430E+03  0.55544693875E+03  0.50400001928E-02 0.  1.
       -1    1    3    3    0  502  0.18058518010E+03  0.23076086970E+03  0.11739119597E+04  0.12099301118E+04  0.50400001928E-02 0. -1.
</event>
<event>
 5   0  0.9844690E-04  0.1519496E+04  0.7818609E-02  0.8871591E-01
       -2   -1    0    0    0  501  0.00000000000E+00  0.00000000000E+00  0.30439910827E+03  0.30439910828E+03  0.25500000920E-02 0. -1.
        2   -1    0    0  501    0  0.00000000000E+00  0.00000000000E+00 -0.18962511474E+04  0.18962511474E+04  0.25500000920E-02 0.  1.
    10030    2    1    2    0    0  0.00000000000E+00  0.00000000000E+00 -0.15918520391E+04  0.22006502556E+04  0.15194961775E+04 0.  0.
        3    1    3    3  502    0  0.49473811606E+03  0.20900007032E+03 -0.17660682024E+02  0.53736276645E+03  0.10100000352E+00 0. -1.
       -3    1    3    3    0  502 -0.49473811606E+03 -0.20900007032E+03 -0.15741913571E+04  0.16632874892E+04  0.10100000352E+00 0.  1.
</event>
<event>
 5   0  0.1037321E-03  0.1617703E+04  0.7818609E-02  0.8809745E-01
        2   -1    0    0  501    0  0.00000000000E+00  0.00000000000E+00  0.10118413699E+04  0.10118413700E+04  0.25500000920E-02 0. -1.
       -2   -1    0    0    0  501  0.00000000000E+00  0.00000000000E+00 -0.64658462012E+03  0.64658462013E+03  0.25500000920E-02 0.  1.
    10030    2    1    2    0    0  0.00000000000E+00  0.00000000000E+00  0.36525674983E+03  0.16584259901E+04  0.16177033941E+04 0.  0.
        5    1    3    3  502    0 -0.12113176713E+03  0.70788210677E+03 -0.19882556368E+03  0.74520042731E+03  0.46999998093E+01 0.  1.
       -5    1    3    3    0  502  0.12113176713E+03 -0.70788210677E+03  0.56408231351E+03  0.91322556277E+03  0.46999998093E+01 0. -1.
</event>
<event>
 5   0  0.1037321E-03  0.1739326E+04  0.7818609E-02  0.8739248E-01
       -2   -1    0    0    0  501  0.00000000000E+00  0.00000000000E+00  0.44069549387E+03  0.44069549388E+03  0.25500000920E-02 0. -1.
        2   -1    0    0  501    0  0.00000000000E+00  0.00000000000E+00 -0.17161824404E+04  0.17161824404E+04  0.25500000920E-02 0.  1.
    10030    2    1    2    0    0  0.00000000000E+00  0.00000000000E+00 -0.12754869465E+04  0.21568779343E+04  0.17393261547E+04 0.  0.
        5    1    3    3  502    0  0.63027825617E+02 -0.57719679504E+03 -0.14405965532E+04  0.15532125309E+04  0.46999998093E+01 0.  1.
       -5    1    3    3    0  502 -0.63027825617E+02  0.57719679504E+03  0.16510960669E+03  0.60366540337E+03  0.46999998093E+01 0. -1.
</event>
<event>
 5   0  0.5288658E-04  0.1587633E+04  0.7818609E-02  0.8828182E-01
        1   -1    0    0  501    0  0.00000000000E+00  0.00000000000E+00  0.16979181564E+04  0.16979181564E+04  0.50400001928E-02 0. -1.
       -1   -1    0    0    0  501  0.00000000000E+00  0.00000000000E+00 -0.37112784033E+03  0.37112784037E+03  0.50400001928E-02 0.  1.
    10030    2    1    2    0    0  0.00000000000E+00  0.00000000000E+00  0.13267903161E+04  0.20690459968E+04  0.15876330791E+04 0.  0.
        1    1    3    3  502    0 -0.26189649219E+03  0.51914217509E+03  0.13676760108E+04  0.14861480549E+04  0.50400001928E-02 0. -1.
       -1    1    3    3    0  502  0.26189649219E+03 -0.51914217509E+03 -0.40885694718E+02  0.58289794187E+03  0.50400001928E-02 0.  1.
</event>
<event>
 5   0  0.1030027E-03  0.1501238E+04  0.7818609E-02  0.8883630E-01
       -2   -1    0    0    0  501  0.00000000000E+00  0.00000000000E+00  0.27374980058E+03  0.27374980059E+03  0.25500000920E-02 0.  1.
        2   -1    0    0  501    0  0.00000000000E+00  0.00000000000E+00 -0.20581899611E+04  0.20581899611E+04  0.25500000920E-02 0. -1.
    10030    2    1    2    0    0  0.00000000000E+00  0.00000000000E+00 -0.17844401606E+04  0.23319397617E+04  0.15012382775E+04 0.  0.
        1    1    3    3  502    0 -0.47084589187E+03 -0.52221051032E+03 -0.13003371990E+04  0.14782680752E+04  0.50400001928E-02 0.  1.
       -1    1    3    3    0  502  0.47084589187E+03  0.52221051032E+03 -0.48410296157E+03  0.85367168655E+03  0.50400001928E-02 0. -1.
</event>
<event>
 5   0  0.5623061E-04  0.1601190E+04  0.7818609E-02  0.8819817E-01
        1   -1    0    0  501    0  0.00000000000E+00  0.00000000000E+00  0.71369042227E+03  0.71369042229E+03  0.50400001928E-02 0. -1.
       -1   -1    0    0    0  501  0.00000000000E+00  0.00000000000E+00 -0.89808167899E+03  0.89808167900E+03  0.50400001928E-02 0.  1.
    10030    2    1    2    0    0  0.00000000000E+00  0.00000000000E+00 -0.18439125672E+03  0.16117721013E+04  0.16011899234E+04 0.  0.
        3    1    3    3  502    0 -0.27399410027E+03 -0.65199368614E+03  0.28549573024E+03  0.76267709808E+03  0.10100000352E+00 0. -1.
       -3    1    3    3    0  502  0.27399410027E+03  0.65199368614E+03 -0.46988698696E+03  0.84909500320E+03  0.10100000352E+00 0.  1.
</event>
<event>
 5   0  0.5281116E-04  0.1597685E+04  0.7818609E-02  0.8821971E-01
        1   -1    0    0  501    0  0.00000000000E+00  0.00000000000E+00  0.48198623793E+03  0.48198623796E+03  0.50400001928E-02 0.  1.
       -1   -1    0    0    0  501  0.00000000000E+00  0.00000000000E+00 -0.13239991315E+04  0.13239991315E+04  0.50400001928E-02 0. -1.
    10030    2    1    2    0    0  0.00000000000E+00  0.00000000000E+00 -0.84201289360E+03  0.18059853695E+04  0.15976850259E+04 0.  0.
        2    1    3    3  502    0 -0.19238160990E+02  0.86757129156E+02 -0.13183946076E+04  0.13213861085E+04  0.25500000920E-02 0. -1.
       -2    1    3    3    0  502  0.19238160990E+02 -0.86757129156E+02  0.47638171403E+03  0.48459926100E+03  0.25500000920E-02 0.  1.
</event>
<event>
 5   0  0.5532881E-04  0.1445502E+04  0.7818609E-02  0.8921525E-01
       -1   -1    0    0    0  501  0.00000000000E+00  0.00000000000E+00  0.67382230832E+03  0.67382230834E+03  0.50400001928E-02 0. -1.
        1   -1    0    0  501    0  0.00000000000E+00  0.00000000000E+00 -0.77523208451E+03  0.77523208452E+03  0.50400001928E-02 0.  1.
    10030    2    1    2    0    0  0.00000000000E+00  0.00000000000E+00 -0.10140977619E+03  0.14490543929E+04  0.14455015361E+04 0.  0.
        4    1    3    3  502    0 -0.21226663224E+03 -0.32261773736E+03  0.56172035500E+03  0.68166758595E+03  0.12699999809E+01 0. -1.
       -4    1    3    3    0  502  0.21226663224E+03  0.32261773736E+03 -0.66313013119E+03  0.76738680690E+03  0.12699999809E+01 0.  1.
</event>
<event>
 5   0  0.1000121E-03  0.1645299E+04  0.7818609E-02  0.8793192E-01
        2   -1    0    0  501    0  0.00000000000E+00  0.00000000000E+00  0.63064933073E+03  0.63064933073E+03  0.25500000920E-02 0.  1.
       -2   -1    0    0    0  501  0.00000000000E+00  0.00000000000E+00 -0.10731038690E+04  0.10731038690E+04  0.25500000920E-02 0. -1.
    10030    2    1    2    0    0  0.00000000000E+00  0.00000000000E+00 -0.44245453823E+03  0.17037531997E+04  0.16452990449E+04 0.  0.
        4    1    3    3  502    0  0.34927837253E+03  0.34052788174E+03 -0.90717839123E+03  0.10300140126E+04  0.12699999809E+01 0. -1.
       -4    1    3    3    0  502 -0.34927837253E+03 -0.34052788174E+03  0.46472385300E+03  0.67373918708E+03  0.12699999809E+01 0.  1.
</event>
<event>
 5   0  0.5425525E-04  0.1604229E+04  0.7818609E-02  0.8817954E-01
       -1   -1    0    0    0  501  0.00000000000E+00  0.00000000000E+00  0.18579160252E+04  0.18579160253E+04  0.50400001928E-02 0.  1.
        1   -1    0    0  501    0  0.00000000000E+00  0.00000000000E+00 -0.34629515474E+03  0.34629515478E+03  0.50400001928E-02 0. -1.
    10030    2    1    2    0    0  0.00000000000E+00  0.00000000000E+00  0.15116208705E+04  0.22042111800E+04  0.16042285592E+04 0.  0.
        5    1    3    3  502    0  0.78236430063E+03  0.17159531753E+03  0.81452988897E+03  0.11423746679E+04  0.46999998093E+01 0. -1.
       -5    1    3    3    0  502 -0.78236430063E+03 -0.17159531753E+03  0.69709098154E+03  0.10618365121E+04  0.46999998093E+01 0.  1.
</event>
<event>
 5   0  0.5425525E-04  0.1608390E+04  0.7818609E-02  0.8815410E-01
        1   -1    0    0  501    0  0.00000000000E+00  0.00000000000E+00  0.96098676763E+03  0.96098676764E+03  0.50400001928E-02 0.  1.
       -1   -1    0    0    0  501  0.00000000000E+00  0.00000000000E+00 -0.67298526863E+03  0.67298526865E+03  0.50400001928E-02 0. -1.
    10030    2    1    2    0    0  0.00000000000E+00  0.00000000000E+00  0.28800149899E+03  0.16339720363E+04  0.16083904227E+04 0.  0.
        5    1    3    3  502    0 -0.52971247228E+03  0.31994839948E+03 -0.37772914892E+03  0.72502667645E+03  0.46999998093E+01 0. -1.
       -5    1    3    3    0  502  0.52971247228E+03 -0.31994839948E+03  0.66573064791E+03  0.90894535985E+03  0.46999998093E+01 0.  1.
</event>
<event>
 5   0  0.5425525E-04  0.1599991E+04  0.7818609E-02  0.8820553E-01
       -1   -1    0    0    0  501  0.00000000000E+00  0.00000000000E+00  0.47393597923E+03  0.47393597926E+03  0.50400001928E-02 0.  1.
        1   -1    0    0  501    0  0.00000000000E+00  0.00000000000E+00 -0.13503787662E+04  0.13503787662E+04  0.50400001928E-02 0. -1.
    10030    2    1    2    0    0  0.00000000000E+00  0.00000000000E+00 -0.87644278697E+03  0.18243147455E+04  0.15999913536E+04 0.  0.
        5    1    3    3  502    0  0.73476878920E+03  0.31506614777E+03 -0.47085474631E+03  0.92783518643E+03  0.46999998093E+01 0.  1.
       -5    1    3    3    0  502 -0.73476878920E+03 -0.31506614777E+03 -0.40558804066E+03  0.89647955904E+03  0.46999998093E+01 0. -1.
</event>
<event>
 5   0  0.1037321E-03  0.1600359E+04  0.7818609E-02  0.8820328E-01
       -2   -1    0    0    0  501  0.00000000000E+00  0.00000000000E+00  0.44165082776E+03  0.44165082777E+03  0.25500000920E-02 0. -1.
        2   -1    0    0  501    0  0.00000000000E+00  0.00000000000E+00 -0.14497580628E+04  0.14497580628E+04  0.25500000920E-02 0.  1.
    10030    2    1    2    0    0  0.00000000000E+00  0.00000000000E+00 -0.10081072350E+04  0.18914088906E+04  0.16003585204E+04 0.  0.
        5    1    3    3  502    0  0.27096474446E+02  0.12466862292E+03 -0.14376439674E+04  0.14433013377E+04  0.46999998093E+01 0.  1.
       -5    1    3    3    0  502 -0.27096474446E+02 -0.12466862292E+03  0.42953673237E+03  0.44810755285E+03  0.46999998093E+01 0. -1.
</event>
<event>
 5   0  0.1030027E-03  0.1635174E+04  0.7818609E-02  0.8799226E-01
       -2   -1    0    0    0  501  0.00000000000E+00  0.00000000000E+00  0.73152662052E+03  0.73152662052E+03  0.25500000920E-02 0. -1.
        2   -1    0    0  501    0  0.00000000000E+00  0.00000000000E+00 -0.91377238728E+03  0.91377238728E+03  0.25500000920E-02 0.  1.
    10030    2    1    2    0    0  0.00000000000E+00  0.00000000000E+00 -0.18224576676E+03  0.16452990078E+04  0.16351743961E+04 0.  0.
        1    1    3    3  502    0  0.58851754428E+03  0.42490898838E+03  0.28743566081E+03  0.78071749530E+03  0.50400001928E-02 0. -1.
       -1    1    3    3    0  502 -0.58851754428E+03 -0.42490898838E+03 -0.46968142758E+03  0.86458151251E+03  0.50400001928E-02 0.  1.
</event>
<event>
 5   0  0.5281116E-04  0.1658691E+04  0.7818609E-02  0.8785281E-01
        1   -1    0    0  501    0  0.00000000000E+00  0.00000000000E+00  0.89151907483E+03  0.89151907484E+03  0.50400001928E-02 0. -1.
       -1   -1    0    0    0  501  0.00000000000E+00  0.00000000000E+00 -0.77150814652E+03  0.77150814654E+03  0.50400001928E-02 0.  1.
    10030    2    1    2    0    0  0.00000000000E+00  0.00000000000E+00  0.12001092831E+03  0.16630272214E+04  0.16586913264E+04 0.  0.
        2    1    3    3  502    0 -0.28703309635E+03 -0.72727242214E+03 -0.21730579039E+03  0.81150168265E+03  0.25500000920E-02 0. -1.
       -2    1    3    3    0  502  0.28703309635E+03  0.72727242214E+03  0.33731671870E+03  0.85152553874E+03  0.25500000920E-02 0.  1.
</event>
<event>
 5   0  0.1037321E-03  0.1560023E+04  0.7818609E-02  0.8845491E-01
       -2   -1    0    0    0  501  0.00000000000E+00  0.00000000000E+00  0.95897843667E+03  0.95897843667E+03  0.25500000920E-02 0.  1.
        2   -1    0    0  501    0  0.00000000000E+00  0.00000000000E+00 -0.63444347483E+03  0.63444347483E+03  0.25500000920E-02 0. -1.
    10030    2    1    2    0    0  0.00000000000E+00  0.00000000000E+00  0.32453496184E+03  0.15934219115E+04  0.15600225789E+04 0.  0.
        5    1    3    3  502    0 -0.66727318317E+03  0.23327211923E+03 -0.17452848731E+03  0.72811514575E+03  0.46999998093E+01 0. -1.
       -5    1    3    3    0  502  0.66727318317E+03 -0.23327211923E+03  0.49906344915E+03  0.86530676576E+03  0.46999998093E+01 0.  1.
</event>
<event>
 5   0  0.1030027E-03  0.1571835E+04  0.7818609E-02  0.8838040E-01
        2   -1    0    0  501    0  0.00000000000E+00  0.00000000000E+00  0.14768167235E+04  0.14768167235E+04  0.25500000920E-02 0. -1.
       -2   -1    0    0    0  501  0.00000000000E+00  0.00000000000E+00 -0.41824188528E+03  0.41824188528E+03  0.25500000920E-02 0.  1.
    10030    2    1    2    0    0  0.00000000000E+00  0.00000000000E+00  0.10585748382E+04  0.18950586088E+04  0.15718353739E+04 0.  0.
        1    1    3    3  502    0 -0.29755290509E+03 -0.18482358002E+03  0.13774998675E+04  0.14213385845E+04  0.50400001928E-02 0. -1.
       -1    1    3    3    0  502  0.29755290509E+03  0.18482358002E+03 -0.31892502924E+03  0.47372002423E+03  0.50400001928E-02 0.  1.
</event>
<event>
 5   0  0.3832500E-04  0.1588833E+04  0.7818609E-02  0.8827438E-01
        3   -1    0    0  501    0  0.00000000000E+00  0.00000000000E+00  0.10061113691E+04  0.10061113742E+04  0.10100000352E+00 0. -1.
       -3   -1    0    0    0  501  0.00000000000E+00  0.00000000000E+00 -0.62726442213E+03  0.62726443026E+03  0.10100000352E+00 0.  1.
    10030    2    1    2    0    0  0.00000000000E+00  0.00000000000E+00  0.37884694700E+03  0.16333758045E+04  0.15888333800E+04 0.  0.
        1    1    3    3  502    0 -0.14787264990E+03  0.57972004478E+02 -0.61077510382E+03  0.63108898054E+03  0.50400001928E-02 0.  1.
       -1    1    3    3    0  502  0.14787264990E+03 -0.57972004478E+02  0.98962205082E+03  0.10022868239E+04  0.50400001928E-02 0. -1.
</event>
<event>
 5   0  0.1030027E-03  0.1580681E+04  0.7818609E-02  0.8832505E-01
        2   -1    0    0  501    0  0.00000000000E+00  0.00000000000E+00  0.15991455198E+04  0.15991455199E+04  0.25500000920E-02 0.  1.
       -2   -1    0    0    0  501  0.00000000000E+00  0.00000000000E+00 -0.39060726357E+03  0.39060726358E+03  0.25500000920E-02 0. -1.
    10030    2    1    2    0    0  0.00000000000E+00  0.00000000000E+00  0.12085382563E+04  0.19897527834E+04  0.15806806832E+04 0.  0.
        1    1    3    3  502    0  0.37157542618E+03  0.68101754047E+03  0.79427907005E+03  0.11102848413E+04  0.50400001928E-02 0. -1.
       -1    1    3    3    0  502 -0.37157542618E+03 -0.68101754047E+03  0.41425918623E+03  0.87946794209E+03  0.50400001928E-02 0.  1.
</event>
<event>
 5   0  0.9844690E-04  0.1542703E+04  0.7818609E-02  0.8856542E-01
        2   -1    0    0  501    0  0.00000000000E+00  0.00000000000E+00  0.19721060617E+04  0.19721060617E+04  0.25500000920E-02 0. -1.
       -2   -1    0    0    0  501  0.00000000000E+00  0.00000000000E+00 -0.30169942056E+03  0.30169942057E+03  0.25500000920E-02 0.  1.
    10030    2    1    2    0    0  0.00000000000E+00  0.00000000000E+00  0.16704066412E+04  0.22738054823E+04  0.15427031550E+04 0.  0.
        3    1    3    3  502    0  0.16672498692E+02  0.75513732170E+03  0.10657790819E+04  0.13062907059E+04  0.10100000352E+00 0.  1.
       -3    1    3    3    0  502 -0.16672498692E+02 -0.75513732170E+03  0.60462755926E+03  0.96751477635E+03  0.10100000352E+00 0. -1.
</event>
<event>
 5   0  0.5532881E-04  0.1583243E+04  0.7818609E-02  0.8830909E-01
       -1   -1    0    0    0  501  0.00000000000E+00  0.00000000000E+00  0.11609651750E+04  0.11609651750E+04  0.50400001928E-02 0.  1.
        1   -1    0    0  501    0  0.00000000000E+00  0.00000000000E+00 -0.53977886750E+03  0.53977886753E+03  0.50400001928E-02 0. -1.
    10030    2    1    2    0    0  0.00000000000E+00  0.00000000000E+00  0.62118630752E+03  0.17007440426E+04  0.15832428334E+04 0.  0.
        4    1    3    3  502    0 -0.72456787372E+02 -0.53080499262E+03 -0.31546250442E+03  0.62170904033E+03  0.12699999809E+01 0. -1.
       -4    1    3    3    0  502  0.72456787372E+02  0.53080499262E+03  0.93664881194E+03  0.10790350022E+04  0.12699999809E+01 0.  1.
</event>
<event>
 5   0  0.5532881E-04  0.1592862E+04  0.7818609E-02  0.8824945E-01
       -1   -1    0    0    0  501  0.00000000000E+00  0.00000000000E+00  0.51239836029E+03  0.51239836031E+03  0.50400001928E-02 0.  1.
        1   -1    0    0  501    0  0.00000000000E+00  0.00000000000E+00 -0.12379086184E+04  0.12379086184E+04  0.50400001928E-02 0. -1.
    10030    2    1    2    0    0  0.00000000000E+00  0.00000000000E+00 -0.72551025814E+03  0.17503069788E+04  0.15928620107E+04 0.  0.
        4    1    3    3  502    0  0.16133027824E+03 -0.43510551988E+02 -0.12184295356E+04  0.12298344494E+04  0.12699999809E+01 0. -1.
       -4    1    3    3    0  502 -0.16133027824E+03  0.43510551988E+02  0.49291927746E+03  0.52047252935E+03  0.12699999809E+01 0.  1.
</event>
<event>
 5   0  0.5288658E-04  0.1588205E+04  0.7818609E-02  0.8827827E-01
        1   -1    0    0  501    0  0.00000000000E+00  0.00000000000E+00  0.47819775969E+03  0.47819775971E+03  0.50400001928E-02 0.  1.
       -1   -1    0    0    0  501  0.00000000000E+00  0.00000000000E+00 -0.13186987848E+04  0.13186987848E+04  0.50400001928E-02 0. -1.
    10030    2    1    2    0    0  0.00000000000E+00  0.00000000000E+00 -0.84050102506E+03  0.17968965445E+04  0.15882050303E+04 0.  0.
        1    1    3    3  502    0 -0.15152438020E+03  0.76970394000E+03 -0.55971608806E+03  0.96368350214E+03  0.50400001928E-02 0. -1.
       -1    1    3    3    0  502  0.15152438020E+03 -0.76970394000E+03 -0.28078493701E+03  0.83321304233E+03  0.50400001928E-02 0.  1.
</event>
<event>
 5   0  0.1037321E-03  0.1621938E+04  0.7818609E-02  0.8807183E-01
       -2   -1    0    0    0  501  0.00000000000E+00  0.00000000000E+00  0.54419423931E+03  0.54419423932E+03  0.25500000920E-02 0.  1.
        2   -1    0    0  501    0  0.00000000000E+00  0.00000000000E+00 -0.12085216379E+04  0.12085216379E+04  0.25500000920E-02 0. -1.
    10030    2    1    2    0    0  0.00000000000E+00  0.00000000000E+00 -0.66432739861E+03  0.17527158772E+04  0.16219377466E+04 0.  0.
        5    1    3    3  502    0 -0.12767669073E+03 -0.10952218496E+03 -0.11894465581E+04  0.12012916594E+04  0.46999998093E+01 0. -1.
       -5    1    3    3    0  502  0.12767669073E+03  0.10952218496E+03  0.52511915950E+03  0.55142421784E+03  0.46999998093E+01 0.  1.
</event>
<event>
 5   0  0.5288658E-04  0.1614904E+04  0.7818609E-02  0.8811444E-01
       -1   -1    0    0    0  501  0.00000000000E+00  0.00000000000E+00  0.24549576269E+03  0.24549576274E+03  0.50400001928E-02 0. -1.
        1   -1    0    0  501    0  0.00000000000E+00  0.00000000000E+00 -0.26557626454E+04  0.26557626454E+04  0.50400001928E-02 0.  1.
    10030    2    1    2    0    0  0.00000000000E+00  0.00000000000E+00 -0.24102668827E+04  0.29012584082E+04  0.16149036829E+04 0.  0.
        1    1    3    3  502    0  0.17072838052E+03  0.78887947855E+03 -0.11649828311E+04  0.14172734417E+04  0.50400001928E-02 0. -1.
       -1    1    3    3    0  502 -0.17072838052E+03 -0.78887947855E+03 -0.12452840516E+04  0.14839849665E+04  0.50400001928E-02 0.  1.
</event>
<event>
 5   0  0.3832500E-04  0.1612417E+04  0.7818609E-02  0.8812956E-01
        3   -1    0    0  501    0  0.00000000000E+00  0.00000000000E+00  0.22899434107E+04  0.22899434129E+04  0.10100000352E+00 0.  1.
       -3   -1    0    0    0  501  0.00000000000E+00  0.00000000000E+00 -0.28383776089E+03  0.28383777886E+03  0.10100000352E+00 0. -1.
    10030    2    1    2    0    0  0.00000000000E+00  0.00000000000E+00  0.20061056498E+04  0.25737811918E+04  0.16124173607E+04 0.  0.
        3    1    3    3  502    0  0.42484684050E+03 -0.37268759529E+03  0.85283665588E+02  0.57154544472E+03  0.10100000352E+00 0. -1.
       -3    1    3    3    0  502 -0.42484684050E+03  0.37268759529E+03  0.19208219842E+04  0.20022357470E+04  0.10100000352E+00 0.  1.
</event>
<event>
 5   0  0.1037321E-03  0.1550126E+04  0.7818609E-02  0.8851787E-01
        2   -1    0    0  501    0  0.00000000000E+00  0.00000000000E+00  0.14984153735E+04  0.14984153735E+04  0.25500000920E-02 0.  1.
       -2   -1    0    0    0  501  0.00000000000E+00  0.00000000000E+00 -0.40090521099E+03  0.40090521100E+03  0.25500000920E-02 0. -1.
    10030    2    1    2    0    0  0.00000000000E+00  0.00000000000E+00  0.10975101625E+04  0.18993205845E+04  0.15501258419E+04 0.  0.
        5    1    3    3  502    0 -0.72771529626E+03 -0.25545227023E+03  0.64267035759E+03  0.10039286296E+04  0.46999998093E+01 0.  1.
       -5    1    3    3    0  502  0.72771529626E+03  0.25545227023E+03  0.45483980491E+03  0.89539195490E+03  0.46999998093E+01 0. -1.
</event>
<event>
 5   0  0.1030027E-03  0.1600930E+04  0.7818609E-02  0.8819977E-01
        2   -1    0    0  501    0  0.00000000000E+00  0.00000000000E+00  0.14892772001E+04  0.14892772001E+04  0.25500000920E-02 0.  1.
       -2   -1    0    0    0  501  0.00000000000E+00  0.00000000000E+00 -0.43023851742E+03  0.43023851743E+03  0.25500000920E-02 0. -1.
    10030    2    1    2    0    0  0.00000000000E+00  0.00000000000E+00  0.10590386827E+04  0.19195157175E+04  0.16009302478E+04 0.  0.
        1    1    3    3  502    0  0.34425276305E+03 -0.55800324838E+03  0.10801030938E+04  0.12635269223E+04  0.50400001928E-02 0.  1.
       -1    1    3    3    0  502 -0.34425276305E+03  0.55800324838E+03 -0.21064411106E+02  0.65598879527E+03  0.50400001928E-02 0. -1.
</event>
<event>
 5   0  0.1000121E-03  0.1601980E+04  0.7818609E-02  0.8819333E-01
       -2   -1    0    0    0  501  0.00000000000E+00  0.00000000000E+00  0.42696378443E+03  0.42696378444E+03  0.25500000920E-02 0.  1.
        2   -1    0    0  501    0  0.00000000000E+00  0.00000000000E+00 -0.15026681191E+04  0.15026681192E+04  0.25500000920E-02 0. -1.
    10030    2    1    2    0    0  0.00000000000E+00  0.00000000000E+00 -0.10757043347E+04  0.19296319036E+04  0.16019798587E+04 0.  0.
        4    1    3    3  502    0  0.29016336496E+03 -0.61034680332E+02  0.35842073379E+03  0.46517421024E+03  0.12699999809E+01 0.  1.
       -4    1    3    3    0  502 -0.29016336496E+03  0.61034680332E+02 -0.14341250685E+04  0.14644576933E+04  0.12699999809E+01 0. -1.
</event>
<event>
 5   0  0.1037321E-03  0.1542210E+04  0.7818609E-02  0.8856859E-01
       -2   -1    0    0    0  501  0.00000000000E+00  0.00000000000E+00  0.71710751163E+03  0.71710751163E+03  0.25500000920E-02 0.  1.
        2   -1    0    0  501    0  0.00000000000E+00  0.00000000000E+00 -0.82916852475E+03  0.82916852476E+03  0.25500000920E-02 0. -1.
    10030    2    1    2    0    0  0.00000000000E+00  0.00000000000E+00 -0.11206101313E+03  0.15462760364E+04  0.15422100733E+04 0.  0.
        5    1    3    3  502    0 -0.22205125186E+03  0.71574673036E+03 -0.23811532367E+03  0.78633398618E+03  0.46999998093E+01 0. -1.
       -5    1    3    3    0  502  0.22205125186E+03 -0.71574673036E+03  0.12605431054E+03  0.75994205020E+03  0.46999998093E+01 0.  1.
</event>
<event>
 5   0  0.5532881E-04  0.1615644E+04  0.7818609E-02  0.8810995E-01
        1   -1    0    0  501    0  0.00000000000E+00  0.00000000000E+00  0.55855694742E+03  0.55855694744E+03  0.50400001928E-02 0.  1.
       -1   -1    0    0    0  501  0.00000000000E+00  0.00000000000E+00 -0.11683253614E+04  0.11683253614E+04  0.50400001928E-02 0. -1.
    10030    2    1    2    0    0  0.00000000000E+00  0.00000000000E+00 -0.60976841395E+03  0.17268823088E+04  0.16156438314E+04 0.  0.
        4    1    3    3  502    0  0.76579756386E+02 -0.53155515600E+03 -0.94988880614E+03  0.10911946205E+04  0.12699999809E+01 0. -1.
       -4    1    3    3    0  502 -0.76579756386E+02  0.53155515600E+03  0.34012039219E+03  0.63568768829E+03  0.12699999809E+01 0.  1.
</event>
<event>
 5   0  0.1030027E-03  0.1694638E+04  0.7818609E-02  0.8764428E-01
       -2   -1    0    0    0  501  0.00000000000E+00  0.00000000000E+00  0.50345959544E+03  0.50345959545E+03  0.25500000920E-02 0.  1.
        2   -1    0    0  501    0  0.00000000000E+00  0.00000000000E+00 -0.14260319430E+04  0.14260319430E+04  0.25500000920E-02 0. -1.
    10030    2    1    2    0    0  0.00000000000E+00  0.00000000000E+00 -0.92257234755E+03  0.19294915384E+04  0.16946379733E+04 0.  0.
        1    1    3    3  502    0 -0.77395301287E+03 -0.76856236137E+02 -0.78478435092E+02  0.78170903281E+03  0.50400001928E-02 0.  1.
       -1    1    3    3    0  502  0.77395301287E+03  0.76856236137E+02 -0.84409391246E+03  0.11477825056E+04  0.50400001928E-02 0. -1.
</event>
<event>
 5   0  0.5532881E-04  0.1599298E+04  0.7818609E-02  0.8820979E-01
       -1   -1    0    0    0  501  0.00000000000E+00  0.00000000000E+00  0.47259828458E+03  0.47259828461E+03  0.50400001928E-02 0. -1.
        1   -1    0    0  501    0  0.00000000000E+00  0.00000000000E+00 -0.13530281779E+04  0.13530281779E+04  0.50400001928E-02 0.  1.
    10030    2    1    2    0    0  0.00000000000E+00  0.00000000000E+00 -0.88042989327E+03  0.18256264625E+04  0.15992983410E+04 0.  0.
        4    1    3    3  502    0 -0.11311352815E+03 -0.32710088287E+03  0.38266573576E+03  0.51596931696E+03  0.12699999809E+01 0. -1.
       -4    1    3    3    0  502  0.11311352815E+03  0.32710088287E+03 -0.12630956290E+04  0.13096571455E+04  0.12699999809E+01 0.  1.
</event>
<event>
 5   0  0.5281116E-04  0.1598643E+04  0.7818609E-02  0.8821382E-01
        1   -1    0    0  501    0  0.00000000000E+00  0.00000000000E+00  0.14399418732E+04  0.14399418732E+04  0.50400001928E-02 0. -1.
       -1   -1    0    0    0  501  0.00000000000E+00  0.00000000000E+00 -0.44370884339E+03  0.44370884342E+03  0.50400001928E-02 0.  1.
    10030    2    1    2    0    0  0.00000000000E+00  0.00000000000E+00  0.99623302979E+03  0.18836507166E+04  0.15986431036E+04 0.  0.
        2    1    3    3  502    0 -0.52989619106E+02 -0.39515794977E+03 -0.31818411089E+03  0.51009688632E+03  0.25500000920E-02 0.  1.
       -2    1    3    3    0  502  0.52989619106E+02  0.39515794977E+03  0.13144171407E+04  0.13735538303E+04  0.25500000920E-02 0. -1.
</event>
<event>
 5   0  0.3832500E-04  0.1560165E+04  0.7818609E-02  0.8845401E-01
        4   -1    0    0  501    0  0.00000000000E+00  0.00000000000E+00  0.36150811297E+03  0.36151034376E+03  0.12699999809E+01 0.  1.
       -4   -1    0    0    0  501  0.00000000000E+00  0.00000000000E+00 -0.16832971673E+04  0.16832976464E+04  0.12699999809E+01 0. -1.
    10030    2    1    2    0    0  0.00000000000E+00  0.00000000000E+00 -0.13217890543E+04  0.20448079901E+04  0.15601645466E+04 0.  0.
        1    1    3    3  502    0 -0.67807744846E+03 -0.30478658198E+03 -0.35117242261E+03  0.82219581432E+03  0.50400001928E-02 0.  1.
       -1    1    3    3    0  502  0.67807744846E+03  0.30478658198E+03 -0.97061663170E+03  0.12226121758E+04  0.50400001928E-02 0. -1.
</event>
<event>
 5   0  0.5288658E-04  0.1573015E+04  0.7818609E-02  0.8837299E-01
        1   -1    0    0  501    0  0.00000000000E+00  0.00000000000E+00  0.62202430417E+03  0.62202430419E+03  0.50400001928E-02 0. -1.
       -1   -1    0    0    0  501  0.00000000000E+00  0.00000000000E+00 -0.99448588318E+03  0.99448588320E+03  0.50400001928E-02 0.  1.
    10030    2    1    2    0    0  0.00000000000E+00  0.00000000000E+00 -0.37246157901E+03  0.16165101874E+04  0.15730154348E+04 0.  0.
        1    1    3    3  502    0 -0.64569396363E+03 -0.44467026230E+03 -0.12170896013E+03  0.79338856044E+03  0.50400001928E-02 0. -1.
       -1    1    3    3    0  502  0.64569396363E+03  0.44467026230E+03 -0.25075261889E+03  0.82312162695E+03  0.50400001928E-02 0.  1.
</event>
<event>
 5   0  0.5532881E-04  0.1605944E+04  0.7818609E-02  0.8816905E-01
       -1   -1    0    0    0  501  0.00000000000E+00  0.00000000000E+00  0.11001851259E+04  0.11001851259E+04  0.50400001928E-02 0.  1.
        1   -1    0    0  501    0  0.00000000000E+00  0.00000000000E+00 -0.58605050560E+03  0.58605050562E+03  0.50400001928E-02 0. -1.
    10030    2    1    2    0    0  0.00000000000E+00  0.00000000000E+00  0.51413462031E+03  0.16862356315E+04  0.16059440206E+04 0.  0.
        4    1    3    3  502    0  0.42076278604E+03 -0.68124202779E+03  0.32033266215E+03  0.86240747323E+03  0.12699999809E+01 0.  1.
       -4    1    3    3    0  502 -0.42076278604E+03  0.68124202779E+03  0.19380195816E+03  0.82382815831E+03  0.12699999809E+01 0. -1.
</event>
<event>
 5   0  0.1000121E-03  0.1622539E+04  0.7818609E-02  0.8806820E-01
        2   -1    0    0  501    0  0.00000000000E+00  0.00000000000E+00  0.12474609222E+04  0.12474609222E+04  0.25500000920E-02 0.  1.
       -2   -1    0    0    0  501  0.00000000000E+00  0.00000000000E+00 -0.52759822107E+03  0.52759822108E+03  0.25500000920E-02 0. -1.
    10030    2    1    2    0    0  0.00000000000E+00  0.00000000000E+00  0.71986270117E+03  0.17750591433E+04  0.16225389529E+04 0.  0.
        4    1    3    3  502    0  0.12127482145E+03 -0.19172292221E+03  0.12120529538E+04  0.12331014707E+04  0.12699999809E+01 0.  1.
       -4    1    3    3    0  502 -0.12127482145E+03  0.19172292221E+03 -0.49219025266E+03  0.54195767264E+03  0.12699999809E+01 0. -1.
</event>
<event>
 5   0  0.1000121E-03  0.1623948E+04  0.7818609E-02  0.8805969E-01
        2   -1    0    0  501    0  0.00000000000E+00  0.00000000000E+00  0.76449959307E+03  0.76449959307E+03  0.25500000920E-02 0. -1.
       -2   -1    0    0    0  501  0.00000000000E+00  0.00000000000E+00 -0.86239701916E+03  0.86239701916E+03  0.25500000920E-02 0.  1.
    10030    2    1    2    0    0  0.00000000000E+00  0.00000000000E+00 -0.97897426090E+02  0.16268966122E+04  0.16239484847E+04 0.  0.
        4    1    3    3  502    0 -0.37769820570E+03  0.66174675394E+03  0.23215979115E+03  0.79653278807E+03  0.12699999809E+01 0. -1.
       -4    1    3    3    0  502  0.37769820570E+03 -0.66174675394E+03 -0.33005721724E+03  0.83036382417E+03  0.12699999809E+01 0.  1.
</event>
<event>
 5   0  0.5623061E-04  0.1596383E+04  0.7818609E-02  0.8822773E-01
       -1   -1    0    0    0  501  0.00000000000E+00  0.00000000000E+00  0.79887281540E+03  0.79887281541E+03  0.50400001928E-02 0.  1.
        1   -1    0    0  501    0  0.00000000000E+00  0.00000000000E+00 -0.79751051722E+03  0.79751051724E+03  0.50400001928E-02 0. -1.
    10030    2    1    2    0    0  0.00000000000E+00  0.00000000000E+00  0.13622981769E+01  0.15963833326E+04  0.15963827514E+04 0.  0.
        3    1    3    3  502    0 -0.19390776936E+03  0.16750443235E+03  0.75662553878E+03  0.79883676305E+03  0.10100000352E+00 0.  1.
       -3    1    3    3    0  502  0.19390776936E+03 -0.16750443235E+03 -0.75526324060E+03  0.79754656960E+03  0.10100000352E+00 0. -1.
</event>
<event>
 5   0  0.1057872E-03  0.1086105E+04  0.7818609E-02  0.9218842E-01
        2   -1    0    0  501    0  0.00000000000E+00  0.00000000000E+00  0.11475658150E+04  0.11475658150E+04  0.25500000920E-02 0.  1.
       -2   -1    0    0    0  501  0.00000000000E+00  0.00000000000E+00 -0.25698403733E+03  0.25698403735E+03  0.25500000920E-02 0. -1.
    10030    2    1    2    0    0  0.00000000000E+00  0.00000000000E+00  0.89058177770E+03  0.14045498524E+04  0.10861051446E+04 0.  0.
        2    1    3    3  502    0  0.38349810123E+03  0.96985307373E+02  0.92643931334E+03  0.10073563147E+04  0.25500000920E-02 0.  1.
       -2    1    3    3    0  502 -0.38349810123E+03 -0.96985307373E+02 -0.35857535639E+02  0.39719353767E+03  0.25500000920E-02 0. -1.
</event>
<event>
 5   0  0.5425525E-04  0.1332012E+04  0.7818609E-02  0.9004558E-01
       -1   -1    0    0    0  501  0.00000000000E+00  0.00000000000E+00  0.47586891458E+03  0.47586891461E+03  0.50400001928E-02 0.  1.
        1   -1    0    0  501    0  0.00000000000E+00  0.00000000000E+00 -0.93211346725E+03  0.93211346726E+03  0.50400001928E-02 0. -1.
    10030    2    1    2    0    0  0.00000000000E+00  0.00000000000E+00 -0.45624455267E+03  0.14079823819E+04  0.13320117476E+04 0.  0.
        5    1    3    3  502    0 -0.64876243378E+03 -0.11915861781E+03 -0.32529049917E+03  0.73547771586E+03  0.46999998093E+01 0.  1.
       -5    1    3    3    0  502  0.64876243378E+03  0.11915861781E+03 -0.13095405350E+03  0.67250466601E+03  0.46999998093E+01 0. -1.
</event>
<event>
 5   0  0.1030027E-03  0.1586866E+04  0.7818609E-02  0.8828657E-01
        2   -1    0    0  501    0  0.00000000000E+00  0.00000000000E+00  0.12196779316E+04  0.12196779316E+04  0.25500000920E-02 0. -1.
       -2   -1    0    0    0  501  0.00000000000E+00  0.00000000000E+00 -0.51614939878E+03  0.51614939878E+03  0.25500000920E-02 0.  1.
    10030    2    1    2    0    0  0.00000000000E+00  0.00000000000E+00  0.70352853283E+03  0.17358273304E+04  0.15868661331E+04 0.  0.
        1    1    3    3  502    0  0.66794651813E+03 -0.31271273231E+03  0.31735905151E+02  0.73820659150E+03  0.50400001928E-02 0. -1.
       -1    1    3    3    0  502 -0.66794651813E+03  0.31271273231E+03  0.67179262768E+03  0.99762073889E+03  0.50400001928E-02 0.  1.
</event>
<event>
 5   0  0.1000121E-03  0.1669527E+04  0.7818609E-02  0.8778938E-01
        2   -1    0    0  501    0  0.00000000000E+00  0.00000000000E+00  0.19896110016E+04  0.19896110016E+04  0.25500000920E-02 0. -1.
       -2   -1    0    0    0  501  0.00000000000E+00  0.00000000000E+00 -0.35023429720E+03  0.35023429721E+03  0.25500000920E-02 0.  1.
    10030    2    1    2    0    0  0.00000000000E+00  0.00000000000E+00  0.16393767044E+04  0.23398452988E+04  0.16695268921E+04 0.  0.
        4    1    3    3  502    0  0.65422345370E+02  0.43566166729E+03  0.18134187325E+04  0.18661645919E+04  0.12699999809E+01 0. -1.
       -4    1    3    3    0  502 -0.65422345370E+02 -0.43566166729E+03 -0.17404202816E+03  0.47368070690E+03  0.12699999809E+01 0.  1.
</event>
<event>
 5   0  0.5623061E-04  0.1589078E+04  0.7818609E-02  0.8827286E-01
       -1   -1    0    0    0  501  0.00000000000E+00  0.00000000000E+00  0.11357233678E+04  0.11357233678E+04  0.50400001928E-02 0. -1.
        1   -1    0    0  501    0  0.00000000000E+00  0.00000000000E+00 -0.55585035091E+03  0.55585035093E+03  0.50400001928E-02 0.  1.
    10030    2    1    2    0    0  0.00000000000E+00  0.00000000000E+00  0.57987301686E+03  0.16915737187E+04  0.15890780126E+04 0.  0.
        3    1    3    3  502    0  0.21371864035E+03 -0.60039328344E+03  0.79503532731E+03  0.10189351961E+04  0.10100000352E+00 0.  1.
       -3    1    3    3    0  502 -0.21371864035E+03  0.60039328344E+03 -0.21516231045E+03  0.67263852259E+03  0.10100000352E+00 0. -1.
</event>
<event>
 5   0  0.1000121E-03  0.1604144E+04  0.7818609E-02  0.8818006E-01
       -2   -1    0    0    0  501  0.00000000000E+00  0.00000000000E+00  0.44710259233E+03  0.44710259234E+03  0.25500000920E-02 0.  1.
        2   -1    0    0  501    0  0.00000000000E+00  0.00000000000E+00 -0.14388629775E+04  0.14388629775E+04  0.25500000920E-02 0. -1.
    10030    2    1    2    0    0  0.00000000000E+00  0.00000000000E+00 -0.99176038521E+03  0.18859655699E+04  0.16041438430E+04 0.  0.
        4    1    3    3  502    0  0.15175490961E+03  0.42635242472E+03 -0.12744204947E+04  0.13523886841E+04  0.12699999809E+01 0. -1.
       -4    1    3    3    0  502 -0.15175490961E+03 -0.42635242472E+03  0.28266010949E+03  0.53357688579E+03  0.12699999809E+01 0.  1.
</event>
<event>
 5   0  0.1037321E-03  0.1613110E+04  0.7818609E-02  0.8812534E-01
        2   -1    0    0  501    0  0.00000000000E+00  0.00000000000E+00  0.10112038829E+04  0.10112038829E+04  0.25500000920E-02 0.  1.
       -2   -1    0    0    0  501  0.00000000000E+00  0.00000000000E+00 -0.64332361533E+03  0.64332361534E+03  0.25500000920E-02 0. -1.
    10030    2    1    2    0    0  0.00000000000E+00  0.00000000000E+00  0.36788026760E+03  0.16545274983E+04  0.16131104585E+04 0.  0.
        5    1    3    3  502    0 -0.54472737570E+03  0.44480178213E+03 -0.22108175440E+03  0.73720809230E+03  0.46999998093E+01 0. -1.
       -5    1    3    3    0  502  0.54472737570E+03 -0.44480178213E+03  0.58896202200E+03  0.91731940597E+03  0.46999998093E+01 0.  1.
</event>
<event>
 5   0  0.1030027E-03  0.1510749E+04  0.7818609E-02  0.8877337E-01
       -2   -1    0    0    0  501  0.00000000000E+00  0.00000000000E+00  0.62593251373E+03  0.62593251374E+03  0.25500000920E-02 0. -1.
        2   -1    0    0  501    0  0.00000000000E+00  0.00000000000E+00 -0.91158443958E+03  0.91158443958E+03  0.25500000920E-02 0.  1.
    10030    2    1    2    0    0  0.00000000000E+00  0.00000000000E+00 -0.28565192584E+03  0.15375169533E+04  0.15107486088E+04 0.  0.
        1    1    3    3  502    0  0.75434591418E+03  0.22764776694E+02 -0.17555707180E+03  0.77483951809E+03  0.50400001928E-02 0.  1.
       -1    1    3    3    0  502 -0.75434591418E+03 -0.22764776694E+02 -0.11009485404E+03  0.76267743523E+03  0.50400001928E-02 0. -1.
</event>
<event>
 5   0  0.5532881E-04  0.1491653E+04  0.7818609E-02  0.8890022E-01
        1   -1    0    0  501    0  0.00000000000E+00  0.00000000000E+00  0.17413443002E+04  0.17413443002E+04  0.50400001928E-02 0. -1.
       -1   -1    0    0    0  501  0.00000000000E+00  0.00000000000E+00 -0.31944140444E+03  0.31944140448E+03  0.50400001928E-02 0.  1.
    10030    2    1    2    0    0  0.00000000000E+00  0.00000000000E+00  0.14219028958E+04  0.20607857047E+04  0.14916534033E+04 0.  0.
        4    1    3    3  502    0  0.19862066132E+03  0.55808083608E+02  0.17011355521E+04  0.17136010297E+04  0.12699999809E+01 0. -1.
       -4    1    3    3    0  502 -0.19862066132E+03 -0.55808083608E+02 -0.27923265635E+03  0.34718467502E+03  0.12699999809E+01 0.  1.
</event>
<event>
 5   0  0.1030027E-03  0.1598905E+04  0.7818609E-02  0.8821221E-01
        2   -1    0    0  501    0  0.00000000000E+00  0.00000000000E+00  0.11640593868E+04  0.11640593868E+04  0.25500000920E-02 0. -1.
       -2   -1    0    0    0  501  0.00000000000E+00  0.00000000000E+00 -0.54904770314E+03  0.54904770315E+03  0.25500000920E-02 0.  1.
    10030    2    1    2    0    0  0.00000000000E+00  0.00000000000E+00  0.61501168369E+03  0.17131070900E+04  0.15989047910E+04 0.  0.
        1    1    3    3  502    0  0.30961625157E+03  0.63163238948E+03  0.71450989751E+03  0.10026694831E+04  0.50400001928E-02 0.  1.
       -1    1    3    3    0  502 -0.30961625157E+03 -0.63163238948E+03 -0.99498213825E+02  0.71043760687E+03  0.50400001928E-02 0. -1.
</event>
<event>
 5   0  0.5281116E-04  0.1620495E+04  0.7818609E-02  0.8808055E-01
        1   -1    0    0  501    0  0.00000000000E+00  0.00000000000E+00  0.56475657805E+03  0.56475657808E+03  0.50400001928E-02 0.  1.
       -1   -1    0    0    0  501  0.00000000000E+00  0.00000000000E+00 -0.11624488220E+04  0.11624488220E+04  0.50400001928E-02 0. -1.
    10030    2    1    2    0    0  0.00000000000E+00  0.00000000000E+00 -0.59769224390E+03  0.17272054000E+04  0.16204945157E+04 0.  0.
        2    1    3    3  502    0 -0.35729265702E+03  0.36584254518E+03  0.37103226122E+03  0.63179407207E+03  0.25500000920E-02 0.  1.
       -2    1    3    3    0  502  0.35729265702E+03 -0.36584254518E+03 -0.96872450512E+03  0.10954113280E+04  0.25500000920E-02 0. -1.
</event>
<event>
 5   0  0.9844690E-04  0.1628436E+04  0.7818609E-02  0.8803267E-01
        2   -1    0    0  501    0  0.00000000000E+00  0.00000000000E+00  0.14637350912E+04  0.14637350912E+04  0.25500000920E-02 0. -1.
       -2   -1    0    0    0  501  0.00000000000E+00  0.00000000000E+00 -0.45291729316E+03  0.45291729317E+03  0.25500000920E-02 0.  1.
    10030    2    1    2    0    0  0.00000000000E+00  0.00000000000E+00  0.10108177980E+04  0.19166523844E+04  0.16284359802E+04 0.  0.
        3    1    3    3  502    0 -0.61842837040E+03 -0.23506550119E+03  0.10640036575E+04  0.12529218780E+04  0.10100000352E+00 0. -1.
       -3    1    3    3    0  502  0.61842837040E+03  0.23506550119E+03 -0.53185859448E+02  0.66373050631E+03  0.10100000352E+00 0.  1.
</event>
<event>
 5   0  0.5532881E-04  0.1682901E+04  0.7818609E-02  0.8771177E-01
       -1   -1    0    0    0  501  0.00000000000E+00  0.00000000000E+00  0.74947228549E+03  0.74947228551E+03  0.50400001928E-02 0. -1.
        1   -1    0    0  501    0  0.00000000000E+00  0.00000000000E+00 -0.94471647171E+03  0.94471647172E+03  0.50400001928E-02 0.  1.
    10030    2    1    2    0    0  0.00000000000E+00  0.00000000000E+00 -0.19524418621E+03  0.16941887572E+04  0.16829008446E+04 0.  0.
        4    1    3    3  502    0  0.32149833678E+03 -0.83256755183E+02 -0.87594712931E+03  0.93679125428E+03  0.12699999809E+01 0.  1.
       -4    1    3    3    0  502 -0.32149833678E+03  0.83256755183E+02  0.68070294310E+03  0.75739750295E+03  0.12699999809E+01 0. -1.
</event>
<event>
 5   0  0.5532881E-04  0.1506353E+04  0.7818609E-02  0.8880239E-01
       -1   -1    0    0    0  501  0.00000000000E+00  0.00000000000E+00  0.71550079119E+03  0.71550079121E+03  0.50400001928E-02 0.  1.
        1   -1    0    0  501    0  0.00000000000E+00  0.00000000000E+00 -0.79283599431E+03  0.79283599432E+03  0.50400001928E-02 0. -1.
    10030    2    1    2    0    0  0.00000000000E+00  0.00000000000E+00 -0.77335203117E+02  0.15083367855E+04  0.15063529218E+04 0.  0.
        4    1    3    3  502    0  0.31353976345E+03 -0.54203601677E+03  0.38040831506E+03  0.73268159920E+03  0.12699999809E+01 0.  1.
       -4    1    3    3    0  502 -0.31353976345E+03  0.54203601677E+03 -0.45774351818E+03  0.77565518633E+03  0.12699999809E+01 0. -1.
</event>
<event>
 5   0  0.1030027E-03  0.1563441E+04  0.7818609E-02  0.8843327E-01
        2   -1    0    0  501    0  0.00000000000E+00  0.00000000000E+00  0.12713068064E+04  0.12713068064E+04  0.25500000920E-02 0.  1.
       -2   -1    0    0    0  501  0.00000000000E+00  0.00000000000E+00 -0.48067650987E+03  0.48067650987E+03  0.25500000920E-02 0. -1.
    10030    2    1    2    0    0  0.00000000000E+00  0.00000000000E+00  0.79063029657E+03  0.17519833163E+04  0.15634414843E+04 0.  0.
        1    1    3    3  502    0 -0.10258169937E+03 -0.57755647059E+03  0.97434124764E+03  0.11372929916E+04  0.50400001928E-02 0.  1.
       -1    1    3    3    0  502  0.10258169937E+03  0.57755647059E+03 -0.18371095108E+03  0.61469032475E+03  0.50400001928E-02 0. -1.
</event>
<event>
 5   0  0.1000121E-03  0.1546269E+04  0.7818609E-02  0.8854254E-01
       -2   -1    0    0    0  501  0.00000000000E+00  0.00000000000E+00  0.34176573621E+03  0.34176573622E+03  0.25500000920E-02 0.  1.
        2   -1    0    0  501    0  0.00000000000E+00  0.00000000000E+00 -0.17489676778E+04  0.17489676778E+04  0.25500000920E-02 0. -1.
    10030    2    1    2    0    0  0.00000000000E+00  0.00000000000E+00 -0.14072019416E+04  0.20907334140E+04  0.15462693504E+04 0.  0.
        4    1    3    3  502    0  0.45688175706E+03 -0.38098768226E+03 -0.35920441404E+02  0.59597352708E+03  0.12699999809E+01 0.  1.
       -4    1    3    3    0  502 -0.45688175706E+03  0.38098768226E+03 -0.13712815002E+04  0.14947598869E+04  0.12699999809E+01 0. -1.
</event>
<event>
 5   0  0.5425525E-04  0.1594233E+04  0.7818609E-02  0.8824099E-01
       -1   -1    0    0    0  501  0.00000000000E+00  0.00000000000E+00  0.28819206007E+03  0.28819206012E+03  0.50400001928E-02 0.  1.
        1   -1    0    0  501    0  0.00000000000E+00  0.00000000000E+00 -0.22047620819E+04  0.22047620819E+04  0.50400001928E-02 0. -1.
    10030    2    1    2    0    0  0.00000000000E+00  0.00000000000E+00 -0.19165700219E+04  0.24929541421E+04  0.15942332658E+04 0.  0.
        5    1    3    3  502    0  0.49255637013E+03 -0.23796811897E+02 -0.19375795257E+04  0.19993535391E+04  0.46999998093E+01 0. -1.
       -5    1    3    3    0  502 -0.49255637013E+03  0.23796811897E+02  0.21009503788E+02  0.49360060298E+03  0.46999998093E+01 0.  1.
</event>
<event>
 5   0  0.1030027E-03  0.1575528E+04  0.7818609E-02  0.8835725E-01
        2   -1    0    0  501    0  0.00000000000E+00  0.00000000000E+00  0.14277236344E+04  0.14277236344E+04  0.25500000920E-02 0.  1.
       -2   -1    0    0    0  501  0.00000000000E+00  0.00000000000E+00 -0.43465856814E+03  0.43465856815E+03  0.25500000920E-02 0. -1.
    10030    2    1    2    0    0  0.00000000000E+00  0.00000000000E+00  0.99306506628E+03  0.18623822026E+04  0.15755282424E+04 0.  0.
        1    1    3    3  502    0  0.93274628716E+02 -0.51616246397E+02  0.14191578970E+04  0.14231561860E+04  0.50400001928E-02 0.  1.
       -1    1    3    3    0  502 -0.93274628716E+02  0.51616246397E+02 -0.42609283067E+03  0.43922601656E+03  0.50400001928E-02 0. -1.
</event>
<event>
 5   0  0.9844690E-04  0.1571332E+04  0.7818609E-02  0.8838356E-01
       -2   -1    0    0    0  501  0.00000000000E+00  0.00000000000E+00  0.30610936408E+03  0.30610936409E+03  0.25500000920E-02 0.  1.
        2   -1    0    0  501    0  0.00000000000E+00  0.00000000000E+00 -0.20165061948E+04  0.20165061948E+04  0.25500000920E-02 0. -1.
    10030    2    1    2    0    0  0.00000000000E+00  0.00000000000E+00 -0.17103968307E+04  0.23226155589E+04  0.15713324651E+04 0.  0.
        3    1    3    3  502    0  0.71884835878E+03  0.14857866062E+03 -0.44118579943E+03  0.85642483682E+03  0.10100000352E+00 0.  1.
       -3    1    3    3    0  502 -0.71884835878E+03 -0.14857866062E+03 -0.12692110313E+04  0.14661907221E+04  0.10100000352E+00 0. -1.
</event>
<event>
 5   0  0.5288658E-04  0.1571558E+04  0.7818609E-02  0.8838214E-01
        1   -1    0    0  501    0  0.00000000000E+00  0.00000000000E+00  0.10670578732E+04  0.10670578732E+04  0.50400001928E-02 0. -1.
       -1   -1    0    0    0  501  0.00000000000E+00  0.00000000000E+00 -0.57864583797E+03  0.57864583799E+03  0.50400001928E-02 0.  1.
    10030    2    1    2    0    0  0.00000000000E+00  0.00000000000E+00  0.48841203519E+03  0.16457037112E+04  0.15715579495E+04 0.  0.
        1    1    3    3  502    0  0.63320459526E+02  0.75372309967E+03  0.46718550203E+03  0.88902771886E+03  0.50400001928E-02 0. -1.
       -1    1    3    3    0  502 -0.63320459526E+02 -0.75372309967E+03  0.21226533153E+02  0.75667599229E+03  0.50400001928E-02 0.  1.
</event>
<event>
 5   0  0.5532881E-04  0.1598753E+04  0.7818609E-02  0.8821314E-01
        1   -1    0    0  501    0  0.00000000000E+00  0.00000000000E+00  0.17508095131E+04  0.17508095131E+04  0.50400001928E-02 0.  1.
       -1   -1    0    0    0  501  0.00000000000E+00  0.00000000000E+00 -0.36497580286E+03  0.36497580290E+03  0.50400001928E-02 0. -1.
    10030    2    1    2    0    0  0.00000000000E+00  0.00000000000E+00  0.13858337103E+04  0.21157853160E+04  0.15987533991E+04 0.  0.
        4    1    3    3  502    0  0.48798609388E+03  0.37610730088E+03  0.13669591193E+04  0.14993885342E+04  0.12699999809E+01 0.  1.
       -4    1    3    3    0  502 -0.48798609388E+03 -0.37610730088E+03  0.18874590928E+02  0.61639678185E+03  0.12699999809E+01 0. -1.
</event>
<event>
 5   0  0.5623061E-04  0.1585279E+04  0.7818609E-02  0.8829643E-01
       -1   -1    0    0    0  501  0.00000000000E+00  0.00000000000E+00  0.13015625948E+04  0.13015625948E+04  0.50400001928E-02 0. -1.
        1   -1    0    0  501    0  0.00000000000E+00  0.00000000000E+00 -0.48271001751E+03  0.48271001753E+03  0.50400001928E-02 0.  1.
    10030    2    1    2    0    0  0.00000000000E+00  0.00000000000E+00  0.81885257726E+03  0.17842726123E+04  0.15852789066E+04 0.  0.
        3    1    3    3  502    0  0.18758018635E+03  0.60353879417E+03  0.94783713774E+03  0.11392280949E+04  0.10100000352E+00 0. -1.
       -3    1    3    3    0  502 -0.18758018635E+03 -0.60353879417E+03 -0.12898456048E+03  0.64504451739E+03  0.10100000352E+00 0.  1.
</event>
<event>
 5   0  0.5425525E-04  0.1607326E+04  0.7818609E-02  0.8816060E-01
       -1   -1    0    0    0  501  0.00000000000E+00  0.00000000000E+00  0.96337918043E+03  0.96337918045E+03  0.50400001928E-02 0. -1.
        1   -1    0    0  501    0  0.00000000000E+00  0.00000000000E+00 -0.67042596552E+03  0.67042596554E+03  0.50400001928E-02 0.  1.
    10030    2    1    2    0    0  0.00000000000E+00  0.00000000000E+00  0.29295321491E+03  0.16338051460E+04  0.16073262484E+04 0.  0.
        5    1    3    3  502    0  0.11750070221E+03  0.72603042576E+03 -0.18278206946E+03  0.75786408351E+03  0.46999998093E+01 0.  1.
       -5    1    3    3    0  502 -0.11750070221E+03 -0.72603042576E+03  0.47573528437E+03  0.87594106248E+03  0.46999998093E+01 0. -1.
</event>
<event>
 5   0  0.5623061E-04  0.1517682E+04  0.7818609E-02  0.8872779E-01
        1   -1    0    0  501    0  0.00000000000E+00  0.00000000000E+00  0.73491279166E+03  0.73491279168E+03  0.50400001928E-02 0. -1.
       -1   -1    0    0    0  501  0.00000000000E+00  0.00000000000E+00 -0.78354804840E+03  0.78354804842E+03  0.50400001928E-02 0.  1.
    10030    2    1    2    0    0  0.00000000000E+00  0.00000000000E+00 -0.48635256741E+02  0.15184608401E+04  0.15176817633E+04 0.  0.
        3    1    3    3  502    0 -0.15449060844E+03  0.14112206839E+03  0.70547896820E+03  0.73585553681E+03  0.10100000352E+00 0. -1.
       -3    1    3    3    0  502  0.15449060844E+03 -0.14112206839E+03 -0.75411422494E+03  0.78260530329E+03  0.10100000352E+00 0.  1.
</event>
<event>
 5   0  0.1000121E-03  0.1606534E+04  0.7818609E-02  0.8816544E-01
        2   -1    0    0  501    0  0.00000000000E+00  0.00000000000E+00  0.20459072859E+04  0.20459072859E+04  0.25500000920E-02 0.  1.
       -2   -1    0    0    0  501  0.00000000000E+00  0.00000000000E+00 -0.31537998596E+03  0.31537998597E+03  0.25500000920E-02 0. -1.
    10030    2    1    2    0    0  0.00000000000E+00  0.00000000000E+00  0.17305272999E+04  0.23612872719E+04  0.16065344206E+04 0.  0.
        4    1    3    3  502    0 -0.56904780788E+03  0.50050292311E+03  0.12566782989E+04  0.14675014628E+04  0.12699999809E+01 0. -1.
       -4    1    3    3    0  502  0.56904780788E+03 -0.50050292311E+03  0.47384900105E+03  0.89378580902E+03  0.12699999809E+01 0.  1.
</event>
<event>
 5   0  0.1030027E-03  0.1002008E+04  0.7818609E-02  0.9306345E-01
       -2   -1    0    0    0  501  0.00000000000E+00  0.00000000000E+00  0.16130412836E+03  0.16130412838E+03  0.25500000920E-02 0. -1.
        2   -1    0    0  501    0  0.00000000000E+00  0.00000000000E+00 -0.15560974756E+04  0.15560974756E+04  0.25500000920E-02 0.  1.
    10030    2    1    2    0    0  0.00000000000E+00  0.00000000000E+00 -0.13947933472E+04  0.17174016039E+04  0.10020078781E+04 0.  0.
        1    1    3    3  502    0  0.14616295850E+03  0.35171685416E+03 -0.13953859752E+03  0.40563453522E+03  0.50400001928E-02 0. -1.
       -1    1    3    3    0  502 -0.14616295850E+03 -0.35171685416E+03 -0.12552547497E+04  0.13117670687E+04  0.50400001928E-02 0.  1.
</event>
<event>
 5   0  0.5281116E-04  0.1642590E+04  0.7818609E-02  0.8794802E-01
        1   -1    0    0  501    0  0.00000000000E+00  0.00000000000E+00  0.14885242708E+04  0.14885242708E+04  0.50400001928E-02 0. -1.
       -1   -1    0    0    0  501  0.00000000000E+00  0.00000000000E+00 -0.45315051830E+03  0.45315051833E+03  0.50400001928E-02 0.  1.
    10030    2    1    2    0    0  0.00000000000E+00  0.00000000000E+00  0.10353737525E+04  0.19416747891E+04  0.16425900826E+04 0.  0.
        2    1    3    3  502    0  0.26505694009E+02  0.79988105579E+03  0.29967928626E+03  0.85458757880E+03  0.25500000920E-02 0.  1.
       -2    1    3    3    0  502 -0.26505694009E+02 -0.79988105579E+03  0.73569446624E+03  0.10870872103E+04  0.25500000920E-02 0. -1.
</event>
<event>
 5   0  0.1037321E-03  0.1640299E+04  0.7818609E-02  0.8796166E-01
       -2   -1    0    0    0  501  0.00000000000E+00  0.00000000000E+00  0.45328777242E+03  0.45328777242E+03  0.25500000920E-02 0. -1.
        2   -1    0    0  501    0  0.00000000000E+00  0.00000000000E+00 -0.14839251827E+04  0.14839251827E+04  0.25500000920E-02 0.  1.
    10030    2    1    2    0    0  0.00000000000E+00  0.00000000000E+00 -0.10306374103E+04  0.19372129552E+04  0.16402989246E+04 0.  0.
        5    1    3    3  502    0 -0.28604192603E+03 -0.61388829841E+03 -0.10615853054E+04  0.12592316217E+04  0.46999998093E+01 0.  1.
       -5    1    3    3    0  502  0.28604192603E+03  0.61388829841E+03  0.30947895074E+02  0.67798133350E+03  0.46999998093E+01 0. -1.
</event>
<event>
 5   0  0.5281116E-04  0.1595669E+04  0.7818609E-02  0.8823213E-01
        1   -1    0    0  501    0  0.00000000000E+00  0.00000000000E+00  0.44462103516E+03  0.44462103519E+03  0.50400001928E-02 0. -1.
       -1   -1    0    0    0  501  0.00000000000E+00  0.00000000000E+00 -0.14316458608E+04  0.14316458608E+04  0.50400001928E-02 0.  1.
    10030    2    1    2    0    0  0.00000000000E+00  0.00000000000E+00 -0.98702482563E+03  0.18762668960E+04  0.15956689690E+04 0.  0.
        2    1    3    3  502    0 -0.77841704031E+03  0.12982908891E+01 -0.28780561190E+03  0.82991978194E+03  0.25500000920E-02 0. -1.
       -2    1    3    3    0  502  0.77841704031E+03 -0.12982908891E+01 -0.69921921373E+03  0.10463471140E+04  0.25500000920E-02 0.  1.
</event>
<event>
 5   0  0.1057872E-03  0.1610185E+04  0.7818609E-02  0.8814315E-01
       -2   -1    0    0    0  501  0.00000000000E+00  0.00000000000E+00  0.40318000187E+03  0.40318000188E+03  0.25500000920E-02 0. -1.
        2   -1    0    0  501    0  0.00000000000E+00  0.00000000000E+00 -0.16076547439E+04  0.16076547439E+04  0.25500000920E-02 0.  1.
    10030    2    1    2    0    0  0.00000000000E+00  0.00000000000E+00 -0.12044747421E+04  0.20108347458E+04  0.16101853840E+04 0.  0.
        2    1    3    3  502    0 -0.57536822977E+03  0.45790319019E+03 -0.10115963679E+04  0.12506203033E+04  0.25500000920E-02 0. -1.
       -2    1    3    3    0  502  0.57536822977E+03 -0.45790319019E+03 -0.19287837418E+03  0.76021444254E+03  0.25500000920E-02 0.  1.
</event>
<event>
 5   0  0.9844690E-04  0.1577876E+04  0.7818609E-02  0.8834256E-01
       -2   -1    0    0    0  501  0.00000000000E+00  0.00000000000E+00  0.70666090442E+03  0.70666090443E+03  0.25500000920E-02 0.  1.
        2   -1    0    0  501    0  0.00000000000E+00  0.00000000000E+00 -0.88079443000E+03  0.88079443000E+03  0.25500000920E-02 0. -1.
    10030    2    1    2    0    0  0.00000000000E+00  0.00000000000E+00 -0.17413352557E+03  0.15874553344E+04  0.15778757727E+04 0.  0.
        3    1    3    3  502    0 -0.34809525881E+03  0.25907753317E+03  0.57582001507E+03  0.72101329902E+03  0.10100000352E+00 0.  1.
       -3    1    3    3    0  502  0.34809525881E+03 -0.25907753317E+03 -0.74995354064E+03  0.86644203541E+03  0.10100000352E+00 0. -1.
</event>
<event>
 5   0  0.3832500E-04  0.1638683E+04  0.7818609E-02  0.8797130E-01
        3   -1    0    0  501    0  0.00000000000E+00  0.00000000000E+00  0.65321586947E+03  0.65321587728E+03  0.10100000352E+00 0. -1.
       -3   -1    0    0    0  501  0.00000000000E+00  0.00000000000E+00 -0.10277158698E+04  0.10277158747E+04  0.10100000352E+00 0.  1.
    10030    2    1    2    0    0  0.00000000000E+00  0.00000000000E+00 -0.37450000031E+03  0.16809317520E+04  0.16386827956E+04 0.  0.
        1    1    3    3  502    0  0.52505781209E+03 -0.60399294804E+03 -0.36735335223E+03  0.88059166061E+03  0.50400001928E-02 0.  1.
       -1    1    3    3    0  502 -0.52505781209E+03  0.60399294804E+03 -0.71466480793E+01  0.80034009141E+03  0.50400001928E-02 0. -1.
</event>
<event>
 5   0  0.1030027E-03  0.1505386E+04  0.7818609E-02  0.8880879E-01
       -2   -1    0    0    0  501  0.00000000000E+00  0.00000000000E+00  0.38775771759E+03  0.38775771760E+03  0.25500000920E-02 0.  1.
        2   -1    0    0  501    0  0.00000000000E+00  0.00000000000E+00 -0.14610845841E+04  0.14610845841E+04  0.25500000920E-02 0. -1.
    10030    2    1    2    0    0  0.00000000000E+00  0.00000000000E+00 -0.10733268666E+04  0.18488423017E+04  0.15053860947E+04 0.  0.
        1    1    3    3  502    0 -0.45379181507E+03  0.43664300594E+03 -0.30339126551E+02  0.63047964970E+03  0.50400001928E-02 0.  1.
       -1    1    3    3    0  502  0.45379181507E+03 -0.43664300594E+03 -0.10429877400E+04  0.12183626520E+04  0.50400001928E-02 0. -1.
</event>
<event>
 5   0  0.1000121E-03  0.1581387E+04  0.7818609E-02  0.8832065E-01
       -2   -1    0    0    0  501  0.00000000000E+00  0.00000000000E+00  0.39971984757E+03  0.39971984758E+03  0.25500000920E-02 0.  1.
        2   -1    0    0  501    0  0.00000000000E+00  0.00000000000E+00 -0.15640859548E+04  0.15640859548E+04  0.25500000920E-02 0. -1.
    10030    2    1    2    0    0  0.00000000000E+00  0.00000000000E+00 -0.11643661072E+04  0.19638058024E+04  0.15813869855E+04 0.  0.
        4    1    3    3  502    0 -0.86544404312E+02 -0.77934040947E+03 -0.70841734618E+03  0.10567488618E+04  0.12699999809E+01 0.  1.
       -4    1    3    3    0  502  0.86544404312E+02  0.77934040947E+03 -0.45594876105E+03  0.90705694052E+03  0.12699999809E+01 0. -1.
</event>
<event>
 5   0  0.5425525E-04  0.1578832E+04  0.7818609E-02  0.8833659E-01
        1   -1    0    0  501    0  0.00000000000E+00  0.00000000000E+00  0.14996769239E+04  0.14996769239E+04  0.50400001928E-02 0. -1.
       -1   -1    0    0    0  501  0.00000000000E+00  0.00000000000E+00 -0.41554108072E+03  0.41554108075E+03  0.50400001928E-02 0.  1.
    10030    2    1    2    0    0  0.00000000000E+00  0.00000000000E+00  0.10841358431E+04  0.19152180046E+04  0.15788316816E+04 0.  0.
        5    1    3    3  502    0  0.19077443342E+03 -0.73286510688E+03  0.81241747807E+03  0.11106441365E+04  0.46999998093E+01 0. -1.
       -5    1    3    3    0  502 -0.19077443342E+03  0.73286510688E+03  0.27171836508E+03  0.80457386811E+03  0.46999998093E+01 0.  1.
</event>
<event>
 5   0  0.5281116E-04  0.1594439E+04  0.7818609E-02  0.8823971E-01
       -1   -1    0    0    0  501  0.00000000000E+00  0.00000000000E+00  0.13797804571E+04  0.13797804572E+04  0.50400001928E-02 0.  1.
        1   -1    0    0  501    0  0.00000000000E+00  0.00000000000E+00 -0.46062348505E+03  0.46062348508E+03  0.50400001928E-02 0. -1.
    10030    2    1    2    0    0  0.00000000000E+00  0.00000000000E+00  0.91915697210E+03  0.18404039422E+04  0.15944394411E+04 0.  0.
        2    1    3    3  502    0 -0.64876719266E+03  0.16199992615E+03 -0.41452423217E+02  0.66997100664E+03  0.25500000920E-02 0. -1.
       -2    1    3    3    0  502  0.64876719266E+03 -0.16199992615E+03  0.96060939532E+03  0.11704329356E+04  0.25500000920E-02 0.  1.
</event>
<event>
 5   0  0.5425525E-04  0.1543235E+04  0.7818609E-02  0.8856200E-01
       -1   -1    0    0    0  501  0.00000000000E+00  0.00000000000E+00  0.41159007941E+03  0.41159007945E+03  0.50400001928E-02 0.  1.
        1   -1    0    0  501    0  0.00000000000E+00  0.00000000000E+00 -0.14465695535E+04  0.14465695535E+04  0.50400001928E-02 0. -1.
    10030    2    1    2    0    0  0.00000000000E+00  0.00000000000E+00 -0.10349794740E+04  0.18581596329E+04  0.15432351440E+04 0.  0.
        5    1    3    3  502    0 -0.58028192605E+03 -0.19674061670E+03 -0.10821674674E+04  0.12436006197E+04  0.46999998093E+01 0. -1.
       -5    1    3    3    0  502  0.58028192605E+03  0.19674061670E+03  0.47187993344E+02  0.61455901317E+03  0.46999998093E+01 0.  1.
</event>
<event>
 5   0  0.9844690E-04  0.1582121E+04  0.7818609E-02  0.8831608E-01
        2   -1    0    0  501    0  0.00000000000E+00  0.00000000000E+00  0.59310346117E+03  0.59310346117E+03  0.25500000920E-02 0.  1.
       -2   -1    0    0    0  501  0.00000000000E+00  0.00000000000E+00 -0.10550884400E+04  0.10550884400E+04  0.25500000920E-02 0. -1.
    10030    2    1    2    0    0  0.00000000000E+00  0.00000000000E+00 -0.46198497883E+03  0.16481919012E+04  0.15821208621E+04 0.  0.
        3    1    3    3  502    0  0.55411429241E+03 -0.45483642753E+03  0.11742600365E+03  0.72643492578E+03  0.10100000352E+00 0.  1.
       -3    1    3    3    0  502 -0.55411429241E+03  0.45483642753E+03 -0.57941098248E+03  0.92175697539E+03  0.10100000352E+00 0. -1.
</event>
<event>
 5   0  0.1057872E-03  0.1626496E+04  0.7818609E-02  0.8804434E-01
       -2   -1    0    0    0  501  0.00000000000E+00  0.00000000000E+00  0.54195310435E+03  0.54195310435E+03  0.25500000920E-02 0.  1.
        2   -1    0    0  501    0  0.00000000000E+00  0.00000000000E+00 -0.12203500681E+04  0.12203500681E+04  0.25500000920E-02 0. -1.
    10030    2    1    2    0    0  0.00000000000E+00  0.00000000000E+00 -0.67839696377E+03  0.17623031725E+04  0.16264962439E+04 0.  0.
        2    1    3    3  502    0 -0.29725424185E+03 -0.49934268117E+03 -0.95562075059E+03  0.11184427641E+04  0.25500000920E-02 0. -1.
       -2    1    3    3    0  502  0.29725424185E+03  0.49934268117E+03  0.27722378682E+03  0.64386040841E+03  0.25500000920E-02 0.  1.
</event>
<event>
 5   0  0.1037321E-03  0.1486993E+04  0.7818609E-02  0.8893149E-01
        2   -1    0    0  501    0  0.00000000000E+00  0.00000000000E+00  0.15020545361E+04  0.15020545361E+04  0.25500000920E-02 0. -1.
       -2   -1    0    0    0  501  0.00000000000E+00  0.00000000000E+00 -0.36802074009E+03  0.36802074010E+03  0.25500000920E-02 0.  1.
    10030    2    1    2    0    0  0.00000000000E+00  0.00000000000E+00  0.11340337960E+04  0.18700752762E+04  0.14869932374E+04 0.  0.
        5    1    3    3  502    0 -0.19938413254E+03 -0.45864722408E+03  0.12588847918E+04  0.13545937832E+04  0.46999998093E+01 0. -1.
       -5    1    3    3    0  502  0.19938413254E+03  0.45864722408E+03 -0.12485099580E+03  0.51548149299E+03  0.46999998093E+01 0.  1.
</event>
<event>
 5   0  0.5532881E-04  0.1576272E+04  0.7818609E-02  0.8835259E-01
       -1   -1    0    0    0  501  0.00000000000E+00  0.00000000000E+00  0.92095987193E+03  0.92095987194E+03  0.50400001928E-02 0.  1.
        1   -1    0    0  501    0  0.00000000000E+00  0.00000000000E+00 -0.67446823165E+03  0.67446823167E+03  0.50400001928E-02 0. -1.
    10030    2    1    2    0    0  0.00000000000E+00  0.00000000000E+00  0.24649164028E+03  0.15954281036E+04  0.15762717739E+04 0.  0.
        4    1    3    3  502    0 -0.51577746054E+03  0.58162252983E+03  0.25461300642E+03  0.81801011726E+03  0.12699999809E+01 0.  1.
       -4    1    3    3    0  502  0.51577746054E+03 -0.58162252983E+03 -0.81213661438E+01  0.77741798635E+03  0.12699999809E+01 0. -1.
</event>
<event>
 5   0  0.5288658E-04  0.1592465E+04  0.7818609E-02  0.8825190E-01
        1   -1    0    0  501    0  0.00000000000E+00  0.00000000000E+00  0.28197908680E+03  0.28197908685E+03  0.50400001928E-02 0.  1.
       -1   -1    0    0    0  501  0.00000000000E+00  0.00000000000E+00 -0.22483445445E+04  0.22483445445E+04  0.50400001928E-02 0. -1.
    10030    2    1    2    0    0  0.00000000000E+00  0.00000000000E+00 -0.19663654577E+04  0.25303236313E+04  0.15924649340E+04 0.  0.
        1    1    3    3  502    0  0.40755497413E+03  0.30627642826E+03 -0.11357113630E+02  0.50993655635E+03  0.50400001928E-02 0.  1.
       -1    1    3    3    0  502 -0.40755497413E+03 -0.30627642826E+03 -0.19550083440E+04  0.20203870750E+04  0.50400001928E-02 0. -1.
</event>
<event>
 5   0  0.1057872E-03  0.1462661E+04  0.7818609E-02  0.8909670E-01
       -2   -1    0    0    0  501  0.00000000000E+00  0.00000000000E+00  0.59335987867E+03  0.59335987868E+03  0.25500000920E-02 0. -1.
        2   -1    0    0  501    0  0.00000000000E+00  0.00000000000E+00 -0.90138285687E+03  0.90138285687E+03  0.25500000920E-02 0.  1.
    10030    2    1    2    0    0  0.00000000000E+00  0.00000000000E+00 -0.30802297820E+03  0.14947427355E+04  0.14626611673E+04 0.  0.
        2    1    3    3  502    0 -0.25537343744E+03 -0.63391567085E+03  0.11204429731E+03  0.69254501288E+03  0.25500000920E-02 0. -1.
       -2    1    3    3    0  502  0.25537343744E+03  0.63391567085E+03 -0.42006727551E+03  0.80219772267E+03  0.25500000920E-02 0.  1.
</event>
<event>
 5   0  0.3832500E-04  0.1593163E+04  0.7818609E-02  0.8824759E-01
       -3   -1    0    0    0  501  0.00000000000E+00  0.00000000000E+00  0.89049301937E+03  0.89049302510E+03  0.10100000352E+00 0.  1.
        3   -1    0    0  501    0  0.00000000000E+00  0.00000000000E+00 -0.71257423919E+03  0.71257424635E+03  0.10100000352E+00 0. -1.
    10030    2    1    2    0    0  0.00000000000E+00  0.00000000000E+00  0.17791878018E+03  0.16030672714E+04  0.15931633891E+04 0.  0.
        4    1    3    3  502    0 -0.60645526604E+03 -0.37418914449E+03  0.44717143925E+03  0.84129032714E+03  0.12699999809E+01 0.  1.
       -4    1    3    3    0  502  0.60645526604E+03  0.37418914449E+03 -0.26925265906E+03  0.76177694431E+03  0.12699999809E+01 0. -1.
</event>
<event>
 5   0  0.5532881E-04  0.1621398E+04  0.7818609E-02  0.8807509E-01
       -1   -1    0    0    0  501  0.00000000000E+00  0.00000000000E+00  0.35768370482E+03  0.35768370486E+03  0.50400001928E-02 0.  1.
        1   -1    0    0  501    0  0.00000000000E+00  0.00000000000E+00 -0.18374694173E+04  0.18374694173E+04  0.50400001928E-02 0. -1.
    10030    2    1    2    0    0  0.00000000000E+00  0.00000000000E+00 -0.14797857125E+04  0.21951531222E+04  0.16213980001E+04 0.  0.
        4    1    3    3  502    0  0.38828137262E+03 -0.64340961027E+03 -0.11516388635E+04  0.13751407330E+04  0.12699999809E+01 0. -1.
       -4    1    3    3    0  502 -0.38828137262E+03  0.64340961027E+03 -0.32814684901E+03  0.82001238912E+03  0.12699999809E+01 0.  1.
</event>
<event>
 5   0  0.1000121E-03  0.1581018E+04  0.7818609E-02  0.8832295E-01
        2   -1    0    0  501    0  0.00000000000E+00  0.00000000000E+00  0.50870442546E+03  0.50870442547E+03  0.25500000920E-02 0.  1.
       -2   -1    0    0    0  501  0.00000000000E+00  0.00000000000E+00 -0.12284232726E+04  0.12284232726E+04  0.25500000920E-02 0. -1.
    10030    2    1    2    0    0  0.00000000000E+00  0.00000000000E+00 -0.71971884714E+03  0.17371276981E+04  0.15810178432E+04 0.  0.
        4    1    3    3  502    0  0.60674773173E+03 -0.80912278048E+02  0.18974475549E+03  0.64085434525E+03  0.12699999809E+01 0.  1.
       -4    1    3    3    0  502 -0.60674773173E+03  0.80912278048E+02 -0.90946360263E+03  0.10962733528E+04  0.12699999809E+01 0. -1.
</event>
<event>
 5   0  0.5425525E-04  0.9895001E+03  0.7818609E-02  0.9320136E-01
       -1   -1    0    0    0  501  0.00000000000E+00  0.00000000000E+00  0.33091751421E+03  0.33091751425E+03  0.50400001928E-02 0. -1.
        1   -1    0    0  501    0  0.00000000000E+00  0.00000000000E+00 -0.73969371819E+03  0.73969371821E+03  0.50400001928E-02 0.  1.
    10030    2    1    2    0    0  0.00000000000E+00  0.00000000000E+00 -0.40877620398E+03  0.10706112325E+04  0.98950008899E+03 0.  0.
        5    1    3    3  502    0 -0.24775450361E+03  0.19311485558E+03  0.20914583136E+03  0.37741185763E+03  0.46999998093E+01 0. -1.
       -5    1    3    3    0  502  0.24775450361E+03 -0.19311485558E+03 -0.61792203534E+03  0.69319937483E+03  0.46999998093E+01 0.  1.
</event>
<event>
 5   0  0.9844690E-04  0.1421758E+04  0.7818609E-02  0.8938218E-01
        2   -1    0    0  501    0  0.00000000000E+00  0.00000000000E+00  0.12557022668E+04  0.12557022668E+04  0.25500000920E-02 0.  1.
       -2   -1    0    0    0  501  0.00000000000E+00  0.00000000000E+00 -0.40244354873E+03  0.40244354874E+03  0.25500000920E-02 0. -1.
    10030    2    1    2    0    0  0.00000000000E+00  0.00000000000E+00  0.85325871810E+03  0.16581458156E+04  0.14217584555E+04 0.  0.
        3    1    3    3  502    0 -0.30611428885E+03 -0.27264862734E+02 -0.32096314154E+03  0.44437223024E+03  0.10100000352E+00 0. -1.
       -3    1    3    3    0  502  0.30611428885E+03  0.27264862734E+02  0.11742218596E+04  0.12137735853E+04  0.10100000352E+00 0.  1.
</event>
<event>
 5   0  0.1030027E-03  0.1595683E+04  0.7818609E-02  0.8823204E-01
        2   -1    0    0  501    0  0.00000000000E+00  0.00000000000E+00  0.55204194490E+03  0.55204194491E+03  0.25500000920E-02 0. -1.
       -2   -1    0    0    0  501  0.00000000000E+00  0.00000000000E+00 -0.11530845948E+04  0.11530845948E+04  0.25500000920E-02 0.  1.
    10030    2    1    2    0    0  0.00000000000E+00  0.00000000000E+00 -0.60104264989E+03  0.17051265397E+04  0.15956830040E+04 0.  0.
        1    1    3    3  502    0  0.54190520515E+03  0.34989491938E+03  0.20121807053E+03  0.67570438648E+03  0.50400001928E-02 0. -1.
       -1    1    3    3    0  502 -0.54190520515E+03 -0.34989491938E+03 -0.80226072042E+03  0.10294221532E+04  0.50400001928E-02 0.  1.
</event>
<event>
 5   0  0.5288658E-04  0.1234393E+04  0.7818609E-02  0.9083274E-01
       -1   -1    0    0    0  501  0.00000000000E+00  0.00000000000E+00  0.26542090454E+03  0.26542090459E+03  0.50400001928E-02 0. -1.
        1   -1    0    0  501    0  0.00000000000E+00  0.00000000000E+00 -0.14351981861E+04  0.14351981861E+04  0.50400001928E-02 0.  1.
    10030    2    1    2    0    0  0.00000000000E+00  0.00000000000E+00 -0.11697772816E+04  0.17006190907E+04  0.12343931315E+04 0.  0.
        1    1    3    3  502    0 -0.27768866353E+03 -0.10221613583E+02 -0.13441433233E+04  0.13725657539E+04  0.50400001928E-02 0.  1.
       -1    1    3    3    0  502  0.27768866353E+03  0.10221613583E+02  0.17436604174E+03  0.32805333678E+03  0.50400001928E-02 0. -1.
</event>
<event>
 5   0  0.5281116E-04  0.1568854E+04  0.7818609E-02  0.8839914E-01
        1   -1    0    0  501    0  0.00000000000E+00  0.00000000000E+00  0.24545077638E+04  0.24545077638E+04  0.50400001928E-02 0. -1.
       -1   -1    0    0    0  501  0.00000000000E+00  0.00000000000E+00 -0.25069201318E+03  0.25069201323E+03  0.50400001928E-02 0.  1.
    10030    2    1    2    0    0  0.00000000000E+00  0.00000000000E+00  0.22038157506E+04  0.27051997770E+04  0.15688537124E+04 0.  0.
        2    1    3    3  502    0  0.38622988288E+02  0.77087789963E+03  0.86062051972E+03  0.11560329365E+04  0.25500000920E-02 0. -1.
       -2    1    3    3    0  502 -0.38622988288E+02 -0.77087789963E+03  0.13431952309E+04  0.15491668405E+04  0.25500000920E-02 0.  1.
</event>
<event>
 5   0  0.5532881E-04  0.1576166E+04  0.7818609E-02  0.8835325E-01
        1   -1    0    0  501    0  0.00000000000E+00  0.00000000000E+00  0.12878425733E+04  0.12878425733E+04  0.50400001928E-02 0. -1.
       -1   -1    0    0    0  501  0.00000000000E+00  0.00000000000E+00 -0.48226004744E+03  0.48226004747E+03  0.50400001928E-02 0.  1.
    10030    2    1    2    0    0  0.00000000000E+00  0.00000000000E+00  0.80558252582E+03  0.17701026207E+04  0.15761662609E+04 0.  0.
        4    1    3    3  502    0 -0.21067046178E+03 -0.49900581283E+03 -0.24008058723E+03  0.59247712696E+03  0.12699999809E+01 0.  1.
       -4    1    3    3    0  502  0.21067046178E+03  0.49900581283E+03  0.10456631130E+04  0.11776254938E+04  0.12699999809E+01 0. -1.
</event>
<event>
 5   0  0.5532881E-04  0.1600667E+04  0.7818609E-02  0.8820139E-01
       -1   -1    0    0    0  501  0.00000000000E+00  0.00000000000E+00  0.10795010698E+04  0.10795010698E+04  0.50400001928E-02 0.  1.
        1   -1    0    0  501    0  0.00000000000E+00  0.00000000000E+00 -0.59336052625E+03  0.59336052627E+03  0.50400001928E-02 0. -1.
    10030    2    1    2    0    0  0.00000000000E+00  0.00000000000E+00  0.48614054356E+03  0.16728615961E+04  0.16006665148E+04 0.  0.
        4    1    3    3  502    0 -0.47820112629E+02 -0.62235299896E+03 -0.28044367327E+03  0.68429546634E+03  0.12699999809E+01 0. -1.
       -4    1    3    3    0  502  0.47820112629E+02  0.62235299896E+03  0.76658421682E+03  0.98856612974E+03  0.12699999809E+01 0.  1.
</event>
<event>
 5   0  0.5288658E-04  0.1588943E+04  0.7818609E-02  0.8827370E-01
        1   -1    0    0  501    0  0.00000000000E+00  0.00000000000E+00  0.94759470019E+03  0.94759470021E+03  0.50400001928E-02 0.  1.
       -1   -1    0    0    0  501  0.00000000000E+00  0.00000000000E+00 -0.66609158558E+03  0.66609158560E+03  0.50400001928E-02 0. -1.
    10030    2    1    2    0    0  0.00000000000E+00  0.00000000000E+00  0.28150311461E+03  0.16136862858E+04  0.15889428641E+04 0.  0.
        1    1    3    3  502    0  0.92688497495E+02  0.36255950885E+03 -0.57097862254E+03  0.68268377924E+03  0.50400001928E-02 0. -1.
       -1    1    3    3    0  502 -0.92688497495E+02 -0.36255950885E+03  0.85248173715E+03  0.93100250656E+03  0.50400001928E-02 0.  1.
</event>
<event>
 5   0  0.1037321E-03  0.1604058E+04  0.7818609E-02  0.8818059E-01
        2   -1    0    0  501    0  0.00000000000E+00  0.00000000000E+00  0.90138529463E+03  0.90138529464E+03  0.25500000920E-02 0. -1.
       -2   -1    0    0    0  501  0.00000000000E+00  0.00000000000E+00 -0.71362428164E+03  0.71362428164E+03  0.25500000920E-02 0.  1.
    10030    2    1    2    0    0  0.00000000000E+00  0.00000000000E+00  0.18776101299E+03  0.16150095763E+04  0.16040578959E+04 0.  0.
        5    1    3    3  502    0 -0.17734783127E+03 -0.24550255016E+03 -0.65382336144E+03  0.72057673661E+03  0.46999998093E+01 0.  1.
       -5    1    3    3    0  502  0.17734783127E+03  0.24550255016E+03  0.84158437443E+03  0.89443283967E+03  0.46999998093E+01 0. -1.
</event>
<event>
 5   0  0.1057872E-03  0.1488648E+04  0.7818609E-02  0.8892037E-01
       -2   -1    0    0    0  501  0.00000000000E+00  0.00000000000E+00  0.58151858102E+03  0.58151858103E+03  0.25500000920E-02 0. -1.
        2   -1    0    0  501    0  0.00000000000E+00  0.00000000000E+00 -0.95270920882E+03  0.95270920882E+03  0.25500000920E-02 0.  1.
    10030    2    1    2    0    0  0.00000000000E+00  0.00000000000E+00 -0.37119062780E+03  0.15342277899E+04  0.14886478526E+04 0.  0.
        2    1    3    3  502    0  0.98903395782E+02 -0.47683087557E+03 -0.76574148758E+03  0.90747429242E+03  0.25500000920E-02 0.  1.
       -2    1    3    3    0  502 -0.98903395782E+02  0.47683087557E+03  0.39455085978E+03  0.62675349744E+03  0.25500000920E-02 0. -1.
</event>
<event>
 5   0  0.5281116E-04  0.1261510E+04  0.7818609E-02  0.9060657E-01
        1   -1    0    0  501    0  0.00000000000E+00  0.00000000000E+00  0.18513123469E+04  0.18513123469E+04  0.50400001928E-02 0. -1.
       -1   -1    0    0    0  501  0.00000000000E+00  0.00000000000E+00 -0.21490276596E+03  0.21490276602E+03  0.50400001928E-02 0.  1.
    10030    2    1    2    0    0  0.00000000000E+00  0.00000000000E+00  0.16364095809E+04  0.20662151129E+04  0.12615104345E+04 0.  0.
        2    1    3    3  502    0 -0.15016106882E+03  0.32401378157E+03  0.16697797171E+04  0.17075413848E+04  0.25500000920E-02 0. -1.
       -2    1    3    3    0  502  0.15016106882E+03 -0.32401378157E+03 -0.33370136155E+02  0.35867372810E+03  0.25500000920E-02 0.  1.
</event>
<event>
 5   0  0.5288658E-04  0.1612379E+04  0.7818609E-02  0.8812979E-01
        1   -1    0    0  501    0  0.00000000000E+00  0.00000000000E+00  0.10132717029E+04  0.10132717029E+04  0.50400001928E-02 0. -1.
       -1   -1    0    0    0  501  0.00000000000E+00  0.00000000000E+00 -0.64142904014E+03  0.64142904016E+03  0.50400001928E-02 0.  1.
    10030    2    1    2    0    0  0.00000000000E+00  0.00000000000E+00  0.37184266276E+03  0.16547007431E+04  0.16123794787E+04 0.  0.
        1    1    3    3  502    0  0.59793630787E+03  0.19378583176E+03  0.70400987934E+03  0.94377470145E+03  0.50400001928E-02 0. -1.
       -1    1    3    3    0  502 -0.59793630787E+03 -0.19378583176E+03 -0.33216721658E+03  0.71092604163E+03  0.50400001928E-02 0.  1.
</event>
<event>
 5   0  0.5623061E-04  0.1626009E+04  0.7818609E-02  0.8804727E-01
        1   -1    0    0  501    0  0.00000000000E+00  0.00000000000E+00  0.49865448003E+03  0.49865448005E+03  0.50400001928E-02 0.  1.
       -1   -1    0    0    0  501  0.00000000000E+00  0.00000000000E+00 -0.13255193517E+04  0.13255193517E+04  0.50400001928E-02 0. -1.
    10030    2    1    2    0    0  0.00000000000E+00  0.00000000000E+00 -0.82686487165E+03  0.18241738317E+04  0.16260088107E+04 0.  0.
        3    1    3    3  502    0  0.24786717111E+03 -0.49746817486E+03 -0.10790944685E+04  0.12138194271E+04  0.10100000352E+00 0. -1.
       -3    1    3    3    0  502 -0.24786717111E+03  0.49746817486E+03  0.25222959684E+03  0.61035440462E+03  0.10100000352E+00 0.  1.
</event>
<event>
 5   0  0.5288658E-04  0.1557725E+04  0.7818609E-02  0.8846949E-01
        1   -1    0    0  501    0  0.00000000000E+00  0.00000000000E+00  0.17294967707E+04  0.17294967707E+04  0.50400001928E-02 0. -1.
       -1   -1    0    0    0  501  0.00000000000E+00  0.00000000000E+00 -0.35075324282E+03  0.35075324286E+03  0.50400001928E-02 0.  1.
    10030    2    1    2    0    0  0.00000000000E+00  0.00000000000E+00  0.13787435279E+04  0.20802500136E+04  0.15577247521E+04 0.  0.
        1    1    3    3  502    0  0.57135157224E+03 -0.47936828966E+02 -0.14604764305E+02  0.57354499199E+03  0.50400001928E-02 0.  1.
       -1    1    3    3    0  502 -0.57135157224E+03  0.47936828966E+02  0.13933482922E+04  0.15067050216E+04  0.50400001928E-02 0. -1.
</event>
<event>
 5   0  0.5532881E-04  0.1632786E+04  0.7818609E-02  0.8800656E-01
       -1   -1    0    0    0  501  0.00000000000E+00  0.00000000000E+00  0.13237177669E+04  0.13237177669E+04  0.50400001928E-02 0.  1.
        1   -1    0    0  501    0  0.00000000000E+00  0.00000000000E+00 -0.50350395058E+03  0.50350395061E+03  0.50400001928E-02 0. -1.
    10030    2    1    2    0    0  0.00000000000E+00  0.00000000000E+00  0.82021381631E+03  0.18272217175E+04  0.16327855035E+04 0.  0.
        4    1    3    3  502    0  0.56485724512E+03 -0.58776070943E+03  0.36044746148E+03  0.89131944010E+03  0.12699999809E+01 0. -1.
       -4    1    3    3    0  502 -0.56485724512E+03  0.58776070943E+03  0.45976635483E+03  0.93590227741E+03  0.12699999809E+01 0.  1.
</event>
<event>
 5   0  0.5532881E-04  0.1566123E+04  0.7818609E-02  0.8841634E-01
       -1   -1    0    0    0  501  0.00000000000E+00  0.00000000000E+00  0.91618878721E+03  0.91618878722E+03  0.50400001928E-02 0.  1.
        1   -1    0    0  501    0  0.00000000000E+00  0.00000000000E+00 -0.66927841402E+03  0.66927841404E+03  0.50400001928E-02 0. -1.
    10030    2    1    2    0    0  0.00000000000E+00  0.00000000000E+00  0.24691037319E+03  0.15854672013E+04  0.15661230839E+04 0.  0.
        4    1    3    3  502    0 -0.18041562067E+03 -0.47408136749E+03  0.72738110225E+03  0.88678510362E+03  0.12699999809E+01 0.  1.
       -4    1    3    3    0  502  0.18041562067E+03  0.47408136749E+03 -0.48047072906E+03  0.69868209764E+03  0.12699999809E+01 0. -1.
</event>
<event>
 5   0  0.5623061E-04  0.1050418E+04  0.7818609E-02  0.9254913E-01
       -1   -1    0    0    0  501  0.00000000000E+00  0.00000000000E+00  0.55543816406E+03  0.55543816409E+03  0.50400001928E-02 0.  1.
        1   -1    0    0  501    0  0.00000000000E+00  0.00000000000E+00 -0.49662493718E+03  0.49662493720E+03  0.50400001928E-02 0. -1.
    10030    2    1    2    0    0  0.00000000000E+00  0.00000000000E+00  0.58813226885E+02  0.10520631013E+04  0.10504179042E+04 0.  0.
        3    1    3    3  502    0  0.18824955264E+03 -0.44506347051E+03  0.23545935362E+03  0.53755046671E+03  0.10100000352E+00 0.  1.
       -3    1    3    3    0  502 -0.18824955264E+03  0.44506347051E+03 -0.17664612673E+03  0.51451263458E+03  0.10100000352E+00 0. -1.
</event>
<event>
 5   0  0.1057872E-03  0.1758169E+04  0.7818609E-02  0.8728866E-01
        2   -1    0    0  501    0  0.00000000000E+00  0.00000000000E+00  0.95335740637E+03  0.95335740638E+03  0.25500000920E-02 0.  1.
       -2   -1    0    0    0  501  0.00000000000E+00  0.00000000000E+00 -0.81059832230E+03  0.81059832230E+03  0.25500000920E-02 0. -1.
    10030    2    1    2    0    0  0.00000000000E+00  0.00000000000E+00  0.14275908407E+03  0.17639557287E+04  0.17581694050E+04 0.  0.
        2    1    3    3  502    0 -0.55179353510E+03  0.42975288421E+03 -0.46293892870E+03  0.83873482017E+03  0.25500000920E-02 0. -1.
       -2    1    3    3    0  502  0.55179353510E+03 -0.42975288421E+03  0.60569801277E+03  0.92522090851E+03  0.25500000920E-02 0.  1.
</event>
<event>
 5   0  0.5425525E-04  0.1200039E+04  0.7818609E-02  0.9112822E-01
        1   -1    0    0  501    0  0.00000000000E+00  0.00000000000E+00  0.92644333068E+03  0.92644333070E+03  0.50400001928E-02 0.  1.
       -1   -1    0    0    0  501  0.00000000000E+00  0.00000000000E+00 -0.38860828122E+03  0.38860828125E+03  0.50400001928E-02 0. -1.
    10030    2    1    2    0    0  0.00000000000E+00  0.00000000000E+00  0.53783504946E+03  0.13150516120E+04  0.12000392500E+04 0.  0.
        5    1    3    3  502    0 -0.35204816278E+03 -0.30541322179E+03 -0.14516856398E+03  0.48817122705E+03  0.46999998093E+01 0. -1.
       -5    1    3    3    0  502  0.35204816278E+03  0.30541322179E+03  0.68300361344E+03  0.82688038490E+03  0.46999998093E+01 0.  1.
</event>
<event>
 5   0  0.1030027E-03  0.1592403E+04  0.7818609E-02  0.8825229E-01
        2   -1    0    0  501    0  0.00000000000E+00  0.00000000000E+00  0.15893783889E+04  0.15893783889E+04  0.25500000920E-02 0.  1.
       -2   -1    0    0    0  501  0.00000000000E+00  0.00000000000E+00 -0.39885846964E+03  0.39885846964E+03  0.25500000920E-02 0. -1.
    10030    2    1    2    0    0  0.00000000000E+00  0.00000000000E+00  0.11905199193E+04  0.19882368586E+04  0.15924032553E+04 0.  0.
        1    1    3    3  502    0  0.67731188705E+03 -0.22453685915E+03  0.15422996217E+03  0.73003772143E+03  0.50400001928E-02 0. -1.
       -1    1    3    3    0  502 -0.67731188705E+03  0.22453685915E+03  0.10362899571E+04  0.12581991371E+04  0.50400001928E-02 0.  1.
</event>
<event>
 5   0  0.5623061E-04  0.1515791E+04  0.7818609E-02  0.8874020E-01
        1   -1    0    0  501    0  0.00000000000E+00  0.00000000000E+00  0.25760577009E+04  0.25760577009E+04  0.50400001928E-02 0.  1.
       -1   -1    0    0    0  501  0.00000000000E+00  0.00000000000E+00 -0.22297846585E+03  0.22297846591E+03  0.50400001928E-02 0. -1.
    10030    2    1    2    0    0  0.00000000000E+00  0.00000000000E+00  0.23530792350E+04  0.27990361668E+04  0.15157907431E+04 0.  0.
        3    1    3    3  502    0  0.34583206894E+03  0.67280055129E+03  0.12620622601E+04  0.14714148158E+04  0.10100000352E+00 0.  1.
       -3    1    3    3    0  502 -0.34583206894E+03 -0.67280055129E+03  0.10910169750E+04  0.13276213510E+04  0.10100000352E+00 0. -1.
</event>
<event>
 5   0  0.1030027E-03  0.1643862E+04  0.7818609E-02  0.8794046E-01
        2   -1    0    0  501    0  0.00000000000E+00  0.00000000000E+00  0.56578801489E+03  0.56578801489E+03  0.25500000920E-02 0. -1.
       -2   -1    0    0    0  501  0.00000000000E+00  0.00000000000E+00 -0.11940342316E+04  0.11940342316E+04  0.25500000920E-02 0.  1.
    10030    2    1    2    0    0  0.00000000000E+00  0.00000000000E+00 -0.62824621667E+03  0.17598222465E+04  0.16438616214E+04 0.  0.
        1    1    3    3  502    0  0.33791616128E+03  0.15507529052E+03 -0.10988633832E+04  0.11600587971E+04  0.50400001928E-02 0.  1.
       -1    1    3    3    0  502 -0.33791616128E+03 -0.15507529052E+03  0.47061716650E+03  0.59976344938E+03  0.50400001928E-02 0. -1.
</event>
<event>
 5   0  0.5288658E-04  0.1585269E+04  0.7818609E-02  0.8829649E-01
        1   -1    0    0  501    0  0.00000000000E+00  0.00000000000E+00  0.81212635905E+03  0.81212635907E+03  0.50400001928E-02 0.  1.
       -1   -1    0    0    0  501  0.00000000000E+00  0.00000000000E+00 -0.77361026479E+03  0.77361026481E+03  0.50400001928E-02 0. -1.
    10030    2    1    2    0    0  0.00000000000E+00  0.00000000000E+00  0.38516094263E+02  0.15857366239E+04  0.15852687945E+04 0.  0.
        1    1    3    3  502    0 -0.54666527299E+03 -0.10110925115E+03  0.58440556288E+03  0.80659522892E+03  0.50400001928E-02 0.  1.
       -1    1    3    3    0  502  0.54666527299E+03  0.10110925115E+03 -0.54588946862E+03  0.77914139496E+03  0.50400001928E-02 0. -1.
</event>
<event>
 5   0  0.1037321E-03  0.1516243E+04  0.7818609E-02  0.8873723E-01
        2   -1    0    0  501    0  0.00000000000E+00  0.00000000000E+00  0.70719465882E+03  0.70719465883E+03  0.25500000920E-02 0. -1.
       -2   -1    0    0    0  501  0.00000000000E+00  0.00000000000E+00 -0.81271519433E+03  0.81271519433E+03  0.25500000920E-02 0.  1.
    10030    2    1    2    0    0  0.00000000000E+00  0.00000000000E+00 -0.10552053550E+03  0.15199098532E+04  0.15162425196E+04 0.  0.
        5    1    3    3  502    0 -0.24497719020E+03 -0.13014036189E+03  0.65447821143E+03  0.71085452573E+03  0.46999998093E+01 0. -1.
       -5    1    3    3    0  502  0.24497719020E+03  0.13014036189E+03 -0.75999874693E+03  0.80905532743E+03  0.46999998093E+01 0.  1.
</event>
<event>
 5   0  0.5281116E-04  0.1598467E+04  0.7818609E-02  0.8821490E-01
        1   -1    0    0  501    0  0.00000000000E+00  0.00000000000E+00  0.10563261198E+04  0.10563261198E+04  0.50400001928E-02 0. -1.
       -1   -1    0    0    0  501  0.00000000000E+00  0.00000000000E+00 -0.60471321880E+03  0.60471321882E+03  0.50400001928E-02 0.  1.
    10030    2    1    2    0    0  0.00000000000E+00  0.00000000000E+00  0.45161290098E+03  0.16610393386E+04  0.15984672258E+04 0.  0.
        2    1    3    3  502    0  0.77321919673E+03  0.13610011178E+03  0.70339785271E+02  0.78825050081E+03  0.25500000920E-02 0. -1.
       -2    1    3    3    0  502 -0.77321919673E+03 -0.13610011178E+03  0.38127311571E+03  0.87278883781E+03  0.25500000920E-02 0.  1.
</event>
<event>
 5   0  0.9844690E-04  0.1543806E+04  0.7818609E-02  0.8855834E-01
        2   -1    0    0  501    0  0.00000000000E+00  0.00000000000E+00  0.72644164497E+03  0.72644164498E+03  0.25500000920E-02 0. -1.
       -2   -1    0    0    0  501  0.00000000000E+00  0.00000000000E+00 -0.82020970924E+03  0.82020970924E+03  0.25500000920E-02 0.  1.
    10030    2    1    2    0    0  0.00000000000E+00  0.00000000000E+00 -0.93768064264E+02  0.15466513542E+04  0.15438063226E+04 0.  0.
        3    1    3    3  502    0  0.16974914838E+02 -0.71655677198E+03 -0.33393032798E+03  0.79072829047E+03  0.10100000352E+00 0.  1.
       -3    1    3    3    0  502 -0.16974914838E+02  0.71655677198E+03  0.24016226371E+03  0.75592306375E+03  0.10100000352E+00 0. -1.
</event>
<event>
 5   0  0.1057872E-03  0.1594022E+04  0.7818609E-02  0.8824229E-01
       -2   -1    0    0    0  501  0.00000000000E+00  0.00000000000E+00  0.35587966805E+03  0.35587966806E+03  0.25500000920E-02 0. -1.
        2   -1    0    0  501    0  0.00000000000E+00  0.00000000000E+00 -0.17849479008E+04  0.17849479008E+04  0.25500000920E-02 0.  1.
    10030    2    1    2    0    0  0.00000000000E+00  0.00000000000E+00 -0.14290682327E+04  0.21408275688E+04  0.15940221660E+04 0.  0.
        2    1    3    3  502    0 -0.39794336102E+03 -0.66948628261E+03 -0.94188366460E+03  0.12221765989E+04  0.25500000920E-02 0. -1.
       -2    1    3    3    0  502  0.39794336102E+03  0.66948628261E+03 -0.48718456811E+03  0.91865096995E+03  0.25500000920E-02 0.  1.
</event>
<event>
 5   0  0.3832500E-04  0.1588179E+04  0.7818609E-02  0.8827843E-01
       -4   -1    0    0    0  501  0.00000000000E+00  0.00000000000E+00  0.10779356339E+04  0.10779363820E+04  0.12699999809E+01 0. -1.
        4   -1    0    0  501    0  0.00000000000E+00  0.00000000000E+00 -0.58498522508E+03  0.58498660366E+03  0.12699999809E+01 0.  1.
    10030    2    1    2    0    0  0.00000000000E+00  0.00000000000E+00  0.49295040878E+03  0.16629229857E+04  0.15881790676E+04 0.  0.
        5    1    3    3  502    0  0.69641098984E+03 -0.38026716464E+03  0.27899681561E+03  0.84110207251E+03  0.46999998093E+01 0.  1.
       -5    1    3    3    0  502 -0.69641098984E+03  0.38026716464E+03  0.21395359317E+03  0.82182091315E+03  0.46999998093E+01 0. -1.
</event>
<event>
 5   0  0.1037321E-03  0.1591281E+04  0.7818609E-02  0.8825923E-01
        2   -1    0    0  501    0  0.00000000000E+00  0.00000000000E+00  0.12224618178E+04  0.12224618178E+04  0.25500000920E-02 0.  1.
       -2   -1    0    0    0  501  0.00000000000E+00  0.00000000000E+00 -0.51784325590E+03  0.51784325590E+03  0.25500000920E-02 0. -1.
    10030    2    1    2    0    0  0.00000000000E+00  0.00000000000E+00  0.70461856191E+03  0.17403050737E+04  0.15912807520E+04 0.  0.
        5    1    3    3  502    0  0.55062824003E+03  0.32069899188E+03  0.87335339274E+03  0.10811140276E+04  0.46999998093E+01 0.  1.
       -5    1    3    3    0  502 -0.55062824003E+03 -0.32069899188E+03 -0.16873483083E+03  0.65919104609E+03  0.46999998093E+01 0. -1.
</event>
<event>
 5   0  0.1037321E-03  0.1604767E+04  0.7818609E-02  0.8817625E-01
       -2   -1    0    0    0  501  0.00000000000E+00  0.00000000000E+00  0.77568055933E+03  0.77568055933E+03  0.25500000920E-02 0.  1.
        2   -1    0    0  501    0  0.00000000000E+00  0.00000000000E+00 -0.83000548348E+03  0.83000548348E+03  0.25500000920E-02 0. -1.
    10030    2    1    2    0    0  0.00000000000E+00  0.00000000000E+00 -0.54324924151E+02  0.16056860428E+04  0.16047667964E+04 0.  0.
        5    1    3    3  502    0  0.54479228697E+03 -0.47733922876E+03 -0.37253500026E+03  0.81452795635E+03  0.46999998093E+01 0. -1.
       -5    1    3    3    0  502 -0.54479228697E+03  0.47733922876E+03  0.31821007611E+03  0.79115808647E+03  0.46999998093E+01 0.  1.
</event>
<event>
 5   0  0.9844690E-04  0.1851235E+04  0.7818609E-02  0.8679518E-01
        2   -1    0    0  501    0  0.00000000000E+00  0.00000000000E+00  0.12791281826E+04  0.12791281826E+04  0.25500000920E-02 0.  1.
       -2   -1    0    0    0  501  0.00000000000E+00  0.00000000000E+00 -0.66980631139E+03  0.66980631140E+03  0.25500000920E-02 0. -1.
    10030    2    1    2    0    0  0.00000000000E+00  0.00000000000E+00  0.60932187119E+03  0.19489344940E+04  0.18512354035E+04 0.  0.
        3    1    3    3  502    0  0.41936983483E+03  0.31487767993E+03 -0.49831671553E+03  0.72342143379E+03  0.10100000352E+00 0. -1.
       -3    1    3    3    0  502 -0.41936983483E+03 -0.31487767993E+03  0.11076385867E+04  0.12255130602E+04  0.10100000352E+00 0.  1.
</event>
<event>
 5   0  0.1030027E-03  0.1559335E+04  0.7818609E-02  0.8845927E-01
        2   -1    0    0  501    0  0.00000000000E+00  0.00000000000E+00  0.20442906332E+04  0.20442906332E+04  0.25500000920E-02 0.  1.
       -2   -1    0    0    0  501  0.00000000000E+00  0.00000000000E+00 -0.29735548770E+03  0.29735548771E+03  0.25500000920E-02 0. -1.
    10030    2    1    2    0    0  0.00000000000E+00  0.00000000000E+00  0.17469351455E+04  0.23416461209E+04  0.15593345225E+04 0.  0.
        1    1    3    3  502    0 -0.69768398778E+03  0.34781812680E+03  0.85565857078E+03  0.11575370344E+04  0.50400001928E-02 0. -1.
       -1    1    3    3    0  502  0.69768398778E+03 -0.34781812680E+03  0.89127657469E+03  0.11841090865E+04  0.50400001928E-02 0.  1.
</event>
<event>
 5   0  0.5425525E-04  0.1609303E+04  0.7818609E-02  0.8814853E-01
        1   -1    0    0  501    0  0.00000000000E+00  0.00000000000E+00  0.16252902341E+04  0.16252902341E+04  0.50400001928E-02 0. -1.
       -1   -1    0    0    0  501  0.00000000000E+00  0.00000000000E+00 -0.39836834220E+03  0.39836834223E+03  0.50400001928E-02 0.  1.
    10030    2    1    2    0    0  0.00000000000E+00  0.00000000000E+00  0.12269218919E+04  0.20236585763E+04  0.16093031737E+04 0.  0.
        5    1    3    3  502    0  0.15008940427E+03  0.90100429313E+01  0.16074502870E+04  0.16144740708E+04  0.46999998093E+01 0. -1.
       -5    1    3    3    0  502 -0.15008940427E+03 -0.90100429313E+01 -0.38052839506E+03  0.40918450556E+03  0.46999998093E+01 0.  1.
</event>
<event>
 5   0  0.5288658E-04  0.1615504E+04  0.7818609E-02  0.8811080E-01
       -1   -1    0    0    0  501  0.00000000000E+00  0.00000000000E+00  0.27343117465E+03  0.27343117470E+03  0.50400001928E-02 0. -1.
        1   -1    0    0  501    0  0.00000000000E+00  0.00000000000E+00 -0.23862062733E+04  0.23862062733E+04  0.50400001928E-02 0.  1.
    10030    2    1    2    0    0  0.00000000000E+00  0.00000000000E+00 -0.21127750987E+04  0.26596374480E+04  0.16155038649E+04 0.  0.
        1    1    3    3  502    0  0.26523236923E+03 -0.72026594029E+03 -0.14706979804E+04  0.16589405608E+04  0.50400001928E-02 0. -1.
       -1    1    3    3    0  502 -0.26523236923E+03  0.72026594029E+03 -0.64207711823E+03  0.10006968873E+04  0.50400001928E-02 0.  1.
</event>
<event>
 5   0  0.3832500E-04  0.1601752E+04  0.7818609E-02  0.8819472E-01
        3   -1    0    0  501    0  0.00000000000E+00  0.00000000000E+00  0.59631868456E+03  0.59631869311E+03  0.10100000352E+00 0.  1.
       -3   -1    0    0    0  501  0.00000000000E+00  0.00000000000E+00 -0.10756036206E+04  0.10756036253E+04  0.10100000352E+00 0. -1.
    10030    2    1    2    0    0  0.00000000000E+00  0.00000000000E+00 -0.47928493603E+03  0.16719223184E+04  0.16017522246E+04 0.  0.
        3    1    3    3  502    0 -0.40454700770E+03 -0.65175588257E+03 -0.47985115000E+03  0.90482105869E+03  0.10100000352E+00 0. -1.
       -3    1    3    3    0  502  0.40454700770E+03  0.65175588257E+03  0.56621396954E+00  0.76710125974E+03  0.10100000352E+00 0.  1.
</event>
<event>
 5   0  0.1057872E-03  0.1629520E+04  0.7818609E-02  0.8802615E-01
       -2   -1    0    0    0  501  0.00000000000E+00  0.00000000000E+00  0.47543499494E+03  0.47543499495E+03  0.25500000920E-02 0.  1.
        2   -1    0    0  501    0  0.00000000000E+00  0.00000000000E+00 -0.13962668216E+04  0.13962668216E+04  0.25500000920E-02 0. -1.
    10030    2    1    2    0    0  0.00000000000E+00  0.00000000000E+00 -0.92083182670E+03  0.18717018166E+04  0.16295203089E+04 0.  0.
        2    1    3    3  502    0  0.43688737086E+03 -0.34360674684E+01 -0.12503398834E+04  0.13244743129E+04  0.25500000920E-02 0. -1.
       -2    1    3    3    0  502 -0.43688737086E+03  0.34360674684E+01  0.32950805672E+03  0.54722750372E+03  0.25500000920E-02 0.  1.
</event>
<event>
 5   0  0.5281116E-04  0.1591834E+04  0.7818609E-02  0.8825580E-01
       -1   -1    0    0    0  501  0.00000000000E+00  0.00000000000E+00  0.52799614929E+03  0.52799614932E+03  0.50400001928E-02 0. -1.
        1   -1    0    0  501    0  0.00000000000E+00  0.00000000000E+00 -0.11997891803E+04  0.11997891803E+04  0.50400001928E-02 0.  1.
    10030    2    1    2    0    0  0.00000000000E+00  0.00000000000E+00 -0.67179303102E+03  0.17277853296E+04  0.15918342466E+04 0.  0.
        2    1    3    3  502    0  0.59101629398E+03 -0.45770364397E+03 -0.63253439210E+03  0.97923063813E+03  0.25500000920E-02 0.  1.
       -2    1    3    3    0  502 -0.59101629398E+03  0.45770364397E+03 -0.39258638919E+02  0.74855469151E+03  0.25500000920E-02 0. -1.
</event>
<event>
 5   0  0.1030027E-03  0.1464978E+04  0.7818609E-02  0.8908082E-01
       -2   -1    0    0    0  501  0.00000000000E+00  0.00000000000E+00  0.65124519310E+03  0.65124519311E+03  0.25500000920E-02 0.  1.
        2   -1    0    0  501    0  0.00000000000E+00  0.00000000000E+00 -0.82386843072E+03  0.82386843072E+03  0.25500000920E-02 0. -1.
    10030    2    1    2    0    0  0.00000000000E+00  0.00000000000E+00 -0.17262323761E+03  0.14751136238E+04  0.14649783005E+04 0.  0.
        1    1    3    3  502    0  0.11185368262E+02  0.68198488801E+03 -0.35520192761E+03  0.76902334772E+03  0.50400001928E-02 0. -1.
       -1    1    3    3    0  502 -0.11185368262E+02 -0.68198488801E+03  0.18257869000E+03  0.70609027610E+03  0.50400001928E-02 0.  1.
</event>
<event>
 5   0  0.1037321E-03  0.1574445E+04  0.7818609E-02  0.8836403E-01
       -2   -1    0    0    0  501  0.00000000000E+00  0.00000000000E+00  0.49823656269E+03  0.49823656269E+03  0.25500000920E-02 0. -1.
        2   -1    0    0  501    0  0.00000000000E+00  0.00000000000E+00 -0.12438261005E+04  0.12438261005E+04  0.25500000920E-02 0.  1.
    10030    2    1    2    0    0  0.00000000000E+00  0.00000000000E+00 -0.74558953786E+03  0.17420626632E+04  0.15744454782E+04 0.  0.
        5    1    3    3  502    0  0.77288544064E+03  0.14343168897E+03 -0.32620504167E+03  0.85109128357E+03  0.46999998093E+01 0.  1.
       -5    1    3    3    0  502 -0.77288544064E+03 -0.14343168897E+03 -0.41938449619E+03  0.89097137967E+03  0.46999998093E+01 0. -1.
</event>
<event>
 5   0  0.3832500E-04  0.1610587E+04  0.7818609E-02  0.8814070E-01
       -3   -1    0    0    0  501  0.00000000000E+00  0.00000000000E+00  0.77049596779E+03  0.77049597441E+03  0.10100000352E+00 0.  1.
        3   -1    0    0  501    0  0.00000000000E+00  0.00000000000E+00 -0.84166242272E+03  0.84166242878E+03  0.10100000352E+00 0. -1.
    10030    2    1    2    0    0  0.00000000000E+00  0.00000000000E+00 -0.71166454932E+02  0.16121584032E+04  0.16105868659E+04 0.  0.
        5    1    3    3  502    0  0.15101979945E+03  0.71249294433E+03  0.30829564868E+03  0.79089915447E+03  0.46999998093E+01 0.  1.
       -5    1    3    3    0  502 -0.15101979945E+03 -0.71249294433E+03 -0.37946210361E+03  0.82125924873E+03  0.46999998093E+01 0. -1.
</event>
<event>
 5   0  0.5623061E-04  0.1605955E+04  0.7818609E-02  0.8816898E-01
       -1   -1    0    0    0  501  0.00000000000E+00  0.00000000000E+00  0.84199772804E+03  0.84199772806E+03  0.50400001928E-02 0. -1.
        1   -1    0    0  501    0  0.00000000000E+00  0.00000000000E+00 -0.76576566389E+03  0.76576566390E+03  0.50400001928E-02 0.  1.
    10030    2    1    2    0    0  0.00000000000E+00  0.00000000000E+00  0.76232064156E+02  0.16077633920E+04  0.16059551043E+04 0.  0.
        3    1    3    3  502    0  0.12590263268E+03  0.34775737337E+03  0.75165011906E+03  0.83771389826E+03  0.10100000352E+00 0. -1.
       -3    1    3    3    0  502 -0.12590263268E+03 -0.34775737337E+03 -0.67541805491E+03  0.77004949370E+03  0.10100000352E+00 0.  1.
</event>
<event>
 5   0  0.5425525E-04  0.1445417E+04  0.7818609E-02  0.8921584E-01
        1   -1    0    0  501    0  0.00000000000E+00  0.00000000000E+00  0.10344584378E+04  0.10344584378E+04  0.50400001928E-02 0.  1.
       -1   -1    0    0    0  501  0.00000000000E+00  0.00000000000E+00 -0.50490948172E+03  0.50490948175E+03  0.50400001928E-02 0. -1.
    10030    2    1    2    0    0  0.00000000000E+00  0.00000000000E+00  0.52954895610E+03  0.15393679196E+04  0.14454174120E+04 0.  0.
        5    1    3    3  502    0  0.60603973263E+03  0.17346748146E+03  0.64117385814E+03  0.89916690943E+03  0.46999998093E+01 0.  1.
       -5    1    3    3    0  502 -0.60603973263E+03 -0.17346748146E+03 -0.11162490204E+03  0.64020101016E+03  0.46999998093E+01 0. -1.
</event>
<event>
 5   0  0.1030027E-03  0.1613815E+04  0.7818609E-02  0.8812105E-01
       -2   -1    0    0    0  501  0.00000000000E+00  0.00000000000E+00  0.10751870092E+04  0.10751870092E+04  0.25500000920E-02 0. -1.
        2   -1    0    0  501    0  0.00000000000E+00  0.00000000000E+00 -0.60556896742E+03  0.60556896742E+03  0.25500000920E-02 0.  1.
    10030    2    1    2    0    0  0.00000000000E+00  0.00000000000E+00  0.46961804175E+03  0.16807559766E+04  0.16138152149E+04 0.  0.
        1    1    3    3  502    0  0.30670898517E+03  0.10302674880E+03 -0.53505168736E+03  0.62527211734E+03  0.50400001928E-02 0.  1.
       -1    1    3    3    0  502 -0.30670898517E+03 -0.10302674880E+03  0.10046697291E+04  0.10554838593E+04  0.50400001928E-02 0. -1.
</event>
<event>
 5   0  0.1000121E-03  0.1593533E+04  0.7818609E-02  0.8824531E-01
        2   -1    0    0  501    0  0.00000000000E+00  0.00000000000E+00  0.54500877755E+03  0.54500877756E+03  0.25500000920E-02 0. -1.
       -2   -1    0    0    0  501  0.00000000000E+00  0.00000000000E+00 -0.11648196286E+04  0.11648196286E+04  0.25500000920E-02 0.  1.
    10030    2    1    2    0    0  0.00000000000E+00  0.00000000000E+00 -0.61981085107E+03  0.17098284062E+04  0.15935330833E+04 0.  0.
        4    1    3    3  502    0 -0.56351602104E+03 -0.48686427861E+03 -0.61386024361E+03  0.96509747867E+03  0.12699999809E+01 0.  1.
       -4    1    3    3    0  502  0.56351602104E+03  0.48686427861E+03 -0.59506074617E+01  0.74473092751E+03  0.12699999809E+01 0. -1.
</event>
<event>
 5   0  0.3832500E-04  0.1550868E+04  0.7818609E-02  0.8851313E-01
        4   -1    0    0  501    0  0.00000000000E+00  0.00000000000E+00  0.50108176443E+03  0.50108337384E+03  0.12699999809E+01 0. -1.
       -4   -1    0    0    0  501  0.00000000000E+00  0.00000000000E+00 -0.11999964045E+04  0.11999970765E+04  0.12699999809E+01 0.  1.
    10030    2    1    2    0    0  0.00000000000E+00  0.00000000000E+00 -0.69891464006E+03  0.17010804504E+04  0.15508684743E+04 0.  0.
        4    1    3    3  502    0 -0.71486966540E+01  0.60483858108E+03 -0.88164855450E+03  0.10691990458E+04  0.12699999809E+01 0.  1.
       -4    1    3    3    0  502  0.71486966540E+01 -0.60483858108E+03  0.18273391444E+03  0.63188140455E+03  0.12699999809E+01 0. -1.
</event>
<event>
 5   0  0.5532881E-04  0.1610386E+04  0.7818609E-02  0.8814193E-01
        1   -1    0    0  501    0  0.00000000000E+00  0.00000000000E+00  0.58774476799E+03  0.58774476801E+03  0.50400001928E-02 0.  1.
       -1   -1    0    0    0  501  0.00000000000E+00  0.00000000000E+00 -0.11030907985E+04  0.11030907985E+04  0.50400001928E-02 0. -1.
    10030    2    1    2    0    0  0.00000000000E+00  0.00000000000E+00 -0.51534603055E+03  0.16908355666E+04  0.16103860972E+04 0.  0.
        4    1    3    3  502    0  0.10339595654E+02 -0.71497021266E+03 -0.64636253732E+03  0.96388560254E+03  0.12699999809E+01 0. -1.
       -4    1    3    3    0  502 -0.10339595654E+02  0.71497021266E+03  0.13101650677E+03  0.72694996401E+03  0.12699999809E+01 0.  1.
</event>
<event>
 5   0  0.9844690E-04  0.1602077E+04  0.7818609E-02  0.8819273E-01
       -2   -1    0    0    0  501  0.00000000000E+00  0.00000000000E+00  0.30365143095E+03  0.30365143096E+03  0.25500000920E-02 0. -1.
        2   -1    0    0  501    0  0.00000000000E+00  0.00000000000E+00 -0.21131543274E+04  0.21131543274E+04  0.25500000920E-02 0.  1.
    10030    2    1    2    0    0  0.00000000000E+00  0.00000000000E+00 -0.18095028965E+04  0.24168057584E+04  0.16020765716E+04 0.  0.
        3    1    3    3  502    0 -0.76921162107E+03 -0.17074826263E+03 -0.11224259604E+04  0.13713794274E+04  0.10100000352E+00 0. -1.
       -3    1    3    3    0  502  0.76921162107E+03  0.17074826263E+03 -0.68707693604E+03  0.10454263309E+04  0.10100000352E+00 0.  1.
</event>
<event>
 5   0  0.5288658E-04  0.1638646E+04  0.7818609E-02  0.8797152E-01
        1   -1    0    0  501    0  0.00000000000E+00  0.00000000000E+00  0.14629113220E+04  0.14629113220E+04  0.50400001928E-02 0. -1.
       -1   -1    0    0    0  501  0.00000000000E+00  0.00000000000E+00 -0.45887291863E+03  0.45887291866E+03  0.50400001928E-02 0.  1.
    10030    2    1    2    0    0  0.00000000000E+00  0.00000000000E+00  0.10040384033E+04  0.19217842406E+04  0.16386462560E+04 0.  0.
        1    1    3    3  502    0 -0.26972778541E+03 -0.75446459503E+03  0.70283828939E+03  0.10658102854E+04  0.50400001928E-02 0. -1.
       -1    1    3    3    0  502  0.26972778541E+03  0.75446459503E+03  0.30120011394E+03  0.85597395524E+03  0.50400001928E-02 0.  1.
</event>
<event>
 5   0  0.9844690E-04  0.1622537E+04  0.7818609E-02  0.8806821E-01
       -2   -1    0    0    0  501  0.00000000000E+00  0.00000000000E+00  0.10872260504E+04  0.10872260504E+04  0.25500000920E-02 0. -1.
        2   -1    0    0  501    0  0.00000000000E+00  0.00000000000E+00 -0.60535378399E+03  0.60535378399E+03  0.25500000920E-02 0.  1.
    10030    2    1    2    0    0  0.00000000000E+00  0.00000000000E+00  0.48187226641E+03  0.16925798344E+04  0.16225367838E+04 0.  0.
        3    1    3    3  502    0 -0.74339693020E+02 -0.33396611739E+03  0.10082835369E+04  0.10647513599E+04  0.10100000352E+00 0. -1.
       -3    1    3    3    0  502  0.74339693020E+02  0.33396611739E+03 -0.52641127045E+03  0.62782847449E+03  0.10100000352E+00 0.  1.
</event>
<event>
 5   0  0.5281116E-04  0.1586053E+04  0.7818609E-02  0.8829162E-01
       -1   -1    0    0    0  501  0.00000000000E+00  0.00000000000E+00  0.92111662516E+03  0.92111662518E+03  0.50400001928E-02 0.  1.
        1   -1    0    0  501    0  0.00000000000E+00  0.00000000000E+00 -0.68274863199E+03  0.68274863201E+03  0.50400001928E-02 0. -1.
    10030    2    1    2    0    0  0.00000000000E+00  0.00000000000E+00  0.23836799317E+03  0.16038652572E+04  0.15860531085E+04 0.  0.
        2    1    3    3  502    0 -0.63655802779E+03  0.10493483900E+03 -0.34716067593E+03  0.73262403598E+03  0.25500000920E-02 0. -1.
       -2    1    3    3    0  502  0.63655802779E+03 -0.10493483900E+03  0.58552866910E+03  0.87124122120E+03  0.25500000920E-02 0.  1.
</event>
<event>
 5   0  0.1030027E-03  0.1595198E+04  0.7818609E-02  0.8823504E-01
       -2   -1    0    0    0  501  0.00000000000E+00  0.00000000000E+00  0.68708347499E+03  0.68708347499E+03  0.25500000920E-02 0. -1.
        2   -1    0    0  501    0  0.00000000000E+00  0.00000000000E+00 -0.92589040797E+03  0.92589040798E+03  0.25500000920E-02 0.  1.
    10030    2    1    2    0    0  0.00000000000E+00  0.00000000000E+00 -0.23880693299E+03  0.16129738830E+04  0.15951977921E+04 0.  0.
        1    1    3    3  502    0  0.33500186195E+03  0.30964701994E+03  0.54214753416E+03  0.70854179361E+03  0.50400001928E-02 0. -1.
       -1    1    3    3    0  502 -0.33500186195E+03 -0.30964701994E+03 -0.78095446715E+03  0.90443208936E+03  0.50400001928E-02 0.  1.
</event>
<event>
 5   0  0.1057872E-03  0.1725962E+04  0.7818609E-02  0.8746695E-01
       -2   -1    0    0    0  501  0.00000000000E+00  0.00000000000E+00  0.66800821348E+03  0.66800821349E+03  0.25500000920E-02 0.  1.
        2   -1    0    0  501    0  0.00000000000E+00  0.00000000000E+00 -0.11148602802E+04  0.11148602802E+04  0.25500000920E-02 0. -1.
    10030    2    1    2    0    0  0.00000000000E+00  0.00000000000E+00 -0.44685206675E+03  0.17828684937E+04  0.17259615570E+04 0.  0.
        2    1    3    3  502    0 -0.44051715370E+03  0.48444781135E+03 -0.80409069608E+03  0.10369700536E+04  0.25500000920E-02 0. -1.
       -2    1    3    3    0  502  0.44051715370E+03 -0.48444781135E+03  0.35723862933E+03  0.74589844008E+03  0.25500000920E-02 0.  1.
</event>
<event>
 5   0  0.5425525E-04  0.1770020E+04  0.7818609E-02  0.8722407E-01
       -1   -1    0    0    0  501  0.00000000000E+00  0.00000000000E+00  0.63195237045E+03  0.63195237047E+03  0.50400001928E-02 0. -1.
        1   -1    0    0  501    0  0.00000000000E+00  0.00000000000E+00 -0.12394020858E+04  0.12394020858E+04  0.50400001928E-02 0.  1.
    10030    2    1    2    0    0  0.00000000000E+00  0.00000000000E+00 -0.60744971530E+03  0.18713544562E+04  0.17700204361E+04 0.  0.
        5    1    3    3  502    0 -0.72505235676E+03 -0.48866087192E+03 -0.15902971652E+03  0.88870856219E+03  0.46999998093E+01 0. -1.
       -5    1    3    3    0  502  0.72505235676E+03  0.48866087192E+03 -0.44841999877E+03  0.98264589404E+03  0.46999998093E+01 0.  1.
</event>
<event>
 5   0  0.5532881E-04  0.1670743E+04  0.7818609E-02  0.8778229E-01
        1   -1    0    0  501    0  0.00000000000E+00  0.00000000000E+00  0.45134405126E+03  0.45134405129E+03  0.50400001928E-02 0. -1.
       -1   -1    0    0    0  501  0.00000000000E+00  0.00000000000E+00 -0.15461501077E+04  0.15461501077E+04  0.50400001928E-02 0.  1.
    10030    2    1    2    0    0  0.00000000000E+00  0.00000000000E+00 -0.10948060564E+04  0.19974941590E+04  0.16707431322E+04 0.  0.
        4    1    3    3  502    0  0.22674844044E+03  0.70488523546E+03 -0.10097758077E+04  0.12521688565E+04  0.12699999809E+01 0. -1.
       -4    1    3    3    0  502 -0.22674844044E+03 -0.70488523546E+03 -0.85030248672E+02  0.74532530246E+03  0.12699999809E+01 0.  1.
</event>
<event>
 5   0  0.3832500E-04  0.1635718E+04  0.7818609E-02  0.8798900E-01
       -3   -1    0    0    0  501  0.00000000000E+00  0.00000000000E+00  0.31623293893E+03  0.31623295506E+03  0.10100000352E+00 0.  1.
        3   -1    0    0  501    0  0.00000000000E+00  0.00000000000E+00 -0.21151925696E+04  0.21151925720E+04  0.10100000352E+00 0. -1.
    10030    2    1    2    0    0  0.00000000000E+00  0.00000000000E+00 -0.17989596307E+04  0.24314255271E+04  0.16357182951E+04 0.  0.
        1    1    3    3  502    0 -0.57387705408E+02  0.75659114544E+03 -0.13532026990E+04  0.15514125997E+04  0.50400001928E-02 0. -1.
       -1    1    3    3    0  502  0.57387705408E+02 -0.75659114544E+03 -0.44575693170E+03  0.88001292733E+03  0.50400001928E-02 0.  1.
</event>
<event>
 5   0  0.1000121E-03  0.1559555E+04  0.7818609E-02  0.8845788E-01
       -2   -1    0    0    0  501  0.00000000000E+00  0.00000000000E+00  0.26262495674E+03  0.26262495675E+03  0.25500000920E-02 0.  1.
        2   -1    0    0  501    0  0.00000000000E+00  0.00000000000E+00 -0.23152900359E+04  0.23152900359E+04  0.25500000920E-02 0. -1.
    10030    2    1    2    0    0  0.00000000000E+00  0.00000000000E+00 -0.20526650792E+04  0.25779149927E+04  0.15595549949E+04 0.  0.
        4    1    3    3  502    0 -0.69982941587E+03  0.21886021240E+03 -0.14648878711E+04  0.16381572244E+04  0.12699999809E+01 0. -1.
       -4    1    3    3    0  502  0.69982941587E+03 -0.21886021240E+03 -0.58777720807E+03  0.93975776832E+03  0.12699999809E+01 0.  1.
</event>
<event>
 5   0  0.1037321E-03  0.1471797E+04  0.7818609E-02  0.8903427E-01
        2   -1    0    0  501    0  0.00000000000E+00  0.00000000000E+00  0.63281182930E+03  0.63281182930E+03  0.25500000920E-02 0.  1.
       -2   -1    0    0    0  501  0.00000000000E+00  0.00000000000E+00 -0.85577814159E+03  0.85577814160E+03  0.25500000920E-02 0. -1.
    10030    2    1    2    0    0  0.00000000000E+00  0.00000000000E+00 -0.22296631230E+03  0.14885899709E+04  0.14717969035E+04 0.  0.
        5    1    3    3  502    0  0.49788976448E+03 -0.48563556595E+03  0.13165170944E+03  0.70787737857E+03  0.46999998093E+01 0.  1.
       -5    1    3    3    0  502 -0.49788976448E+03  0.48563556595E+03 -0.35461802174E+03  0.78071259233E+03  0.46999998093E+01 0. -1.
</event>
<event>
 5   0  0.5288658E-04  0.2150106E+04  0.7818609E-02  0.8539487E-01
       -1   -1    0    0    0  501  0.00000000000E+00  0.00000000000E+00  0.70615123434E+03  0.70615123436E+03  0.50400001928E-02 0.  1.
        1   -1    0    0  501    0  0.00000000000E+00  0.00000000000E+00 -0.16366730295E+04  0.16366730295E+04  0.50400001928E-02 0. -1.
    10030    2    1    2    0    0  0.00000000000E+00  0.00000000000E+00 -0.93052179516E+03  0.23428242639E+04  0.21501057463E+04 0.  0.
        1    1    3    3  502    0 -0.45781178683E+03  0.67322199796E+03 -0.12302720319E+04  0.14752588801E+04  0.50400001928E-02 0. -1.
       -1    1    3    3    0  502  0.45781178683E+03 -0.67322199796E+03  0.29975023676E+03  0.86756538379E+03  0.50400001928E-02 0.  1.
</event>
<event>
 5   0  0.1000121E-03  0.1610396E+04  0.7818609E-02  0.8814187E-01
        2   -1    0    0  501    0  0.00000000000E+00  0.00000000000E+00  0.12661198418E+04  0.12661198418E+04  0.25500000920E-02 0.  1.
       -2   -1    0    0    0  501  0.00000000000E+00  0.00000000000E+00 -0.51207116964E+03  0.51207116965E+03  0.25500000920E-02 0. -1.
    10030    2    1    2    0    0  0.00000000000E+00  0.00000000000E+00  0.75404867212E+03  0.17781910114E+04  0.16103955642E+04 0.  0.
        4    1    3    3  502    0 -0.47745686849E+03  0.31955332780E+03 -0.24590467299E+03  0.62494008647E+03  0.12699999809E+01 0. -1.
       -4    1    3    3    0  502  0.47745686849E+03 -0.31955332780E+03  0.99995334511E+03  0.11532509249E+04  0.12699999809E+01 0.  1.
</event>
<event>
 5   0  0.3832500E-04  0.1579793E+04  0.7818609E-02  0.8833059E-01
       -3   -1    0    0    0  501  0.00000000000E+00  0.00000000000E+00  0.13399358683E+04  0.13399358721E+04  0.10100000352E+00 0.  1.
        3   -1    0    0  501    0  0.00000000000E+00  0.00000000000E+00 -0.46564668138E+03  0.46564669233E+03  0.10100000352E+00 0. -1.
    10030    2    1    2    0    0  0.00000000000E+00  0.00000000000E+00  0.87428918689E+03  0.18055825644E+04  0.15797932822E+04 0.  0.
        1    1    3    3  502    0  0.61847373417E+03 -0.23927818748E+03  0.92763435270E+03  0.11402935162E+04  0.50400001928E-02 0.  1.
       -1    1    3    3    0  502 -0.61847373417E+03  0.23927818748E+03 -0.53345165812E+02  0.66528904816E+03  0.50400001928E-02 0. -1.
</event>
<event>
 5   0  0.5623061E-04  0.1588508E+04  0.7818609E-02  0.8827639E-01
       -1   -1    0    0    0  501  0.00000000000E+00  0.00000000000E+00  0.26922853614E+03  0.26922853619E+03  0.50400001928E-02 0.  1.
        1   -1    0    0  501    0  0.00000000000E+00  0.00000000000E+00 -0.23431366284E+04  0.23431366284E+04  0.50400001928E-02 0. -1.
    10030    2    1    2    0    0  0.00000000000E+00  0.00000000000E+00 -0.20739080923E+04  0.26123651646E+04  0.15885077834E+04 0.  0.
        3    1    3    3  502    0  0.17855030542E+03  0.73567057498E+03 -0.14321498852E+04  0.16199212050E+04  0.10100000352E+00 0. -1.
       -3    1    3    3    0  502 -0.17855030542E+03 -0.73567057498E+03 -0.64175820706E+03  0.99244395962E+03  0.10100000352E+00 0.  1.
</event>
<event>
 5   0  0.5281116E-04  0.1581338E+04  0.7818609E-02  0.8832096E-01
       -1   -1    0    0    0  501  0.00000000000E+00  0.00000000000E+00  0.36394371433E+03  0.36394371437E+03  0.50400001928E-02 0. -1.
        1   -1    0    0  501    0  0.00000000000E+00  0.00000000000E+00 -0.17177307912E+04  0.17177307912E+04  0.50400001928E-02 0.  1.
    10030    2    1    2    0    0  0.00000000000E+00  0.00000000000E+00 -0.13537870769E+04  0.20816745056E+04  0.15813378190E+04 0.  0.
        2    1    3    3  502    0 -0.69237987959E+03 -0.18501910034E+03 -0.23725632037E+03  0.75492551071E+03  0.25500000920E-02 0. -1.
       -2    1    3    3    0  502  0.69237987959E+03  0.18501910034E+03 -0.11165307565E+04  0.13267489949E+04  0.25500000920E-02 0.  1.
</event>
<event>
 5   0  0.5281116E-04  0.1615214E+04  0.7818609E-02  0.8811256E-01
       -1   -1    0    0    0  501  0.00000000000E+00  0.00000000000E+00  0.63183408577E+03  0.63183408579E+03  0.50400001928E-02 0.  1.
        1   -1    0    0  501    0  0.00000000000E+00  0.00000000000E+00 -0.10322786952E+04  0.10322786952E+04  0.50400001928E-02 0. -1.
    10030    2    1    2    0    0  0.00000000000E+00  0.00000000000E+00 -0.40044460940E+03  0.16641127810E+04  0.16152137514E+04 0.  0.
        2    1    3    3  502    0  0.58987243925E+03  0.29792802882E+03  0.27807153743E+03  0.71696191313E+03  0.25500000920E-02 0.  1.
       -2    1    3    3    0  502 -0.58987243925E+03 -0.29792802882E+03 -0.67851614683E+03  0.94715086785E+03  0.25500000920E-02 0. -1.
</event>
<event>
 5   0  0.5288658E-04  0.1607242E+04  0.7818609E-02  0.8816111E-01
        1   -1    0    0  501    0  0.00000000000E+00  0.00000000000E+00  0.59320737233E+03  0.59320737235E+03  0.50400001928E-02 0.  1.
       -1   -1    0    0    0  501  0.00000000000E+00  0.00000000000E+00 -0.10886697044E+04  0.10886697044E+04  0.50400001928E-02 0. -1.
    10030    2    1    2    0    0  0.00000000000E+00  0.00000000000E+00 -0.49546233205E+03  0.16818770767E+04  0.16072422278E+04 0.  0.
        1    1    3    3  502    0  0.35491916673E+03 -0.10267808877E+03  0.49905842938E+03  0.62094260668E+03  0.50400001928E-02 0.  1.
       -1    1    3    3    0  502 -0.35491916673E+03  0.10267808877E+03 -0.99452076143E+03  0.10609344701E+04  0.50400001928E-02 0. -1.
</event>
<event>
 5   0  0.5425525E-04  0.1597025E+04  0.7818609E-02  0.8822378E-01
        1   -1    0    0  501    0  0.00000000000E+00  0.00000000000E+00  0.88168621128E+03  0.88168621129E+03  0.50400001928E-02 0. -1.
       -1   -1    0    0    0  501  0.00000000000E+00  0.00000000000E+00 -0.72318507387E+03  0.72318507388E+03  0.50400001928E-02 0.  1.
    10030    2    1    2    0    0  0.00000000000E+00  0.00000000000E+00  0.15850113742E+03  0.16048712852E+04  0.15970251192E+04 0.  0.
        5    1    3    3  502    0 -0.14682177220E+03 -0.65585024810E+03 -0.35403364881E+03  0.75964340004E+03  0.46999998093E+01 0.  1.
       -5    1    3    3    0  502  0.14682177220E+03  0.65585024810E+03  0.51253478623E+03  0.84522788514E+03  0.46999998093E+01 0. -1.
</event>
<event>
 5   0  0.5281116E-04  0.1639023E+04  0.7818609E-02  0.8796927E-01
       -1   -1    0    0    0  501  0.00000000000E+00  0.00000000000E+00  0.79041338784E+03  0.79041338786E+03  0.50400001928E-02 0. -1.
        1   -1    0    0  501    0  0.00000000000E+00  0.00000000000E+00 -0.84968133873E+03  0.84968133874E+03  0.50400001928E-02 0.  1.
    10030    2    1    2    0    0  0.00000000000E+00  0.00000000000E+00 -0.59267950889E+02  0.16400947266E+04  0.16390234965E+04 0.  0.
        2    1    3    3  502    0  0.45141250351E+03 -0.12407109186E+03 -0.70270471085E+03  0.84437005799E+03  0.25500000920E-02 0.  1.
       -2    1    3    3    0  502 -0.45141250351E+03  0.12407109186E+03  0.64343675996E+03  0.79572466861E+03  0.25500000920E-02 0. -1.
</event>
<event>
 5   0  0.1000121E-03  0.1635675E+04  0.7818609E-02  0.8798927E-01
       -2   -1    0    0    0  501  0.00000000000E+00  0.00000000000E+00  0.85262486757E+03  0.85262486757E+03  0.25500000920E-02 0.  1.
        2   -1    0    0  501    0  0.00000000000E+00  0.00000000000E+00 -0.78446899243E+03  0.78446899244E+03  0.25500000920E-02 0. -1.
    10030    2    1    2    0    0  0.00000000000E+00  0.00000000000E+00  0.68155875132E+02  0.16370938600E+04  0.16356745040E+04 0.  0.
        4    1    3    3  502    0  0.54562724814E+03  0.34356083546E+03  0.53761789067E+03  0.83951042330E+03  0.12699999809E+01 0.  1.
       -4    1    3    3    0  502 -0.54562724814E+03 -0.34356083546E+03 -0.46946201554E+03  0.79758343670E+03  0.12699999809E+01 0. -1.
</event>
<event>
 5   0  0.1000121E-03  0.1586869E+04  0.7818609E-02  0.8828656E-01
        2   -1    0    0  501    0  0.00000000000E+00  0.00000000000E+00  0.11374046710E+04  0.11374046710E+04  0.25500000920E-02 0.  1.
       -2   -1    0    0    0  501  0.00000000000E+00  0.00000000000E+00 -0.55348671564E+03  0.55348671565E+03  0.25500000920E-02 0. -1.
    10030    2    1    2    0    0  0.00000000000E+00  0.00000000000E+00  0.58391795535E+03  0.16908913866E+04  0.15868690881E+04 0.  0.
        4    1    3    3  502    0 -0.46956967454E+03 -0.51008442188E+02  0.97127587520E+03  0.10800351749E+04  0.12699999809E+01 0.  1.
       -4    1    3    3    0  502  0.46956967454E+03  0.51008442188E+02 -0.38735791985E+03  0.61085621172E+03  0.12699999809E+01 0. -1.
</event>
<event>
 5   0  0.1030027E-03  0.1567787E+04  0.7818609E-02  0.8840586E-01
        2   -1    0    0  501    0  0.00000000000E+00  0.00000000000E+00  0.55747245350E+03  0.55747245351E+03  0.25500000920E-02 0.  1.
       -2   -1    0    0    0  501  0.00000000000E+00  0.00000000000E+00 -0.11022772727E+04  0.11022772727E+04  0.25500000920E-02 0. -1.
    10030    2    1    2    0    0  0.00000000000E+00  0.00000000000E+00 -0.54480481920E+03  0.16597497262E+04  0.15677872504E+04 0.  0.
        1    1    3    3  502    0 -0.33621613634E+03 -0.18096161383E+03  0.45237280603E+03  0.59197090441E+03  0.50400001928E-02 0.  1.
       -1    1    3    3    0  502  0.33621613634E+03  0.18096161383E+03 -0.99717762522E+03  0.10677788218E+04  0.50400001928E-02 0. -1.
</event>
<event>
 5   0  0.5532881E-04  0.1548544E+04  0.7818609E-02  0.8852798E-01
       -1   -1    0    0    0  501  0.00000000000E+00  0.00000000000E+00  0.33376823161E+03  0.33376823165E+03  0.50400001928E-02 0. -1.
        1   -1    0    0  501    0  0.00000000000E+00  0.00000000000E+00 -0.17961477119E+04  0.17961477119E+04  0.50400001928E-02 0.  1.
    10030    2    1    2    0    0  0.00000000000E+00  0.00000000000E+00 -0.14623794803E+04  0.21299159435E+04  0.15485438909E+04 0.  0.
        4    1    3    3  502    0  0.10801787885E+03  0.36024541363E+03  0.19969470659E+03  0.42582180420E+03  0.12699999809E+01 0. -1.
       -4    1    3    3    0  502 -0.10801787885E+03 -0.36024541363E+03 -0.16620741868E+04  0.17040941393E+04  0.12699999809E+01 0.  1.
</event>
<event>
 5   0  0.5532881E-04  0.1608369E+04  0.7818609E-02  0.8815423E-01
       -1   -1    0    0    0  501  0.00000000000E+00  0.00000000000E+00  0.77511597758E+03  0.77511597760E+03  0.50400001928E-02 0. -1.
        1   -1    0    0  501    0  0.00000000000E+00  0.00000000000E+00 -0.83434278225E+03  0.83434278227E+03  0.50400001928E-02 0.  1.
    10030    2    1    2    0    0  0.00000000000E+00  0.00000000000E+00 -0.59226804675E+02  0.16094587599E+04  0.16083686410E+04 0.  0.
        4    1    3    3  502    0 -0.30683679812E+03  0.41760626607E+03 -0.64498304369E+03  0.82737449422E+03  0.12699999809E+01 0.  1.
       -4    1    3    3    0  502  0.30683679812E+03 -0.41760626607E+03  0.58575623901E+03  0.78208426565E+03  0.12699999809E+01 0. -1.
</event>
<event>
 5   0  0.1037321E-03  0.1581156E+04  0.7818609E-02  0.8832209E-01
       -2   -1    0    0    0  501  0.00000000000E+00  0.00000000000E+00  0.33499827806E+03  0.33499827807E+03  0.25500000920E-02 0.  1.
        2   -1    0    0  501    0  0.00000000000E+00  0.00000000000E+00 -0.18657218211E+04  0.18657218211E+04  0.25500000920E-02 0. -1.
    10030    2    1    2    0    0  0.00000000000E+00  0.00000000000E+00 -0.15307235430E+04  0.22007200992E+04  0.15811560295E+04 0.  0.
        5    1    3    3  502    0  0.29358584637E+03  0.51661667179E+03 -0.39590898479E+02  0.59554593778E+03  0.46999998093E+01 0.  1.
       -5    1    3    3    0  502 -0.29358584637E+03 -0.51661667179E+03 -0.14911326445E+04  0.16051741614E+04  0.46999998093E+01 0. -1.
</event>
<event>
 5   0  0.5425525E-04  0.1677242E+04  0.7818609E-02  0.8774452E-01
        1   -1    0    0  501    0  0.00000000000E+00  0.00000000000E+00  0.92255336655E+03  0.92255336656E+03  0.50400001928E-02 0.  1.
       -1   -1    0    0    0  501  0.00000000000E+00  0.00000000000E+00 -0.76232455352E+03  0.76232455353E+03  0.50400001928E-02 0. -1.
    10030    2    1    2    0    0  0.00000000000E+00  0.00000000000E+00  0.16022881303E+03  0.16848779201E+04  0.16772418827E+04 0.  0.
        5    1    3    3  502    0 -0.27959505934E+03 -0.51280361765E+03 -0.52439104662E+03  0.78495159549E+03  0.46999998093E+01 0. -1.
       -5    1    3    3    0  502  0.27959505934E+03  0.51280361765E+03  0.68461985965E+03  0.89992632460E+03  0.46999998093E+01 0.  1.
</event>
<event>
 5   0  0.5425525E-04  0.1539349E+04  0.7818609E-02  0.8858700E-01
        1   -1    0    0  501    0  0.00000000000E+00  0.00000000000E+00  0.23906442663E+04  0.23906442664E+04  0.50400001928E-02 0. -1.
       -1   -1    0    0    0  501  0.00000000000E+00  0.00000000000E+00 -0.24779869485E+03  0.24779869490E+03  0.50400001928E-02 0.  1.
    10030    2    1    2    0    0  0.00000000000E+00  0.00000000000E+00  0.21428455715E+04  0.26384429612E+04  0.15393486013E+04 0.  0.
        5    1    3    3  502    0 -0.35520459940E+03 -0.35604955803E+03  0.20700167560E+04  0.21302424874E+04  0.46999998093E+01 0. -1.
       -5    1    3    3    0  502  0.35520459940E+03  0.35604955803E+03  0.72828815497E+02  0.50820047380E+03  0.46999998093E+01 0.  1.
</event>
<event>
 5   0  0.1057872E-03  0.1754193E+04  0.7818609E-02  0.8731046E-01
        2   -1    0    0  501    0  0.00000000000E+00  0.00000000000E+00  0.11781145064E+04  0.11781145064E+04  0.25500000920E-02 0. -1.
       -2   -1    0    0    0  501  0.00000000000E+00  0.00000000000E+00 -0.65299122982E+03  0.65299122983E+03  0.25500000920E-02 0.  1.
    10030    2    1    2    0    0  0.00000000000E+00  0.00000000000E+00  0.52512327662E+03  0.18311057363E+04  0.17541931940E+04 0.  0.
        2    1    3    3  502    0  0.20256266848E+03  0.36116404211E+03  0.10696552092E+04  0.11470106218E+04  0.25500000920E-02 0. -1.
       -2    1    3    3    0  502 -0.20256266848E+03 -0.36116404211E+03 -0.54453193260E+03  0.68409511444E+03  0.25500000920E-02 0.  1.
</event>
<event>
 5   0  0.5623061E-04  0.1649097E+04  0.7818609E-02  0.8790941E-01
       -1   -1    0    0    0  501  0.00000000000E+00  0.00000000000E+00  0.45215009761E+03  0.45215009764E+03  0.50400001928E-02 0. -1.
        1   -1    0    0  501    0  0.00000000000E+00  0.00000000000E+00 -0.15036604261E+04  0.15036604261E+04  0.50400001928E-02 0.  1.
    10030    2    1    2    0    0  0.00000000000E+00  0.00000000000E+00 -0.10515103284E+04  0.19558105237E+04  0.16490969753E+04 0.  0.
        3    1    3    3  502    0  0.93031330102E+02  0.77417734797E+03 -0.84371255141E+03  0.11488499789E+04  0.10100000352E+00 0.  1.
       -3    1    3    3    0  502 -0.93031330102E+02 -0.77417734797E+03 -0.20779777704E+03  0.80696054478E+03  0.10100000352E+00 0. -1.
</event>
<event>
 5   0  0.9844690E-04  0.1603037E+04  0.7818609E-02  0.8818685E-01
       -2   -1    0    0    0  501  0.00000000000E+00  0.00000000000E+00  0.67619948483E+03  0.67619948484E+03  0.25500000920E-02 0. -1.
        2   -1    0    0  501    0  0.00000000000E+00  0.00000000000E+00 -0.95006242651E+03  0.95006242651E+03  0.25500000920E-02 0.  1.
    10030    2    1    2    0    0  0.00000000000E+00  0.00000000000E+00 -0.27386294168E+03  0.16262619114E+04  0.16030367723E+04 0.  0.
        3    1    3    3  502    0  0.23560711155E+03 -0.31039905688E+02  0.63963757263E+03  0.68235652065E+03  0.10100000352E+00 0. -1.
       -3    1    3    3    0  502 -0.23560711155E+03  0.31039905688E+02 -0.91350051431E+03  0.94390539070E+03  0.10100000352E+00 0.  1.
</event>
<event>
 5   0  0.3832500E-04  0.1626049E+04  0.7818609E-02  0.8804703E-01
        3   -1    0    0  501    0  0.00000000000E+00  0.00000000000E+00  0.55350693880E+03  0.55350694801E+03  0.10100000352E+00 0. -1.
       -3   -1    0    0    0  501  0.00000000000E+00  0.00000000000E+00 -0.11942201975E+04  0.11942202018E+04  0.10100000352E+00 0.  1.
    10030    2    1    2    0    0  0.00000000000E+00  0.00000000000E+00 -0.64071325868E+03  0.17477271498E+04  0.16260494181E+04 0.  0.
        1    1    3    3  502    0  0.55985699370E+03  0.45710399298E+03  0.79828627771E+02  0.72715646434E+03  0.50400001928E-02 0. -1.
       -1    1    3    3    0  502 -0.55985699370E+03 -0.45710399298E+03 -0.72054188645E+03  0.10205706854E+04  0.50400001928E-02 0.  1.
</event>
<event>
 5   0  0.1000121E-03  0.1574458E+04  0.7818609E-02  0.8836395E-01
       -2   -1    0    0    0  501  0.00000000000E+00  0.00000000000E+00  0.36737650340E+03  0.36737650341E+03  0.25500000920E-02 0.  1.
        2   -1    0    0  501    0  0.00000000000E+00  0.00000000000E+00 -0.16869054059E+04  0.16869054059E+04  0.25500000920E-02 0. -1.
    10030    2    1    2    0    0  0.00000000000E+00  0.00000000000E+00 -0.13195289025E+04  0.20542819093E+04  0.15744578871E+04 0.  0.
        4    1    3    3  502    0 -0.90918418418E+02 -0.83052938907E+02  0.35473094197E+03  0.37549913922E+03  0.12699999809E+01 0.  1.
       -4    1    3    3    0  502  0.90918418418E+02  0.83052938907E+02 -0.16742598444E+04  0.16787827700E+04  0.12699999809E+01 0. -1.
</event>
<event>
 5   0  0.1000121E-03  0.1661818E+04  0.7818609E-02  0.8783446E-01
       -2   -1    0    0    0  501  0.00000000000E+00  0.00000000000E+00  0.11152338821E+04  0.11152338821E+04  0.25500000920E-02 0. -1.
        2   -1    0    0  501    0  0.00000000000E+00  0.00000000000E+00 -0.61907158995E+03  0.61907158996E+03  0.25500000920E-02 0.  1.
    10030    2    1    2    0    0  0.00000000000E+00  0.00000000000E+00  0.49616229211E+03  0.17343054720E+04  0.16618178150E+04 0.  0.
        4    1    3    3  502    0  0.73554178749E+02  0.79894418203E+03  0.22586929726E+02  0.80264176661E+03  0.12699999809E+01 0.  1.
       -4    1    3    3    0  502 -0.73554178749E+02 -0.79894418203E+03  0.47357536239E+03  0.93166370541E+03  0.12699999809E+01 0. -1.
</event>
<event>
 5   0  0.5281116E-04  0.1588974E+04  0.7818609E-02  0.8827350E-01
       -1   -1    0    0    0  501  0.00000000000E+00  0.00000000000E+00  0.86664124106E+03  0.86664124108E+03  0.50400001928E-02 0. -1.
        1   -1    0    0  501    0  0.00000000000E+00  0.00000000000E+00 -0.72834011955E+03  0.72834011956E+03  0.50400001928E-02 0.  1.
    10030    2    1    2    0    0  0.00000000000E+00  0.00000000000E+00  0.13830112152E+03  0.15949813606E+04  0.15889739899E+04 0.  0.
        2    1    3    3  502    0  0.26100147308E+03  0.12112432413E+03 -0.67420084169E+03  0.73303454611E+03  0.25500000920E-02 0.  1.
       -2    1    3    3    0  502 -0.26100147308E+03 -0.12112432413E+03  0.81250196321E+03  0.86194681453E+03  0.25500000920E-02 0. -1.
</event>
<event>
 5   0  0.1030027E-03  0.1593862E+04  0.7818609E-02  0.8824328E-01
       -2   -1    0    0    0  501  0.00000000000E+00  0.00000000000E+00  0.50347954643E+03  0.50347954643E+03  0.25500000920E-02 0. -1.
        2   -1    0    0  501    0  0.00000000000E+00  0.00000000000E+00 -0.12614191458E+04  0.12614191458E+04  0.25500000920E-02 0.  1.
    10030    2    1    2    0    0  0.00000000000E+00  0.00000000000E+00 -0.75793959935E+03  0.17648986922E+04  0.15938616494E+04 0.  0.
        1    1    3    3  502    0  0.41126671283E+03  0.67557252180E+03 -0.48723842062E+03  0.92894554192E+03  0.50400001928E-02 0.  1.
       -1    1    3    3    0  502 -0.41126671283E+03 -0.67557252180E+03 -0.27070117872E+03  0.83595315029E+03  0.50400001928E-02 0. -1.
</event>
<event>
 5   0  0.5288658E-04  0.1384176E+04  0.7818609E-02  0.8965353E-01
        1   -1    0    0  501    0  0.00000000000E+00  0.00000000000E+00  0.73774128715E+03  0.73774128717E+03  0.50400001928E-02 0.  1.
       -1   -1    0    0    0  501  0.00000000000E+00  0.00000000000E+00 -0.64926025246E+03  0.64926025248E+03  0.50400001928E-02 0. -1.
    10030    2    1    2    0    0  0.00000000000E+00  0.00000000000E+00  0.88481034692E+02  0.13870015396E+04  0.13841764257E+04 0.  0.
        1    1    3    3  502    0  0.39182573517E+03  0.41039450634E+03  0.44132578550E+03  0.71883204335E+03  0.50400001928E-02 0.  1.
       -1    1    3    3    0  502 -0.39182573517E+03 -0.41039450634E+03 -0.35284475081E+03  0.66816949629E+03  0.50400001928E-02 0. -1.
</event>
<event>
 5   0  0.5425525E-04  0.1562680E+04  0.7818609E-02  0.8843809E-01
       -1   -1    0    0    0  501  0.00000000000E+00  0.00000000000E+00  0.82786527006E+03  0.82786527008E+03  0.50400001928E-02 0. -1.
        1   -1    0    0  501    0  0.00000000000E+00  0.00000000000E+00 -0.73742922791E+03  0.73742922792E+03  0.50400001928E-02 0.  1.
    10030    2    1    2    0    0  0.00000000000E+00  0.00000000000E+00  0.90436042153E+02  0.15652944980E+04  0.15626798097E+04 0.  0.
        5    1    3    3  502    0 -0.83887460216E+02 -0.64818407778E+02  0.82061364922E+03  0.82744630234E+03  0.46999998093E+01 0. -1.
       -5    1    3    3    0  502  0.83887460216E+02  0.64818407778E+02 -0.73017760707E+03  0.73784819566E+03  0.46999998093E+01 0.  1.
</event>
<event>
 5   0  0.1030027E-03  0.1639016E+04  0.7818609E-02  0.8796931E-01
       -2   -1    0    0    0  501  0.00000000000E+00  0.00000000000E+00  0.68723125510E+03  0.68723125510E+03  0.25500000920E-02 0.  1.
        2   -1    0    0  501    0  0.00000000000E+00  0.00000000000E+00 -0.97724526905E+03  0.97724526905E+03  0.25500000920E-02 0. -1.
    10030    2    1    2    0    0  0.00000000000E+00  0.00000000000E+00 -0.29001401395E+03  0.16644765242E+04  0.16390161595E+04 0.  0.
        1    1    3    3  502    0 -0.26655757805E+03  0.32334451515E+03  0.57019776988E+03  0.70762286191E+03  0.50400001928E-02 0.  1.
       -1    1    3    3    0  502  0.26655757805E+03 -0.32334451515E+03 -0.86021178383E+03  0.95685366225E+03  0.50400001928E-02 0. -1.
</event>
<event>
 5   0  0.5425525E-04  0.1576440E+04  0.7818609E-02  0.8835154E-01
       -1   -1    0    0    0  501  0.00000000000E+00  0.00000000000E+00  0.90085086608E+03  0.90085086609E+03  0.50400001928E-02 0. -1.
        1   -1    0    0  501    0  0.00000000000E+00  0.00000000000E+00 -0.68967136153E+03  0.68967136155E+03  0.50400001928E-02 0.  1.
    10030    2    1    2    0    0  0.00000000000E+00  0.00000000000E+00  0.21117950455E+03  0.15905222276E+04  0.15764403488E+04 0.  0.
        5    1    3    3  502    0 -0.49814921667E+03 -0.33279345266E+03 -0.41120132745E+03  0.72664485541E+03  0.46999998093E+01 0.  1.
       -5    1    3    3    0  502  0.49814921667E+03  0.33279345266E+03  0.62238083200E+03  0.86387737223E+03  0.46999998093E+01 0. -1.
</event>
<event>
 5   0  0.5623061E-04  0.1601852E+04  0.7818609E-02  0.8819411E-01
       -1   -1    0    0    0  501  0.00000000000E+00  0.00000000000E+00  0.54723729279E+03  0.54723729281E+03  0.50400001928E-02 0.  1.
        1   -1    0    0  501    0  0.00000000000E+00  0.00000000000E+00 -0.11722200808E+04  0.11722200808E+04  0.50400001928E-02 0. -1.
    10030    2    1    2    0    0  0.00000000000E+00  0.00000000000E+00 -0.62498278798E+03  0.17194573736E+04  0.16018521075E+04 0.  0.
        3    1    3    3  502    0 -0.11832767463E+03 -0.45317102423E+03 -0.10098970719E+04  0.11132194401E+04  0.10100000352E+00 0. -1.
       -3    1    3    3    0  502  0.11832767463E+03  0.45317102423E+03  0.38491428394E+03  0.60623793347E+03  0.10100000352E+00 0.  1.
</event>
<event>
 5   0  0.5532881E-04  0.1598723E+04  0.7818609E-02  0.8821333E-01
       -1   -1    0    0    0  501  0.00000000000E+00  0.00000000000E+00  0.38835682337E+03  0.38835682340E+03  0.50400001928E-02 0. -1.
        1   -1    0    0  501    0  0.00000000000E+00  0.00000000000E+00 -0.16453404151E+04  0.16453404151E+04  0.50400001928E-02 0.  1.
    10030    2    1    2    0    0  0.00000000000E+00  0.00000000000E+00 -0.12569835917E+04  0.20336972385E+04  0.15987234620E+04 0.  0.
        4    1    3    3  502    0  0.31332184514E+03  0.25063197703E+03 -0.15079650313E+04  0.15604317079E+04  0.12699999809E+01 0.  1.
       -4    1    3    3    0  502 -0.31332184514E+03 -0.25063197703E+03  0.25098143956E+03  0.47326553060E+03  0.12699999809E+01 0. -1.
</event>
<event>
 5   0  0.1037321E-03  0.1634752E+04  0.7818609E-02  0.8799478E-01
        2   -1    0    0  501    0  0.00000000000E+00  0.00000000000E+00  0.11781814768E+04  0.11781814768E+04  0.25500000920E-02 0. -1.
       -2   -1    0    0    0  501  0.00000000000E+00  0.00000000000E+00 -0.56706329720E+03  0.56706329720E+03  0.25500000920E-02 0.  1.
    10030    2    1    2    0    0  0.00000000000E+00  0.00000000000E+00  0.61111817962E+03  0.17452447740E+04  0.16347519359E+04 0.  0.
        5    1    3    3  502    0  0.64452012295E+03  0.47076035241E+03  0.49370916888E+03  0.93850537118E+03  0.46999998093E+01 0. -1.
       -5    1    3    3    0  502 -0.64452012295E+03 -0.47076035241E+03  0.11740901074E+03  0.80673940284E+03  0.46999998093E+01 0.  1.
</event>
<event>
 5   0  0.1030027E-03  0.1598901E+04  0.7818609E-02  0.8821223E-01
       -2   -1    0    0    0  501  0.00000000000E+00  0.00000000000E+00  0.81628234219E+03  0.81628234220E+03  0.25500000920E-02 0.  1.
        2   -1    0    0  501    0  0.00000000000E+00  0.00000000000E+00 -0.78296586234E+03  0.78296586234E+03  0.25500000920E-02 0. -1.
    10030    2    1    2    0    0  0.00000000000E+00  0.00000000000E+00  0.33316479853E+02  0.15992482045E+04  0.15989011326E+04 0.  0.
        1    1    3    3  502    0  0.74744111696E+03 -0.28103703347E+03 -0.21705925761E+02  0.79882487739E+03  0.50400001928E-02 0. -1.
       -1    1    3    3    0  502 -0.74744111696E+03  0.28103703347E+03  0.55022405614E+02  0.80042332715E+03  0.50400001928E-02 0.  1.
</event>
<event>
 5   0  0.5281116E-04  0.1433716E+04  0.7818609E-02  0.8929769E-01
        1   -1    0    0  501    0  0.00000000000E+00  0.00000000000E+00  0.17494613900E+04  0.17494613900E+04  0.50400001928E-02 0.  1.
       -1   -1    0    0    0  501  0.00000000000E+00  0.00000000000E+00 -0.29373912489E+03  0.29373912493E+03  0.50400001928E-02 0. -1.
    10030    2    1    2    0    0  0.00000000000E+00  0.00000000000E+00  0.14557222651E+04  0.20432005149E+04  0.14337158125E+04 0.  0.
        2    1    3    3  502    0  0.24249689379E+02  0.63136182820E+03  0.12104649125E+04  0.13654417271E+04  0.25500000920E-02 0.  1.
       -2    1    3    3    0  502 -0.24249689379E+02 -0.63136182820E+03  0.24525735259E+03  0.67775878788E+03  0.25500000920E-02 0. -1.
</event>
<event>
 5   0  0.5425525E-04  0.1575166E+04  0.7818609E-02  0.8835951E-01
       -1   -1    0    0    0  501  0.00000000000E+00  0.00000000000E+00  0.56259307340E+03  0.56259307343E+03  0.50400001928E-02 0.  1.
        1   -1    0    0  501    0  0.00000000000E+00  0.00000000000E+00 -0.11025505282E+04  0.11025505282E+04  0.50400001928E-02 0. -1.
    10030    2    1    2    0    0  0.00000000000E+00  0.00000000000E+00 -0.53995745482E+03  0.16651436017E+04  0.15751663916E+04 0.  0.
        5    1    3    3  502    0 -0.21429417680E+03  0.21240470254E+03 -0.10390143130E+04  0.10819475886E+04  0.46999998093E+01 0. -1.
       -5    1    3    3    0  502  0.21429417680E+03 -0.21240470254E+03  0.49905685822E+03  0.58319601302E+03  0.46999998093E+01 0.  1.
</event>
<event>
 5   0  0.9844690E-04  0.1543739E+04  0.7818609E-02  0.8855877E-01
        2   -1    0    0  501    0  0.00000000000E+00  0.00000000000E+00  0.91521707253E+03  0.91521707253E+03  0.25500000920E-02 0.  1.
       -2   -1    0    0    0  501  0.00000000000E+00  0.00000000000E+00 -0.65097433876E+03  0.65097433876E+03  0.25500000920E-02 0. -1.
    10030    2    1    2    0    0  0.00000000000E+00  0.00000000000E+00  0.26424273377E+03  0.15661914113E+04  0.15437393933E+04 0.  0.
        3    1    3    3  502    0 -0.70505015573E+03  0.53582380749E+02 -0.18192221766E+03  0.73011129090E+03  0.10100000352E+00 0. -1.
       -3    1    3    3    0  502  0.70505015573E+03 -0.53582380749E+02  0.44616495144E+03  0.83608012039E+03  0.10100000352E+00 0.  1.
</event>
<event>
 5   0  0.1030027E-03  0.1556819E+04  0.7818609E-02  0.8847524E-01
       -2   -1    0    0    0  501  0.00000000000E+00  0.00000000000E+00  0.28331364823E+03  0.28331364824E+03  0.25500000920E-02 0. -1.
        2   -1    0    0  501    0  0.00000000000E+00  0.00000000000E+00 -0.21386938224E+04  0.21386938224E+04  0.25500000920E-02 0.  1.
    10030    2    1    2    0    0  0.00000000000E+00  0.00000000000E+00 -0.18553801741E+04  0.24220074706E+04  0.15568187425E+04 0.  0.
        1    1    3    3  502    0  0.70542268331E+03  0.18339336368E+03 -0.50258003456E+03  0.88534794241E+03  0.50400001928E-02 0. -1.
       -1    1    3    3    0  502 -0.70542268331E+03 -0.18339336368E+03 -0.13528001396E+04  0.15366595282E+04  0.50400001928E-02 0.  1.
</event>
<event>
 5   0  0.5425525E-04  0.1572237E+04  0.7818609E-02  0.8837788E-01
        1   -1    0    0  501    0  0.00000000000E+00  0.00000000000E+00  0.51132852622E+03  0.51132852624E+03  0.50400001928E-02 0.  1.
       -1   -1    0    0    0  501  0.00000000000E+00  0.00000000000E+00 -0.12085818189E+04  0.12085818189E+04  0.50400001928E-02 0. -1.
    10030    2    1    2    0    0  0.00000000000E+00  0.00000000000E+00 -0.69725329265E+03  0.17199103451E+04  0.15722370817E+04 0.  0.
        5    1    3    3  502    0  0.65659842349E+03 -0.43224835860E+03 -0.34822169307E+03  0.85979100412E+03  0.46999998093E+01 0. -1.
       -5    1    3    3    0  502 -0.65659842349E+03  0.43224835860E+03 -0.34903159958E+03  0.86011934099E+03  0.46999998093E+01 0.  1.
</event>
<event>
 5   0  0.5281116E-04  0.1603557E+04  0.7818609E-02  0.8818366E-01
       -1   -1    0    0    0  501  0.00000000000E+00  0.00000000000E+00  0.57924296722E+03  0.57924296725E+03  0.50400001928E-02 0. -1.
        1   -1    0    0  501    0  0.00000000000E+00  0.00000000000E+00 -0.11098088670E+04  0.11098088670E+04  0.50400001928E-02 0.  1.
    10030    2    1    2    0    0  0.00000000000E+00  0.00000000000E+00 -0.53056589973E+03  0.16890518342E+04  0.16035572720E+04 0.  0.
        2    1    3    3  502    0  0.13149713282E+03 -0.61725815573E+03  0.25560247598E+03  0.68090509800E+03  0.25500000920E-02 0. -1.
       -2    1    3    3    0  502 -0.13149713282E+03  0.61725815573E+03 -0.78616837571E+03  0.10081467362E+04  0.25500000920E-02 0.  1.
</event>
<event>
 5   0  0.5425525E-04  0.1678652E+04  0.7818609E-02  0.8773634E-01
       -1   -1    0    0    0  501  0.00000000000E+00  0.00000000000E+00  0.98637840472E+03  0.98637840474E+03  0.50400001928E-02 0.  1.
        1   -1    0    0  501    0  0.00000000000E+00  0.00000000000E+00 -0.71419700394E+03  0.71419700396E+03  0.50400001928E-02 0. -1.
    10030    2    1    2    0    0  0.00000000000E+00  0.00000000000E+00  0.27218140079E+03  0.17005754087E+04  0.16786524374E+04 0.  0.
        5    1    3    3  502    0  0.30163053631E+02  0.40122357840E+02  0.98484311108E+03  0.98613267710E+03  0.46999998093E+01 0.  1.
       -5    1    3    3    0  502 -0.30163053631E+02 -0.40122357840E+02 -0.71266171030E+03  0.71444273159E+03  0.46999998093E+01 0. -1.
</event>
<event>
 5   0  0.5281116E-04  0.1754403E+04  0.7818609E-02  0.8730930E-01
        1   -1    0    0  501    0  0.00000000000E+00  0.00000000000E+00  0.53317387141E+03  0.53317387144E+03  0.50400001928E-02 0. -1.
       -1   -1    0    0    0  501  0.00000000000E+00  0.00000000000E+00 -0.14432114396E+04  0.14432114396E+04  0.50400001928E-02 0.  1.
    10030    2    1    2    0    0  0.00000000000E+00  0.00000000000E+00 -0.91003756814E+03  0.19763853110E+04  0.17544031812E+04 0.  0.
        2    1    3    3  502    0  0.75947936182E+02 -0.86201426044E+02  0.52466208219E+03  0.53709317195E+03  0.25500000920E-02 0. -1.
       -2    1    3    3    0  502 -0.75947936182E+02  0.86201426044E+02 -0.14346996503E+04  0.14392921390E+04  0.25500000920E-02 0.  1.
</event>
<event>
 5   0  0.5425525E-04  0.1512177E+04  0.7818609E-02  0.8876396E-01
        1   -1    0    0  501    0  0.00000000000E+00  0.00000000000E+00  0.17371919208E+04  0.17371919208E+04  0.50400001928E-02 0.  1.
       -1   -1    0    0    0  501  0.00000000000E+00  0.00000000000E+00 -0.32907690857E+03  0.32907690861E+03  0.50400001928E-02 0. -1.
    10030    2    1    2    0    0  0.00000000000E+00  0.00000000000E+00  0.14081150122E+04  0.20662688294E+04  0.15121769036E+04 0.  0.
        5    1    3    3  502    0  0.23036225790E+03 -0.46423928056E+03  0.14562872870E+04  0.15457618290E+04  0.46999998093E+01 0.  1.
       -5    1    3    3    0  502 -0.23036225790E+03  0.46423928056E+03 -0.48172274797E+02  0.52050700047E+03  0.46999998093E+01 0. -1.
</event>
<event>
 5   0  0.3832500E-04  0.1029789E+04  0.7818609E-02  0.9276463E-01
       -4   -1    0    0    0  501  0.00000000000E+00  0.00000000000E+00  0.34735775746E+03  0.34736007912E+03  0.12699999809E+01 0. -1.
        4   -1    0    0  501    0  0.00000000000E+00  0.00000000000E+00 -0.76323150920E+03  0.76323256582E+03  0.12699999809E+01 0.  1.
    10030    2    1    2    0    0  0.00000000000E+00  0.00000000000E+00 -0.41587375173E+03  0.11105926449E+04  0.10297888355E+04 0.  0.
        5    1    3    3  502    0  0.49625698881E+03  0.62051144466E+02 -0.75971946169E+02  0.50588058876E+03  0.46999998093E+01 0. -1.
       -5    1    3    3    0  502 -0.49625698881E+03 -0.62051144466E+02 -0.33990180557E+03  0.60471205619E+03  0.46999998093E+01 0.  1.
</event>
<event>
 5   0  0.9844690E-04  0.1630834E+04  0.7818609E-02  0.8801826E-01
        2   -1    0    0  501    0  0.00000000000E+00  0.00000000000E+00  0.16634595238E+04  0.16634595238E+04  0.25500000920E-02 0. -1.
       -2   -1    0    0    0  501  0.00000000000E+00  0.00000000000E+00 -0.39971215630E+03  0.39971215631E+03  0.25500000920E-02 0.  1.
    10030    2    1    2    0    0  0.00000000000E+00  0.00000000000E+00  0.12637473675E+04  0.20631716801E+04  0.16308341341E+04 0.  0.
        3    1    3    3  502    0 -0.56251139926E+03  0.34837092254E+03  0.28957814059E+02  0.66228388110E+03  0.10100000352E+00 0.  1.
       -3    1    3    3    0  502  0.56251139926E+03 -0.34837092254E+03  0.12347895535E+04  0.14008877990E+04  0.10100000352E+00 0. -1.
</event>
<event>
 5   0  0.1057872E-03  0.1566425E+04  0.7818609E-02  0.8841444E-01
       -2   -1    0    0    0  501  0.00000000000E+00  0.00000000000E+00  0.40591338496E+03  0.40591338497E+03  0.25500000920E-02 0.  1.
        2   -1    0    0  501    0  0.00000000000E+00  0.00000000000E+00 -0.15112131826E+04  0.15112131826E+04  0.25500000920E-02 0. -1.
    10030    2    1    2    0    0  0.00000000000E+00  0.00000000000E+00 -0.11052997976E+04  0.19171265675E+04  0.15664247934E+04 0.  0.
        2    1    3    3  502    0 -0.31214753617E+03  0.71426062177E+03 -0.64599754972E+03  0.10123819212E+04  0.25500000920E-02 0. -1.
       -2    1    3    3    0  502  0.31214753617E+03 -0.71426062177E+03 -0.45930224790E+03  0.90474464634E+03  0.25500000920E-02 0.  1.
</event>
<event>
 5   0  0.1030027E-03  0.1580667E+04  0.7818609E-02  0.8832514E-01
       -2   -1    0    0    0  501  0.00000000000E+00  0.00000000000E+00  0.58673131263E+03  0.58673131264E+03  0.25500000920E-02 0.  1.
        2   -1    0    0  501    0  0.00000000000E+00  0.00000000000E+00 -0.10645874717E+04  0.10645874717E+04  0.25500000920E-02 0. -1.
    10030    2    1    2    0    0  0.00000000000E+00  0.00000000000E+00 -0.47785615908E+03  0.16513187844E+04  0.15806667007E+04 0.  0.
        1    1    3    3  502    0 -0.60439250443E+03 -0.80591091417E+01  0.29301854076E+03  0.67172547511E+03  0.50400001928E-02 0.  1.
       -1    1    3    3    0  502  0.60439250443E+03  0.80591091417E+01 -0.77087469984E+03  0.97959330925E+03  0.50400001928E-02 0. -1.
</event>
<event>
 5   0  0.5281116E-04  0.1261191E+04  0.7818609E-02  0.9060920E-01
       -1   -1    0    0    0  501  0.00000000000E+00  0.00000000000E+00  0.32800187044E+03  0.32800187048E+03  0.50400001928E-02 0. -1.
        1   -1    0    0  501    0  0.00000000000E+00  0.00000000000E+00 -0.12123424592E+04  0.12123424592E+04  0.50400001928E-02 0.  1.
    10030    2    1    2    0    0  0.00000000000E+00  0.00000000000E+00 -0.88434058877E+03  0.15403443297E+04  0.12611908567E+04 0.  0.
        2    1    3    3  502    0  0.30294279491E+03  0.47793406968E+02 -0.11151193627E+04  0.11565248549E+04  0.25500000920E-02 0.  1.
       -2    1    3    3    0  502 -0.30294279491E+03 -0.47793406968E+02  0.23077877398E+03  0.38381947484E+03  0.25500000920E-02 0. -1.
</event>
<event>
 5   0  0.1000121E-03  0.1601294E+04  0.7818609E-02  0.8819754E-01
       -2   -1    0    0    0  501  0.00000000000E+00  0.00000000000E+00  0.41624165642E+03  0.41624165643E+03  0.25500000920E-02 0. -1.
        2   -1    0    0  501    0  0.00000000000E+00  0.00000000000E+00 -0.15400560774E+04  0.15400560774E+04  0.25500000920E-02 0.  1.
    10030    2    1    2    0    0  0.00000000000E+00  0.00000000000E+00 -0.11238144210E+04  0.19562977338E+04  0.16012938427E+04 0.  0.
        4    1    3    3  502    0 -0.30179213225E+03 -0.65431134555E+03 -0.13548020834E+03  0.73318369305E+03  0.12699999809E+01 0. -1.
       -4    1    3    3    0  502  0.30179213225E+03  0.65431134555E+03 -0.98833421262E+03  0.12231140408E+04  0.12699999809E+01 0.  1.
</event>
<event>
 5   0  0.5532881E-04  0.1572427E+04  0.7818609E-02  0.8837668E-01
       -1   -1    0    0    0  501  0.00000000000E+00  0.00000000000E+00  0.53905114473E+03  0.53905114475E+03  0.50400001928E-02 0.  1.
        1   -1    0    0  501    0  0.00000000000E+00  0.00000000000E+00 -0.11467034405E+04  0.11467034405E+04  0.50400001928E-02 0. -1.
    10030    2    1    2    0    0  0.00000000000E+00  0.00000000000E+00 -0.60765229578E+03  0.16857545853E+04  0.15724271713E+04 0.  0.
        4    1    3    3  502    0 -0.13884233515E+03  0.47579568576E+03  0.35046389468E+03  0.60702988641E+03  0.12699999809E+01 0.  1.
       -4    1    3    3    0  502  0.13884233515E+03 -0.47579568576E+03 -0.95811619046E+03  0.10787246989E+04  0.12699999809E+01 0. -1.
</event>
<event>
 5   0  0.5281116E-04  0.1471657E+04  0.7818609E-02  0.8903522E-01
       -1   -1    0    0    0  501  0.00000000000E+00  0.00000000000E+00  0.15076903879E+04  0.15076903879E+04  0.50400001928E-02 0.  1.
        1   -1    0    0  501    0  0.00000000000E+00  0.00000000000E+00 -0.35912124705E+03  0.35912124709E+03  0.50400001928E-02 0. -1.
    10030    2    1    2    0    0  0.00000000000E+00  0.00000000000E+00  0.11485691408E+04  0.18668116350E+04  0.14716570963E+04 0.  0.
        2    1    3    3  502    0 -0.63849769038E+03  0.17006383257E+03  0.16354849083E+03  0.68069752213E+03  0.25500000920E-02 0. -1.
       -2    1    3    3    0  502  0.63849769038E+03 -0.17006383257E+03  0.98502065000E+03  0.11861141129E+04  0.25500000920E-02 0.  1.
</event>
<event>
 5   0  0.9844690E-04  0.1551358E+04  0.7818609E-02  0.8851001E-01
       -2   -1    0    0    0  501  0.00000000000E+00  0.00000000000E+00  0.62815341654E+03  0.62815341654E+03  0.25500000920E-02 0. -1.
        2   -1    0    0  501    0  0.00000000000E+00  0.00000000000E+00 -0.95785211887E+03  0.95785211887E+03  0.25500000920E-02 0.  1.
    10030    2    1    2    0    0  0.00000000000E+00  0.00000000000E+00 -0.32969870233E+03  0.15860055354E+04  0.15513582191E+04 0.  0.
        3    1    3    3  502    0  0.39549399757E+03  0.59060406225E+03  0.15264967406E+03  0.72700109604E+03  0.10100000352E+00 0. -1.
       -3    1    3    3    0  502 -0.39549399757E+03 -0.59060406225E+03 -0.48234837638E+03  0.85900443937E+03  0.10100000352E+00 0.  1.
</event>
<event>
 5   0  0.5425525E-04  0.1517655E+04  0.7818609E-02  0.8872797E-01
       -1   -1    0    0    0  501  0.00000000000E+00  0.00000000000E+00  0.48510407428E+03  0.48510407431E+03  0.50400001928E-02 0. -1.
        1   -1    0    0  501    0  0.00000000000E+00  0.00000000000E+00 -0.11870012531E+04  0.11870012531E+04  0.50400001928E-02 0.  1.
    10030    2    1    2    0    0  0.00000000000E+00  0.00000000000E+00 -0.70189717885E+03  0.16721053274E+04  0.15176549596E+04 0.  0.
        5    1    3    3  502    0  0.33594014693E+03  0.49100124381E+03  0.16800576449E+03  0.61821196255E+03  0.46999998093E+01 0. -1.
       -5    1    3    3    0  502 -0.33594014693E+03 -0.49100124381E+03 -0.86990294334E+03  0.10538933649E+04  0.46999998093E+01 0.  1.
</event>
<event>
 5   0  0.9844690E-04  0.1607130E+04  0.7818609E-02  0.8816180E-01
        2   -1    0    0  501    0  0.00000000000E+00  0.00000000000E+00  0.13152320238E+04  0.13152320238E+04  0.25500000920E-02 0.  1.
       -2   -1    0    0    0  501  0.00000000000E+00  0.00000000000E+00 -0.49095291179E+03  0.49095291180E+03  0.25500000920E-02 0. -1.
    10030    2    1    2    0    0  0.00000000000E+00  0.00000000000E+00  0.82427911206E+03  0.18061849356E+04  0.16071303516E+04 0.  0.
        3    1    3    3  502    0 -0.19139306250E+03 -0.21482173019E+03 -0.43108088525E+03  0.51827639341E+03  0.10100000352E+00 0. -1.
       -3    1    3    3    0  502  0.19139306250E+03  0.21482173019E+03  0.12553599973E+04  0.12879085422E+04  0.10100000352E+00 0.  1.
</event>
<event>
 5   0  0.5532881E-04  0.1604391E+04  0.7818609E-02  0.8817855E-01
        1   -1    0    0  501    0  0.00000000000E+00  0.00000000000E+00  0.13145528148E+04  0.13145528148E+04  0.50400001928E-02 0. -1.
       -1   -1    0    0    0  501  0.00000000000E+00  0.00000000000E+00 -0.48953346502E+03  0.48953346504E+03  0.50400001928E-02 0.  1.
    10030    2    1    2    0    0  0.00000000000E+00  0.00000000000E+00  0.82501934974E+03  0.18040862798E+04  0.16043909678E+04 0.  0.
        4    1    3    3  502    0  0.66028525066E+03 -0.45553363348E+03  0.41851037642E+03  0.90478729629E+03  0.12699999809E+01 0.  1.
       -4    1    3    3    0  502 -0.66028525066E+03  0.45553363348E+03  0.40650897332E+03  0.89929898352E+03  0.12699999809E+01 0. -1.
</event>
<event>
 5   0  0.5425525E-04  0.1611084E+04  0.7818609E-02  0.8813767E-01
       -1   -1    0    0    0  501  0.00000000000E+00  0.00000000000E+00  0.50608548248E+03  0.50608548251E+03  0.50400001928E-02 0. -1.
        1   -1    0    0  501    0  0.00000000000E+00  0.00000000000E+00 -0.12821910550E+04  0.12821910550E+04  0.50400001928E-02 0.  1.
    10030    2    1    2    0    0  0.00000000000E+00  0.00000000000E+00 -0.77610557250E+03  0.17882765375E+04  0.16110844531E+04 0.  0.
        5    1    3    3  502    0  0.13809938810E+03  0.51090357434E+03  0.28601162402E+03  0.60159674395E+03  0.46999998093E+01 0. -1.
       -5    1    3    3    0  502 -0.13809938810E+03 -0.51090357434E+03 -0.10621171965E+04  0.11866797935E+04  0.46999998093E+01 0.  1.
</event>
<event>
 5   0  0.9844690E-04  0.1668842E+04  0.7818609E-02  0.8779337E-01
       -2   -1    0    0    0  501  0.00000000000E+00  0.00000000000E+00  0.55849460625E+03  0.55849460625E+03  0.25500000920E-02 0. -1.
        2   -1    0    0  501    0  0.00000000000E+00  0.00000000000E+00 -0.12466701795E+04  0.12466701795E+04  0.25500000920E-02 0.  1.
    10030    2    1    2    0    0  0.00000000000E+00  0.00000000000E+00 -0.68817557329E+03  0.18051647858E+04  0.16688421987E+04 0.  0.
        3    1    3    3  502    0 -0.18052606722E+03  0.75382626163E+03 -0.99622994084E+01  0.77520510272E+03  0.10100000352E+00 0. -1.
       -3    1    3    3    0  502  0.18052606722E+03 -0.75382626163E+03 -0.67821327388E+03  0.10299596831E+04  0.10100000352E+00 0.  1.
</event>
<event>
 5   0  0.5288658E-04  0.1575622E+04  0.7818609E-02  0.8835666E-01
        1   -1    0    0  501    0  0.00000000000E+00  0.00000000000E+00  0.46905263863E+03  0.46905263865E+03  0.50400001928E-02 0. -1.
       -1   -1    0    0    0  501  0.00000000000E+00  0.00000000000E+00 -0.13231914050E+04  0.13231914050E+04  0.50400001928E-02 0.  1.
    10030    2    1    2    0    0  0.00000000000E+00  0.00000000000E+00 -0.85413876637E+03  0.17922440437E+04  0.15756223151E+04 0.  0.
        1    1    3    3  502    0  0.54642747817E+03 -0.10851230367E+03  0.20654914802E+03  0.59415524866E+03  0.50400001928E-02 0. -1.
       -1    1    3    3    0  502 -0.54642747817E+03  0.10851230367E+03 -0.10606879144E+04  0.11980887950E+04  0.50400001928E-02 0.  1.
</event>
<event>
 5   0  0.1037321E-03  0.1552677E+04  0.7818609E-02  0.8850159E-01
       -2   -1    0    0    0  501  0.00000000000E+00  0.00000000000E+00  0.88456636836E+03  0.88456636837E+03  0.25500000920E-02 0.  1.
        2   -1    0    0  501    0  0.00000000000E+00  0.00000000000E+00 -0.68135272438E+03  0.68135272438E+03  0.25500000920E-02 0. -1.
    10030    2    1    2    0    0  0.00000000000E+00  0.00000000000E+00  0.20321364398E+03  0.15659190927E+04  0.15526773071E+04 0.  0.
        5    1    3    3  502    0 -0.28169694944E+03 -0.71191160483E+03 -0.27973611632E+02  0.76614353575E+03  0.46999998093E+01 0.  1.
       -5    1    3    3    0  502  0.28169694944E+03  0.71191160483E+03  0.23118725562E+03  0.79977555700E+03  0.46999998093E+01 0. -1.
</event>
<event>
 5   0  0.5281116E-04  0.1609485E+04  0.7818609E-02  0.8814742E-01
       -1   -1    0    0    0  501  0.00000000000E+00  0.00000000000E+00  0.49013755369E+03  0.49013755371E+03  0.50400001928E-02 0.  1.
        1   -1    0    0  501    0  0.00000000000E+00  0.00000000000E+00 -0.13212836782E+04  0.13212836782E+04  0.50400001928E-02 0. -1.
    10030    2    1    2    0    0  0.00000000000E+00  0.00000000000E+00 -0.83114612449E+03  0.18114212319E+04  0.16094853212E+04 0.  0.
        2    1    3    3  502    0 -0.60208748965E+03  0.46838349448E+03 -0.70409285796E+03  0.10380940207E+04  0.25500000920E-02 0. -1.
       -2    1    3    3    0  502  0.60208748965E+03 -0.46838349448E+03 -0.12705326653E+03  0.77332721124E+03  0.25500000920E-02 0.  1.
</event>
<event>
 5   0  0.5623061E-04  0.1547718E+04  0.7818609E-02  0.8853327E-01
        1   -1    0    0  501    0  0.00000000000E+00  0.00000000000E+00  0.39302926742E+03  0.39302926745E+03  0.50400001928E-02 0. -1.
       -1   -1    0    0    0  501  0.00000000000E+00  0.00000000000E+00 -0.15236975112E+04  0.15236975112E+04  0.50400001928E-02 0.  1.
    10030    2    1    2    0    0  0.00000000000E+00  0.00000000000E+00 -0.11306682438E+04  0.19167267786E+04  0.15477179544E+04 0.  0.
        3    1    3    3  502    0 -0.28014024669E+03  0.50766528739E+03  0.69355376508E+02  0.58396299565E+03  0.10100000352E+00 0. -1.
       -3    1    3    3    0  502  0.28014024669E+03 -0.50766528739E+03 -0.12000236203E+04  0.13327637830E+04  0.10100000352E+00 0.  1.
</event>
<event>
 5   0  0.5425525E-04  0.1543596E+04  0.7818609E-02  0.8855969E-01
        1   -1    0    0  501    0  0.00000000000E+00  0.00000000000E+00  0.10510978543E+04  0.10510978543E+04  0.50400001928E-02 0.  1.
       -1   -1    0    0    0  501  0.00000000000E+00  0.00000000000E+00 -0.56671427855E+03  0.56671427857E+03  0.50400001928E-02 0. -1.
    10030    2    1    2    0    0  0.00000000000E+00  0.00000000000E+00  0.48438357576E+03  0.16178121329E+04  0.15435960122E+04 0.  0.
        5    1    3    3  502    0  0.44608689515E+03  0.52277734731E+03 -0.12592220260E+03  0.69869032052E+03  0.46999998093E+01 0. -1.
       -5    1    3    3    0  502 -0.44608689515E+03 -0.52277734731E+03  0.61030577836E+03  0.91912181237E+03  0.46999998093E+01 0.  1.
</event>
<event>
 5   0  0.1057872E-03  0.1660785E+04  0.7818609E-02  0.8784051E-01
        2   -1    0    0  501    0  0.00000000000E+00  0.00000000000E+00  0.23826378530E+04  0.23826378530E+04  0.25500000920E-02 0. -1.
       -2   -1    0    0    0  501  0.00000000000E+00  0.00000000000E+00 -0.28940700057E+03  0.28940700058E+03  0.25500000920E-02 0.  1.
    10030    2    1    2    0    0  0.00000000000E+00  0.00000000000E+00  0.20932308524E+04  0.26720448535E+04  0.16607854461E+04 0.  0.
        2    1    3    3  502    0  0.63726434048E+03  0.52619388922E+03  0.91624228791E+03  0.12338905052E+04  0.25500000920E-02 0.  1.
       -2    1    3    3    0  502 -0.63726434048E+03 -0.52619388922E+03  0.11769885645E+04  0.14381543483E+04  0.25500000920E-02 0. -1.
</event>
<event>
 5   0  0.1030027E-03  0.1587640E+04  0.7818609E-02  0.8828177E-01
        2   -1    0    0  501    0  0.00000000000E+00  0.00000000000E+00  0.29944414031E+04  0.29944414031E+04  0.25500000920E-02 0. -1.
       -2   -1    0    0    0  501  0.00000000000E+00  0.00000000000E+00 -0.21044009394E+03  0.21044009396E+03  0.25500000920E-02 0.  1.
    10030    2    1    2    0    0  0.00000000000E+00  0.00000000000E+00  0.27840013092E+04  0.32048814971E+04  0.15876404255E+04 0.  0.
        1    1    3    3  502    0  0.13896242055E+03 -0.39399845630E+03  0.29445285013E+02  0.41882259099E+03  0.50400001928E-02 0.  1.
       -1    1    3    3    0  502 -0.13896242055E+03  0.39399845630E+03  0.27545560242E+04  0.27860589061E+04  0.50400001928E-02 0. -1.
</event>
<event>
 5   0  0.5288658E-04  0.1632981E+04  0.7818609E-02  0.8800539E-01
        1   -1    0    0  501    0  0.00000000000E+00  0.00000000000E+00  0.10629572660E+04  0.10629572660E+04  0.50400001928E-02 0. -1.
       -1   -1    0    0    0  501  0.00000000000E+00  0.00000000000E+00 -0.62717134198E+03  0.62717134200E+03  0.50400001928E-02 0.  1.
    10030    2    1    2    0    0  0.00000000000E+00  0.00000000000E+00  0.43578592398E+03  0.16901286080E+04  0.16329805081E+04 0.  0.
        1    1    3    3  502    0  0.50630378014E+03 -0.50900238248E+03  0.62038459326E+03  0.94884349960E+03  0.50400001928E-02 0. -1.
       -1    1    3    3    0  502 -0.50630378014E+03  0.50900238248E+03 -0.18459866928E+03  0.74128510836E+03  0.50400001928E-02 0.  1.
</event>
<event>
 5   0  0.5623061E-04  0.1706047E+04  0.7818609E-02  0.8757923E-01
       -1   -1    0    0    0  501  0.00000000000E+00  0.00000000000E+00  0.11807845084E+04  0.11807845084E+04  0.50400001928E-02 0. -1.
        1   -1    0    0  501    0  0.00000000000E+00  0.00000000000E+00 -0.61624194821E+03  0.61624194823E+03  0.50400001928E-02 0.  1.
    10030    2    1    2    0    0  0.00000000000E+00  0.00000000000E+00  0.56454256016E+03  0.17970264566E+04  0.17060468292E+04 0.  0.
        3    1    3    3  502    0 -0.41102537446E+03 -0.74233468516E+03  0.37437750340E+03  0.92744874171E+03  0.10100000352E+00 0. -1.
       -3    1    3    3    0  502  0.41102537446E+03  0.74233468516E+03  0.19016505676E+03  0.86957771491E+03  0.10100000352E+00 0.  1.
</event>
<event>
 5   0  0.5623061E-04  0.1570642E+04  0.7818609E-02  0.8838790E-01
        1   -1    0    0  501    0  0.00000000000E+00  0.00000000000E+00  0.13552458058E+04  0.13552458058E+04  0.50400001928E-02 0. -1.
       -1   -1    0    0    0  501  0.00000000000E+00  0.00000000000E+00 -0.45506802936E+03  0.45506802939E+03  0.50400001928E-02 0.  1.
    10030    2    1    2    0    0  0.00000000000E+00  0.00000000000E+00  0.90017777644E+03  0.18103138352E+04  0.15706419556E+04 0.  0.
        3    1    3    3  502    0 -0.57296656698E+03  0.21578668921E+03 -0.11676570473E+03  0.62328871490E+03  0.10100000352E+00 0.  1.
       -3    1    3    3    0  502  0.57296656698E+03 -0.21578668921E+03  0.10169434812E+04  0.11870251203E+04  0.10100000352E+00 0. -1.
</event>
<event>
 5   0  0.5281116E-04  0.1584530E+04  0.7818609E-02  0.8830109E-01
       -1   -1    0    0    0  501  0.00000000000E+00  0.00000000000E+00  0.75267919566E+03  0.75267919568E+03  0.50400001928E-02 0.  1.
        1   -1    0    0  501    0  0.00000000000E+00  0.00000000000E+00 -0.83393237970E+03  0.83393237971E+03  0.50400001928E-02 0. -1.
    10030    2    1    2    0    0  0.00000000000E+00  0.00000000000E+00 -0.81253184037E+02  0.15866115754E+04  0.15845296498E+04 0.  0.
        2    1    3    3  502    0  0.65592000038E+03  0.22480224860E+03  0.34317384812E+03  0.77365068856E+03  0.25500000920E-02 0.  1.
       -2    1    3    3    0  502 -0.65592000038E+03 -0.22480224860E+03 -0.42442703215E+03  0.81296088682E+03  0.25500000920E-02 0. -1.
</event>
<event>
 5   0  0.1030027E-03  0.1711459E+04  0.7818609E-02  0.8754856E-01
       -2   -1    0    0    0  501  0.00000000000E+00  0.00000000000E+00  0.66829810761E+03  0.66829810762E+03  0.25500000920E-02 0. -1.
        2   -1    0    0  501    0  0.00000000000E+00  0.00000000000E+00 -0.10957279648E+04  0.10957279648E+04  0.25500000920E-02 0.  1.
    10030    2    1    2    0    0  0.00000000000E+00  0.00000000000E+00 -0.42742985718E+03  0.17640260724E+04  0.17114589394E+04 0.  0.
        1    1    3    3  502    0  0.64149970064E+03  0.35271928786E+03  0.24299777265E+03  0.77134990729E+03  0.50400001928E-02 0. -1.
       -1    1    3    3    0  502 -0.64149970064E+03 -0.35271928786E+03 -0.67042762982E+03  0.99267616512E+03  0.50400001928E-02 0.  1.
</event>
<event>
 5   0  0.9844690E-04  0.1600993E+04  0.7818609E-02  0.8819938E-01
       -2   -1    0    0    0  501  0.00000000000E+00  0.00000000000E+00  0.43446246653E+03  0.43446246653E+03  0.25500000920E-02 0.  1.
        2   -1    0    0  501    0  0.00000000000E+00  0.00000000000E+00 -0.14749143704E+04  0.14749143704E+04  0.25500000920E-02 0. -1.
    10030    2    1    2    0    0  0.00000000000E+00  0.00000000000E+00 -0.10404519039E+04  0.19093768370E+04  0.16009933608E+04 0.  0.
        3    1    3    3  502    0  0.64227839357E+03  0.46991033033E+03 -0.41723389090E+03  0.89856629323E+03  0.10100000352E+00 0. -1.
       -3    1    3    3    0  502 -0.64227839357E+03 -0.46991033033E+03 -0.62321801300E+03  0.10108105437E+04  0.10100000352E+00 0.  1.
</event>
<event>
 5   0  0.5623061E-04  0.1597033E+04  0.7818609E-02  0.8822373E-01
        1   -1    0    0  501    0  0.00000000000E+00  0.00000000000E+00  0.57773190975E+03  0.57773190977E+03  0.50400001928E-02 0. -1.
       -1   -1    0    0    0  501  0.00000000000E+00  0.00000000000E+00 -0.11036749301E+04  0.11036749301E+04  0.50400001928E-02 0.  1.
    10030    2    1    2    0    0  0.00000000000E+00  0.00000000000E+00 -0.52594302036E+03  0.16814068399E+04  0.15970325296E+04 0.  0.
        3    1    3    3  502    0 -0.48679235968E+02  0.34107599092E+03 -0.10213947701E+04  0.10779377469E+04  0.10100000352E+00 0.  1.
       -3    1    3    3    0  502  0.48679235968E+02 -0.34107599092E+03  0.49545174978E+03  0.60346909296E+03  0.10100000352E+00 0. -1.
</event>
<event>
 5   0  0.1000121E-03  0.1626858E+04  0.7818609E-02  0.8804216E-01
        2   -1    0    0  501    0  0.00000000000E+00  0.00000000000E+00  0.14746943596E+04  0.14746943596E+04  0.25500000920E-02 0.  1.
       -2   -1    0    0    0  501  0.00000000000E+00  0.00000000000E+00 -0.44868040793E+03  0.44868040794E+03  0.25500000920E-02 0. -1.
    10030    2    1    2    0    0  0.00000000000E+00  0.00000000000E+00  0.10260139516E+04  0.19233747675E+04  0.16268576666E+04 0.  0.
        4    1    3    3  502    0  0.21904543550E+03 -0.15371863116E+03  0.14211629240E+04  0.14461383024E+04  0.12699999809E+01 0.  1.
       -4    1    3    3    0  502 -0.21904543550E+03  0.15371863116E+03 -0.39514897233E+03  0.47723646509E+03  0.12699999809E+01 0. -1.
</event>
<event>
 5   0  0.5623061E-04  0.1643501E+04  0.7818609E-02  0.8794261E-01
        1   -1    0    0  501    0  0.00000000000E+00  0.00000000000E+00  0.80352733478E+03  0.80352733479E+03  0.50400001928E-02 0.  1.
       -1   -1    0    0    0  501  0.00000000000E+00  0.00000000000E+00 -0.84038683655E+03  0.84038683657E+03  0.50400001928E-02 0. -1.
    10030    2    1    2    0    0  0.00000000000E+00  0.00000000000E+00 -0.36859501773E+02  0.16439141714E+04  0.16435008914E+04 0.  0.
        3    1    3    3  502    0 -0.75808490359E+03 -0.31692074391E+03 -0.64975513679E+01  0.82168954438E+03  0.10100000352E+00 0.  1.
       -3    1    3    3    0  502  0.75808490359E+03  0.31692074391E+03 -0.30361950405E+02  0.82222462698E+03  0.10100000352E+00 0. -1.
</event>
<event>
 5   0  0.5623061E-04  0.1711273E+04  0.7818609E-02  0.8754961E-01
        1   -1    0    0  501    0  0.00000000000E+00  0.00000000000E+00  0.18259178190E+04  0.18259178190E+04  0.50400001928E-02 0. -1.
       -1   -1    0    0    0  501  0.00000000000E+00  0.00000000000E+00 -0.40095650517E+03  0.40095650521E+03  0.50400001928E-02 0.  1.
    10030    2    1    2    0    0  0.00000000000E+00  0.00000000000E+00  0.14249613138E+04  0.22268743242E+04  0.17112727748E+04 0.  0.
        3    1    3    3  502    0  0.82738559082E+03 -0.18719664770E+03  0.85799405138E+03  0.12065501661E+04  0.10100000352E+00 0. -1.
       -3    1    3    3    0  502 -0.82738559082E+03  0.18719664770E+03  0.56696726242E+03  0.10203241581E+04  0.10100000352E+00 0.  1.
</event>
<event>
 5   0  0.9844690E-04  0.1598748E+04  0.7818609E-02  0.8821317E-01
        2   -1    0    0  501    0  0.00000000000E+00  0.00000000000E+00  0.37545748881E+03  0.37545748882E+03  0.25500000920E-02 0. -1.
       -2   -1    0    0    0  501  0.00000000000E+00  0.00000000000E+00 -0.17019210756E+04  0.17019210756E+04  0.25500000920E-02 0.  1.
    10030    2    1    2    0    0  0.00000000000E+00  0.00000000000E+00 -0.13264635868E+04  0.20773785645E+04  0.15987482769E+04 0.  0.
        3    1    3    3  502    0  0.35664338608E+03 -0.18630630748E+03  0.23427499576E+03  0.46560640984E+03  0.10100000352E+00 0. -1.
       -3    1    3    3    0  502 -0.35664338608E+03  0.18630630748E+03 -0.15607385826E+04  0.16117721546E+04  0.10100000352E+00 0.  1.
</event>
<event>
 5   0  0.5532881E-04  0.1697455E+04  0.7818609E-02  0.8762817E-01
       -1   -1    0    0    0  501  0.00000000000E+00  0.00000000000E+00  0.69436713112E+03  0.69436713113E+03  0.50400001928E-02 0.  1.
        1   -1    0    0  501    0  0.00000000000E+00  0.00000000000E+00 -0.10374022236E+04  0.10374022236E+04  0.50400001928E-02 0. -1.
    10030    2    1    2    0    0  0.00000000000E+00  0.00000000000E+00 -0.34303509250E+03  0.17317693548E+04  0.16974545718E+04 0.  0.
        4    1    3    3  502    0 -0.39005679972E+02  0.44355071921E+03  0.56563855653E+03  0.71986614945E+03  0.12699999809E+01 0.  1.
       -4    1    3    3    0  502  0.39005679972E+02 -0.44355071921E+03 -0.90867364903E+03  0.10119032053E+04  0.12699999809E+01 0. -1.
</event>
<event>
 5   0  0.5623061E-04  0.1580159E+04  0.7818609E-02  0.8832831E-01
        1   -1    0    0  501    0  0.00000000000E+00  0.00000000000E+00  0.17367483710E+04  0.17367483711E+04  0.50400001928E-02 0. -1.
       -1   -1    0    0    0  501  0.00000000000E+00  0.00000000000E+00 -0.35942206947E+03  0.35942206950E+03  0.50400001928E-02 0.  1.
    10030    2    1    2    0    0  0.00000000000E+00  0.00000000000E+00  0.13773263016E+04  0.20961704406E+04  0.15801590980E+04 0.  0.
        3    1    3    3  502    0 -0.30042342044E+03 -0.70045737062E+03  0.96480024534E+03  0.12295260401E+04  0.10100000352E+00 0. -1.
       -3    1    3    3    0  502  0.30042342044E+03  0.70045737062E+03  0.41252605624E+03  0.86664440048E+03  0.10100000352E+00 0.  1.
</event>
<event>
 5   0  0.1057872E-03  0.1615954E+04  0.7818609E-02  0.8810807E-01
        2   -1    0    0  501    0  0.00000000000E+00  0.00000000000E+00  0.37769375131E+03  0.37769375131E+03  0.25500000920E-02 0. -1.
       -2   -1    0    0    0  501  0.00000000000E+00  0.00000000000E+00 -0.17284547002E+04  0.17284547002E+04  0.25500000920E-02 0.  1.
    10030    2    1    2    0    0  0.00000000000E+00  0.00000000000E+00 -0.13507609489E+04  0.21061484515E+04  0.16159536376E+04 0.  0.
        2    1    3    3  502    0  0.25259198169E+02 -0.30476466220E+03  0.29935150566E+03  0.42793790480E+03  0.25500000920E-02 0. -1.
       -2    1    3    3    0  502 -0.25259198169E+02  0.30476466220E+03 -0.16501124546E+04  0.16782105467E+04  0.25500000920E-02 0.  1.
</event>
<event>
 5   0  0.5532881E-04  0.1639170E+04  0.7818609E-02  0.8796839E-01
        1   -1    0    0  501    0  0.00000000000E+00  0.00000000000E+00  0.10301829538E+04  0.10301829538E+04  0.50400001928E-02 0.  1.
       -1   -1    0    0    0  501  0.00000000000E+00  0.00000000000E+00 -0.65203920722E+03  0.65203920724E+03  0.50400001928E-02 0. -1.
    10030    2    1    2    0    0  0.00000000000E+00  0.00000000000E+00  0.37814374658E+03  0.16822221611E+04  0.16391701273E+04 0.  0.
        4    1    3    3  502    0 -0.80611424962E+03  0.16834988147E+02  0.33995182897E+03  0.87502711911E+03  0.12699999809E+01 0. -1.
       -4    1    3    3    0  502  0.80611424962E+03 -0.16834988147E+02  0.38191917608E+02  0.80719504194E+03  0.12699999809E+01 0.  1.
</event>
<event>
 5   0  0.1030027E-03  0.1610528E+04  0.7818609E-02  0.8814106E-01
        2   -1    0    0  501    0  0.00000000000E+00  0.00000000000E+00  0.10827486704E+04  0.10827486704E+04  0.25500000920E-02 0. -1.
       -2   -1    0    0    0  501  0.00000000000E+00  0.00000000000E+00 -0.59889249321E+03  0.59889249321E+03  0.25500000920E-02 0.  1.
    10030    2    1    2    0    0  0.00000000000E+00  0.00000000000E+00  0.48385617724E+03  0.16816411637E+04  0.16105279268E+04 0.  0.
        1    1    3    3  502    0  0.71033272700E+03  0.29288968465E+03  0.49359571144E+03  0.91323254256E+03  0.50400001928E-02 0. -1.
       -1    1    3    3    0  502 -0.71033272700E+03 -0.29288968465E+03 -0.97395342027E+01  0.76840862110E+03  0.50400001928E-02 0.  1.
</event>
<event>
 5   0  0.3832500E-04  0.1632410E+04  0.7818609E-02  0.8800881E-01
        4   -1    0    0  501    0  0.00000000000E+00  0.00000000000E+00  0.68322899233E+03  0.68323017268E+03  0.12699999809E+01 0.  1.
       -4   -1    0    0    0  501  0.00000000000E+00  0.00000000000E+00 -0.97505961823E+03  0.97506044531E+03  0.12699999809E+01 0. -1.
    10030    2    1    2    0    0  0.00000000000E+00  0.00000000000E+00 -0.29183062591E+03  0.16582906180E+04  0.16324100770E+04 0.  0.
        5    1    3    3  502    0 -0.69139071903E+03  0.40924138622E+03 -0.29196157307E+03  0.85484693876E+03  0.46999998093E+01 0. -1.
       -5    1    3    3    0  502  0.69139071903E+03 -0.40924138622E+03  0.13094716156E+00  0.80344367923E+03  0.46999998093E+01 0.  1.
</event>
<event>
 5   0  0.5532881E-04  0.1583231E+04  0.7818609E-02  0.8830917E-01
       -1   -1    0    0    0  501  0.00000000000E+00  0.00000000000E+00  0.65589280151E+03  0.65589280153E+03  0.50400001928E-02 0.  1.
        1   -1    0    0  501    0  0.00000000000E+00  0.00000000000E+00 -0.95542250160E+03  0.95542250161E+03  0.50400001928E-02 0. -1.
    10030    2    1    2    0    0  0.00000000000E+00  0.00000000000E+00 -0.29952970009E+03  0.16113153031E+04  0.15832305470E+04 0.  0.
        4    1    3    3  502    0  0.33868589253E+03 -0.45604157533E+01 -0.87794561047E+03  0.94102021181E+03  0.12699999809E+01 0. -1.
       -4    1    3    3    0  502 -0.33868589253E+03  0.45604157533E+01  0.57841591038E+03  0.67029509134E+03  0.12699999809E+01 0.  1.
</event>
<event>
 5   0  0.9844690E-04  0.1625477E+04  0.7818609E-02  0.8805048E-01
       -2   -1    0    0    0  501  0.00000000000E+00  0.00000000000E+00  0.15655187136E+04  0.15655187136E+04  0.25500000920E-02 0. -1.
        2   -1    0    0  501    0  0.00000000000E+00  0.00000000000E+00 -0.42193265239E+03  0.42193265240E+03  0.25500000920E-02 0.  1.
    10030    2    1    2    0    0  0.00000000000E+00  0.00000000000E+00  0.11435860612E+04  0.19874513660E+04  0.16254765002E+04 0.  0.
        3    1    3    3  502    0 -0.34958068839E+03 -0.73371436485E+03  0.57199067354E+03  0.99383940740E+03  0.10100000352E+00 0.  1.
       -3    1    3    3    0  502  0.34958068839E+03  0.73371436485E+03  0.57159538767E+03  0.99361195861E+03  0.10100000352E+00 0. -1.
</event>
<event>
 5   0  0.5623061E-04  0.1595213E+04  0.7818609E-02  0.8823494E-01
        1   -1    0    0  501    0  0.00000000000E+00  0.00000000000E+00  0.97430740578E+03  0.97430740579E+03  0.50400001928E-02 0. -1.
       -1   -1    0    0    0  501  0.00000000000E+00  0.00000000000E+00 -0.65295195054E+03  0.65295195056E+03  0.50400001928E-02 0.  1.
    10030    2    1    2    0    0  0.00000000000E+00  0.00000000000E+00  0.32135545524E+03  0.16272593563E+04  0.15952127395E+04 0.  0.
        3    1    3    3  502    0 -0.45857029835E+03 -0.36027779462E+03  0.71574980407E+03  0.92324677094E+03  0.10100000352E+00 0. -1.
       -3    1    3    3    0  502  0.45857029835E+03  0.36027779462E+03 -0.39439434882E+03  0.70401258541E+03  0.10100000352E+00 0.  1.
</event>
<event>
 5   0  0.1057872E-03  0.1616544E+04  0.7818609E-02  0.8810448E-01
        2   -1    0    0  501    0  0.00000000000E+00  0.00000000000E+00  0.13617971219E+04  0.13617971219E+04  0.25500000920E-02 0.  1.
       -2   -1    0    0    0  501  0.00000000000E+00  0.00000000000E+00 -0.47973646588E+03  0.47973646589E+03  0.25500000920E-02 0. -1.
    10030    2    1    2    0    0  0.00000000000E+00  0.00000000000E+00  0.88206065606E+03  0.18415335878E+04  0.16165441392E+04 0.  0.
        2    1    3    3  502    0 -0.71280317897E+03  0.16504743834E+03  0.83230932419E+03  0.11081822233E+04  0.25500000920E-02 0. -1.
       -2    1    3    3    0  502  0.71280317897E+03 -0.16504743834E+03  0.49751331863E+02  0.73335136455E+03  0.25500000920E-02 0.  1.
</event>
<event>
 5   0  0.9844690E-04  0.1598466E+04  0.7818609E-02  0.8821491E-01
        2   -1    0    0  501    0  0.00000000000E+00  0.00000000000E+00  0.11500814070E+04  0.11500814070E+04  0.25500000920E-02 0.  1.
       -2   -1    0    0    0  501  0.00000000000E+00  0.00000000000E+00 -0.55541550080E+03  0.55541550080E+03  0.25500000920E-02 0. -1.
    10030    2    1    2    0    0  0.00000000000E+00  0.00000000000E+00  0.59466590618E+03  0.17054969078E+04  0.15984655650E+04 0.  0.
        3    1    3    3  502    0  0.76770422067E+03 -0.65640979034E+02  0.52390667802E+03  0.93174928282E+03  0.10100000352E+00 0. -1.
       -3    1    3    3    0  502 -0.76770422067E+03  0.65640979034E+02  0.70759228158E+02  0.77374762496E+03  0.10100000352E+00 0.  1.
</event>
<event>
 5   0  0.1057872E-03  0.1313016E+04  0.7818609E-02  0.9019306E-01
        2   -1    0    0  501    0  0.00000000000E+00  0.00000000000E+00  0.12328290956E+04  0.12328290956E+04  0.25500000920E-02 0. -1.
       -2   -1    0    0    0  501  0.00000000000E+00  0.00000000000E+00 -0.34960481359E+03  0.34960481359E+03  0.25500000920E-02 0.  1.
    10030    2    1    2    0    0  0.00000000000E+00  0.00000000000E+00  0.88322428200E+03  0.15824339092E+04  0.13130163535E+04 0.  0.
        2    1    3    3  502    0  0.53576750798E+03  0.84730052841E+02 -0.41076860029E+01  0.54244158906E+03  0.25500000920E-02 0.  1.
       -2    1    3    3    0  502 -0.53576750798E+03 -0.84730052841E+02  0.88733196800E+03  0.10399923201E+04  0.25500000920E-02 0. -1.
</event>
<event>
 5   0  0.1057872E-03  0.1546888E+04  0.7818609E-02  0.8853858E-01
        2   -1    0    0  501    0  0.00000000000E+00  0.00000000000E+00  0.14623408571E+04  0.14623408571E+04  0.25500000920E-02 0.  1.
       -2   -1    0    0    0  501  0.00000000000E+00  0.00000000000E+00 -0.40908061120E+03  0.40908061120E+03  0.25500000920E-02 0. -1.
    10030    2    1    2    0    0  0.00000000000E+00  0.00000000000E+00  0.10532602459E+04  0.18714214683E+04  0.15468875739E+04 0.  0.
        2    1    3    3  502    0  0.48026644536E+03  0.45396593581E+03  0.10127738042E+04  0.12093186958E+04  0.25500000920E-02 0.  1.
       -2    1    3    3    0  502 -0.48026644536E+03 -0.45396593581E+03  0.40486441678E+02  0.66210277253E+03  0.25500000920E-02 0. -1.
</event>
<event>
 5   0  0.5425525E-04  0.1220055E+04  0.7818609E-02  0.9095481E-01
        1   -1    0    0  501    0  0.00000000000E+00  0.00000000000E+00  0.85158383335E+03  0.85158383336E+03  0.50400001928E-02 0. -1.
       -1   -1    0    0    0  501  0.00000000000E+00  0.00000000000E+00 -0.43699001407E+03  0.43699001410E+03  0.50400001928E-02 0.  1.
    10030    2    1    2    0    0  0.00000000000E+00  0.00000000000E+00  0.41459381927E+03  0.12885738475E+04  0.12200551321E+04 0.  0.
        5    1    3    3  502    0 -0.27518913122E+03 -0.69931141818E-01  0.78228138577E+03  0.82928602987E+03  0.46999998093E+01 0. -1.
       -5    1    3    3    0  502  0.27518913122E+03  0.69931141818E-01 -0.36768756649E+03  0.45928781759E+03  0.46999998093E+01 0.  1.
</event>
<event>
 5   0  0.5532881E-04  0.1546815E+04  0.7818609E-02  0.8853905E-01
       -1   -1    0    0    0  501  0.00000000000E+00  0.00000000000E+00  0.31891549479E+03  0.31891549483E+03  0.50400001928E-02 0.  1.
        1   -1    0    0  501    0  0.00000000000E+00  0.00000000000E+00 -0.18756036943E+04  0.18756036943E+04  0.50400001928E-02 0. -1.
    10030    2    1    2    0    0  0.00000000000E+00  0.00000000000E+00 -0.15566881995E+04  0.21945191891E+04  0.15468148955E+04 0.  0.
        4    1    3    3  502    0 -0.72903777813E+03  0.20801085656E+03 -0.99533562927E+03  0.12511831306E+04  0.12699999809E+01 0. -1.
       -4    1    3    3    0  502  0.72903777813E+03 -0.20801085656E+03 -0.56135257022E+03  0.94333605856E+03  0.12699999809E+01 0.  1.
</event>
<event>
 5   0  0.1057872E-03  0.1587452E+04  0.7818609E-02  0.8828294E-01
        2   -1    0    0  501    0  0.00000000000E+00  0.00000000000E+00  0.22861931131E+04  0.22861931131E+04  0.25500000920E-02 0.  1.
       -2   -1    0    0    0  501  0.00000000000E+00  0.00000000000E+00 -0.27556780672E+03  0.27556780673E+03  0.25500000920E-02 0. -1.
    10030    2    1    2    0    0  0.00000000000E+00  0.00000000000E+00  0.20106253064E+04  0.25617609199E+04  0.15874523261E+04 0.  0.
        2    1    3    3  502    0 -0.45199961810E+03  0.63838887740E+03  0.12227641711E+04  0.14515495967E+04  0.25500000920E-02 0.  1.
       -2    1    3    3    0  502  0.45199961810E+03 -0.63838887740E+03  0.78786113531E+03  0.11102113232E+04  0.25500000920E-02 0. -1.
</event>
<event>
 5   0  0.1057872E-03  0.1514151E+04  0.7818609E-02  0.8875097E-01
        2   -1    0    0  501    0  0.00000000000E+00  0.00000000000E+00  0.75635781538E+03  0.75635781538E+03  0.25500000920E-02 0. -1.
       -2   -1    0    0    0  501  0.00000000000E+00  0.00000000000E+00 -0.75779391045E+03  0.75779391045E+03  0.25500000920E-02 0.  1.
    10030    2    1    2    0    0  0.00000000000E+00  0.00000000000E+00 -0.14360950666E+01  0.15141517258E+04  0.15141510448E+04 0.  0.
        2    1    3    3  502    0  0.23135868082E+03  0.12768839501E+03  0.70874134805E+03  0.75640297716E+03  0.25500000920E-02 0. -1.
       -2    1    3    3    0  502 -0.23135868082E+03 -0.12768839501E+03 -0.71017744311E+03  0.75774874868E+03  0.25500000920E-02 0.  1.
</event>
<event>
 5   0  0.3832500E-04  0.1593574E+04  0.7818609E-02  0.8824506E-01
        3   -1    0    0  501    0  0.00000000000E+00  0.00000000000E+00  0.61566442622E+03  0.61566443450E+03  0.10100000352E+00 0.  1.
       -3   -1    0    0    0  501  0.00000000000E+00  0.00000000000E+00 -0.10311940548E+04  0.10311940597E+04  0.10100000352E+00 0. -1.
    10030    2    1    2    0    0  0.00000000000E+00  0.00000000000E+00 -0.41552962858E+03  0.16468584942E+04  0.15935739794E+04 0.  0.
        4    1    3    3  502    0 -0.73595195498E+03  0.19759976340E+02  0.10714054638E+03  0.74397341773E+03  0.12699999809E+01 0.  1.
       -4    1    3    3    0  502  0.73595195498E+03 -0.19759976340E+02 -0.52267017496E+03  0.90288507652E+03  0.12699999809E+01 0. -1.
</event>
<event>
 5   0  0.9844690E-04  0.1618142E+04  0.7818609E-02  0.8809480E-01
        2   -1    0    0  501    0  0.00000000000E+00  0.00000000000E+00  0.41046672881E+03  0.41046672882E+03  0.25500000920E-02 0.  1.
       -2   -1    0    0    0  501  0.00000000000E+00  0.00000000000E+00 -0.15947594304E+04  0.15947594304E+04  0.25500000920E-02 0. -1.
    10030    2    1    2    0    0  0.00000000000E+00  0.00000000000E+00 -0.11842927016E+04  0.20052261593E+04  0.16181417573E+04 0.  0.
        3    1    3    3  502    0  0.24211341990E+02 -0.73411047616E+03 -0.10125515099E+04  0.12509056522E+04  0.10100000352E+00 0. -1.
       -3    1    3    3    0  502 -0.24211341990E+02  0.73411047616E+03 -0.17174119177E+03  0.75432050710E+03  0.10100000352E+00 0.  1.
</event>
<event>
 5   0  0.3832500E-04  0.1584775E+04  0.7818609E-02  0.8829956E-01
        4   -1    0    0  501    0  0.00000000000E+00  0.00000000000E+00  0.16502910522E+04  0.16502915409E+04  0.12699999809E+01 0.  1.
       -4   -1    0    0    0  501  0.00000000000E+00  0.00000000000E+00 -0.38046322016E+03  0.38046533980E+03  0.12699999809E+01 0. -1.
    10030    2    1    2    0    0  0.00000000000E+00  0.00000000000E+00  0.12698278320E+04  0.20307568807E+04  0.15847746797E+04 0.  0.
        4    1    3    3  502    0 -0.38308713750E+03  0.37712281096E+03  0.13808908002E+04  0.14818361530E+04  0.12699999809E+01 0. -1.
       -4    1    3    3    0  502  0.38308713750E+03 -0.37712281096E+03 -0.11106296813E+03  0.54892072766E+03  0.12699999809E+01 0.  1.
</event>
<event>
 5   0  0.5288658E-04  0.1461799E+04  0.7818609E-02  0.8910261E-01
       -1   -1    0    0    0  501  0.00000000000E+00  0.00000000000E+00  0.23977902916E+03  0.23977902921E+03  0.50400001928E-02 0.  1.
        1   -1    0    0  501    0  0.00000000000E+00  0.00000000000E+00 -0.22279436636E+04  0.22279436636E+04  0.50400001928E-02 0. -1.
    10030    2    1    2    0    0  0.00000000000E+00  0.00000000000E+00 -0.19881646344E+04  0.24677226928E+04  0.14617991226E+04 0.  0.
        1    1    3    3  502    0 -0.15477641713E+03 -0.70103374900E+03 -0.12256107599E+04  0.14203963501E+04  0.50400001928E-02 0. -1.
       -1    1    3    3    0  502  0.15477641713E+03  0.70103374900E+03 -0.76255387451E+03  0.10473263427E+04  0.50400001928E-02 0.  1.
</event>
<event>
 5   0  0.1057872E-03  0.1602736E+04  0.7818609E-02  0.8818869E-01
       -2   -1    0    0    0  501  0.00000000000E+00  0.00000000000E+00  0.88367037766E+03  0.88367037767E+03  0.25500000920E-02 0. -1.
        2   -1    0    0  501    0  0.00000000000E+00  0.00000000000E+00 -0.72673145519E+03  0.72673145519E+03  0.25500000920E-02 0.  1.
    10030    2    1    2    0    0  0.00000000000E+00  0.00000000000E+00  0.15693892247E+03  0.16104018329E+04  0.16027364842E+04 0.  0.
        2    1    3    3  502    0  0.38718978012E+02 -0.42750623912E+03 -0.60147247981E+03  0.73893835177E+03  0.25500000920E-02 0.  1.
       -2    1    3    3    0  502 -0.38718978012E+02  0.42750623912E+03  0.75841140228E+03  0.87146348109E+03  0.25500000920E-02 0. -1.
</event>
<event>
 5   0  0.1037321E-03  0.1601997E+04  0.7818609E-02  0.8819322E-01
       -2   -1    0    0    0  501  0.00000000000E+00  0.00000000000E+00  0.87967884839E+03  0.87967884839E+03  0.25500000920E-02 0.  1.
        2   -1    0    0  501    0  0.00000000000E+00  0.00000000000E+00 -0.72935567134E+03  0.72935567134E+03  0.25500000920E-02 0. -1.
    10030    2    1    2    0    0  0.00000000000E+00  0.00000000000E+00  0.15032317705E+03  0.16090345197E+04  0.16019971998E+04 0.  0.
        5    1    3    3  502    0 -0.28335765797E+03  0.39415889641E+03  0.71508191226E+03  0.86430146893E+03  0.46999998093E+01 0.  1.
       -5    1    3    3    0  502  0.28335765797E+03 -0.39415889641E+03 -0.56475873522E+03  0.74473305080E+03  0.46999998093E+01 0. -1.
</event>
<event>
 5   0  0.3832500E-04  0.1604667E+04  0.7818609E-02  0.8817686E-01
        4   -1    0    0  501    0  0.00000000000E+00  0.00000000000E+00  0.90844506923E+03  0.90844595696E+03  0.12699999809E+01 0. -1.
       -4   -1    0    0    0  501  0.00000000000E+00  0.00000000000E+00 -0.70861480696E+03  0.70861594503E+03  0.12699999809E+01 0.  1.
    10030    2    1    2    0    0  0.00000000000E+00  0.00000000000E+00  0.19983026227E+03  0.16170619020E+04  0.16046672743E+04 0.  0.
        4    1    3    3  502    0 -0.25457814079E+03  0.61526402894E+03  0.55100850596E+03  0.86427532744E+03  0.12699999809E+01 0. -1.
       -4    1    3    3    0  502  0.25457814079E+03 -0.61526402894E+03 -0.35117824369E+03  0.75278657455E+03  0.12699999809E+01 0.  1.
</event>
<event>
 5   0  0.5425525E-04  0.1544616E+04  0.7818609E-02  0.8855314E-01
       -1   -1    0    0    0  501  0.00000000000E+00  0.00000000000E+00  0.26324149321E+03  0.26324149326E+03  0.50400001928E-02 0. -1.
        1   -1    0    0  501    0  0.00000000000E+00  0.00000000000E+00 -0.22658271546E+04  0.22658271546E+04  0.50400001928E-02 0.  1.
    10030    2    1    2    0    0  0.00000000000E+00  0.00000000000E+00 -0.20025856614E+04  0.25290686478E+04  0.15446160993E+04 0.  0.
        5    1    3    3  502    0  0.11050010598E+03 -0.24966431061E+03  0.18156259713E+03  0.32791707502E+03  0.46999998093E+01 0. -1.
       -5    1    3    3    0  502 -0.11050010598E+03  0.24966431061E+03 -0.21841482585E+04  0.22011515728E+04  0.46999998093E+01 0.  1.
</event>
<event>
 5   0  0.1000121E-03  0.1623217E+04  0.7818609E-02  0.8806411E-01
       -2   -1    0    0    0  501  0.00000000000E+00  0.00000000000E+00  0.42698446875E+03  0.42698446876E+03  0.25500000920E-02 0.  1.
        2   -1    0    0  501    0  0.00000000000E+00  0.00000000000E+00 -0.15426980406E+04  0.15426980406E+04  0.25500000920E-02 0. -1.
    10030    2    1    2    0    0  0.00000000000E+00  0.00000000000E+00 -0.11157135719E+04  0.19696825094E+04  0.16232166871E+04 0.  0.
        4    1    3    3  502    0 -0.78262770679E+03  0.13408350045E+03 -0.76170807097E+03  0.11003114608E+04  0.12699999809E+01 0. -1.
       -4    1    3    3    0  502  0.78262770679E+03 -0.13408350045E+03 -0.35400550093E+03  0.86937104859E+03  0.12699999809E+01 0.  1.
</event>
<event>
 5   0  0.5623061E-04  0.1517616E+04  0.7818609E-02  0.8872822E-01
        1   -1    0    0  501    0  0.00000000000E+00  0.00000000000E+00  0.11181386795E+04  0.11181386795E+04  0.50400001928E-02 0. -1.
       -1   -1    0    0    0  501  0.00000000000E+00  0.00000000000E+00 -0.51495348891E+03  0.51495348894E+03  0.50400001928E-02 0.  1.
    10030    2    1    2    0    0  0.00000000000E+00  0.00000000000E+00  0.60318519059E+03  0.16330921685E+04  0.15176157803E+04 0.  0.
        3    1    3    3  502    0  0.67728656888E+03 -0.19055795407E+03 -0.42140698724E+01  0.70359590592E+03  0.10100000352E+00 0.  1.
       -3    1    3    3    0  502 -0.67728656888E+03  0.19055795407E+03  0.60739926046E+03  0.92949626253E+03  0.10100000352E+00 0. -1.
</event>
<event>
 5   0  0.5281116E-04  0.1651027E+04  0.7818609E-02  0.8789799E-01
       -1   -1    0    0    0  501  0.00000000000E+00  0.00000000000E+00  0.56657527248E+03  0.56657527250E+03  0.50400001928E-02 0. -1.
        1   -1    0    0  501    0  0.00000000000E+00  0.00000000000E+00 -0.12027928694E+04  0.12027928694E+04  0.50400001928E-02 0.  1.
    10030    2    1    2    0    0  0.00000000000E+00  0.00000000000E+00 -0.63621759694E+03  0.17693681419E+04  0.16510271927E+04 0.  0.
        2    1    3    3  502    0 -0.60958793525E+03 -0.55083280129E+03 -0.23198387151E+03  0.85371584408E+03  0.25500000920E-02 0.  1.
       -2    1    3    3    0  502  0.60958793525E+03  0.55083280129E+03 -0.40423372544E+03  0.91565229786E+03  0.25500000920E-02 0. -1.
</event>
<event>
 5   0  0.1057872E-03  0.1585128E+04  0.7818609E-02  0.8829737E-01
       -2   -1    0    0    0  501  0.00000000000E+00  0.00000000000E+00  0.55695117662E+03  0.55695117663E+03  0.25500000920E-02 0. -1.
        2   -1    0    0  501    0  0.00000000000E+00  0.00000000000E+00 -0.11278510293E+04  0.11278510293E+04  0.25500000920E-02 0.  1.
    10030    2    1    2    0    0  0.00000000000E+00  0.00000000000E+00 -0.57089985268E+03  0.16848022059E+04  0.15851283328E+04 0.  0.
        2    1    3    3  502    0  0.73444745821E+03 -0.27869352070E+03 -0.17359563638E+03  0.80449896975E+03  0.25500000920E-02 0. -1.
       -2    1    3    3    0  502 -0.73444745821E+03  0.27869352070E+03 -0.39730421629E+03  0.88030323618E+03  0.25500000920E-02 0.  1.
</event>
<event>
 5   0  0.9844690E-04  0.1573023E+04  0.7818609E-02  0.8837295E-01
        2   -1    0    0  501    0  0.00000000000E+00  0.00000000000E+00  0.14357647184E+04  0.14357647184E+04  0.25500000920E-02 0. -1.
       -2   -1    0    0    0  501  0.00000000000E+00  0.00000000000E+00 -0.43085059564E+03  0.43085059565E+03  0.25500000920E-02 0.  1.
    10030    2    1    2    0    0  0.00000000000E+00  0.00000000000E+00  0.10049141227E+04  0.18666153140E+04  0.15730226751E+04 0.  0.
        3    1    3    3  502    0 -0.29961303330E+03 -0.41843250350E+03  0.12082313316E+04  0.13132694661E+04  0.10100000352E+00 0. -1.
       -3    1    3    3    0  502  0.29961303330E+03  0.41843250350E+03 -0.20331720893E+03  0.55334584788E+03  0.10100000352E+00 0.  1.
</event>
<event>
 5   0  0.5532881E-04  0.1602589E+04  0.7818609E-02  0.8818959E-01
       -1   -1    0    0    0  501  0.00000000000E+00  0.00000000000E+00  0.11411708580E+04  0.11411708580E+04  0.50400001928E-02 0.  1.
        1   -1    0    0  501    0  0.00000000000E+00  0.00000000000E+00 -0.56264409260E+03  0.56264409262E+03  0.50400001928E-02 0. -1.
    10030    2    1    2    0    0  0.00000000000E+00  0.00000000000E+00  0.57852676540E+03  0.17038149506E+04  0.16025892074E+04 0.  0.
        4    1    3    3  502    0  0.13117074049E+03 -0.75016177556E+03  0.55425146275E+03  0.94188361783E+03  0.12699999809E+01 0.  1.
       -4    1    3    3    0  502 -0.13117074049E+03  0.75016177556E+03  0.24275302642E+02  0.76193133279E+03  0.12699999809E+01 0. -1.
</event>
<event>
 5   0  0.9844690E-04  0.1990972E+04  0.7818609E-02  0.8610853E-01
       -2   -1    0    0    0  501  0.00000000000E+00  0.00000000000E+00  0.64292993518E+03  0.64292993519E+03  0.25500000920E-02 0.  1.
        2   -1    0    0  501    0  0.00000000000E+00  0.00000000000E+00 -0.15413691349E+04  0.15413691349E+04  0.25500000920E-02 0. -1.
    10030    2    1    2    0    0  0.00000000000E+00  0.00000000000E+00 -0.89843919973E+03  0.21842990701E+04  0.19909719817E+04 0.  0.
        3    1    3    3  502    0  0.19532241926E+03 -0.46236898752E+03  0.49394121585E+03  0.70421151865E+03  0.10100000352E+00 0.  1.
       -3    1    3    3    0  502 -0.19532241926E+03  0.46236898752E+03 -0.13923804156E+04  0.14800875515E+04  0.10100000352E+00 0. -1.
</event>
<event>
 5   0  0.5623061E-04  0.1619805E+04  0.7818609E-02  0.8808473E-01
        1   -1    0    0  501    0  0.00000000000E+00  0.00000000000E+00  0.95763954872E+03  0.95763954874E+03  0.50400001928E-02 0.  1.
       -1   -1    0    0    0  501  0.00000000000E+00  0.00000000000E+00 -0.68495679193E+03  0.68495679195E+03  0.50400001928E-02 0. -1.
    10030    2    1    2    0    0  0.00000000000E+00  0.00000000000E+00  0.27268275679E+03  0.16425963407E+04  0.16198045723E+04 0.  0.
        3    1    3    3  502    0 -0.73282809873E+03  0.34238045320E+03  0.17790969234E+03  0.82819880817E+03  0.10100000352E+00 0.  1.
       -3    1    3    3    0  502  0.73282809873E+03 -0.34238045320E+03  0.94773064452E+02  0.81439753252E+03  0.10100000352E+00 0. -1.
</event>
<event>
 5   0  0.1057872E-03  0.1586343E+04  0.7818609E-02  0.8828982E-01
       -2   -1    0    0    0  501  0.00000000000E+00  0.00000000000E+00  0.70003581095E+03  0.70003581096E+03  0.25500000920E-02 0. -1.
        2   -1    0    0  501    0  0.00000000000E+00  0.00000000000E+00 -0.89869784200E+03  0.89869784201E+03  0.25500000920E-02 0.  1.
    10030    2    1    2    0    0  0.00000000000E+00  0.00000000000E+00 -0.19866203105E+03  0.15987336530E+04  0.15863425514E+04 0.  0.
        2    1    3    3  502    0 -0.40026190483E+03  0.26354380201E+03 -0.73629294924E+03  0.87851706594E+03  0.25500000920E-02 0.  1.
       -2    1    3    3    0  502  0.40026190483E+03 -0.26354380201E+03  0.53763091819E+03  0.72021658703E+03  0.25500000920E-02 0. -1.
</event>
<event>
 5   0  0.9844690E-04  0.1572549E+04  0.7818609E-02  0.8837592E-01
        2   -1    0    0  501    0  0.00000000000E+00  0.00000000000E+00  0.20607367963E+04  0.20607367963E+04  0.25500000920E-02 0.  1.
       -2   -1    0    0    0  501  0.00000000000E+00  0.00000000000E+00 -0.30000335034E+03  0.30000335035E+03  0.25500000920E-02 0. -1.
    10030    2    1    2    0    0  0.00000000000E+00  0.00000000000E+00  0.17607334459E+04  0.23607401466E+04  0.15725494499E+04 0.  0.
        3    1    3    3  502    0 -0.21796277862E+03  0.17794931350E+03 -0.22183247962E+03  0.35830627996E+03  0.10100000352E+00 0. -1.
       -3    1    3    3    0  502  0.21796277862E+03 -0.17794931350E+03  0.19825659256E+04  0.20024338667E+04  0.10100000352E+00 0.  1.
</event>
<event>
 5   0  0.1030027E-03  0.1594500E+04  0.7818609E-02  0.8823934E-01
       -2   -1    0    0    0  501  0.00000000000E+00  0.00000000000E+00  0.58675421763E+03  0.58675421764E+03  0.25500000920E-02 0. -1.
        2   -1    0    0  501    0  0.00000000000E+00  0.00000000000E+00 -0.10832606435E+04  0.10832606436E+04  0.25500000920E-02 0.  1.
    10030    2    1    2    0    0  0.00000000000E+00  0.00000000000E+00 -0.49650642592E+03  0.16700148612E+04  0.15945002369E+04 0.  0.
        1    1    3    3  502    0 -0.15178401063E+02  0.64742905658E+03  0.23875539026E+03  0.69021656280E+03  0.50400001928E-02 0. -1.
       -1    1    3    3    0  502  0.15178401063E+02 -0.64742905658E+03 -0.73526181617E+03  0.97979829838E+03  0.50400001928E-02 0.  1.
</event>
<event>
 5   0  0.5288658E-04  0.1581599E+04  0.7818609E-02  0.8831933E-01
       -1   -1    0    0    0  501  0.00000000000E+00  0.00000000000E+00  0.36188535376E+03  0.36188535379E+03  0.50400001928E-02 0. -1.
        1   -1    0    0  501    0  0.00000000000E+00  0.00000000000E+00 -0.17280712711E+04  0.17280712711E+04  0.50400001928E-02 0.  1.
    10030    2    1    2    0    0  0.00000000000E+00  0.00000000000E+00 -0.13661859174E+04  0.20899566249E+04  0.15815987902E+04 0.  0.
        1    1    3    3  502    0 -0.70309721056E+03  0.33415866112E+03 -0.49924932848E+03  0.92480137884E+03  0.50400001928E-02 0. -1.
       -1    1    3    3    0  502  0.70309721056E+03 -0.33415866112E+03 -0.86693658889E+03  0.11651552461E+04  0.50400001928E-02 0.  1.
</event>
<event>
 5   0  0.9844690E-04  0.1599413E+04  0.7818609E-02  0.8820909E-01
       -2   -1    0    0    0  501  0.00000000000E+00  0.00000000000E+00  0.74652043339E+03  0.74652043340E+03  0.25500000920E-02 0.  1.
        2   -1    0    0  501    0  0.00000000000E+00  0.00000000000E+00 -0.85668199059E+03  0.85668199060E+03  0.25500000920E-02 0. -1.
    10030    2    1    2    0    0  0.00000000000E+00  0.00000000000E+00 -0.11016155720E+03  0.16032024240E+04  0.15994131560E+04 0.  0.
        3    1    3    3  502    0  0.59173020390E+03  0.47239438341E+03  0.20287988037E+03  0.78387584715E+03  0.10100000352E+00 0. -1.
       -3    1    3    3    0  502 -0.59173020390E+03 -0.47239438341E+03 -0.31304143756E+03  0.81932657684E+03  0.10100000352E+00 0.  1.
</event>
<event>
 5   0  0.5532881E-04  0.1519246E+04  0.7818609E-02  0.8871754E-01
        1   -1    0    0  501    0  0.00000000000E+00  0.00000000000E+00  0.11863088235E+04  0.11863088235E+04  0.50400001928E-02 0. -1.
       -1   -1    0    0    0  501  0.00000000000E+00  0.00000000000E+00 -0.48640562874E+03  0.48640562876E+03  0.50400001928E-02 0.  1.
    10030    2    1    2    0    0  0.00000000000E+00  0.00000000000E+00  0.69990319478E+03  0.16727144523E+04  0.15192462463E+04 0.  0.
        4    1    3    3  502    0 -0.29056937653E+03  0.76092473526E+02  0.11181460636E+04  0.11577879165E+04  0.12699999809E+01 0. -1.
       -4    1    3    3    0  502  0.29056937653E+03 -0.76092473526E+02 -0.41824286880E+03  0.51492653583E+03  0.12699999809E+01 0.  1.
</event>
<event>
 5   0  0.1037321E-03  0.1625175E+04  0.7818609E-02  0.8805230E-01
       -2   -1    0    0    0  501  0.00000000000E+00  0.00000000000E+00  0.24018742878E+03  0.24018742879E+03  0.25500000920E-02 0. -1.
        2   -1    0    0  501    0  0.00000000000E+00  0.00000000000E+00 -0.27490965635E+04  0.27490965635E+04  0.25500000920E-02 0.  1.
    10030    2    1    2    0    0  0.00000000000E+00  0.00000000000E+00 -0.25089091348E+04  0.29892839923E+04  0.16251749876E+04 0.  0.
        5    1    3    3  502    0  0.30402436122E+03 -0.74369152498E+03 -0.14779838807E+04  0.16822503792E+04  0.46999998093E+01 0.  1.
       -5    1    3    3    0  502 -0.30402436122E+03  0.74369152498E+03 -0.10309252541E+04  0.13070336132E+04  0.46999998093E+01 0. -1.
</event>
<event>
 5   0  0.5532881E-04  0.1542923E+04  0.7818609E-02  0.8856401E-01
       -1   -1    0    0    0  501  0.00000000000E+00  0.00000000000E+00  0.60693748291E+03  0.60693748293E+03  0.50400001928E-02 0.  1.
        1   -1    0    0  501    0  0.00000000000E+00  0.00000000000E+00 -0.98058312268E+03  0.98058312270E+03  0.50400001928E-02 0. -1.
    10030    2    1    2    0    0  0.00000000000E+00  0.00000000000E+00 -0.37364563977E+03  0.15875206056E+04  0.15429227489E+04 0.  0.
        4    1    3    3  502    0 -0.57277410699E+03  0.25630313267E+03  0.27491311130E+03  0.68508415915E+03  0.12699999809E+01 0.  1.
       -4    1    3    3    0  502  0.57277410699E+03 -0.25630313267E+03 -0.64855875107E+03  0.90243644648E+03  0.12699999809E+01 0. -1.
</event>
<event>
 5   0  0.5623061E-04  0.1627404E+04  0.7818609E-02  0.8803887E-01
       -1   -1    0    0    0  501  0.00000000000E+00  0.00000000000E+00  0.75530489160E+03  0.75530489161E+03  0.50400001928E-02 0. -1.
        1   -1    0    0  501    0  0.00000000000E+00  0.00000000000E+00 -0.87661452918E+03  0.87661452919E+03  0.50400001928E-02 0.  1.
    10030    2    1    2    0    0  0.00000000000E+00  0.00000000000E+00 -0.12130963758E+03  0.16319194208E+04  0.16274043652E+04 0.  0.
        3    1    3    3  502    0 -0.27049005706E+03  0.17091557458E+02 -0.83002149614E+03  0.87315101017E+03  0.10100000352E+00 0.  1.
       -3    1    3    3    0  502  0.27049005706E+03 -0.17091557458E+02  0.70871185856E+03  0.75876841063E+03  0.10100000352E+00 0. -1.
</event>
<event>
 5   0  0.1030027E-03  0.1752496E+04  0.7818609E-02  0.8731978E-01
        2   -1    0    0  501    0  0.00000000000E+00  0.00000000000E+00  0.16077653226E+04  0.16077653226E+04  0.25500000920E-02 0. -1.
       -2   -1    0    0    0  501  0.00000000000E+00  0.00000000000E+00 -0.47756360115E+03  0.47756360116E+03  0.25500000920E-02 0.  1.
    10030    2    1    2    0    0  0.00000000000E+00  0.00000000000E+00  0.11302017215E+04  0.20853289238E+04  0.17524955889E+04 0.  0.
        1    1    3    3  502    0  0.53224010497E+03 -0.67600285158E+03  0.76260892826E+03  0.11497094251E+04  0.50400001928E-02 0. -1.
       -1    1    3    3    0  502 -0.53224010497E+03  0.67600285158E+03  0.36759279322E+03  0.93561949869E+03  0.50400001928E-02 0.  1.
</event>
<event>
 5   0  0.1000121E-03  0.1597942E+04  0.7818609E-02  0.8821813E-01
       -2   -1    0    0    0  501  0.00000000000E+00  0.00000000000E+00  0.61738246449E+03  0.61738246449E+03  0.25500000920E-02 0.  1.
        2   -1    0    0  501    0  0.00000000000E+00  0.00000000000E+00 -0.10339698207E+04  0.10339698207E+04  0.25500000920E-02 0. -1.
    10030    2    1    2    0    0  0.00000000000E+00  0.00000000000E+00 -0.41658735624E+03  0.16513522852E+04  0.15979422219E+04 0.  0.
        4    1    3    3  502    0  0.38217881361E+03  0.69961612159E+03 -0.15331919686E+03  0.81180770641E+03  0.12699999809E+01 0. -1.
       -4    1    3    3    0  502 -0.38217881361E+03 -0.69961612159E+03 -0.26326815938E+03  0.83954457881E+03  0.12699999809E+01 0.  1.
</event>
<event>
 5   0  0.9844690E-04  0.1600477E+04  0.7818609E-02  0.8820255E-01
        2   -1    0    0  501    0  0.00000000000E+00  0.00000000000E+00  0.11932612496E+04  0.11932612496E+04  0.25500000920E-02 0.  1.
       -2   -1    0    0    0  501  0.00000000000E+00  0.00000000000E+00 -0.53666503457E+03  0.53666503457E+03  0.25500000920E-02 0. -1.
    10030    2    1    2    0    0  0.00000000000E+00  0.00000000000E+00  0.65659621502E+03  0.17299262842E+04  0.16004769161E+04 0.  0.
        3    1    3    3  502    0  0.28931877132E+03 -0.20560426666E+03  0.11035270476E+04  0.11592024935E+04  0.10100000352E+00 0.  1.
       -3    1    3    3    0  502 -0.28931877132E+03  0.20560426666E+03 -0.44693083259E+03  0.57072379067E+03  0.10100000352E+00 0. -1.
</event>
<event>
 5   0  0.5281116E-04  0.1550278E+04  0.7818609E-02  0.8851690E-01
        1   -1    0    0  501    0  0.00000000000E+00  0.00000000000E+00  0.12369279476E+04  0.12369279476E+04  0.50400001928E-02 0.  1.
       -1   -1    0    0    0  501  0.00000000000E+00  0.00000000000E+00 -0.48575247961E+03  0.48575247963E+03  0.50400001928E-02 0. -1.
    10030    2    1    2    0    0  0.00000000000E+00  0.00000000000E+00  0.75117546800E+03  0.17226804273E+04  0.15502784494E+04 0.  0.
        2    1    3    3  502    0 -0.25710076036E+03 -0.63372225192E+03  0.78104301765E+03  0.10381391472E+04  0.25500000920E-02 0.  1.
       -2    1    3    3    0  502  0.25710076036E+03  0.63372225192E+03 -0.29867549644E+02  0.68454128004E+03  0.25500000920E-02 0. -1.
</event>
<event>
 5   0  0.5281116E-04  0.1575074E+04  0.7818609E-02  0.8836009E-01
        1   -1    0    0  501    0  0.00000000000E+00  0.00000000000E+00  0.86813092186E+03  0.86813092188E+03  0.50400001928E-02 0.  1.
       -1   -1    0    0    0  501  0.00000000000E+00  0.00000000000E+00 -0.71442536831E+03  0.71442536833E+03  0.50400001928E-02 0. -1.
    10030    2    1    2    0    0  0.00000000000E+00  0.00000000000E+00  0.15370555355E+03  0.15825562902E+04  0.15750742886E+04 0.  0.
        2    1    3    3  502    0 -0.19413946050E+03  0.62362846231E+03  0.51895677690E+03  0.83421743294E+03  0.25500000920E-02 0.  1.
       -2    1    3    3    0  502  0.19413946050E+03 -0.62362846231E+03 -0.36525122335E+03  0.74833885727E+03  0.25500000920E-02 0. -1.
</event>
<event>
 5   0  0.1037321E-03  0.1635272E+04  0.7818609E-02  0.8799167E-01
        2   -1    0    0  501    0  0.00000000000E+00  0.00000000000E+00  0.10221907110E+04  0.10221907110E+04  0.25500000920E-02 0. -1.
       -2   -1    0    0    0  501  0.00000000000E+00  0.00000000000E+00 -0.65401555054E+03  0.65401555054E+03  0.25500000920E-02 0.  1.
    10030    2    1    2    0    0  0.00000000000E+00  0.00000000000E+00  0.36817516045E+03  0.16762062615E+04  0.16352719903E+04 0.  0.
        5    1    3    3  502    0 -0.22295644798E+03  0.17365545800E+03  0.97052218829E+03  0.10108418292E+04  0.46999998093E+01 0. -1.
       -5    1    3    3    0  502  0.22295644798E+03 -0.17365545800E+03 -0.60234702785E+03  0.66536443228E+03  0.46999998093E+01 0.  1.
</event>
<event>
 5   0  0.5288658E-04  0.1548735E+04  0.7818609E-02  0.8852676E-01
        1   -1    0    0  501    0  0.00000000000E+00  0.00000000000E+00  0.15040805010E+04  0.15040805011E+04  0.50400001928E-02 0. -1.
       -1   -1    0    0    0  501  0.00000000000E+00  0.00000000000E+00 -0.39867897325E+03  0.39867897328E+03  0.50400001928E-02 0.  1.
    10030    2    1    2    0    0  0.00000000000E+00  0.00000000000E+00  0.11054015278E+04  0.19027594743E+04  0.15487353162E+04 0.  0.
        1    1    3    3  502    0 -0.22071513946E+03  0.24132401914E+03 -0.30967155098E+03  0.45038752704E+03  0.50400001928E-02 0.  1.
       -1    1    3    3    0  502  0.22071513946E+03 -0.24132401914E+03  0.14150730788E+04  0.14523719473E+04  0.50400001928E-02 0. -1.
</event>
<event>
 5   0  0.9844690E-04  0.1502835E+04  0.7818609E-02  0.8882570E-01
        2   -1    0    0  501    0  0.00000000000E+00  0.00000000000E+00  0.15784808138E+04  0.15784808138E+04  0.25500000920E-02 0.  1.
       -2   -1    0    0    0  501  0.00000000000E+00  0.00000000000E+00 -0.35770378974E+03  0.35770378975E+03  0.25500000920E-02 0. -1.
    10030    2    1    2    0    0  0.00000000000E+00  0.00000000000E+00  0.12207770240E+04  0.19361846035E+04  0.15028354123E+04 0.  0.
        3    1    3    3  502    0 -0.51396171191E+02 -0.10543710985E+02  0.15761180493E+04  0.15769910754E+04  0.10100000352E+00 0.  1.
       -3    1    3    3    0  502  0.51396171191E+02  0.10543710985E+02 -0.35534102525E+03  0.35919352818E+03  0.10100000352E+00 0. -1.
</event>
<event>
 5   0  0.5281116E-04  0.1399665E+04  0.7818609E-02  0.8954061E-01
        1   -1    0    0  501    0  0.00000000000E+00  0.00000000000E+00  0.13203401121E+04  0.13203401121E+04  0.50400001928E-02 0.  1.
       -1   -1    0    0    0  501  0.00000000000E+00  0.00000000000E+00 -0.37093882091E+03  0.37093882094E+03  0.50400001928E-02 0. -1.
    10030    2    1    2    0    0  0.00000000000E+00  0.00000000000E+00  0.94940129122E+03  0.16912789331E+04  0.13996648233E+04 0.  0.
        2    1    3    3  502    0  0.56469879745E+03  0.36465990022E+03  0.23944896340E+03  0.71358067571E+03  0.25500000920E-02 0.  1.
       -2    1    3    3    0  502 -0.56469879745E+03 -0.36465990022E+03  0.70995232781E+03  0.97769825736E+03  0.25500000920E-02 0. -1.
</event>
<event>
 5   0  0.5532881E-04  0.1604403E+04  0.7818609E-02  0.8817848E-01
        1   -1    0    0  501    0  0.00000000000E+00  0.00000000000E+00  0.78681385015E+03  0.78681385016E+03  0.50400001928E-02 0. -1.
       -1   -1    0    0    0  501  0.00000000000E+00  0.00000000000E+00 -0.81788986645E+03  0.81788986647E+03  0.50400001928E-02 0.  1.
    10030    2    1    2    0    0  0.00000000000E+00  0.00000000000E+00 -0.31076016308E+02  0.16047037166E+04  0.16044027859E+04 0.  0.
        4    1    3    3  502    0  0.19612898400E+03 -0.16602346124E+03 -0.77561152474E+03  0.81707112191E+03  0.12699999809E+01 0.  1.
       -4    1    3    3    0  502 -0.19612898400E+03  0.16602346124E+03  0.74453550844E+03  0.78763259472E+03  0.12699999809E+01 0. -1.
</event>
<event>
 5   0  0.5425525E-04  0.1370650E+04  0.7818609E-02  0.8975342E-01
       -1   -1    0    0    0  501  0.00000000000E+00  0.00000000000E+00  0.32046227163E+03  0.32046227167E+03  0.50400001928E-02 0. -1.
        1   -1    0    0  501    0  0.00000000000E+00  0.00000000000E+00 -0.14656028098E+04  0.14656028098E+04  0.50400001928E-02 0.  1.
    10030    2    1    2    0    0  0.00000000000E+00  0.00000000000E+00 -0.11451405382E+04  0.17860650815E+04  0.13706500732E+04 0.  0.
        5    1    3    3  502    0  0.46519388525E+03  0.48879262733E+03 -0.72853052700E+03  0.99302688895E+03  0.46999998093E+01 0. -1.
       -5    1    3    3    0  502 -0.46519388525E+03 -0.48879262733E+03 -0.41661001121E+03  0.79303819255E+03  0.46999998093E+01 0.  1.
</event>
<event>
 5   0  0.1000121E-03  0.1295996E+04  0.7818609E-02  0.9032746E-01
        2   -1    0    0  501    0  0.00000000000E+00  0.00000000000E+00  0.11602111663E+04  0.11602111663E+04  0.25500000920E-02 0.  1.
       -2   -1    0    0    0  501  0.00000000000E+00  0.00000000000E+00 -0.36191836202E+03  0.36191836203E+03  0.25500000920E-02 0. -1.
    10030    2    1    2    0    0  0.00000000000E+00  0.00000000000E+00  0.79829280424E+03  0.15221295283E+04  0.12959964890E+04 0.  0.
        4    1    3    3  502    0  0.61137590158E+03 -0.17038233511E+03  0.55268309986E+03  0.84158829300E+03  0.12699999809E+01 0. -1.
       -4    1    3    3    0  502 -0.61137590158E+03  0.17038233511E+03  0.24560970438E+03  0.68054123529E+03  0.12699999809E+01 0.  1.
</event>
<event>
 5   0  0.5425525E-04  0.1593626E+04  0.7818609E-02  0.8824473E-01
       -1   -1    0    0    0  501  0.00000000000E+00  0.00000000000E+00  0.35490899026E+03  0.35490899030E+03  0.50400001928E-02 0.  1.
        1   -1    0    0  501    0  0.00000000000E+00  0.00000000000E+00 -0.17889407892E+04  0.17889407892E+04  0.50400001928E-02 0. -1.
    10030    2    1    2    0    0  0.00000000000E+00  0.00000000000E+00 -0.14340317989E+04  0.21438497795E+04  0.15936262663E+04 0.  0.
        5    1    3    3  502    0 -0.23680806568E+02  0.59740722091E+03 -0.84392098554E+01  0.59795441168E+03  0.46999998093E+01 0.  1.
       -5    1    3    3    0  502  0.23680806568E+02 -0.59740722091E+03 -0.14255925890E+04  0.15458953678E+04  0.46999998093E+01 0. -1.
</event>
<event>
 5   0  0.1057872E-03  0.1616213E+04  0.7818609E-02  0.8810649E-01
       -2   -1    0    0    0  501  0.00000000000E+00  0.00000000000E+00  0.64395073745E+03  0.64395073745E+03  0.25500000920E-02 0.  1.
        2   -1    0    0  501    0  0.00000000000E+00  0.00000000000E+00 -0.10141085219E+04  0.10141085219E+04  0.25500000920E-02 0. -1.
    10030    2    1    2    0    0  0.00000000000E+00  0.00000000000E+00 -0.37015778441E+03  0.16580592593E+04  0.16162127713E+04 0.  0.
        2    1    3    3  502    0 -0.40140067462E+03  0.48623912443E+03  0.33346338298E+03  0.71326630055E+03  0.25500000920E-02 0.  1.
       -2    1    3    3    0  502  0.40140067462E+03 -0.48623912443E+03 -0.70362116739E+03  0.94479295876E+03  0.25500000920E-02 0. -1.
</event>
<event>
 5   0  0.5281116E-04  0.1596237E+04  0.7818609E-02  0.8822863E-01
        1   -1    0    0  501    0  0.00000000000E+00  0.00000000000E+00  0.12133460193E+04  0.12133460193E+04  0.50400001928E-02 0.  1.
       -1   -1    0    0    0  501  0.00000000000E+00  0.00000000000E+00 -0.52498892838E+03  0.52498892840E+03  0.50400001928E-02 0. -1.
    10030    2    1    2    0    0  0.00000000000E+00  0.00000000000E+00  0.68835709091E+03  0.17383349477E+04  0.15962371083E+04 0.  0.
        2    1    3    3  502    0  0.30794632321E+03 -0.72575213258E+03  0.47952469610E+03  0.92276271603E+03  0.25500000920E-02 0.  1.
       -2    1    3    3    0  502 -0.30794632321E+03  0.72575213258E+03  0.20883239481E+03  0.81557223166E+03  0.25500000920E-02 0. -1.
</event>
<event>
 5   0  0.5288658E-04  0.1590582E+04  0.7818609E-02  0.8826355E-01
        1   -1    0    0  501    0  0.00000000000E+00  0.00000000000E+00  0.95873043613E+03  0.95873043614E+03  0.50400001928E-02 0. -1.
       -1   -1    0    0    0  501  0.00000000000E+00  0.00000000000E+00 -0.65971349260E+03  0.65971349262E+03  0.50400001928E-02 0.  1.
    10030    2    1    2    0    0  0.00000000000E+00  0.00000000000E+00  0.29901694353E+03  0.16184439288E+04  0.15905815345E+04 0.  0.
        1    1    3    3  502    0  0.98775400785E+02  0.72533647932E+03  0.46578745256E+03  0.86765634846E+03  0.50400001928E-02 0. -1.
       -1    1    3    3    0  502 -0.98775400785E+02 -0.72533647932E+03 -0.16677050903E+03  0.75078758031E+03  0.50400001928E-02 0.  1.
</event>
<event>
 5   0  0.1057872E-03  0.1610073E+04  0.7818609E-02  0.8814384E-01
       -2   -1    0    0    0  501  0.00000000000E+00  0.00000000000E+00  0.13584843499E+04  0.13584843499E+04  0.25500000920E-02 0.  1.
        2   -1    0    0  501    0  0.00000000000E+00  0.00000000000E+00 -0.47706363138E+03  0.47706363139E+03  0.25500000920E-02 0. -1.
    10030    2    1    2    0    0  0.00000000000E+00  0.00000000000E+00  0.88142071854E+03  0.18355479813E+04  0.16100726408E+04 0.  0.
        2    1    3    3  502    0  0.42110692059E+03 -0.26200894072E+03 -0.28220813400E+03  0.57063224102E+03  0.25500000920E-02 0. -1.
       -2    1    3    3    0  502 -0.42110692059E+03  0.26200894072E+03  0.11636288525E+04  0.12649157403E+04  0.25500000920E-02 0.  1.
</event>
<event>
 5   0  0.1000121E-03  0.1596666E+04  0.7818609E-02  0.8822599E-01
       -2   -1    0    0    0  501  0.00000000000E+00  0.00000000000E+00  0.32258009146E+03  0.32258009147E+03  0.25500000920E-02 0.  1.
        2   -1    0    0  501    0  0.00000000000E+00  0.00000000000E+00 -0.19757427227E+04  0.19757427227E+04  0.25500000920E-02 0. -1.
    10030    2    1    2    0    0  0.00000000000E+00  0.00000000000E+00 -0.16531626313E+04  0.22983228142E+04  0.15966656109E+04 0.  0.
        4    1    3    3  502    0  0.83015273499E+02  0.10995764562E+03  0.30533610354E+03  0.33498353466E+03  0.12699999809E+01 0.  1.
       -4    1    3    3    0  502 -0.83015273499E+02 -0.10995764562E+03 -0.19584987348E+04  0.19633392796E+04  0.12699999809E+01 0. -1.
</event>
<event>
 5   0  0.5281116E-04  0.1589740E+04  0.7818609E-02  0.8826876E-01
        1   -1    0    0  501    0  0.00000000000E+00  0.00000000000E+00  0.12381018514E+04  0.12381018514E+04  0.50400001928E-02 0. -1.
       -1   -1    0    0    0  501  0.00000000000E+00  0.00000000000E+00 -0.51031236652E+03  0.51031236655E+03  0.50400001928E-02 0.  1.
    10030    2    1    2    0    0  0.00000000000E+00  0.00000000000E+00  0.72778948491E+03  0.17484142180E+04  0.15897404641E+04 0.  0.
        2    1    3    3  502    0 -0.15112005044E+03  0.29719738720E+03 -0.42968975705E+03  0.54387208415E+03  0.25500000920E-02 0.  1.
       -2    1    3    3    0  502  0.15112005044E+03 -0.29719738720E+03  0.11574792420E+04  0.12045421338E+04  0.25500000920E-02 0. -1.
</event>
<event>
 5   0  0.5288658E-04  0.1622898E+04  0.7818609E-02  0.8806603E-01
        1   -1    0    0  501    0  0.00000000000E+00  0.00000000000E+00  0.25939478555E+03  0.25939478560E+03  0.50400001928E-02 0. -1.
       -1   -1    0    0    0  501  0.00000000000E+00  0.00000000000E+00 -0.25384058327E+04  0.25384058327E+04  0.50400001928E-02 0.  1.
    10030    2    1    2    0    0  0.00000000000E+00  0.00000000000E+00 -0.22790110472E+04  0.27978006183E+04  0.16228977006E+04 0.  0.
        1    1    3    3  502    0  0.49420291931E+03 -0.45282612508E+03 -0.19279410614E+04  0.20411381044E+04  0.50400001928E-02 0. -1.
       -1    1    3    3    0  502 -0.49420291931E+03  0.45282612508E+03 -0.35106998575E+03  0.75666251390E+03  0.50400001928E-02 0.  1.
</event>
<event>
 5   0  0.5532881E-04  0.1586398E+04  0.7818609E-02  0.8828948E-01
       -1   -1    0    0    0  501  0.00000000000E+00  0.00000000000E+00  0.14211231234E+04  0.14211231234E+04  0.50400001928E-02 0. -1.
        1   -1    0    0  501    0  0.00000000000E+00  0.00000000000E+00 -0.44272341663E+03  0.44272341666E+03  0.50400001928E-02 0.  1.
    10030    2    1    2    0    0  0.00000000000E+00  0.00000000000E+00  0.97839970675E+03  0.18638465400E+04  0.15863977870E+04 0.  0.
        4    1    3    3  502    0 -0.16048248876E+03 -0.42979894179E+03 -0.27102093455E+03  0.53285619020E+03  0.12699999809E+01 0.  1.
       -4    1    3    3    0  502  0.16048248876E+03  0.42979894179E+03  0.12494206413E+04  0.13309903498E+04  0.12699999809E+01 0. -1.
</event>
<event>
 5   0  0.1000121E-03  0.1625275E+04  0.7818609E-02  0.8805169E-01
       -2   -1    0    0    0  501  0.00000000000E+00  0.00000000000E+00  0.53654663425E+03  0.53654663426E+03  0.25500000920E-02 0.  1.
        2   -1    0    0  501    0  0.00000000000E+00  0.00000000000E+00 -0.12307968876E+04  0.12307968876E+04  0.25500000920E-02 0. -1.
    10030    2    1    2    0    0  0.00000000000E+00  0.00000000000E+00 -0.69425025335E+03  0.17673435219E+04  0.16252752721E+04 0.  0.
        4    1    3    3  502    0  0.46158743999E+03 -0.57562265438E+03  0.23192337234E+02  0.73820315794E+03  0.12699999809E+01 0.  1.
       -4    1    3    3    0  502 -0.46158743999E+03  0.57562265438E+03 -0.71744259059E+03  0.10291403639E+04  0.12699999809E+01 0. -1.
</event>
<event>
 5   0  0.5623061E-04  0.1627550E+04  0.7818609E-02  0.8803799E-01
        1   -1    0    0  501    0  0.00000000000E+00  0.00000000000E+00  0.57046679759E+03  0.57046679761E+03  0.50400001928E-02 0.  1.
       -1   -1    0    0    0  501  0.00000000000E+00  0.00000000000E+00 -0.11608562003E+04  0.11608562003E+04  0.50400001928E-02 0. -1.
    10030    2    1    2    0    0  0.00000000000E+00  0.00000000000E+00 -0.59038940271E+03  0.17313229979E+04  0.16275502070E+04 0.  0.
        3    1    3    3  502    0  0.61254806211E+02  0.73529919462E+03  0.69929010700E+02  0.74115257109E+03  0.10100000352E+00 0.  1.
       -3    1    3    3    0  502 -0.61254806211E+02 -0.73529919462E+03 -0.66031841341E+03  0.99017042684E+03  0.10100000352E+00 0. -1.
</event>
<event>
 5   0  0.5288658E-04  0.1669421E+04  0.7818609E-02  0.8778999E-01
        1   -1    0    0  501    0  0.00000000000E+00  0.00000000000E+00  0.53975500489E+03  0.53975500491E+03  0.50400001928E-02 0.  1.
       -1   -1    0    0    0  501  0.00000000000E+00  0.00000000000E+00 -0.12908481016E+04  0.12908481016E+04  0.50400001928E-02 0. -1.
    10030    2    1    2    0    0  0.00000000000E+00  0.00000000000E+00 -0.75109309671E+03  0.18306031065E+04  0.16694211253E+04 0.  0.
        1    1    3    3  502    0  0.45425926341E+03 -0.35670802309E+03  0.28525506386E+03  0.64417586389E+03  0.50400001928E-02 0.  1.
       -1    1    3    3    0  502 -0.45425926341E+03  0.35670802309E+03 -0.10363481606E+04  0.11864272426E+04  0.50400001928E-02 0. -1.
</event>
<event>
 5   0  0.5288658E-04  0.1812457E+04  0.7818609E-02  0.8699703E-01
       -1   -1    0    0    0  501  0.00000000000E+00  0.00000000000E+00  0.99760352434E+03  0.99760352435E+03  0.50400001928E-02 0. -1.
        1   -1    0    0  501    0  0.00000000000E+00  0.00000000000E+00 -0.82322303186E+03  0.82322303188E+03  0.50400001928E-02 0.  1.
    10030    2    1    2    0    0  0.00000000000E+00  0.00000000000E+00  0.17438049248E+03  0.18208265562E+04  0.18124571144E+04 0.  0.
        1    1    3    3  502    0 -0.61629833005E+03  0.65590463885E+03  0.19358334796E+03  0.92060254156E+03  0.50400001928E-02 0.  1.
       -1    1    3    3    0  502  0.61629833005E+03 -0.65590463885E+03 -0.19202855482E+02  0.90022401466E+03  0.50400001928E-02 0. -1.
</event>
<event>
 5   0  0.1000121E-03  0.1607287E+04  0.7818609E-02  0.8816084E-01
       -2   -1    0    0    0  501  0.00000000000E+00  0.00000000000E+00  0.28617459713E+03  0.28617459714E+03  0.25500000920E-02 0. -1.
        2   -1    0    0  501    0  0.00000000000E+00  0.00000000000E+00 -0.22568137765E+04  0.22568137765E+04  0.25500000920E-02 0.  1.
    10030    2    1    2    0    0  0.00000000000E+00  0.00000000000E+00 -0.19706391794E+04  0.25429883737E+04  0.16072868733E+04 0.  0.
        4    1    3    3  502    0  0.12843817711E+03 -0.69011913203E+03 -0.36629095237E+03  0.79179003304E+03  0.12699999809E+01 0.  1.
       -4    1    3    3    0  502 -0.12843817711E+03  0.69011913203E+03 -0.16043482270E+04  0.17511983406E+04  0.12699999809E+01 0. -1.
</event>
<event>
 5   0  0.9844690E-04  0.1545859E+04  0.7818609E-02  0.8854517E-01
        2   -1    0    0  501    0  0.00000000000E+00  0.00000000000E+00  0.76750495073E+03  0.76750495074E+03  0.25500000920E-02 0.  1.
       -2   -1    0    0    0  501  0.00000000000E+00  0.00000000000E+00 -0.77839241872E+03  0.77839241872E+03  0.25500000920E-02 0. -1.
    10030    2    1    2    0    0  0.00000000000E+00  0.00000000000E+00 -0.10887467982E+02  0.15458973695E+04  0.15458590298E+04 0.  0.
        3    1    3    3  502    0 -0.73225101593E+03 -0.10390623980E+03 -0.23001993351E+03  0.77453033318E+03  0.10100000352E+00 0. -1.
       -3    1    3    3    0  502  0.73225101593E+03  0.10390623980E+03  0.21913246553E+03  0.77136703628E+03  0.10100000352E+00 0.  1.
</event>
<event>
 5   0  0.1037321E-03  0.1588700E+04  0.7818609E-02  0.8827520E-01
       -2   -1    0    0    0  501  0.00000000000E+00  0.00000000000E+00  0.42676592934E+03  0.42676592934E+03  0.25500000920E-02 0. -1.
        2   -1    0    0  501    0  0.00000000000E+00  0.00000000000E+00 -0.14785436379E+04  0.14785436379E+04  0.25500000920E-02 0.  1.
    10030    2    1    2    0    0  0.00000000000E+00  0.00000000000E+00 -0.10517777086E+04  0.19053095673E+04  0.15887001601E+04 0.  0.
        5    1    3    3  502    0 -0.63211203753E+02  0.70313456760E+03 -0.89215993749E+02  0.71160063235E+03  0.46999998093E+01 0. -1.
       -5    1    3    3    0  502  0.63211203753E+02 -0.70313456760E+03 -0.96256171483E+03  0.11937089349E+04  0.46999998093E+01 0.  1.
</event>
<event>
 5   0  0.9844690E-04  0.1609201E+04  0.7818609E-02  0.8814915E-01
        2   -1    0    0  501    0  0.00000000000E+00  0.00000000000E+00  0.17891156977E+04  0.17891156977E+04  0.25500000920E-02 0.  1.
       -2   -1    0    0    0  501  0.00000000000E+00  0.00000000000E+00 -0.36184467949E+03  0.36184467950E+03  0.25500000920E-02 0. -1.
    10030    2    1    2    0    0  0.00000000000E+00  0.00000000000E+00  0.14272710182E+04  0.21509603772E+04  0.16092010393E+04 0.  0.
        3    1    3    3  502    0 -0.45034789990E+03 -0.31701829674E+03 -0.70415548577E+02  0.55522265002E+03  0.10100000352E+00 0. -1.
       -3    1    3    3    0  502  0.45034789990E+03  0.31701829674E+03  0.14976865668E+04  0.15957377272E+04  0.10100000352E+00 0.  1.
</event>
<event>
 5   0  0.5425525E-04  0.1629196E+04  0.7818609E-02  0.8802810E-01
        1   -1    0    0  501    0  0.00000000000E+00  0.00000000000E+00  0.35708551095E+03  0.35708551099E+03  0.50400001928E-02 0.  1.
       -1   -1    0    0    0  501  0.00000000000E+00  0.00000000000E+00 -0.18582930231E+04  0.18582930231E+04  0.50400001928E-02 0. -1.
    10030    2    1    2    0    0  0.00000000000E+00  0.00000000000E+00 -0.15012075121E+04  0.22153785341E+04  0.16291955238E+04 0.  0.
        5    1    3    3  502    0  0.66377136151E+03 -0.15231949573E+03 -0.14285758364E+03  0.69586207566E+03  0.46999998093E+01 0.  1.
       -5    1    3    3    0  502 -0.66377136151E+03  0.15231949573E+03 -0.13583499285E+04  0.15195164584E+04  0.46999998093E+01 0. -1.
</event>
<event>
 5   0  0.1037321E-03  0.1630384E+04  0.7818609E-02  0.8802097E-01
       -2   -1    0    0    0  501  0.00000000000E+00  0.00000000000E+00  0.61448038100E+03  0.61448038100E+03  0.25500000920E-02 0.  1.
        2   -1    0    0  501    0  0.00000000000E+00  0.00000000000E+00 -0.10814627491E+04  0.10814627491E+04  0.25500000920E-02 0. -1.
    10030    2    1    2    0    0  0.00000000000E+00  0.00000000000E+00 -0.46698236806E+03  0.16959431301E+04  0.16303835648E+04 0.  0.
        5    1    3    3  502    0 -0.66578461376E+03  0.49247470573E+02 -0.72008443568E+03  0.98195628711E+03  0.46999998093E+01 0. -1.
       -5    1    3    3    0  502  0.66578461376E+03 -0.49247470573E+02  0.25310206762E+03  0.71398684296E+03  0.46999998093E+01 0.  1.
</event>
<event>
 5   0  0.1057872E-03  0.1534601E+04  0.7818609E-02  0.8861764E-01
       -2   -1    0    0    0  501  0.00000000000E+00  0.00000000000E+00  0.35546656885E+03  0.35546656886E+03  0.25500000920E-02 0. -1.
        2   -1    0    0  501    0  0.00000000000E+00  0.00000000000E+00 -0.16562745084E+04  0.16562745084E+04  0.25500000920E-02 0.  1.
    10030    2    1    2    0    0  0.00000000000E+00  0.00000000000E+00 -0.13008079396E+04  0.20117410773E+04  0.15346012076E+04 0.  0.
        2    1    3    3  502    0 -0.16748553962E+03  0.10471033916E+03 -0.16223744309E+04  0.16343544460E+04  0.25500000920E-02 0.  1.
       -2    1    3    3    0  502  0.16748553962E+03 -0.10471033916E+03  0.32156649134E+03  0.37738663128E+03  0.25500000920E-02 0. -1.
</event>
<event>
 5   0  0.1037321E-03  0.1411334E+04  0.7818609E-02  0.8945655E-01
        2   -1    0    0  501    0  0.00000000000E+00  0.00000000000E+00  0.14811411361E+04  0.14811411361E+04  0.25500000920E-02 0.  1.
       -2   -1    0    0    0  501  0.00000000000E+00  0.00000000000E+00 -0.33620402857E+03  0.33620402858E+03  0.25500000920E-02 0. -1.
    10030    2    1    2    0    0  0.00000000000E+00  0.00000000000E+00  0.11449371075E+04  0.18173451647E+04  0.14113335777E+04 0.  0.
        5    1    3    3  502    0  0.67293042148E+03 -0.18813028002E+03  0.69938941274E+03  0.98863339771E+03  0.46999998093E+01 0.  1.
       -5    1    3    3    0  502 -0.67293042148E+03  0.18813028002E+03  0.44554769479E+03  0.82871176699E+03  0.46999998093E+01 0. -1.
</event>
<event>
 5   0  0.5288658E-04  0.1448016E+04  0.7818609E-02  0.8919777E-01
        1   -1    0    0  501    0  0.00000000000E+00  0.00000000000E+00  0.12010419514E+04  0.12010419514E+04  0.50400001928E-02 0. -1.
       -1   -1    0    0    0  501  0.00000000000E+00  0.00000000000E+00 -0.43644412050E+03  0.43644412053E+03  0.50400001928E-02 0.  1.
    10030    2    1    2    0    0  0.00000000000E+00  0.00000000000E+00  0.76459783091E+03  0.16374860719E+04  0.14480161576E+04 0.  0.
        1    1    3    3  502    0 -0.19733732332E+03 -0.18398646718E+02  0.11697679934E+04  0.11864390788E+04  0.50400001928E-02 0. -1.
       -1    1    3    3    0  502  0.19733732332E+03  0.18398646718E+02 -0.40517016250E+03  0.45104699310E+03  0.50400001928E-02 0.  1.
</event>
<event>
 5   0  0.1057872E-03  0.1614498E+04  0.7818609E-02  0.8811690E-01
       -2   -1    0    0    0  501  0.00000000000E+00  0.00000000000E+00  0.48804813449E+03  0.48804813450E+03  0.25500000920E-02 0.  1.
        2   -1    0    0  501    0  0.00000000000E+00  0.00000000000E+00 -0.13352191316E+04  0.13352191316E+04  0.25500000920E-02 0. -1.
    10030    2    1    2    0    0  0.00000000000E+00  0.00000000000E+00 -0.84717099714E+03  0.18232672661E+04  0.16144983200E+04 0.  0.
        2    1    3    3  502    0  0.78939225075E+02  0.68054672270E+03  0.58559247456E+02  0.68760775774E+03  0.25500000920E-02 0.  1.
       -2    1    3    3    0  502 -0.78939225075E+02 -0.68054672270E+03 -0.90573024459E+03  0.11356595084E+04  0.25500000920E-02 0. -1.
</event>
<event>
 5   0  0.5425525E-04  0.1384450E+04  0.7818609E-02  0.8965152E-01
        1   -1    0    0  501    0  0.00000000000E+00  0.00000000000E+00  0.10266548145E+04  0.10266548146E+04  0.50400001928E-02 0. -1.
       -1   -1    0    0    0  501  0.00000000000E+00  0.00000000000E+00 -0.46673472904E+03  0.46673472907E+03  0.50400001928E-02 0.  1.
    10030    2    1    2    0    0  0.00000000000E+00  0.00000000000E+00  0.55992008550E+03  0.14933895436E+04  0.13844500088E+04 0.  0.
        5    1    3    3  502    0 -0.43074256648E+03  0.40072903462E+03  0.67339356065E+03  0.89420573432E+03  0.46999998093E+01 0. -1.
       -5    1    3    3    0  502  0.43074256648E+03 -0.40072903462E+03 -0.11347347515E+03  0.59918380930E+03  0.46999998093E+01 0.  1.
</event>
<event>
 5   0  0.5623061E-04  0.1563690E+04  0.7818609E-02  0.8843170E-01
        1   -1    0    0  501    0  0.00000000000E+00  0.00000000000E+00  0.10578308767E+04  0.10578308767E+04  0.50400001928E-02 0.  1.
       -1   -1    0    0    0  501  0.00000000000E+00  0.00000000000E+00 -0.57786334392E+03  0.57786334394E+03  0.50400001928E-02 0. -1.
    10030    2    1    2    0    0  0.00000000000E+00  0.00000000000E+00  0.47996753275E+03  0.16356942206E+04  0.15636901070E+04 0.  0.
        3    1    3    3  502    0 -0.29208363206E+03  0.32670394227E+03  0.91728107427E+03  0.10165888517E+04  0.10100000352E+00 0.  1.
       -3    1    3    3    0  502  0.29208363206E+03 -0.32670394227E+03 -0.43731354152E+03  0.61910536891E+03  0.10100000352E+00 0. -1.
</event>
<event>
 5   0  0.1000121E-03  0.1621920E+04  0.7818609E-02  0.8807194E-01
        2   -1    0    0  501    0  0.00000000000E+00  0.00000000000E+00  0.16969573533E+04  0.16969573533E+04  0.25500000920E-02 0.  1.
       -2   -1    0    0    0  501  0.00000000000E+00  0.00000000000E+00 -0.38755021342E+03  0.38755021343E+03  0.25500000920E-02 0. -1.
    10030    2    1    2    0    0  0.00000000000E+00  0.00000000000E+00  0.13094071399E+04  0.20845075668E+04  0.16219200775E+04 0.  0.
        4    1    3    3  502    0 -0.45867249221E+03  0.45644763791E+03  0.12829196781E+04  0.14368748778E+04  0.12699999809E+01 0.  1.
       -4    1    3    3    0  502  0.45867249221E+03 -0.45644763791E+03  0.26487461863E+02  0.64763268895E+03  0.12699999809E+01 0. -1.
</event>
<event>
 5   0  0.5623061E-04  0.1469412E+04  0.7818609E-02  0.8905052E-01
        1   -1    0    0  501    0  0.00000000000E+00  0.00000000000E+00  0.24821681592E+04  0.24821681592E+04  0.50400001928E-02 0.  1.
       -1   -1    0    0    0  501  0.00000000000E+00  0.00000000000E+00 -0.21746843003E+03  0.21746843009E+03  0.50400001928E-02 0. -1.
    10030    2    1    2    0    0  0.00000000000E+00  0.00000000000E+00  0.22646997292E+04  0.26996365893E+04  0.14694124169E+04 0.  0.
        3    1    3    3  502    0  0.56238567384E+03 -0.42178734292E+03  0.15247203824E+04  0.16789742295E+04  0.10100000352E+00 0.  1.
       -3    1    3    3    0  502 -0.56238567384E+03  0.42178734292E+03  0.73997934681E+03  0.10206623598E+04  0.10100000352E+00 0. -1.
</event>
<event>
 5   0  0.5532881E-04  0.1647463E+04  0.7818609E-02  0.8791909E-01
        1   -1    0    0  501    0  0.00000000000E+00  0.00000000000E+00  0.13385124459E+04  0.13385124459E+04  0.50400001928E-02 0. -1.
       -1   -1    0    0    0  501  0.00000000000E+00  0.00000000000E+00 -0.50693117315E+03  0.50693117317E+03  0.50400001928E-02 0.  1.
    10030    2    1    2    0    0  0.00000000000E+00  0.00000000000E+00  0.83158127274E+03  0.18454436191E+04  0.16474631219E+04 0.  0.
        4    1    3    3  502    0 -0.26079131705E+03 -0.40881738962E+03 -0.33010350381E+03  0.58661205684E+03  0.12699999809E+01 0.  1.
       -4    1    3    3    0  502  0.26079131705E+03  0.40881738962E+03  0.11616847765E+04  0.12588315622E+04  0.12699999809E+01 0. -1.
</event>
<event>
 5   0  0.5623061E-04  0.1525171E+04  0.7818609E-02  0.8867885E-01
        1   -1    0    0  501    0  0.00000000000E+00  0.00000000000E+00  0.13157096906E+04  0.13157096906E+04  0.50400001928E-02 0. -1.
       -1   -1    0    0    0  501  0.00000000000E+00  0.00000000000E+00 -0.44199469997E+03  0.44199470000E+03  0.50400001928E-02 0.  1.
    10030    2    1    2    0    0  0.00000000000E+00  0.00000000000E+00  0.87371499063E+03  0.17577043906E+04  0.15251710855E+04 0.  0.
        3    1    3    3  502    0 -0.29729873965E+03 -0.66922369017E+03  0.68211795156E+03  0.10007656060E+04  0.10100000352E+00 0. -1.
       -3    1    3    3    0  502  0.29729873965E+03  0.66922369017E+03  0.19159703907E+03  0.75693878463E+03  0.10100000352E+00 0.  1.
</event>
<event>
 5   0  0.9844690E-04  0.1615600E+04  0.7818609E-02  0.8811021E-01
        2   -1    0    0  501    0  0.00000000000E+00  0.00000000000E+00  0.17036136608E+04  0.17036136608E+04  0.25500000920E-02 0.  1.
       -2   -1    0    0    0  501  0.00000000000E+00  0.00000000000E+00 -0.38303358230E+03  0.38303358231E+03  0.25500000920E-02 0. -1.
    10030    2    1    2    0    0  0.00000000000E+00  0.00000000000E+00  0.13205800785E+04  0.20866472431E+04  0.16156004993E+04 0.  0.
        3    1    3    3  502    0  0.42206764775E+03  0.53720626473E+03  0.10355431702E+03  0.69098131445E+03  0.10100000352E+00 0. -1.
       -3    1    3    3    0  502 -0.42206764775E+03 -0.53720626473E+03  0.12170257615E+04  0.13956659287E+04  0.10100000352E+00 0.  1.
</event>
<event>
 5   0  0.5532881E-04  0.1649519E+04  0.7818609E-02  0.8790691E-01
        1   -1    0    0  501    0  0.00000000000E+00  0.00000000000E+00  0.10364234189E+04  0.10364234189E+04  0.50400001928E-02 0. -1.
       -1   -1    0    0    0  501  0.00000000000E+00  0.00000000000E+00 -0.65632277987E+03  0.65632277989E+03  0.50400001928E-02 0.  1.
    10030    2    1    2    0    0  0.00000000000E+00  0.00000000000E+00  0.38010063899E+03  0.16927461988E+04  0.16495190807E+04 0.  0.
        4    1    3    3  502    0 -0.18433497561E+03 -0.66631115605E+03 -0.27148770152E+03  0.74273624181E+03  0.12699999809E+01 0.  1.
       -4    1    3    3    0  502  0.18433497561E+03  0.66631115605E+03  0.65158834051E+03  0.95000995695E+03  0.12699999809E+01 0. -1.
</event>
<event>
 5   0  0.5425525E-04  0.1608225E+04  0.7818609E-02  0.8815511E-01
        1   -1    0    0  501    0  0.00000000000E+00  0.00000000000E+00  0.74936289727E+03  0.74936289729E+03  0.50400001928E-02 0.  1.
       -1   -1    0    0    0  501  0.00000000000E+00  0.00000000000E+00 -0.86286174993E+03  0.86286174995E+03  0.50400001928E-02 0. -1.
    10030    2    1    2    0    0  0.00000000000E+00  0.00000000000E+00 -0.11349885266E+03  0.16122246472E+04  0.16082245874E+04 0.  0.
        5    1    3    3  502    0  0.25422508866E+03 -0.36289887969E+03  0.61592512105E+03  0.75875677086E+03  0.46999998093E+01 0.  1.
       -5    1    3    3    0  502 -0.25422508866E+03  0.36289887969E+03 -0.72942397371E+03  0.85346787638E+03  0.46999998093E+01 0. -1.
</event>
<event>
 5   0  0.1037321E-03  0.1623985E+04  0.7818609E-02  0.8805947E-01
       -2   -1    0    0    0  501  0.00000000000E+00  0.00000000000E+00  0.57341481527E+03  0.57341481527E+03  0.25500000920E-02 0. -1.
        2   -1    0    0  501    0  0.00000000000E+00  0.00000000000E+00 -0.11498340420E+04  0.11498340420E+04  0.25500000920E-02 0.  1.
    10030    2    1    2    0    0  0.00000000000E+00  0.00000000000E+00 -0.57641922669E+03  0.17232488572E+04  0.16239850674E+04 0.  0.
        5    1    3    3  502    0 -0.42593744234E+03  0.50688792897E+03  0.21057683855E+03  0.69478253595E+03  0.46999998093E+01 0.  1.
       -5    1    3    3    0  502  0.42593744234E+03 -0.50688792897E+03 -0.78699606523E+03  0.10284663213E+04  0.46999998093E+01 0. -1.
</event>
<event>
 5   0  0.5425525E-04  0.1544049E+04  0.7818609E-02  0.8855678E-01
        1   -1    0    0  501    0  0.00000000000E+00  0.00000000000E+00  0.99666537183E+03  0.99666537184E+03  0.50400001928E-02 0. -1.
       -1   -1    0    0    0  501  0.00000000000E+00  0.00000000000E+00 -0.59801585779E+03  0.59801585781E+03  0.50400001928E-02 0.  1.
    10030    2    1    2    0    0  0.00000000000E+00  0.00000000000E+00  0.39864951404E+03  0.15946812297E+04  0.15440488299E+04 0.  0.
        5    1    3    3  502    0  0.75373984956E+03  0.53590967258E+02  0.36263609428E+03  0.83816631969E+03  0.46999998093E+01 0.  1.
       -5    1    3    3    0  502 -0.75373984956E+03 -0.53590967258E+02  0.36013419767E+02  0.75651490996E+03  0.46999998093E+01 0. -1.
</event>
<event>
 5   0  0.1000121E-03  0.1544831E+04  0.7818609E-02  0.8855176E-01
       -2   -1    0    0    0  501  0.00000000000E+00  0.00000000000E+00  0.40963362995E+03  0.40963362996E+03  0.25500000920E-02 0. -1.
        2   -1    0    0  501    0  0.00000000000E+00  0.00000000000E+00 -0.14564855769E+04  0.14564855769E+04  0.25500000920E-02 0.  1.
    10030    2    1    2    0    0  0.00000000000E+00  0.00000000000E+00 -0.10468519469E+04  0.18661192068E+04  0.15448307012E+04 0.  0.
        4    1    3    3  502    0  0.15458061147E+03  0.65507784650E+03 -0.98118645522E+03  0.11898531940E+04  0.12699999809E+01 0.  1.
       -4    1    3    3    0  502 -0.15458061147E+03 -0.65507784650E+03 -0.65665491680E+02  0.67626601283E+03  0.12699999809E+01 0. -1.
</event>
<event>
 5   0  0.5281116E-04  0.1603966E+04  0.7818609E-02  0.8818115E-01
       -1   -1    0    0    0  501  0.00000000000E+00  0.00000000000E+00  0.96101260784E+03  0.96101260785E+03  0.50400001928E-02 0. -1.
        1   -1    0    0  501    0  0.00000000000E+00  0.00000000000E+00 -0.66926949947E+03  0.66926949949E+03  0.50400001928E-02 0.  1.
    10030    2    1    2    0    0  0.00000000000E+00  0.00000000000E+00  0.29174310837E+03  0.16302821073E+04  0.16039656194E+04 0.  0.
        2    1    3    3  502    0  0.53826300440E+03 -0.29040048988E+03  0.67314780355E+03  0.90949847271E+03  0.25500000920E-02 0.  1.
       -2    1    3    3    0  502 -0.53826300440E+03  0.29040048988E+03 -0.38140469518E+03  0.72078363462E+03  0.25500000920E-02 0. -1.
</event>
<event>
 5   0  0.5281116E-04  0.1547177E+04  0.7818609E-02  0.8853673E-01
        1   -1    0    0  501    0  0.00000000000E+00  0.00000000000E+00  0.17846204517E+04  0.17846204517E+04  0.50400001928E-02 0. -1.
       -1   -1    0    0    0  501  0.00000000000E+00  0.00000000000E+00 -0.33533122996E+03  0.33533123000E+03  0.50400001928E-02 0.  1.
    10030    2    1    2    0    0  0.00000000000E+00  0.00000000000E+00  0.14492892218E+04  0.21199516817E+04  0.15471767464E+04 0.  0.
        2    1    3    3  502    0  0.40790953170E+03 -0.65695777762E+03  0.75388057690E+03  0.10799627919E+04  0.25500000920E-02 0.  1.
       -2    1    3    3    0  502 -0.40790953170E+03  0.65695777762E+03  0.69540864486E+03  0.10399888898E+04  0.25500000920E-02 0. -1.
</event>
<event>
 5   0  0.5288658E-04  0.1609165E+04  0.7818609E-02  0.8814938E-01
       -1   -1    0    0    0  501  0.00000000000E+00  0.00000000000E+00  0.77114733648E+03  0.77114733649E+03  0.50400001928E-02 0. -1.
        1   -1    0    0  501    0  0.00000000000E+00  0.00000000000E+00 -0.83946684370E+03  0.83946684372E+03  0.50400001928E-02 0.  1.
    10030    2    1    2    0    0  0.00000000000E+00  0.00000000000E+00 -0.68319507225E+02  0.16106141802E+04  0.16091645293E+04 0.  0.
        1    1    3    3  502    0  0.21125671088E+03 -0.37803941558E+03 -0.71286311649E+03  0.83409652948E+03  0.50400001928E-02 0.  1.
       -1    1    3    3    0  502 -0.21125671088E+03  0.37803941558E+03  0.64454360926E+03  0.77651765073E+03  0.50400001928E-02 0. -1.
</event>
<event>
 5   0  0.9844690E-04  0.1590773E+04  0.7818609E-02  0.8826237E-01
       -2   -1    0    0    0  501  0.00000000000E+00  0.00000000000E+00  0.14824572567E+04  0.14824572567E+04  0.25500000920E-02 0.  1.
        2   -1    0    0  501    0  0.00000000000E+00  0.00000000000E+00 -0.42675063379E+03  0.42675063380E+03  0.25500000920E-02 0. -1.
    10030    2    1    2    0    0  0.00000000000E+00  0.00000000000E+00  0.10557066229E+04  0.19092078905E+04  0.15907728611E+04 0.  0.
        3    1    3    3  502    0  0.23179491657E+03  0.28027982061E+03 -0.32109977787E+03  0.48517083459E+03  0.10100000352E+00 0. -1.
       -3    1    3    3    0  502 -0.23179491657E+03 -0.28027982061E+03  0.13768064008E+04  0.14240370559E+04  0.10100000352E+00 0.  1.
</event>
<event>
 5   0  0.5281116E-04  0.1605481E+04  0.7818609E-02  0.8817188E-01
       -1   -1    0    0    0  501  0.00000000000E+00  0.00000000000E+00  0.16880940287E+04  0.16880940287E+04  0.50400001928E-02 0.  1.
        1   -1    0    0  501    0  0.00000000000E+00  0.00000000000E+00 -0.38172784188E+03  0.38172784191E+03  0.50400001928E-02 0. -1.
    10030    2    1    2    0    0  0.00000000000E+00  0.00000000000E+00  0.13063661869E+04  0.20698218707E+04  0.16054812245E+04 0.  0.
        2    1    3    3  502    0 -0.52691842496E+03 -0.59802397823E+03  0.77628041601E+03  0.11126036983E+04  0.25500000920E-02 0.  1.
       -2    1    3    3    0  502  0.52691842496E+03  0.59802397823E+03  0.53008577085E+03  0.95721817239E+03  0.25500000920E-02 0. -1.
</event>
<event>
 5   0  0.3832500E-04  0.1656688E+04  0.7818609E-02  0.8786460E-01
       -3   -1    0    0    0  501  0.00000000000E+00  0.00000000000E+00  0.12416261276E+04  0.12416261317E+04  0.10100000352E+00 0. -1.
        3   -1    0    0  501    0  0.00000000000E+00  0.00000000000E+00 -0.55262483966E+03  0.55262484888E+03  0.10100000352E+00 0.  1.
    10030    2    1    2    0    0  0.00000000000E+00  0.00000000000E+00  0.68900128793E+03  0.17942509806E+04  0.16566876008E+04 0.  0.
        5    1    3    3  502    0 -0.10244034986E+03 -0.99845832671E+02 -0.53913140278E+03  0.55780639566E+03  0.46999998093E+01 0.  1.
       -5    1    3    3    0  502  0.10244034986E+03  0.99845832671E+02  0.12281326907E+04  0.12364445849E+04  0.46999998093E+01 0. -1.
</event>
<event>
 5   0  0.5281116E-04  0.1582576E+04  0.7818609E-02  0.8831324E-01
        1   -1    0    0  501    0  0.00000000000E+00  0.00000000000E+00  0.73524581378E+03  0.73524581380E+03  0.50400001928E-02 0.  1.
       -1   -1    0    0    0  501  0.00000000000E+00  0.00000000000E+00 -0.85160218145E+03  0.85160218146E+03  0.50400001928E-02 0. -1.
    10030    2    1    2    0    0  0.00000000000E+00  0.00000000000E+00 -0.11635636767E+03  0.15868479953E+04  0.15825763033E+04 0.  0.
        2    1    3    3  502    0  0.22881713985E+03 -0.75748238900E+03 -0.57884488469E+02  0.79340246228E+03  0.25500000920E-02 0. -1.
       -2    1    3    3    0  502 -0.22881713985E+03  0.75748238900E+03 -0.58471879197E+02  0.79344553298E+03  0.25500000920E-02 0.  1.
</event>
<event>
 5   0  0.1037321E-03  0.1615095E+04  0.7818609E-02  0.8811328E-01
        2   -1    0    0  501    0  0.00000000000E+00  0.00000000000E+00  0.25331970376E+04  0.25331970376E+04  0.25500000920E-02 0.  1.
       -2   -1    0    0    0  501  0.00000000000E+00  0.00000000000E+00 -0.25743488809E+03  0.25743488810E+03  0.25500000920E-02 0. -1.
    10030    2    1    2    0    0  0.00000000000E+00  0.00000000000E+00  0.22757621495E+04  0.27906319257E+04  0.16150954101E+04 0.  0.
        5    1    3    3  502    0 -0.58685207798E+03 -0.28469580358E+03  0.19604944898E+04  0.20661577376E+04  0.46999998093E+01 0.  1.
       -5    1    3    3    0  502  0.58685207798E+03  0.28469580358E+03  0.31526765971E+03  0.72447418813E+03  0.46999998093E+01 0. -1.
</event>
<event>
 5   0  0.1000121E-03  0.1744904E+04  0.7818609E-02  0.8736160E-01
        2   -1    0    0  501    0  0.00000000000E+00  0.00000000000E+00  0.75144401925E+03  0.75144401925E+03  0.25500000920E-02 0.  1.
       -2   -1    0    0    0  501  0.00000000000E+00  0.00000000000E+00 -0.10129464867E+04  0.10129464867E+04  0.25500000920E-02 0. -1.
    10030    2    1    2    0    0  0.00000000000E+00  0.00000000000E+00 -0.26150246745E+03  0.17643905059E+04  0.17449040997E+04 0.  0.
        4    1    3    3  502    0 -0.19164472092E+03  0.78264836547E+03 -0.46900879490E+03  0.93232881841E+03  0.12699999809E+01 0. -1.
       -4    1    3    3    0  502  0.19164472092E+03 -0.78264836547E+03  0.20750632746E+03  0.83206168754E+03  0.12699999809E+01 0.  1.
</event>
<event>
 5   0  0.5281116E-04  0.1602435E+04  0.7818609E-02  0.8819054E-01
        1   -1    0    0  501    0  0.00000000000E+00  0.00000000000E+00  0.75790601057E+03  0.75790601059E+03  0.50400001928E-02 0.  1.
       -1   -1    0    0    0  501  0.00000000000E+00  0.00000000000E+00 -0.84700368139E+03  0.84700368141E+03  0.50400001928E-02 0. -1.
    10030    2    1    2    0    0  0.00000000000E+00  0.00000000000E+00 -0.89097670823E+02  0.16049096920E+04  0.16024346241E+04 0.  0.
        2    1    3    3  502    0 -0.70489820528E+03 -0.37096253408E+03  0.41923965893E+02  0.79765424867E+03  0.25500000920E-02 0.  1.
       -2    1    3    3    0  502  0.70489820528E+03  0.37096253408E+03 -0.13102163672E+03  0.80725544333E+03  0.25500000920E-02 0. -1.
</event>
<event>
 5   0  0.5288658E-04  0.1228823E+04  0.7818609E-02  0.9087995E-01
       -1   -1    0    0    0  501  0.00000000000E+00  0.00000000000E+00  0.41755206790E+03  0.41755206793E+03  0.50400001928E-02 0. -1.
        1   -1    0    0  501    0  0.00000000000E+00  0.00000000000E+00 -0.90408287827E+03  0.90408287828E+03  0.50400001928E-02 0.  1.
    10030    2    1    2    0    0  0.00000000000E+00  0.00000000000E+00 -0.48653081037E+03  0.13216349462E+04  0.12288232996E+04 0.  0.
        1    1    3    3  502    0  0.95015254646E+02 -0.14838057031E+03  0.38979730967E+03  0.42776937117E+03  0.50400001928E-02 0. -1.
       -1    1    3    3    0  502 -0.95015254646E+02  0.14838057031E+03 -0.87632812003E+03  0.89386557504E+03  0.50400001928E-02 0.  1.
</event>
<event>
 5   0  0.5623061E-04  0.1581731E+04  0.7818609E-02  0.8831850E-01
        1   -1    0    0  501    0  0.00000000000E+00  0.00000000000E+00  0.12964047848E+04  0.12964047848E+04  0.50400001928E-02 0. -1.
       -1   -1    0    0    0  501  0.00000000000E+00  0.00000000000E+00 -0.48246398691E+03  0.48246398693E+03  0.50400001928E-02 0.  1.
    10030    2    1    2    0    0  0.00000000000E+00  0.00000000000E+00  0.81394079788E+03  0.17788687717E+04  0.15817314831E+04 0.  0.
        3    1    3    3  502    0  0.64806754731E+03 -0.33240322658E+03  0.60362040517E+02  0.73083995311E+03  0.10100000352E+00 0. -1.
       -3    1    3    3    0  502 -0.64806754731E+03  0.33240322658E+03  0.75357875737E+03  0.10480288186E+04  0.10100000352E+00 0.  1.
</event>
<event>
 5   0  0.1057872E-03  0.1598707E+04  0.7818609E-02  0.8821342E-01
        2   -1    0    0  501    0  0.00000000000E+00  0.00000000000E+00  0.93774559538E+03  0.93774559538E+03  0.25500000920E-02 0. -1.
       -2   -1    0    0    0  501  0.00000000000E+00  0.00000000000E+00 -0.68138562316E+03  0.68138562316E+03  0.25500000920E-02 0.  1.
    10030    2    1    2    0    0  0.00000000000E+00  0.00000000000E+00  0.25635997222E+03  0.16191312185E+04  0.15987074365E+04 0.  0.
        2    1    3    3  502    0  0.26442907078E+03 -0.23769417067E+03 -0.59688861841E+03  0.69476418664E+03  0.25500000920E-02 0.  1.
       -2    1    3    3    0  502 -0.26442907078E+03  0.23769417067E+03  0.85324859063E+03  0.92436703190E+03  0.25500000920E-02 0. -1.
</event>
<event>
 5   0  0.5288658E-04  0.1496526E+04  0.7818609E-02  0.8886766E-01
        1   -1    0    0  501    0  0.00000000000E+00  0.00000000000E+00  0.92206713829E+03  0.92206713830E+03  0.50400001928E-02 0. -1.
       -1   -1    0    0    0  501  0.00000000000E+00  0.00000000000E+00 -0.60721997314E+03  0.60721997317E+03  0.50400001928E-02 0.  1.
    10030    2    1    2    0    0  0.00000000000E+00  0.00000000000E+00  0.31484716514E+03  0.15292871115E+04  0.14965260879E+04 0.  0.
        1    1    3    3  502    0  0.12623524891E+03 -0.47364110733E+03 -0.42030788296E+03  0.64570113297E+03  0.50400001928E-02 0.  1.
       -1    1    3    3    0  502 -0.12623524891E+03  0.47364110733E+03  0.73515504810E+03  0.88358597849E+03  0.50400001928E-02 0. -1.
</event>
<event>
 5   0  0.1037321E-03  0.1250211E+04  0.7818609E-02  0.9070008E-01
        2   -1    0    0  501    0  0.00000000000E+00  0.00000000000E+00  0.47986388968E+03  0.47986388969E+03  0.25500000920E-02 0. -1.
       -2   -1    0    0    0  501  0.00000000000E+00  0.00000000000E+00 -0.81430718119E+03  0.81430718120E+03  0.25500000920E-02 0.  1.
    10030    2    1    2    0    0  0.00000000000E+00  0.00000000000E+00 -0.33444329151E+03  0.12941710709E+04  0.12502105605E+04 0.  0.
        5    1    3    3  502    0 -0.37153627185E+03  0.18064883631E+03 -0.65282354816E+03  0.77257613113E+03  0.46999998093E+01 0.  1.
       -5    1    3    3    0  502  0.37153627185E+03 -0.18064883631E+03  0.31838025665E+03  0.52159493976E+03  0.46999998093E+01 0. -1.
</event>
<event>
 5   0  0.5288658E-04  0.1622260E+04  0.7818609E-02  0.8806988E-01
        1   -1    0    0  501    0  0.00000000000E+00  0.00000000000E+00  0.19948829718E+04  0.19948829718E+04  0.50400001928E-02 0.  1.
       -1   -1    0    0    0  501  0.00000000000E+00  0.00000000000E+00 -0.32980973612E+03  0.32980973616E+03  0.50400001928E-02 0. -1.
    10030    2    1    2    0    0  0.00000000000E+00  0.00000000000E+00  0.16650732357E+04  0.23246927079E+04  0.16222599380E+04 0.  0.
        1    1    3    3  502    0  0.44944743560E+02  0.79087915683E+03  0.10824782928E+04  0.13413683779E+04  0.50400001928E-02 0.  1.
       -1    1    3    3    0  502 -0.44944743560E+02 -0.79087915683E+03  0.58259494283E+03  0.98332433008E+03  0.50400001928E-02 0. -1.
</event>
<event>
 5   0  0.1057872E-03  0.1635265E+04  0.7818609E-02  0.8799171E-01
        2   -1    0    0  501    0  0.00000000000E+00  0.00000000000E+00  0.16460154962E+04  0.16460154962E+04  0.25500000920E-02 0.  1.
       -2   -1    0    0    0  501  0.00000000000E+00  0.00000000000E+00 -0.40614637399E+03  0.40614637400E+03  0.25500000920E-02 0. -1.
    10030    2    1    2    0    0  0.00000000000E+00  0.00000000000E+00  0.12398691222E+04  0.20521618702E+04  0.16352653917E+04 0.  0.
        2    1    3    3  502    0 -0.18904664244E+03  0.33843838536E+03 -0.28348716687E+03  0.48025425296E+03  0.25500000920E-02 0. -1.
       -2    1    3    3    0  502  0.18904664244E+03 -0.33843838536E+03  0.15233562891E+04  0.15719076173E+04  0.25500000920E-02 0.  1.
</event>
<event>
 5   0  0.3832500E-04  0.1510020E+04  0.7818609E-02  0.8877817E-01
        3   -1    0    0  501    0  0.00000000000E+00  0.00000000000E+00  0.92586558400E+03  0.92586558951E+03  0.10100000352E+00 0.  1.
       -3   -1    0    0    0  501  0.00000000000E+00  0.00000000000E+00 -0.61568309866E+03  0.61568310694E+03  0.10100000352E+00 0. -1.
    10030    2    1    2    0    0  0.00000000000E+00  0.00000000000E+00  0.31018248535E+03  0.15415486965E+04  0.15100196056E+04 0.  0.
        4    1    3    3  502    0 -0.11013482234E+03  0.63193709049E+03  0.56160663241E+03  0.85257128024E+03  0.12699999809E+01 0.  1.
       -4    1    3    3    0  502  0.11013482234E+03 -0.63193709049E+03 -0.25142414707E+03  0.68897741621E+03  0.12699999809E+01 0. -1.
</event>
<event>
 5   0  0.1037321E-03  0.1725736E+04  0.7818609E-02  0.8746821E-01
        2   -1    0    0  501    0  0.00000000000E+00  0.00000000000E+00  0.96725167289E+03  0.96725167289E+03  0.25500000920E-02 0.  1.
       -2   -1    0    0    0  501  0.00000000000E+00  0.00000000000E+00 -0.76974881941E+03  0.76974881941E+03  0.25500000920E-02 0. -1.
    10030    2    1    2    0    0  0.00000000000E+00  0.00000000000E+00  0.19750285348E+03  0.17370004923E+04  0.17257355919E+04 0.  0.
        5    1    3    3  502    0  0.43268355396E+03 -0.65722377109E+03 -0.25762274145E+03  0.82797929326E+03  0.46999998093E+01 0. -1.
       -5    1    3    3    0  502 -0.43268355396E+03  0.65722377109E+03  0.45512559492E+03  0.90902119904E+03  0.46999998093E+01 0.  1.
</event>
<event>
 5   0  0.5288658E-04  0.1510384E+04  0.7818609E-02  0.8877577E-01
       -1   -1    0    0    0  501  0.00000000000E+00  0.00000000000E+00  0.49984754217E+03  0.49984754219E+03  0.50400001928E-02 0.  1.
        1   -1    0    0  501    0  0.00000000000E+00  0.00000000000E+00 -0.11409777524E+04  0.11409777524E+04  0.50400001928E-02 0. -1.
    10030    2    1    2    0    0  0.00000000000E+00  0.00000000000E+00 -0.64113021018E+03  0.16408252946E+04  0.15103839581E+04 0.  0.
        1    1    3    3  502    0  0.38272017056E+03 -0.25880258314E+03  0.32840512823E+03  0.56683633816E+03  0.50400001928E-02 0.  1.
       -1    1    3    3    0  502 -0.38272017056E+03  0.25880258314E+03 -0.96953533842E+03  0.10739889564E+04  0.50400001928E-02 0. -1.
</event>
<event>
 5   0  0.5281116E-04  0.1595864E+04  0.7818609E-02  0.8823093E-01
       -1   -1    0    0    0  501  0.00000000000E+00  0.00000000000E+00  0.45847488466E+03  0.45847488469E+03  0.50400001928E-02 0. -1.
        1   -1    0    0  501    0  0.00000000000E+00  0.00000000000E+00 -0.13887246873E+04  0.13887246873E+04  0.50400001928E-02 0.  1.
    10030    2    1    2    0    0  0.00000000000E+00  0.00000000000E+00 -0.93024980266E+03  0.18471995720E+04  0.15958638925E+04 0.  0.
        2    1    3    3  502    0 -0.50539076256E+03  0.31412898235E+03  0.15019779660E+03  0.61372324263E+03  0.25500000920E-02 0. -1.
       -2    1    3    3    0  502  0.50539076256E+03 -0.31412898235E+03 -0.10804475993E+04  0.12334763294E+04  0.25500000920E-02 0.  1.
</event>
<event>
 5   0  0.9844690E-04  0.1542667E+04  0.7818609E-02  0.8856565E-01
        2   -1    0    0  501    0  0.00000000000E+00  0.00000000000E+00  0.84258377774E+03  0.84258377775E+03  0.25500000920E-02 0. -1.
       -2   -1    0    0    0  501  0.00000000000E+00  0.00000000000E+00 -0.70610831470E+03  0.70610831470E+03  0.25500000920E-02 0.  1.
    10030    2    1    2    0    0  0.00000000000E+00  0.00000000000E+00  0.13647546304E+03  0.15486920924E+04  0.15426670558E+04 0.  0.
        3    1    3    3  502    0  0.51572810425E+03 -0.28275783503E+03 -0.43273825056E+03  0.73019851718E+03  0.10100000352E+00 0.  1.
       -3    1    3    3    0  502 -0.51572810425E+03  0.28275783503E+03  0.56921371361E+03  0.81849357527E+03  0.10100000352E+00 0. -1.
</event>
<event>
 5   0  0.5623061E-04  0.1609943E+04  0.7818609E-02  0.8814463E-01
        1   -1    0    0  501    0  0.00000000000E+00  0.00000000000E+00  0.13631546072E+04  0.13631546072E+04  0.50400001928E-02 0.  1.
       -1   -1    0    0    0  501  0.00000000000E+00  0.00000000000E+00 -0.47535271899E+03  0.47535271902E+03  0.50400001928E-02 0. -1.
    10030    2    1    2    0    0  0.00000000000E+00  0.00000000000E+00  0.88780188820E+03  0.18385073262E+04  0.16099431654E+04 0.  0.
        3    1    3    3  502    0  0.37963059061E+03 -0.70499535721E+03  0.34944543260E+03  0.87364177989E+03  0.10100000352E+00 0.  1.
       -3    1    3    3    0  502 -0.37963059061E+03  0.70499535721E+03  0.53835645560E+03  0.96486554633E+03  0.10100000352E+00 0. -1.
</event>
<event>
 5   0  0.1030027E-03  0.1607654E+04  0.7818609E-02  0.8815859E-01
       -2   -1    0    0    0  501  0.00000000000E+00  0.00000000000E+00  0.35985557940E+03  0.35985557941E+03  0.25500000920E-02 0. -1.
        2   -1    0    0  501    0  0.00000000000E+00  0.00000000000E+00 -0.17955484372E+04  0.17955484372E+04  0.25500000920E-02 0.  1.
    10030    2    1    2    0    0  0.00000000000E+00  0.00000000000E+00 -0.14356928578E+04  0.21554040166E+04  0.16076543450E+04 0.  0.
        1    1    3    3  502    0 -0.73673908384E+02  0.80043483214E+03 -0.71276621544E+03  0.10743181294E+04  0.50400001928E-02 0.  1.
       -1    1    3    3    0  502  0.73673908384E+02 -0.80043483214E+03 -0.72292664238E+03  0.10810858872E+04  0.50400001928E-02 0. -1.
</event>
<event>
 5   0  0.5288658E-04  0.1560246E+04  0.7818609E-02  0.8845350E-01
        1   -1    0    0  501    0  0.00000000000E+00  0.00000000000E+00  0.53356633116E+03  0.53356633119E+03  0.50400001928E-02 0.  1.
       -1   -1    0    0    0  501  0.00000000000E+00  0.00000000000E+00 -0.11406115004E+04  0.11406115004E+04  0.50400001928E-02 0. -1.
    10030    2    1    2    0    0  0.00000000000E+00  0.00000000000E+00 -0.60704516921E+03  0.16741778316E+04  0.15602459980E+04 0.  0.
        1    1    3    3  502    0  0.15466755366E+03 -0.70309961534E+03  0.18957078065E+02  0.72016004616E+03  0.50400001928E-02 0.  1.
       -1    1    3    3    0  502 -0.15466755366E+03  0.70309961534E+03 -0.62600224727E+03  0.95401778541E+03  0.50400001928E-02 0. -1.
</event>
<event>
 5   0  0.1057872E-03  0.1658747E+04  0.7818609E-02  0.8785249E-01
       -2   -1    0    0    0  501  0.00000000000E+00  0.00000000000E+00  0.11593936069E+04  0.11593936069E+04  0.25500000920E-02 0.  1.
        2   -1    0    0  501    0  0.00000000000E+00  0.00000000000E+00 -0.59329316002E+03  0.59329316002E+03  0.25500000920E-02 0. -1.
    10030    2    1    2    0    0  0.00000000000E+00  0.00000000000E+00  0.56610044685E+03  0.17526867669E+04  0.16587468725E+04 0.  0.
        2    1    3    3  502    0  0.70030942886E+03  0.43376476826E+03  0.18128858079E+03  0.84347538190E+03  0.25500000920E-02 0. -1.
       -2    1    3    3    0  502 -0.70030942886E+03 -0.43376476826E+03  0.38481186606E+03  0.90921138500E+03  0.25500000920E-02 0.  1.
</event>
<event>
 5   0  0.5623061E-04  0.1602485E+04  0.7818609E-02  0.8819023E-01
       -1   -1    0    0    0  501  0.00000000000E+00  0.00000000000E+00  0.26955935195E+03  0.26955935200E+03  0.50400001928E-02 0.  1.
        1   -1    0    0  501    0  0.00000000000E+00  0.00000000000E+00 -0.23816253168E+04  0.23816253168E+04  0.50400001928E-02 0. -1.
    10030    2    1    2    0    0  0.00000000000E+00  0.00000000000E+00 -0.21120659648E+04  0.26511846688E+04  0.16024847919E+04 0.  0.
        3    1    3    3  502    0 -0.14502208972E+03 -0.48019778602E+03 -0.20897060332E+04  0.21490678527E+04  0.10100000352E+00 0. -1.
       -3    1    3    3    0  502  0.14502208972E+03  0.48019778602E+03 -0.22359931604E+02  0.50211681604E+03  0.10100000352E+00 0.  1.
</event>
<event>
 5   0  0.1000121E-03  0.1495771E+04  0.7818609E-02  0.8887270E-01
       -2   -1    0    0    0  501  0.00000000000E+00  0.00000000000E+00  0.52021343359E+03  0.52021343360E+03  0.25500000920E-02 0.  1.
        2   -1    0    0  501    0  0.00000000000E+00  0.00000000000E+00 -0.10751985049E+04  0.10751985049E+04  0.25500000920E-02 0. -1.
    10030    2    1    2    0    0  0.00000000000E+00  0.00000000000E+00 -0.55498507133E+03  0.15954119385E+04  0.14957709799E+04 0.  0.
        4    1    3    3  502    0 -0.66718366603E+03  0.15541630791E+03  0.42568111395E+02  0.68636865458E+03  0.12699999809E+01 0.  1.
       -4    1    3    3    0  502  0.66718366603E+03 -0.15541630791E+03 -0.59755318273E+03  0.90904328394E+03  0.12699999809E+01 0. -1.
</event>
<event>
 5   0  0.1030027E-03  0.1603359E+04  0.7818609E-02  0.8818487E-01
       -2   -1    0    0    0  501  0.00000000000E+00  0.00000000000E+00  0.65157777115E+03  0.65157777115E+03  0.25500000920E-02 0.  1.
        2   -1    0    0  501    0  0.00000000000E+00  0.00000000000E+00 -0.98635985938E+03  0.98635985939E+03  0.25500000920E-02 0. -1.
    10030    2    1    2    0    0  0.00000000000E+00  0.00000000000E+00 -0.33478208824E+03  0.16379376305E+04  0.16033591722E+04 0.  0.
        1    1    3    3  502    0 -0.55761674943E+03 -0.40859575558E+03  0.24732362475E+03  0.73420426729E+03  0.50400001928E-02 0.  1.
       -1    1    3    3    0  502  0.55761674943E+03  0.40859575558E+03 -0.58210571299E+03  0.90373336325E+03  0.50400001928E-02 0. -1.
</event>
<event>
 5   0  0.5623061E-04  0.1559170E+04  0.7818609E-02  0.8846032E-01
       -1   -1    0    0    0  501  0.00000000000E+00  0.00000000000E+00  0.45656696585E+03  0.45656696588E+03  0.50400001928E-02 0.  1.
        1   -1    0    0  501    0  0.00000000000E+00  0.00000000000E+00 -0.13311358054E+04  0.13311358054E+04  0.50400001928E-02 0. -1.
    10030    2    1    2    0    0  0.00000000000E+00  0.00000000000E+00 -0.87456883953E+03  0.17877027713E+04  0.15591698251E+04 0.  0.
        3    1    3    3  502    0  0.31552712887E+03  0.67682032449E+03 -0.69394664087E+03  0.10194140823E+04  0.10100000352E+00 0.  1.
       -3    1    3    3    0  502 -0.31552712887E+03 -0.67682032449E+03 -0.18062219866E+03  0.76828868894E+03  0.10100000352E+00 0. -1.
</event>
<event>
 5   0  0.5425525E-04  0.1583961E+04  0.7818609E-02  0.8830463E-01
        1   -1    0    0  501    0  0.00000000000E+00  0.00000000000E+00  0.85334238878E+03  0.85334238879E+03  0.50400001928E-02 0. -1.
       -1   -1    0    0    0  501  0.00000000000E+00  0.00000000000E+00 -0.73503055631E+03  0.73503055633E+03  0.50400001928E-02 0.  1.
    10030    2    1    2    0    0  0.00000000000E+00  0.00000000000E+00  0.11831183247E+03  0.15883729451E+04  0.15839605182E+04 0.  0.
        5    1    3    3  502    0  0.20609933982E+03  0.60046892766E+03  0.53394160585E+03  0.82955144471E+03  0.46999998093E+01 0. -1.
       -5    1    3    3    0  502 -0.20609933982E+03 -0.60046892766E+03 -0.41562977338E+03  0.75882150041E+03  0.46999998093E+01 0.  1.
</event>
<event>
 5   0  0.5623061E-04  0.1698636E+04  0.7818609E-02  0.8762143E-01
       -1   -1    0    0    0  501  0.00000000000E+00  0.00000000000E+00  0.33241426608E+03  0.33241426612E+03  0.50400001928E-02 0. -1.
        1   -1    0    0  501    0  0.00000000000E+00  0.00000000000E+00 -0.21700069513E+04  0.21700069513E+04  0.50400001928E-02 0.  1.
    10030    2    1    2    0    0  0.00000000000E+00  0.00000000000E+00 -0.18375926852E+04  0.25024212174E+04  0.16986362391E+04 0.  0.
        3    1    3    3  502    0  0.34529857647E+03  0.76055704805E+03 -0.69217745558E+03  0.10847984930E+04  0.10100000352E+00 0. -1.
       -3    1    3    3    0  502 -0.34529857647E+03 -0.76055704805E+03 -0.11454152296E+04  0.14176227244E+04  0.10100000352E+00 0.  1.
</event>
<event>
 5   0  0.5425525E-04  0.1602472E+04  0.7818609E-02  0.8819031E-01
       -1   -1    0    0    0  501  0.00000000000E+00  0.00000000000E+00  0.49603866969E+03  0.49603866971E+03  0.50400001928E-02 0.  1.
        1   -1    0    0  501    0  0.00000000000E+00  0.00000000000E+00 -0.12942118454E+04  0.12942118454E+04  0.50400001928E-02 0. -1.
    10030    2    1    2    0    0  0.00000000000E+00  0.00000000000E+00 -0.79817317575E+03  0.17902505152E+04  0.16024719931E+04 0.  0.
        5    1    3    3  502    0  0.66046458406E+03 -0.25588095941E+03 -0.81749791750E+03  0.10816716079E+04  0.46999998093E+01 0. -1.
       -5    1    3    3    0  502 -0.66046458406E+03  0.25588095941E+03  0.19324741750E+02  0.70857890727E+03  0.46999998093E+01 0.  1.
</event>
<event>
 5   0  0.1057872E-03  0.1599605E+04  0.7818609E-02  0.8820791E-01
        2   -1    0    0  501    0  0.00000000000E+00  0.00000000000E+00  0.67028333816E+03  0.67028333816E+03  0.25500000920E-02 0. -1.
       -2   -1    0    0    0  501  0.00000000000E+00  0.00000000000E+00 -0.95434872458E+03  0.95434872459E+03  0.25500000920E-02 0.  1.
    10030    2    1    2    0    0  0.00000000000E+00  0.00000000000E+00 -0.28406538643E+03  0.16246320628E+04  0.15996050124E+04 0.  0.
        2    1    3    3  502    0 -0.36978589973E+03  0.67394974641E+03  0.82179424076E+02  0.77311275378E+03  0.25500000920E-02 0.  1.
       -2    1    3    3    0  502  0.36978589973E+03 -0.67394974641E+03 -0.36624481050E+03  0.85151930897E+03  0.25500000920E-02 0. -1.
</event>
<event>
 5   0  0.5623061E-04  0.1587889E+04  0.7818609E-02  0.8828023E-01
       -1   -1    0    0    0  501  0.00000000000E+00  0.00000000000E+00  0.10779176048E+04  0.10779176048E+04  0.50400001928E-02 0.  1.
        1   -1    0    0  501    0  0.00000000000E+00  0.00000000000E+00 -0.58478294128E+03  0.58478294130E+03  0.50400001928E-02 0. -1.
    10030    2    1    2    0    0  0.00000000000E+00  0.00000000000E+00  0.49313466348E+03  0.16627005461E+04  0.15878889475E+04 0.  0.
        3    1    3    3  502    0  0.60124683701E+03 -0.47300151593E+03  0.24145890772E+02  0.76538305922E+03  0.10100000352E+00 0.  1.
       -3    1    3    3    0  502 -0.60124683701E+03  0.47300151593E+03  0.46898877271E+03  0.89731748686E+03  0.10100000352E+00 0. -1.
</event>
<event>
 5   0  0.1030027E-03  0.1614168E+04  0.7818609E-02  0.8811891E-01
       -2   -1    0    0    0  501  0.00000000000E+00  0.00000000000E+00  0.51928796516E+03  0.51928796516E+03  0.25500000920E-02 0. -1.
        2   -1    0    0  501    0  0.00000000000E+00  0.00000000000E+00 -0.12543804906E+04  0.12543804906E+04  0.25500000920E-02 0.  1.
    10030    2    1    2    0    0  0.00000000000E+00  0.00000000000E+00 -0.73509252547E+03  0.17736684558E+04  0.16141681356E+04 0.  0.
        1    1    3    3  502    0 -0.61536450348E+03  0.38959355159E+03 -0.74965525658E+03  0.10451983598E+04  0.50400001928E-02 0.  1.
       -1    1    3    3    0  502  0.61536450348E+03 -0.38959355159E+03  0.14562731110E+02  0.72847009599E+03  0.50400001928E-02 0. -1.
</event>
<event>
 5   0  0.1000121E-03  0.1597293E+04  0.7818609E-02  0.8822213E-01
        2   -1    0    0  501    0  0.00000000000E+00  0.00000000000E+00  0.43233190765E+03  0.43233190766E+03  0.25500000920E-02 0.  1.
       -2   -1    0    0    0  501  0.00000000000E+00  0.00000000000E+00 -0.14753389139E+04  0.14753389139E+04  0.25500000920E-02 0. -1.
    10030    2    1    2    0    0  0.00000000000E+00  0.00000000000E+00 -0.10430070062E+04  0.19076708215E+04  0.15972928186E+04 0.  0.
        4    1    3    3  502    0 -0.28356961625E+03 -0.72776855826E+03 -0.32245854115E+03  0.84500883150E+03  0.12699999809E+01 0.  1.
       -4    1    3    3    0  502  0.28356961625E+03  0.72776855826E+03 -0.72054846507E+03  0.10626619900E+04  0.12699999809E+01 0. -1.
</event>
<event>
 5   0  0.5623061E-04  0.1640902E+04  0.7818609E-02  0.8795807E-01
       -1   -1    0    0    0  501  0.00000000000E+00  0.00000000000E+00  0.49083171157E+03  0.49083171160E+03  0.50400001928E-02 0. -1.
        1   -1    0    0  501    0  0.00000000000E+00  0.00000000000E+00 -0.13714262899E+04  0.13714262900E+04  0.50400001928E-02 0.  1.
    10030    2    1    2    0    0  0.00000000000E+00  0.00000000000E+00 -0.88059457838E+03  0.18622580016E+04  0.16409015976E+04 0.  0.
        3    1    3    3  502    0 -0.54798991933E+03 -0.42400915307E+02 -0.11316071892E+04  0.12580244951E+04  0.10100000352E+00 0.  1.
       -3    1    3    3    0  502  0.54798991933E+03  0.42400915307E+02  0.25101261087E+03  0.60423350646E+03  0.10100000352E+00 0. -1.
</event>
<event>
 5   0  0.9844690E-04  0.1634624E+04  0.7818609E-02  0.8799555E-01
        2   -1    0    0  501    0  0.00000000000E+00  0.00000000000E+00  0.68458513774E+03  0.68458513775E+03  0.25500000920E-02 0. -1.
       -2   -1    0    0    0  501  0.00000000000E+00  0.00000000000E+00 -0.97577127279E+03  0.97577127279E+03  0.25500000920E-02 0.  1.
    10030    2    1    2    0    0  0.00000000000E+00  0.00000000000E+00 -0.29118613504E+03  0.16603564105E+04  0.16346235177E+04 0.  0.
        3    1    3    3  502    0 -0.31877575375E+03  0.51726156397E+03 -0.70084379160E+03  0.92755567874E+03  0.10100000352E+00 0.  1.
       -3    1    3    3    0  502  0.31877575375E+03 -0.51726156397E+03  0.40965765656E+03  0.73280073179E+03  0.10100000352E+00 0. -1.
</event>
<event>
 5   0  0.9844690E-04  0.1611937E+04  0.7818609E-02  0.8813248E-01
        2   -1    0    0  501    0  0.00000000000E+00  0.00000000000E+00  0.12610271964E+04  0.12610271964E+04  0.25500000920E-02 0. -1.
       -2   -1    0    0    0  501  0.00000000000E+00  0.00000000000E+00 -0.51512412497E+03  0.51512412498E+03  0.25500000920E-02 0.  1.
    10030    2    1    2    0    0  0.00000000000E+00  0.00000000000E+00  0.74590307140E+03  0.17761513214E+04  0.16119373823E+04 0.  0.
        3    1    3    3  502    0  0.40075178921E+03 -0.40229128600E+03 -0.25728286164E+03  0.62340577190E+03  0.10100000352E+00 0.  1.
       -3    1    3    3    0  502 -0.40075178921E+03  0.40229128600E+03  0.10031859330E+04  0.11527455495E+04  0.10100000352E+00 0. -1.
</event>
<event>
 5   0  0.5281116E-04  0.1563914E+04  0.7818609E-02  0.8843029E-01
        1   -1    0    0  501    0  0.00000000000E+00  0.00000000000E+00  0.10598431071E+04  0.10598431071E+04  0.50400001928E-02 0.  1.
       -1   -1    0    0    0  501  0.00000000000E+00  0.00000000000E+00 -0.57693101651E+03  0.57693101653E+03  0.50400001928E-02 0. -1.
    10030    2    1    2    0    0  0.00000000000E+00  0.00000000000E+00  0.48291209055E+03  0.16367741236E+04  0.15639135029E+04 0.  0.
        2    1    3    3  502    0 -0.15460432904E+03 -0.58125305117E+03  0.76443499423E+03  0.97268621274E+03  0.25500000920E-02 0.  1.
       -2    1    3    3    0  502  0.15460432904E+03  0.58125305117E+03 -0.28152290368E+03  0.66408791086E+03  0.25500000920E-02 0. -1.
</event>
<event>
 5   0  0.5425525E-04  0.1628230E+04  0.7818609E-02  0.8803390E-01
       -1   -1    0    0    0  501  0.00000000000E+00  0.00000000000E+00  0.83413113227E+03  0.83413113228E+03  0.50400001928E-02 0. -1.
        1   -1    0    0  501    0  0.00000000000E+00  0.00000000000E+00 -0.79457941667E+03  0.79457941669E+03  0.50400001928E-02 0.  1.
    10030    2    1    2    0    0  0.00000000000E+00  0.00000000000E+00  0.39551715597E+02  0.16287105490E+04  0.16282302399E+04 0.  0.
        5    1    3    3  502    0 -0.69775497135E+03 -0.39926287492E+03 -0.10866955656E+03  0.81123609748E+03  0.46999998093E+01 0. -1.
       -5    1    3    3    0  502  0.69775497135E+03  0.39926287492E+03  0.14822127215E+03  0.81747445149E+03  0.46999998093E+01 0.  1.
</event>
<event>
 5   0  0.5288658E-04  0.1598926E+04  0.7818609E-02  0.8821208E-01
        1   -1    0    0  501    0  0.00000000000E+00  0.00000000000E+00  0.95008236898E+03  0.95008236899E+03  0.50400001928E-02 0. -1.
       -1   -1    0    0    0  501  0.00000000000E+00  0.00000000000E+00 -0.67272177528E+03  0.67272177529E+03  0.50400001928E-02 0.  1.
    10030    2    1    2    0    0  0.00000000000E+00  0.00000000000E+00  0.27736059370E+03  0.16228041443E+04  0.15989260120E+04 0.  0.
        1    1    3    3  502    0  0.53298464314E+03 -0.47639369139E+03  0.50196072446E+03  0.87349192780E+03  0.50400001928E-02 0.  1.
       -1    1    3    3    0  502 -0.53298464314E+03  0.47639369139E+03 -0.22460013076E+03  0.74931221648E+03  0.50400001928E-02 0. -1.
</event>
<event>
 5   0  0.1037321E-03  0.1604222E+04  0.7818609E-02  0.8817958E-01
        2   -1    0    0  501    0  0.00000000000E+00  0.00000000000E+00  0.20680779107E+04  0.20680779107E+04  0.25500000920E-02 0.  1.
       -2   -1    0    0    0  501  0.00000000000E+00  0.00000000000E+00 -0.31110151915E+03  0.31110151916E+03  0.25500000920E-02 0. -1.
    10030    2    1    2    0    0  0.00000000000E+00  0.00000000000E+00  0.17569763915E+04  0.23791794299E+04  0.16042221539E+04 0.  0.
        5    1    3    3  502    0 -0.47602265858E+03  0.64552452099E+03  0.89003438636E+03  0.11981163456E+04  0.46999998093E+01 0.  1.
       -5    1    3    3    0  502  0.47602265858E+03 -0.64552452099E+03  0.86694200519E+03  0.11810630843E+04  0.46999998093E+01 0. -1.
</event>
<event>
 5   0  0.9844690E-04  0.1615143E+04  0.7818609E-02  0.8811299E-01
       -2   -1    0    0    0  501  0.00000000000E+00  0.00000000000E+00  0.34781025973E+03  0.34781025974E+03  0.25500000920E-02 0. -1.
        2   -1    0    0  501    0  0.00000000000E+00  0.00000000000E+00 -0.18750783762E+04  0.18750783762E+04  0.25500000920E-02 0.  1.
    10030    2    1    2    0    0  0.00000000000E+00  0.00000000000E+00 -0.15272681165E+04  0.22228886360E+04  0.16151427145E+04 0.  0.
        3    1    3    3  502    0 -0.40629503220E+02 -0.18531861226E+02  0.34610968294E+03  0.34897866588E+03  0.10100000352E+00 0. -1.
       -3    1    3    3    0  502  0.40629503220E+02  0.18531861226E+02 -0.18733777994E+04  0.18739099701E+04  0.10100000352E+00 0.  1.
</event>
<event>
 5   0  0.1000121E-03  0.1622448E+04  0.7818609E-02  0.8806875E-01
        2   -1    0    0  501    0  0.00000000000E+00  0.00000000000E+00  0.14324525010E+04  0.14324525010E+04  0.25500000920E-02 0. -1.
       -2   -1    0    0    0  501  0.00000000000E+00  0.00000000000E+00 -0.45941068061E+03  0.45941068061E+03  0.25500000920E-02 0.  1.
    10030    2    1    2    0    0  0.00000000000E+00  0.00000000000E+00  0.97304182036E+03  0.18918631816E+04  0.16224475072E+04 0.  0.
        4    1    3    3  502    0 -0.23671091005E+03 -0.56467536935E+03 -0.13400452826E+03  0.62677679774E+03  0.12699999809E+01 0.  1.
       -4    1    3    3    0  502  0.23671091005E+03  0.56467536935E+03  0.11070463486E+04  0.12650863838E+04  0.12699999809E+01 0. -1.
</event>
<event>
 5   0  0.9844690E-04  0.1596736E+04  0.7818609E-02  0.8822556E-01
        2   -1    0    0  501    0  0.00000000000E+00  0.00000000000E+00  0.68364705875E+03  0.68364705876E+03  0.25500000920E-02 0. -1.
       -2   -1    0    0    0  501  0.00000000000E+00  0.00000000000E+00 -0.93233973348E+03  0.93233973348E+03  0.25500000920E-02 0.  1.
    10030    2    1    2    0    0  0.00000000000E+00  0.00000000000E+00 -0.24869267473E+03  0.16159867922E+04  0.15967358160E+04 0.  0.
        3    1    3    3  502    0  0.23045751472E+02 -0.50753651945E+03  0.49892506427E+03  0.71207489437E+03  0.10100000352E+00 0. -1.
       -3    1    3    3    0  502 -0.23045751472E+02  0.50753651945E+03 -0.74761773900E+03  0.90391189786E+03  0.10100000352E+00 0.  1.
</event>
<event>
 5   0  0.5425525E-04  0.1538151E+04  0.7818609E-02  0.8859472E-01
        1   -1    0    0  501    0  0.00000000000E+00  0.00000000000E+00  0.93759665680E+03  0.93759665682E+03  0.50400001928E-02 0. -1.
       -1   -1    0    0    0  501  0.00000000000E+00  0.00000000000E+00 -0.63084358652E+03  0.63084358654E+03  0.50400001928E-02 0.  1.
    10030    2    1    2    0    0  0.00000000000E+00  0.00000000000E+00  0.30675307029E+03  0.15684402434E+04  0.15381506268E+04 0.  0.
        5    1    3    3  502    0 -0.53810918754E+03  0.20715590254E+03 -0.36554531382E+03  0.68273020449E+03  0.46999998093E+01 0.  1.
       -5    1    3    3    0  502  0.53810918754E+03 -0.20715590254E+03  0.67229838411E+03  0.88571003886E+03  0.46999998093E+01 0. -1.
</event>
<event>
 5   0  0.5532881E-04  0.1599604E+04  0.7818609E-02  0.8820791E-01
       -1   -1    0    0    0  501  0.00000000000E+00  0.00000000000E+00  0.14900777153E+04  0.14900777153E+04  0.50400001928E-02 0.  1.
        1   -1    0    0  501    0  0.00000000000E+00  0.00000000000E+00 -0.42929525566E+03  0.42929525569E+03  0.50400001928E-02 0. -1.
    10030    2    1    2    0    0  0.00000000000E+00  0.00000000000E+00  0.10607824597E+04  0.19193729710E+04  0.15996040682E+04 0.  0.
        4    1    3    3  502    0  0.40452236659E+03  0.38495682330E+03 -0.15665429511E+03  0.57997610464E+03  0.12699999809E+01 0. -1.
       -4    1    3    3    0  502 -0.40452236659E+03 -0.38495682330E+03  0.12174367548E+04  0.13393968664E+04  0.12699999809E+01 0.  1.
</event>
<event>
 5   0  0.5425525E-04  0.1597664E+04  0.7818609E-02  0.8821985E-01
       -1   -1    0    0    0  501  0.00000000000E+00  0.00000000000E+00  0.94317194252E+03  0.94317194253E+03  0.50400001928E-02 0. -1.
        1   -1    0    0  501    0  0.00000000000E+00  0.00000000000E+00 -0.67658117685E+03  0.67658117686E+03  0.50400001928E-02 0.  1.
    10030    2    1    2    0    0  0.00000000000E+00  0.00000000000E+00  0.26659076567E+03  0.16197531194E+04  0.15976637730E+04 0.  0.
        5    1    3    3  502    0  0.36393427498E+03 -0.60247166036E+03 -0.24967065296E+03  0.74684522024E+03  0.46999998093E+01 0. -1.
       -5    1    3    3    0  502 -0.36393427498E+03  0.60247166036E+03  0.51626141863E+03  0.87290789916E+03  0.46999998093E+01 0.  1.
</event>
<event>
 5   0  0.5532881E-04  0.1608043E+04  0.7818609E-02  0.8815622E-01
       -1   -1    0    0    0  501  0.00000000000E+00  0.00000000000E+00  0.36894235543E+03  0.36894235546E+03  0.50400001928E-02 0. -1.
        1   -1    0    0  501    0  0.00000000000E+00  0.00000000000E+00 -0.17521719273E+04  0.17521719273E+04  0.50400001928E-02 0.  1.
    10030    2    1    2    0    0  0.00000000000E+00  0.00000000000E+00 -0.13832295719E+04  0.21211142828E+04  0.16080428328E+04 0.  0.
        4    1    3    3  502    0  0.43414874931E+03  0.65120181531E+03 -0.44874943255E+03  0.90217881094E+03  0.12699999809E+01 0. -1.
       -4    1    3    3    0  502 -0.43414874931E+03 -0.65120181531E+03 -0.93448013935E+03  0.12189354718E+04  0.12699999809E+01 0.  1.
</event>
<event>
 5   0  0.9844690E-04  0.1581861E+04  0.7818609E-02  0.8831769E-01
       -2   -1    0    0    0  501  0.00000000000E+00  0.00000000000E+00  0.51286815886E+03  0.51286815886E+03  0.25500000920E-02 0.  1.
        2   -1    0    0  501    0  0.00000000000E+00  0.00000000000E+00 -0.12197509751E+04  0.12197509751E+04  0.25500000920E-02 0. -1.
    10030    2    1    2    0    0  0.00000000000E+00  0.00000000000E+00 -0.70688281621E+03  0.17326191339E+04  0.15818614817E+04 0.  0.
        3    1    3    3  502    0  0.47073666437E+03 -0.44248966756E+03  0.14631172702E+03  0.66241772677E+03  0.10100000352E+00 0.  1.
       -3    1    3    3    0  502 -0.47073666437E+03  0.44248966756E+03 -0.85319454324E+03  0.10702014072E+04  0.10100000352E+00 0. -1.
</event>
<event>
 5   0  0.5623061E-04  0.1616365E+04  0.7818609E-02  0.8810557E-01
        1   -1    0    0  501    0  0.00000000000E+00  0.00000000000E+00  0.12479868686E+04  0.12479868686E+04  0.50400001928E-02 0.  1.
       -1   -1    0    0    0  501  0.00000000000E+00  0.00000000000E+00 -0.52336974740E+03  0.52336974742E+03  0.50400001928E-02 0. -1.
    10030    2    1    2    0    0  0.00000000000E+00  0.00000000000E+00  0.72461712116E+03  0.17713566160E+04  0.16163645284E+04 0.  0.
        3    1    3    3  502    0 -0.10110820599E+03  0.12752188233E+03  0.12298445156E+04  0.12405652916E+04  0.10100000352E+00 0.  1.
       -3    1    3    3    0  502  0.10110820599E+03 -0.12752188233E+03 -0.50522739446E+03  0.53079132444E+03  0.10100000352E+00 0. -1.
</event>
<event>
 5   0  0.1037321E-03  0.1595846E+04  0.7818609E-02  0.8823104E-01
        2   -1    0    0  501    0  0.00000000000E+00  0.00000000000E+00  0.14083275957E+04  0.14083275957E+04  0.25500000920E-02 0. -1.
       -2   -1    0    0    0  501  0.00000000000E+00  0.00000000000E+00 -0.45208293243E+03  0.45208293243E+03  0.25500000920E-02 0.  1.
    10030    2    1    2    0    0  0.00000000000E+00  0.00000000000E+00  0.95624466325E+03  0.18604105281E+04  0.15958456934E+04 0.  0.
        5    1    3    3  502    0  0.66557138894E+02  0.38710513669E+03  0.12877994791E+04  0.13463765550E+04  0.46999998093E+01 0. -1.
       -5    1    3    3    0  502 -0.66557138894E+02 -0.38710513669E+03 -0.33155481583E+03  0.51403397309E+03  0.46999998093E+01 0.  1.
</event>
<event>
 5   0  0.9844690E-04  0.1606262E+04  0.7818609E-02  0.8816710E-01
       -2   -1    0    0    0  501  0.00000000000E+00  0.00000000000E+00  0.32299046059E+03  0.32299046060E+03  0.25500000920E-02 0.  1.
        2   -1    0    0  501    0  0.00000000000E+00  0.00000000000E+00 -0.19970239034E+04  0.19970239034E+04  0.25500000920E-02 0. -1.
    10030    2    1    2    0    0  0.00000000000E+00  0.00000000000E+00 -0.16740334428E+04  0.23200143640E+04  0.16062623327E+04 0.  0.
        3    1    3    3  502    0  0.46073683698E+03 -0.25215355869E+03 -0.17145859884E+04  0.17932275293E+04  0.10100000352E+00 0. -1.
       -3    1    3    3    0  502 -0.46073683698E+03  0.25215355869E+03  0.40552545527E+02  0.52678683474E+03  0.10100000352E+00 0.  1.
</event>
<event>
 5   0  0.5623061E-04  0.1646562E+04  0.7818609E-02  0.8792443E-01
        1   -1    0    0  501    0  0.00000000000E+00  0.00000000000E+00  0.59123442889E+03  0.59123442891E+03  0.50400001928E-02 0. -1.
       -1   -1    0    0    0  501  0.00000000000E+00  0.00000000000E+00 -0.11464012051E+04  0.11464012051E+04  0.50400001928E-02 0.  1.
    10030    2    1    2    0    0  0.00000000000E+00  0.00000000000E+00 -0.55516677624E+03  0.17376356340E+04  0.16465623120E+04 0.  0.
        3    1    3    3  502    0  0.20448336664E+03  0.64991888721E+01 -0.11191476906E+04  0.11376938297E+04  0.10100000352E+00 0.  1.
       -3    1    3    3    0  502 -0.20448336664E+03 -0.64991888721E+01  0.56398091431E+03  0.59994180434E+03  0.10100000352E+00 0. -1.
</event>
<event>
 5   0  0.1000121E-03  0.1594887E+04  0.7818609E-02  0.8823695E-01
        2   -1    0    0  501    0  0.00000000000E+00  0.00000000000E+00  0.64278633552E+03  0.64278633552E+03  0.25500000920E-02 0. -1.
       -2   -1    0    0    0  501  0.00000000000E+00  0.00000000000E+00 -0.98931232087E+03  0.98931232087E+03  0.25500000920E-02 0.  1.
    10030    2    1    2    0    0  0.00000000000E+00  0.00000000000E+00 -0.34652598535E+03  0.16320986564E+04  0.15948873834E+04 0.  0.
        4    1    3    3  502    0  0.35797014641E+03 -0.69565542723E+03 -0.15272625761E+02  0.78250492979E+03  0.12699999809E+01 0. -1.
       -4    1    3    3    0  502 -0.35797014641E+03  0.69565542723E+03 -0.33125335959E+03  0.84959372661E+03  0.12699999809E+01 0.  1.
</event>
<event>
 5   0  0.1037321E-03  0.1589937E+04  0.7818609E-02  0.8826754E-01
        2   -1    0    0  501    0  0.00000000000E+00  0.00000000000E+00  0.22818967088E+04  0.22818967089E+04  0.25500000920E-02 0.  1.
       -2   -1    0    0    0  501  0.00000000000E+00  0.00000000000E+00 -0.27695167233E+03  0.27695167234E+03  0.25500000920E-02 0. -1.
    10030    2    1    2    0    0  0.00000000000E+00  0.00000000000E+00  0.20049450365E+04  0.25588483812E+04  0.15899372436E+04 0.  0.
        5    1    3    3  502    0  0.15887916069E+03  0.37885081601E+03  0.20977915604E+04  0.21376440418E+04  0.46999998093E+01 0.  1.
       -5    1    3    3    0  502 -0.15887916069E+03 -0.37885081601E+03 -0.92846523926E+02  0.42120433936E+03  0.46999998093E+01 0. -1.
</event>
<event>
 5   0  0.5281116E-04  0.1613264E+04  0.7818609E-02  0.8812441E-01
       -1   -1    0    0    0  501  0.00000000000E+00  0.00000000000E+00  0.51435955218E+03  0.51435955221E+03  0.50400001928E-02 0. -1.
        1   -1    0    0  501    0  0.00000000000E+00  0.00000000000E+00 -0.12649805945E+04  0.12649805945E+04  0.50400001928E-02 0.  1.
    10030    2    1    2    0    0  0.00000000000E+00  0.00000000000E+00 -0.75062104231E+03  0.17793401467E+04  0.16132635893E+04 0.  0.
        2    1    3    3  502    0 -0.29619030168E+03  0.75020723190E+03 -0.38715198123E+03  0.89466543589E+03  0.25500000920E-02 0. -1.
       -2    1    3    3    0  502  0.29619030168E+03 -0.75020723190E+03 -0.36346906109E+03  0.88467471083E+03  0.25500000920E-02 0.  1.
</event>
<event>
 5   0  0.5532881E-04  0.1623393E+04  0.7818609E-02  0.8806304E-01
        1   -1    0    0  501    0  0.00000000000E+00  0.00000000000E+00  0.16317092460E+04  0.16317092460E+04  0.50400001928E-02 0.  1.
       -1   -1    0    0    0  501  0.00000000000E+00  0.00000000000E+00 -0.40377994128E+03  0.40377994131E+03  0.50400001928E-02 0. -1.
    10030    2    1    2    0    0  0.00000000000E+00  0.00000000000E+00  0.12279293048E+04  0.20354891874E+04  0.16233933147E+04 0.  0.
        4    1    3    3  502    0 -0.71612945683E+03  0.38146621591E+03  0.58615357379E+03  0.10009672811E+04  0.12699999809E+01 0.  1.
       -4    1    3    3    0  502  0.71612945683E+03 -0.38146621591E+03  0.64177573097E+03  0.10345219063E+04  0.12699999809E+01 0. -1.
</event>
<event>
 5   0  0.5623061E-04  0.1603481E+04  0.7818609E-02  0.8818412E-01
        1   -1    0    0  501    0  0.00000000000E+00  0.00000000000E+00  0.24234097121E+04  0.24234097121E+04  0.50400001928E-02 0. -1.
       -1   -1    0    0    0  501  0.00000000000E+00  0.00000000000E+00 -0.26524107168E+03  0.26524107172E+03  0.50400001928E-02 0.  1.
    10030    2    1    2    0    0  0.00000000000E+00  0.00000000000E+00  0.21581686404E+04  0.26886507838E+04  0.16034809499E+04 0.  0.
        3    1    3    3  502    0 -0.72378473830E+03  0.20296309288E+03  0.61160404498E+03  0.96908094734E+03  0.10100000352E+00 0. -1.
       -3    1    3    3    0  502  0.72378473830E+03 -0.20296309288E+03  0.15465645954E+04  0.17195698365E+04  0.10100000352E+00 0.  1.
</event>
<event>
 5   0  0.5425525E-04  0.1662263E+04  0.7818609E-02  0.8783185E-01
        1   -1    0    0  501    0  0.00000000000E+00  0.00000000000E+00  0.10162186801E+04  0.10162186801E+04  0.50400001928E-02 0.  1.
       -1   -1    0    0    0  501  0.00000000000E+00  0.00000000000E+00 -0.67975483491E+03  0.67975483493E+03  0.50400001928E-02 0. -1.
    10030    2    1    2    0    0  0.00000000000E+00  0.00000000000E+00  0.33646384516E+03  0.16959735150E+04  0.16622629890E+04 0.  0.
        5    1    3    3  502    0  0.73907957397E+03 -0.28143774906E+03  0.42897611937E+03  0.89971574636E+03  0.46999998093E+01 0. -1.
       -5    1    3    3    0  502 -0.73907957397E+03  0.28143774906E+03 -0.92512274213E+02  0.79625776865E+03  0.46999998093E+01 0.  1.
</event>
<event>
 5   0  0.9844690E-04  0.1592667E+04  0.7818609E-02  0.8825066E-01
        2   -1    0    0  501    0  0.00000000000E+00  0.00000000000E+00  0.73932518517E+03  0.73932518517E+03  0.25500000920E-02 0.  1.
       -2   -1    0    0    0  501  0.00000000000E+00  0.00000000000E+00 -0.85773744329E+03  0.85773744329E+03  0.25500000920E-02 0. -1.
    10030    2    1    2    0    0  0.00000000000E+00  0.00000000000E+00 -0.11841225812E+03  0.15970626285E+04  0.15926668127E+04 0.  0.
        3    1    3    3  502    0 -0.12610562264E+03  0.44069801772E+02 -0.84642200398E+03  0.85689847386E+03  0.10100000352E+00 0. -1.
       -3    1    3    3    0  502  0.12610562264E+03 -0.44069801772E+02  0.72800974586E+03  0.74016415460E+03  0.10100000352E+00 0.  1.
</event>
<event>
 5   0  0.5288658E-04  0.1602833E+04  0.7818609E-02  0.8818810E-01
       -1   -1    0    0    0  501  0.00000000000E+00  0.00000000000E+00  0.50241352158E+03  0.50241352160E+03  0.50400001928E-02 0.  1.
        1   -1    0    0  501    0  0.00000000000E+00  0.00000000000E+00 -0.12783658860E+04  0.12783658860E+04  0.50400001928E-02 0. -1.
    10030    2    1    2    0    0  0.00000000000E+00  0.00000000000E+00 -0.77595236445E+03  0.17807794076E+04  0.16028328755E+04 0.  0.
        1    1    3    3  502    0  0.28649006001E+02 -0.55552192610E+02  0.49970134436E+03  0.50359531892E+03  0.50400001928E-02 0.  1.
       -1    1    3    3    0  502 -0.28649006001E+02  0.55552192610E+02 -0.12756537088E+04  0.12771840887E+04  0.50400001928E-02 0. -1.
</event>
<event>
 5   0  0.1030027E-03  0.1595782E+04  0.7818609E-02  0.8823143E-01
        2   -1    0    0  501    0  0.00000000000E+00  0.00000000000E+00  0.13173600416E+04  0.13173600416E+04  0.25500000920E-02 0.  1.
       -2   -1    0    0    0  501  0.00000000000E+00  0.00000000000E+00 -0.48326229645E+03  0.48326229646E+03  0.25500000920E-02 0. -1.
    10030    2    1    2    0    0  0.00000000000E+00  0.00000000000E+00  0.83409774515E+03  0.18006223381E+04  0.15957824902E+04 0.  0.
        1    1    3    3  502    0  0.34424479217E+03 -0.52173045701E+03  0.97661158958E+03  0.11595159954E+04  0.50400001928E-02 0.  1.
       -1    1    3    3    0  502 -0.34424479217E+03  0.52173045701E+03 -0.14251384442E+03  0.64110634265E+03  0.50400001928E-02 0. -1.
</event>
<event>
 5   0  0.5623061E-04  0.1628991E+04  0.7818609E-02  0.8802933E-01
        1   -1    0    0  501    0  0.00000000000E+00  0.00000000000E+00  0.76717239714E+03  0.76717239716E+03  0.50400001928E-02 0.  1.
       -1   -1    0    0    0  501  0.00000000000E+00  0.00000000000E+00 -0.86473743986E+03  0.86473743987E+03  0.50400001928E-02 0. -1.
    10030    2    1    2    0    0  0.00000000000E+00  0.00000000000E+00 -0.97565042719E+02  0.16319098370E+04  0.16289907239E+04 0.  0.
        3    1    3    3  502    0 -0.61337981786E+02 -0.41650596344E+03  0.64972092587E+03  0.77419432787E+03  0.10100000352E+00 0.  1.
       -3    1    3    3    0  502  0.61337981786E+02  0.41650596344E+03 -0.74728596859E+03  0.85771550916E+03  0.10100000352E+00 0. -1.
</event>
<event>
 5   0  0.5281116E-04  0.1478122E+04  0.7818609E-02  0.8899134E-01
        1   -1    0    0  501    0  0.00000000000E+00  0.00000000000E+00  0.19207553073E+04  0.19207553073E+04  0.50400001928E-02 0.  1.
       -1   -1    0    0    0  501  0.00000000000E+00  0.00000000000E+00 -0.28437297696E+03  0.28437297701E+03  0.50400001928E-02 0. -1.
    10030    2    1    2    0    0  0.00000000000E+00  0.00000000000E+00  0.16363823303E+04  0.22051282843E+04  0.14781216524E+04 0.  0.
        2    1    3    3  502    0  0.61421055142E+03  0.25798611150E+03  0.12955803045E+04  0.14568252334E+04  0.25500000920E-02 0.  1.
       -2    1    3    3    0  502 -0.61421055142E+03 -0.25798611150E+03  0.34080202583E+03  0.74830305092E+03  0.25500000920E-02 0. -1.
</event>
<event>
 5   0  0.5425525E-04  0.1580643E+04  0.7818609E-02  0.8832529E-01
       -1   -1    0    0    0  501  0.00000000000E+00  0.00000000000E+00  0.91815146050E+03  0.91815146051E+03  0.50400001928E-02 0. -1.
        1   -1    0    0  501    0  0.00000000000E+00  0.00000000000E+00 -0.68028889592E+03  0.68028889594E+03  0.50400001928E-02 0.  1.
    10030    2    1    2    0    0  0.00000000000E+00  0.00000000000E+00  0.23786256458E+03  0.15984403564E+04  0.15806432151E+04 0.  0.
        5    1    3    3  502    0  0.64417105726E+03  0.41417948246E+02 -0.34217901733E+03  0.73060274250E+03  0.46999998093E+01 0.  1.
       -5    1    3    3    0  502 -0.64417105726E+03 -0.41417948246E+02  0.58004158191E+03  0.86783761395E+03  0.46999998093E+01 0. -1.
</event>
<event>
 5   0  0.1037321E-03  0.1675986E+04  0.7818609E-02  0.8775180E-01
        2   -1    0    0  501    0  0.00000000000E+00  0.00000000000E+00  0.23729534722E+04  0.23729534722E+04  0.25500000920E-02 0. -1.
       -2   -1    0    0    0  501  0.00000000000E+00  0.00000000000E+00 -0.29593161318E+03  0.29593161319E+03  0.25500000920E-02 0.  1.
    10030    2    1    2    0    0  0.00000000000E+00  0.00000000000E+00  0.20770218590E+04  0.26688850854E+04  0.16759856193E+04 0.  0.
        5    1    3    3  502    0 -0.59363387273E+03 -0.45693654972E+03  0.44051757200E+03  0.86906271728E+03  0.46999998093E+01 0.  1.
       -5    1    3    3    0  502  0.59363387273E+03  0.45693654972E+03  0.16365042870E+04  0.17998223681E+04  0.46999998093E+01 0. -1.
</event>
<event>
 5   0  0.1037321E-03  0.1600837E+04  0.7818609E-02  0.8820034E-01
        2   -1    0    0  501    0  0.00000000000E+00  0.00000000000E+00  0.50356325036E+03  0.50356325037E+03  0.25500000920E-02 0.  1.
       -2   -1    0    0    0  501  0.00000000000E+00  0.00000000000E+00 -0.12722731494E+04  0.12722731494E+04  0.25500000920E-02 0. -1.
    10030    2    1    2    0    0  0.00000000000E+00  0.00000000000E+00 -0.76870989899E+03  0.17758363997E+04  0.16008372840E+04 0.  0.
        5    1    3    3  502    0 -0.60832316547E+03 -0.50381926893E+02 -0.95869049327E+03  0.11365319899E+04  0.46999998093E+01 0. -1.
       -5    1    3    3    0  502  0.60832316547E+03  0.50381926893E+02  0.18998059428E+03  0.63930440981E+03  0.46999998093E+01 0.  1.
</event>
<event>
 5   0  0.1037321E-03  0.1601342E+04  0.7818609E-02  0.8819724E-01
        2   -1    0    0  501    0  0.00000000000E+00  0.00000000000E+00  0.36719809654E+03  0.36719809655E+03  0.25500000920E-02 0.  1.
       -2   -1    0    0    0  501  0.00000000000E+00  0.00000000000E+00 -0.17458539646E+04  0.17458539646E+04  0.25500000920E-02 0. -1.
    10030    2    1    2    0    0  0.00000000000E+00  0.00000000000E+00 -0.13786558680E+04  0.21130520611E+04  0.16013422528E+04 0.  0.
        5    1    3    3  502    0  0.51905333273E+03  0.60957181941E+03 -0.69937710590E+03  0.10630825892E+04  0.46999998093E+01 0.  1.
       -5    1    3    3    0  502 -0.51905333273E+03 -0.60957181941E+03 -0.67927876212E+03  0.10499694719E+04  0.46999998093E+01 0. -1.
</event>
<event>
 5   0  0.5532881E-04  0.1211234E+04  0.7818609E-02  0.9103080E-01
       -1   -1    0    0    0  501  0.00000000000E+00  0.00000000000E+00  0.24124649609E+03  0.24124649614E+03  0.50400001928E-02 0. -1.
        1   -1    0    0  501    0  0.00000000000E+00  0.00000000000E+00 -0.15203213905E+04  0.15203213905E+04  0.50400001928E-02 0.  1.
    10030    2    1    2    0    0  0.00000000000E+00  0.00000000000E+00 -0.12790748944E+04  0.17615678866E+04  0.12112344256E+04 0.  0.
        4    1    3    3  502    0 -0.67671049958E+02  0.89977415107E+02 -0.15049660671E+04  0.15091718862E+04  0.12699999809E+01 0.  1.
       -4    1    3    3    0  502  0.67671049958E+02 -0.89977415107E+02  0.22589117267E+03  0.25239600041E+03  0.12699999809E+01 0. -1.
</event>
<event>
 5   0  0.1057872E-03  0.1530305E+04  0.7818609E-02  0.8864547E-01
       -2   -1    0    0    0  501  0.00000000000E+00  0.00000000000E+00  0.32771883712E+03  0.32771883713E+03  0.25500000920E-02 0.  1.
        2   -1    0    0  501    0  0.00000000000E+00  0.00000000000E+00 -0.17864662987E+04  0.17864662987E+04  0.25500000920E-02 0. -1.
    10030    2    1    2    0    0  0.00000000000E+00  0.00000000000E+00 -0.14587474616E+04  0.21141851358E+04  0.15303054048E+04 0.  0.
        2    1    3    3  502    0  0.39656499835E+03  0.65417581869E+03 -0.70757952941E+03  0.10420549842E+04  0.25500000920E-02 0.  1.
       -2    1    3    3    0  502 -0.39656499835E+03 -0.65417581869E+03 -0.75116793216E+03  0.10721301516E+04  0.25500000920E-02 0. -1.
</event>
<event>
 5   0  0.9844690E-04  0.1457970E+04  0.7818609E-02  0.8912894E-01
        2   -1    0    0  501    0  0.00000000000E+00  0.00000000000E+00  0.77810479538E+03  0.77810479539E+03  0.25500000920E-02 0.  1.
       -2   -1    0    0    0  501  0.00000000000E+00  0.00000000000E+00 -0.68296578841E+03  0.68296578841E+03  0.25500000920E-02 0. -1.
    10030    2    1    2    0    0  0.00000000000E+00  0.00000000000E+00  0.95139006977E+02  0.14610705838E+04  0.14579697597E+04 0.  0.
        3    1    3    3  502    0  0.47968832826E+03 -0.52632117464E+03 -0.10865969965E+03  0.72036227807E+03  0.10100000352E+00 0. -1.
       -3    1    3    3    0  502 -0.47968832826E+03  0.52632117464E+03  0.20379870662E+03  0.74070830572E+03  0.10100000352E+00 0.  1.
</event>
<event>
 5   0  0.5288658E-04  0.1613400E+04  0.7818609E-02  0.8812358E-01
       -1   -1    0    0    0  501  0.00000000000E+00  0.00000000000E+00  0.56190483979E+03  0.56190483981E+03  0.50400001928E-02 0. -1.
        1   -1    0    0  501    0  0.00000000000E+00  0.00000000000E+00 -0.11581403202E+04  0.11581403202E+04  0.50400001928E-02 0.  1.
    10030    2    1    2    0    0  0.00000000000E+00  0.00000000000E+00 -0.59623548040E+03  0.17200451600E+04  0.16133997039E+04 0.  0.
        1    1    3    3  502    0  0.30121780034E+03 -0.14325545375E+03  0.48494718586E+03  0.58858139740E+03  0.50400001928E-02 0. -1.
       -1    1    3    3    0  502 -0.30121780034E+03  0.14325545375E+03 -0.10811826663E+04  0.11314637626E+04  0.50400001928E-02 0.  1.
</event>
<event>
 5   0  0.9844690E-04  0.1587926E+04  0.7818609E-02  0.8828000E-01
       -2   -1    0    0    0  501  0.00000000000E+00  0.00000000000E+00  0.36672481623E+03  0.36672481624E+03  0.25500000920E-02 0.  1.
        2   -1    0    0  501    0  0.00000000000E+00  0.00000000000E+00 -0.17189378381E+04  0.17189378381E+04  0.25500000920E-02 0. -1.
    10030    2    1    2    0    0  0.00000000000E+00  0.00000000000E+00 -0.13522130218E+04  0.20856626543E+04  0.15879258960E+04 0.  0.
        3    1    3    3  502    0  0.22354651596E+02  0.33369041456E+03 -0.16219080014E+04  0.16560297698E+04  0.10100000352E+00 0. -1.
       -3    1    3    3    0  502 -0.22354651596E+02 -0.33369041456E+03  0.26969497960E+03  0.42963288449E+03  0.10100000352E+00 0.  1.
</event>
<event>
 5   0  0.5532881E-04  0.1616154E+04  0.7818609E-02  0.8810685E-01
       -1   -1    0    0    0  501  0.00000000000E+00  0.00000000000E+00  0.84922382287E+03  0.84922382289E+03  0.50400001928E-02 0.  1.
        1   -1    0    0  501    0  0.00000000000E+00  0.00000000000E+00 -0.76892397539E+03  0.76892397540E+03  0.50400001928E-02 0. -1.
    10030    2    1    2    0    0  0.00000000000E+00  0.00000000000E+00  0.80299847486E+02  0.16181477983E+04  0.16161541485E+04 0.  0.
        4    1    3    3  502    0  0.13119642075E+03  0.73365202683E+03 -0.27253188810E+03  0.79355720665E+03  0.12699999809E+01 0. -1.
       -4    1    3    3    0  502 -0.13119642075E+03 -0.73365202683E+03  0.35283173559E+03  0.82459059164E+03  0.12699999809E+01 0.  1.
</event>
<event>
 5   0  0.1037321E-03  0.1564609E+04  0.7818609E-02  0.8842590E-01
        2   -1    0    0  501    0  0.00000000000E+00  0.00000000000E+00  0.94308768305E+03  0.94308768305E+03  0.25500000920E-02 0.  1.
       -2   -1    0    0    0  501  0.00000000000E+00  0.00000000000E+00 -0.64893294301E+03  0.64893294302E+03  0.25500000920E-02 0. -1.
    10030    2    1    2    0    0  0.00000000000E+00  0.00000000000E+00  0.29415474004E+03  0.15920206261E+04  0.15646094282E+04 0.  0.
        5    1    3    3  502    0 -0.45501973686E+03 -0.60552307096E+03  0.34615116974E+03  0.83279281500E+03  0.46999998093E+01 0.  1.
       -5    1    3    3    0  502  0.45501973686E+03  0.60552307096E+03 -0.51996429704E+02  0.75922781107E+03  0.46999998093E+01 0. -1.
</event>
<event>
 5   0  0.5623061E-04  0.1588937E+04  0.7818609E-02  0.8827373E-01
       -1   -1    0    0    0  501  0.00000000000E+00  0.00000000000E+00  0.48201331480E+03  0.48201331483E+03  0.50400001928E-02 0.  1.
        1   -1    0    0  501    0  0.00000000000E+00  0.00000000000E+00 -0.13094671094E+04  0.13094671094E+04  0.50400001928E-02 0. -1.
    10030    2    1    2    0    0  0.00000000000E+00  0.00000000000E+00 -0.82745379463E+03  0.17914804243E+04  0.15889374841E+04 0.  0.
        3    1    3    3  502    0  0.35867600292E+03 -0.67922704190E+03 -0.18492333468E+03  0.79005980750E+03  0.10100000352E+00 0.  1.
       -3    1    3    3    0  502 -0.35867600292E+03  0.67922704190E+03 -0.64253045994E+03  0.10014206168E+04  0.10100000352E+00 0. -1.
</event>
<event>
 5   0  0.1057872E-03  0.1604139E+04  0.7818609E-02  0.8818009E-01
       -2   -1    0    0    0  501  0.00000000000E+00  0.00000000000E+00  0.15563812720E+04  0.15563812720E+04  0.25500000920E-02 0.  1.
        2   -1    0    0  501    0  0.00000000000E+00  0.00000000000E+00 -0.41334039357E+03  0.41334039358E+03  0.25500000920E-02 0. -1.
    10030    2    1    2    0    0  0.00000000000E+00  0.00000000000E+00  0.11430408784E+04  0.19697216656E+04  0.16041387066E+04 0.  0.
        2    1    3    3  502    0 -0.39388477830E+03  0.69464740718E+03  0.47934605680E+03  0.93137150539E+03  0.25500000920E-02 0. -1.
       -2    1    3    3    0  502  0.39388477830E+03 -0.69464740718E+03  0.66369482162E+03  0.10383501602E+04  0.25500000920E-02 0.  1.
</event>
<event>
 5   0  0.5425525E-04  0.1601729E+04  0.7818609E-02  0.8819487E-01
        1   -1    0    0  501    0  0.00000000000E+00  0.00000000000E+00  0.13847871129E+04  0.13847871129E+04  0.50400001928E-02 0. -1.
       -1   -1    0    0    0  501  0.00000000000E+00  0.00000000000E+00 -0.46316412366E+03  0.46316412369E+03  0.50400001928E-02 0.  1.
    10030    2    1    2    0    0  0.00000000000E+00  0.00000000000E+00  0.92162298921E+03  0.18479512366E+04  0.16017287031E+04 0.  0.
        5    1    3    3  502    0  0.51147591808E+03  0.45084739219E+03 -0.23876630993E+02  0.68224861255E+03  0.46999998093E+01 0.  1.
       -5    1    3    3    0  502 -0.51147591808E+03 -0.45084739219E+03  0.94549962020E+03  0.11657026240E+04  0.46999998093E+01 0. -1.
</event>
<event>
 5   0  0.5281116E-04  0.1590747E+04  0.7818609E-02  0.8826253E-01
        1   -1    0    0  501    0  0.00000000000E+00  0.00000000000E+00  0.82570472846E+03  0.82570472847E+03  0.50400001928E-02 0.  1.
       -1   -1    0    0    0  501  0.00000000000E+00  0.00000000000E+00 -0.76615650408E+03  0.76615650409E+03  0.50400001928E-02 0. -1.
    10030    2    1    2    0    0  0.00000000000E+00  0.00000000000E+00  0.59548224379E+02  0.15918612326E+04  0.15907470549E+04 0.  0.
        2    1    3    3  502    0  0.41691490224E+02  0.61745375385E+03  0.52975565389E+03  0.81463388791E+03  0.25500000920E-02 0.  1.
       -2    1    3    3    0  502 -0.41691490224E+02 -0.61745375385E+03 -0.47020742951E+03  0.77722734465E+03  0.25500000920E-02 0. -1.
</event>
<event>
 5   0  0.5425525E-04  0.1604834E+04  0.7818609E-02  0.8817584E-01
        1   -1    0    0  501    0  0.00000000000E+00  0.00000000000E+00  0.11919277088E+04  0.11919277088E+04  0.50400001928E-02 0.  1.
       -1   -1    0    0    0  501  0.00000000000E+00  0.00000000000E+00 -0.54019456582E+03  0.54019456584E+03  0.50400001928E-02 0. -1.
    10030    2    1    2    0    0  0.00000000000E+00  0.00000000000E+00  0.65173314298E+03  0.17321222747E+04  0.16048337873E+04 0.  0.
        5    1    3    3  502    0  0.68962144715E+03  0.18904434847E+03  0.71879570404E+03  0.10139057452E+04  0.46999998093E+01 0.  1.
       -5    1    3    3    0  502 -0.68962144715E+03 -0.18904434847E+03 -0.67062561058E+02  0.71821652943E+03  0.46999998093E+01 0. -1.
</event>
<event>
 5   0  0.1037321E-03  0.1596746E+04  0.7818609E-02  0.8822550E-01
        2   -1    0    0  501    0  0.00000000000E+00  0.00000000000E+00  0.91973590864E+03  0.91973590865E+03  0.25500000920E-02 0.  1.
       -2   -1    0    0    0  501  0.00000000000E+00  0.00000000000E+00 -0.69302446248E+03  0.69302446248E+03  0.25500000920E-02 0. -1.
    10030    2    1    2    0    0  0.00000000000E+00  0.00000000000E+00  0.22671144617E+03  0.16127603711E+04  0.15967460458E+04 0.  0.
        5    1    3    3  502    0  0.61323967435E+03 -0.39060892500E+03 -0.21970773539E+03  0.75956027376E+03  0.46999998093E+01 0. -1.
       -5    1    3    3    0  502 -0.61323967435E+03  0.39060892500E+03  0.44641918156E+03  0.85320009737E+03  0.46999998093E+01 0.  1.
</event>
<event>
 5   0  0.5425525E-04  0.1582874E+04  0.7818609E-02  0.8831139E-01
        1   -1    0    0  501    0  0.00000000000E+00  0.00000000000E+00  0.11054300724E+04  0.11054300724E+04  0.50400001928E-02 0. -1.
       -1   -1    0    0    0  501  0.00000000000E+00  0.00000000000E+00 -0.56663259676E+03  0.56663259678E+03  0.50400001928E-02 0.  1.
    10030    2    1    2    0    0  0.00000000000E+00  0.00000000000E+00  0.53879747566E+03  0.16720626692E+04  0.15828742369E+04 0.  0.
        5    1    3    3  502    0 -0.29931644212E+03 -0.34700319056E+03  0.95100715166E+03  0.10556695692E+04  0.46999998093E+01 0.  1.
       -5    1    3    3    0  502  0.29931644212E+03  0.34700319056E+03 -0.41220967600E+03  0.61639310003E+03  0.46999998093E+01 0. -1.
</event>
<event>
 5   0  0.1030027E-03  0.1451196E+04  0.7818609E-02  0.8917572E-01
       -2   -1    0    0    0  501  0.00000000000E+00  0.00000000000E+00  0.11256593748E+04  0.11256593748E+04  0.25500000920E-02 0.  1.
        2   -1    0    0  501    0  0.00000000000E+00  0.00000000000E+00 -0.46771913904E+03  0.46771913905E+03  0.25500000920E-02 0. -1.
    10030    2    1    2    0    0  0.00000000000E+00  0.00000000000E+00  0.65794023578E+03  0.15933785139E+04  0.14511959670E+04 0.  0.
        1    1    3    3  502    0  0.35331036895E+02 -0.67459224640E+03  0.61981869131E+03  0.91678688428E+03  0.50400001928E-02 0.  1.
       -1    1    3    3    0  502 -0.35331036895E+02  0.67459224640E+03  0.38121544472E+02  0.67659162960E+03  0.50400001928E-02 0. -1.
</event>
<event>
 5   0  0.1037321E-03  0.1646417E+04  0.7818609E-02  0.8792529E-01
       -2   -1    0    0    0  501  0.00000000000E+00  0.00000000000E+00  0.33922990338E+03  0.33922990339E+03  0.25500000920E-02 0.  1.
        2   -1    0    0  501    0  0.00000000000E+00  0.00000000000E+00 -0.19976774890E+04  0.19976774890E+04  0.25500000920E-02 0. -1.
    10030    2    1    2    0    0  0.00000000000E+00  0.00000000000E+00 -0.16584475856E+04  0.23369073923E+04  0.16464166442E+04 0.  0.
        5    1    3    3  502    0 -0.29246919487E+03  0.75655166352E+03 -0.62979468270E+03  0.10269236008E+04  0.46999998093E+01 0.  1.
       -5    1    3    3    0  502  0.29246919487E+03 -0.75655166352E+03 -0.10286529029E+04  0.13099837915E+04  0.46999998093E+01 0. -1.
</event>
<event>
 5   0  0.1037321E-03  0.1611677E+04  0.7818609E-02  0.8813407E-01
        2   -1    0    0  501    0  0.00000000000E+00  0.00000000000E+00  0.14755705471E+04  0.14755705471E+04  0.25500000920E-02 0. -1.
       -2   -1    0    0    0  501  0.00000000000E+00  0.00000000000E+00 -0.44008421410E+03  0.44008421411E+03  0.25500000920E-02 0.  1.
    10030    2    1    2    0    0  0.00000000000E+00  0.00000000000E+00  0.10354863330E+04  0.19156547612E+04  0.16116765241E+04 0.  0.
        5    1    3    3  502    0  0.33520283224E+02  0.77779945160E+03  0.27053053050E+03  0.82419928065E+03  0.46999998093E+01 0.  1.
       -5    1    3    3    0  502 -0.33520283224E+02 -0.77779945160E+03  0.76495580252E+03  0.10914554806E+04  0.46999998093E+01 0. -1.
</event>
<event>
 5   0  0.5425525E-04  0.1572458E+04  0.7818609E-02  0.8837649E-01
        1   -1    0    0  501    0  0.00000000000E+00  0.00000000000E+00  0.81047540034E+03  0.81047540036E+03  0.50400001928E-02 0. -1.
       -1   -1    0    0    0  501  0.00000000000E+00  0.00000000000E+00 -0.76270834592E+03  0.76270834594E+03  0.50400001928E-02 0.  1.
    10030    2    1    2    0    0  0.00000000000E+00  0.00000000000E+00  0.47767054423E+02  0.15731837463E+04  0.15724583963E+04 0.  0.
        5    1    3    3  502    0  0.16535479062E+03 -0.18673821428E+02  0.79264109204E+03  0.80993389186E+03  0.46999998093E+01 0. -1.
       -5    1    3    3    0  502 -0.16535479062E+03  0.18673821428E+02 -0.74487403762E+03  0.76324985444E+03  0.46999998093E+01 0.  1.
</event>
<event>
 5   0  0.5425525E-04  0.1606779E+04  0.7818609E-02  0.8816394E-01
        1   -1    0    0  501    0  0.00000000000E+00  0.00000000000E+00  0.73699745255E+03  0.73699745257E+03  0.50400001928E-02 0. -1.
       -1   -1    0    0    0  501  0.00000000000E+00  0.00000000000E+00 -0.87576287071E+03  0.87576287073E+03  0.50400001928E-02 0.  1.
    10030    2    1    2    0    0  0.00000000000E+00  0.00000000000E+00 -0.13876541816E+03  0.16127603233E+04  0.16067793934E+04 0.  0.
        5    1    3    3  502    0 -0.25009775479E+03 -0.66290461374E+03  0.31073728050E+03  0.77367380811E+03  0.46999998093E+01 0. -1.
       -5    1    3    3    0  502  0.25009775479E+03  0.66290461374E+03 -0.44950269866E+03  0.83908651519E+03  0.46999998093E+01 0.  1.
</event>
<event>
 5   0  0.1037321E-03  0.1598795E+04  0.7818609E-02  0.8821289E-01
        2   -1    0    0  501    0  0.00000000000E+00  0.00000000000E+00  0.43762459469E+03  0.43762459470E+03  0.25500000920E-02 0. -1.
       -2   -1    0    0    0  501  0.00000000000E+00  0.00000000000E+00 -0.14602384179E+04  0.14602384179E+04  0.25500000920E-02 0.  1.
    10030    2    1    2    0    0  0.00000000000E+00  0.00000000000E+00 -0.10226138232E+04  0.18978630126E+04  0.15987948534E+04 0.  0.
        5    1    3    3  502    0 -0.68451149402E+02  0.57759945238E+03 -0.11622518100E+04  0.12996761316E+04  0.46999998093E+01 0.  1.
       -5    1    3    3    0  502  0.68451149402E+02 -0.57759945238E+03  0.13963798677E+03  0.59818688100E+03  0.46999998093E+01 0. -1.
</event>
<event>
 5   0  0.5281116E-04  0.1617542E+04  0.7818609E-02  0.8809843E-01
       -1   -1    0    0    0  501  0.00000000000E+00  0.00000000000E+00  0.10827980427E+04  0.10827980427E+04  0.50400001928E-02 0. -1.
        1   -1    0    0  501    0  0.00000000000E+00  0.00000000000E+00 -0.60409297809E+03  0.60409297811E+03  0.50400001928E-02 0.  1.
    10030    2    1    2    0    0  0.00000000000E+00  0.00000000000E+00  0.47870506457E+03  0.16868910208E+04  0.16175422026E+04 0.  0.
        2    1    3    3  502    0  0.31486018925E+03 -0.86961681333E+02  0.10109456287E+04  0.10624078017E+04  0.25500000920E-02 0. -1.
       -2    1    3    3    0  502 -0.31486018925E+03  0.86961681333E+02 -0.53224056417E+03  0.62448321911E+03  0.25500000920E-02 0.  1.
</event>
<event>
 5   0  0.1030027E-03  0.1601502E+04  0.7818609E-02  0.8819626E-01
       -2   -1    0    0    0  501  0.00000000000E+00  0.00000000000E+00  0.40009430403E+03  0.40009430404E+03  0.25500000920E-02 0.  1.
        2   -1    0    0  501    0  0.00000000000E+00  0.00000000000E+00 -0.16026271404E+04  0.16026271404E+04  0.25500000920E-02 0. -1.
    10030    2    1    2    0    0  0.00000000000E+00  0.00000000000E+00 -0.12025328363E+04  0.20027214444E+04  0.16015017831E+04 0.  0.
        1    1    3    3  502    0  0.54006183304E+03 -0.43182181498E+03 -0.11062458251E+04  0.13045752907E+04  0.50400001928E-02 0. -1.
       -1    1    3    3    0  502 -0.54006183304E+03  0.43182181498E+03 -0.96287011188E+02  0.69814615371E+03  0.50400001928E-02 0.  1.
</event>
<event>
 5   0  0.5425525E-04  0.1174801E+04  0.7818609E-02  0.9135203E-01
       -1   -1    0    0    0  501  0.00000000000E+00  0.00000000000E+00  0.41107359468E+03  0.41107359471E+03  0.50400001928E-02 0.  1.
        1   -1    0    0  501    0  0.00000000000E+00  0.00000000000E+00 -0.83936178120E+03  0.83936178121E+03  0.50400001928E-02 0. -1.
    10030    2    1    2    0    0  0.00000000000E+00  0.00000000000E+00 -0.42828818652E+03  0.12504353759E+04  0.11748011996E+04 0.  0.
        5    1    3    3  502    0 -0.29870848655E+03  0.39385927619E+03  0.12356065435E+03  0.50955001195E+03  0.46999998093E+01 0.  1.
       -5    1    3    3    0  502  0.29870848655E+03 -0.39385927619E+03 -0.55184884087E+03  0.74088536397E+03  0.46999998093E+01 0. -1.
</event>
<event>
 5   0  0.5288658E-04  0.1582775E+04  0.7818609E-02  0.8831200E-01
       -1   -1    0    0    0  501  0.00000000000E+00  0.00000000000E+00  0.40997573628E+03  0.40997573631E+03  0.50400001928E-02 0. -1.
        1   -1    0    0  501    0  0.00000000000E+00  0.00000000000E+00 -0.15276377056E+04  0.15276377056E+04  0.50400001928E-02 0.  1.
    10030    2    1    2    0    0  0.00000000000E+00  0.00000000000E+00 -0.11176619694E+04  0.19376134420E+04  0.15827752755E+04 0.  0.
        1    1    3    3  502    0  0.43000173012E+03  0.37405584523E+03 -0.12309924742E+04  0.13565256116E+04  0.50400001928E-02 0.  1.
       -1    1    3    3    0  502 -0.43000173012E+03 -0.37405584523E+03  0.11333050486E+03  0.58108783038E+03  0.50400001928E-02 0. -1.
</event>
<event>
 5   0  0.5288658E-04  0.1608373E+04  0.7818609E-02  0.8815421E-01
        1   -1    0    0  501    0  0.00000000000E+00  0.00000000000E+00  0.68968882765E+03  0.68968882767E+03  0.50400001928E-02 0.  1.
       -1   -1    0    0    0  501  0.00000000000E+00  0.00000000000E+00 -0.93769241138E+03  0.93769241140E+03  0.50400001928E-02 0. -1.
    10030    2    1    2    0    0  0.00000000000E+00  0.00000000000E+00 -0.24800358373E+03  0.16273812391E+04  0.16083730661E+04 0.  0.
        1    1    3    3  502    0 -0.43754406741E+03  0.11318596281E+03  0.54903618923E+03  0.71112348450E+03  0.50400001928E-02 0.  1.
       -1    1    3    3    0  502  0.43754406741E+03 -0.11318596281E+03 -0.79703977296E+03  0.91625775457E+03  0.50400001928E-02 0. -1.
</event>
<event>
 5   0  0.5532881E-04  0.1589425E+04  0.7818609E-02  0.8827071E-01
       -1   -1    0    0    0  501  0.00000000000E+00  0.00000000000E+00  0.58342938294E+03  0.58342938296E+03  0.50400001928E-02 0.  1.
        1   -1    0    0  501    0  0.00000000000E+00  0.00000000000E+00 -0.10825094419E+04  0.10825094419E+04  0.50400001928E-02 0. -1.
    10030    2    1    2    0    0  0.00000000000E+00  0.00000000000E+00 -0.49908005897E+03  0.16659388249E+04  0.15894248214E+04 0.  0.
        4    1    3    3  502    0 -0.75550798269E+02 -0.64636113016E+03  0.22857192669E+03  0.68973717623E+03  0.12699999809E+01 0.  1.
       -4    1    3    3    0  502  0.75550798269E+02  0.64636113016E+03 -0.72765198565E+03  0.97620164865E+03  0.12699999809E+01 0. -1.
</event>
<event>
 5   0  0.1000121E-03  0.1601713E+04  0.7818609E-02  0.8819496E-01
       -2   -1    0    0    0  501  0.00000000000E+00  0.00000000000E+00  0.72733219605E+03  0.72733219605E+03  0.25500000920E-02 0.  1.
        2   -1    0    0  501    0  0.00000000000E+00  0.00000000000E+00 -0.88181341220E+03  0.88181341220E+03  0.25500000920E-02 0. -1.
    10030    2    1    2    0    0  0.00000000000E+00  0.00000000000E+00 -0.15448121616E+03  0.16091456083E+04  0.16017131898E+04 0.  0.
        4    1    3    3  502    0  0.43434432546E+03  0.91989093619E+02 -0.74685630183E+03  0.86885725806E+03  0.12699999809E+01 0. -1.
       -4    1    3    3    0  502 -0.43434432546E+03 -0.91989093619E+02  0.59237508567E+03  0.74028835019E+03  0.12699999809E+01 0.  1.
</event>
<event>
 5   0  0.1030027E-03  0.1019049E+04  0.7818609E-02  0.9287895E-01
        2   -1    0    0  501    0  0.00000000000E+00  0.00000000000E+00  0.20507760217E+04  0.20507760218E+04  0.25500000920E-02 0.  1.
       -2   -1    0    0    0  501  0.00000000000E+00  0.00000000000E+00 -0.12659367510E+03  0.12659367513E+03  0.25500000920E-02 0. -1.
    10030    2    1    2    0    0  0.00000000000E+00  0.00000000000E+00  0.19241823466E+04  0.21773696969E+04  0.10190491125E+04 0.  0.
        1    1    3    3  502    0  0.30742182333E+02 -0.26512487215E+03  0.18894617140E+04  0.19082195493E+04  0.50400001928E-02 0.  1.
       -1    1    3    3    0  502 -0.30742182333E+02  0.26512487215E+03  0.34720632687E+02  0.26915014762E+03  0.50400001928E-02 0. -1.
</event>
<event>
 5   0  0.5532881E-04  0.1004370E+04  0.7818609E-02  0.9303765E-01
        1   -1    0    0  501    0  0.00000000000E+00  0.00000000000E+00  0.10075405002E+04  0.10075405002E+04  0.50400001928E-02 0. -1.
       -1   -1    0    0    0  501  0.00000000000E+00  0.00000000000E+00 -0.25030226129E+03  0.25030226134E+03  0.50400001928E-02 0.  1.
    10030    2    1    2    0    0  0.00000000000E+00  0.00000000000E+00  0.75723823895E+03  0.12578427616E+04  0.10043697837E+04 0.  0.
        4    1    3    3  502    0 -0.25610826104E+03 -0.25900225540E+03  0.81157427180E+03  0.88956619834E+03  0.12699999809E+01 0.  1.
       -4    1    3    3    0  502  0.25610826104E+03  0.25900225540E+03 -0.54336032854E+02  0.36827656325E+03  0.12699999809E+01 0. -1.
</event>
<event>
 5   0  0.1037321E-03  0.1392255E+04  0.7818609E-02  0.8959444E-01
       -2   -1    0    0    0  501  0.00000000000E+00  0.00000000000E+00  0.71937004335E+03  0.71937004335E+03  0.25500000920E-02 0. -1.
        2   -1    0    0  501    0  0.00000000000E+00  0.00000000000E+00 -0.67363570774E+03  0.67363570775E+03  0.25500000920E-02 0.  1.
    10030    2    1    2    0    0  0.00000000000E+00  0.00000000000E+00  0.45734335608E+02  0.13930057511E+04  0.13922547874E+04 0.  0.
        5    1    3    3  502    0 -0.31287682786E+03 -0.40941650169E+03  0.49115538474E+03  0.71187743553E+03  0.46999998093E+01 0. -1.
       -5    1    3    3    0  502  0.31287682786E+03  0.40941650169E+03 -0.44542104913E+03  0.68112831557E+03  0.46999998093E+01 0.  1.
</event>
<event>
 5   0  0.9844690E-04  0.1624259E+04  0.7818609E-02  0.8805782E-01
       -2   -1    0    0    0  501  0.00000000000E+00  0.00000000000E+00  0.89859902658E+03  0.89859902658E+03  0.25500000920E-02 0. -1.
        2   -1    0    0  501    0  0.00000000000E+00  0.00000000000E+00 -0.73398066967E+03  0.73398066967E+03  0.25500000920E-02 0.  1.
    10030    2    1    2    0    0  0.00000000000E+00  0.00000000000E+00  0.16461835691E+03  0.16325796963E+04  0.16242589883E+04 0.  0.
        3    1    3    3  502    0  0.19515825808E+03 -0.15555431330E+01 -0.71005986226E+03  0.73639268302E+03  0.10100000352E+00 0.  1.
       -3    1    3    3    0  502 -0.19515825808E+03  0.15555431330E+01  0.87467821916E+03  0.89618701324E+03  0.10100000352E+00 0. -1.
</event>
<event>
 5   0  0.1000121E-03  0.1592679E+04  0.7818609E-02  0.8825058E-01
       -2   -1    0    0    0  501  0.00000000000E+00  0.00000000000E+00  0.51778654925E+03  0.51778654926E+03  0.25500000920E-02 0.  1.
        2   -1    0    0  501    0  0.00000000000E+00  0.00000000000E+00 -0.12247456061E+04  0.12247456061E+04  0.25500000920E-02 0. -1.
    10030    2    1    2    0    0  0.00000000000E+00  0.00000000000E+00 -0.70695905681E+03  0.17425321553E+04  0.15926792534E+04 0.  0.
        4    1    3    3  502    0 -0.77995503286E+03  0.12941921623E+03 -0.24924784438E+03  0.82897846030E+03  0.12699999809E+01 0. -1.
       -4    1    3    3    0  502  0.77995503286E+03 -0.12941921623E+03 -0.45771121243E+03  0.91355369503E+03  0.12699999809E+01 0.  1.
</event>
<event>
 5   0  0.1057872E-03  0.1463610E+04  0.7818609E-02  0.8909019E-01
        2   -1    0    0  501    0  0.00000000000E+00  0.00000000000E+00  0.10968978252E+04  0.10968978252E+04  0.25500000920E-02 0.  1.
       -2   -1    0    0    0  501  0.00000000000E+00  0.00000000000E+00 -0.48823006803E+03  0.48823006803E+03  0.25500000920E-02 0. -1.
    10030    2    1    2    0    0  0.00000000000E+00  0.00000000000E+00  0.60866775713E+03  0.15851278932E+04  0.14636099204E+04 0.  0.
        2    1    3    3  502    0 -0.66439676866E+03 -0.19910320250E+03  0.51560694377E+02  0.69550244907E+03  0.25500000920E-02 0. -1.
       -2    1    3    3    0  502  0.66439676866E+03  0.19910320250E+03  0.55710706275E+03  0.88962544412E+03  0.25500000920E-02 0.  1.
</event>
<event>
 5   0  0.1057872E-03  0.1562700E+04  0.7818609E-02  0.8843796E-01
       -2   -1    0    0    0  501  0.00000000000E+00  0.00000000000E+00  0.68884372899E+03  0.68884372899E+03  0.25500000920E-02 0.  1.
        2   -1    0    0  501    0  0.00000000000E+00  0.00000000000E+00 -0.88627883364E+03  0.88627883365E+03  0.25500000920E-02 0. -1.
    10030    2    1    2    0    0  0.00000000000E+00  0.00000000000E+00 -0.19743510466E+03  0.15751225626E+04  0.15626997366E+04 0.  0.
        2    1    3    3  502    0 -0.33448911636E+03 -0.58013270968E+03  0.30706283276E+03  0.73669838678E+03  0.25500000920E-02 0. -1.
       -2    1    3    3    0  502  0.33448911636E+03  0.58013270968E+03 -0.50449793742E+03  0.83842417586E+03  0.25500000920E-02 0.  1.
</event>
<event>
 5   0  0.1057872E-03  0.1606374E+04  0.7818609E-02  0.8816642E-01
       -2   -1    0    0    0  501  0.00000000000E+00  0.00000000000E+00  0.37580308858E+03  0.37580308858E+03  0.25500000920E-02 0. -1.
        2   -1    0    0  501    0  0.00000000000E+00  0.00000000000E+00 -0.17166148316E+04  0.17166148316E+04  0.25500000920E-02 0.  1.
    10030    2    1    2    0    0  0.00000000000E+00  0.00000000000E+00 -0.13408117430E+04  0.20924179202E+04  0.16063737493E+04 0.  0.
        2    1    3    3  502    0  0.49370969492E+03 -0.59495880185E+03 -0.38686392847E+03  0.86451659204E+03  0.25500000920E-02 0. -1.
       -2    1    3    3    0  502 -0.49370969492E+03  0.59495880185E+03 -0.95394781453E+03  0.12279013281E+04  0.25500000920E-02 0.  1.
</event>
<event>
 5   0  0.9844690E-04  0.1446649E+04  0.7818609E-02  0.8920727E-01
        2   -1    0    0  501    0  0.00000000000E+00  0.00000000000E+00  0.99847963929E+03  0.99847963929E+03  0.25500000920E-02 0.  1.
       -2   -1    0    0    0  501  0.00000000000E+00  0.00000000000E+00 -0.52399490646E+03  0.52399490647E+03  0.25500000920E-02 0. -1.
    10030    2    1    2    0    0  0.00000000000E+00  0.00000000000E+00  0.47448473283E+03  0.15224745458E+04  0.14466488796E+04 0.  0.
        3    1    3    3  502    0 -0.68036666059E+03 -0.22320736101E+03  0.12951541625E+03  0.72766377682E+03  0.10100000352E+00 0. -1.
       -3    1    3    3    0  502  0.68036666059E+03  0.22320736101E+03  0.34496931658E+03  0.79481076894E+03  0.10100000352E+00 0.  1.
</event>
<event>
 5   0  0.1000121E-03  0.1612674E+04  0.7818609E-02  0.8812799E-01
       -2   -1    0    0    0  501  0.00000000000E+00  0.00000000000E+00  0.44033372042E+03  0.44033372042E+03  0.25500000920E-02 0. -1.
        2   -1    0    0  501    0  0.00000000000E+00  0.00000000000E+00 -0.14765611016E+04  0.14765611016E+04  0.25500000920E-02 0.  1.
    10030    2    1    2    0    0  0.00000000000E+00  0.00000000000E+00 -0.10362273812E+04  0.19168948220E+04  0.16126743544E+04 0.  0.
        4    1    3    3  502    0 -0.21369093498E+03  0.75964460276E+03 -0.32116335258E+03  0.85198078038E+03  0.12699999809E+01 0. -1.
       -4    1    3    3    0  502  0.21369093498E+03 -0.75964460276E+03 -0.71506402860E+03  0.10649140416E+04  0.12699999809E+01 0.  1.
</event>
<event>
 5   0  0.1030027E-03  0.1625638E+04  0.7818609E-02  0.8804951E-01
       -2   -1    0    0    0  501  0.00000000000E+00  0.00000000000E+00  0.91285225242E+03  0.91285225243E+03  0.25500000920E-02 0. -1.
        2   -1    0    0  501    0  0.00000000000E+00  0.00000000000E+00 -0.72374782200E+03  0.72374782201E+03  0.25500000920E-02 0.  1.
    10030    2    1    2    0    0  0.00000000000E+00  0.00000000000E+00  0.18910443042E+03  0.16366000744E+04  0.16256381264E+04 0.  0.
        1    1    3    3  502    0 -0.19855940739E+03  0.12930210220E+03  0.87731037560E+03  0.90874549081E+03  0.50400001928E-02 0. -1.
       -1    1    3    3    0  502  0.19855940739E+03 -0.12930210220E+03 -0.68820594518E+03  0.72785458362E+03  0.50400001928E-02 0.  1.
</event>
<event>
 5   0  0.5288658E-04  0.1612473E+04  0.7818609E-02  0.8812922E-01
        1   -1    0    0  501    0  0.00000000000E+00  0.00000000000E+00  0.35950494479E+03  0.35950494483E+03  0.50400001928E-02 0. -1.
       -1   -1    0    0    0  501  0.00000000000E+00  0.00000000000E+00 -0.18080896583E+04  0.18080896583E+04  0.50400001928E-02 0.  1.
    10030    2    1    2    0    0  0.00000000000E+00  0.00000000000E+00 -0.14485847135E+04  0.21675946031E+04  0.16124728498E+04 0.  0.
        1    1    3    3  502    0  0.35831069613E+03  0.64682759843E+03 -0.11562284367E+04  0.13724564455E+04  0.50400001928E-02 0.  1.
       -1    1    3    3    0  502 -0.35831069613E+03 -0.64682759843E+03 -0.29235627681E+03  0.79513815759E+03  0.50400001928E-02 0. -1.
</event>
<event>
 5   0  0.5623061E-04  0.1192861E+04  0.7818609E-02  0.9119128E-01
        1   -1    0    0  501    0  0.00000000000E+00  0.00000000000E+00  0.56929249907E+03  0.56929249909E+03  0.50400001928E-02 0.  1.
       -1   -1    0    0    0  501  0.00000000000E+00  0.00000000000E+00 -0.62486223355E+03  0.62486223357E+03  0.50400001928E-02 0. -1.
    10030    2    1    2    0    0  0.00000000000E+00  0.00000000000E+00 -0.55569734477E+02  0.11941547327E+04  0.11928610691E+04 0.  0.
        3    1    3    3  502    0 -0.35147083526E+03  0.45858934271E+03  0.12033991761E+03  0.59018441122E+03  0.10100000352E+00 0.  1.
       -3    1    3    3    0  502  0.35147083526E+03 -0.45858934271E+03 -0.17590965209E+03  0.60397032144E+03  0.10100000352E+00 0. -1.
</event>
<event>
 5   0  0.5288658E-04  0.1602344E+04  0.7818609E-02  0.8819109E-01
       -1   -1    0    0    0  501  0.00000000000E+00  0.00000000000E+00  0.68146464209E+03  0.68146464211E+03  0.50400001928E-02 0. -1.
        1   -1    0    0  501    0  0.00000000000E+00  0.00000000000E+00 -0.94190783147E+03  0.94190783149E+03  0.50400001928E-02 0.  1.
    10030    2    1    2    0    0  0.00000000000E+00  0.00000000000E+00 -0.26044318939E+03  0.16233724736E+04  0.16023443866E+04 0.  0.
        1    1    3    3  502    0 -0.53615809817E+03  0.58936581443E+03 -0.21534393555E+03  0.82534270461E+03  0.50400001928E-02 0. -1.
       -1    1    3    3    0  502  0.53615809817E+03 -0.58936581443E+03 -0.45099253839E+02  0.79802976898E+03  0.50400001928E-02 0.  1.
</event>
<event>
 5   0  0.1000121E-03  0.1605422E+04  0.7818609E-02  0.8817224E-01
        2   -1    0    0  501    0  0.00000000000E+00  0.00000000000E+00  0.12331506431E+04  0.12331506431E+04  0.25500000920E-02 0.  1.
       -2   -1    0    0    0  501  0.00000000000E+00  0.00000000000E+00 -0.52251949404E+03  0.52251949404E+03  0.25500000920E-02 0. -1.
    10030    2    1    2    0    0  0.00000000000E+00  0.00000000000E+00  0.71063114902E+03  0.17556701371E+04  0.16054223744E+04 0.  0.
        4    1    3    3  502    0  0.16116668501E+03  0.68649678280E+03  0.77473333270E+03  0.10476000586E+04  0.12699999809E+01 0.  1.
       -4    1    3    3    0  502 -0.16116668501E+03 -0.68649678280E+03 -0.64102183689E+02  0.70807007846E+03  0.12699999809E+01 0. -1.
</event>
<event>
 5   0  0.1057872E-03  0.1520402E+04  0.7818609E-02  0.8870998E-01
        2   -1    0    0  501    0  0.00000000000E+00  0.00000000000E+00  0.60383462976E+03  0.60383462976E+03  0.25500000920E-02 0. -1.
       -2   -1    0    0    0  501  0.00000000000E+00  0.00000000000E+00 -0.95705919488E+03  0.95705919488E+03  0.25500000920E-02 0.  1.
    10030    2    1    2    0    0  0.00000000000E+00  0.00000000000E+00 -0.35322456512E+03  0.15608938246E+04  0.15204019003E+04 0.  0.
        2    1    3    3  502    0  0.44330423949E+03 -0.25598152459E+02 -0.81007987801E+03  0.92379831290E+03  0.25500000920E-02 0.  1.
       -2    1    3    3    0  502 -0.44330423949E+03  0.25598152459E+02  0.45685531288E+03  0.63709551174E+03  0.25500000920E-02 0. -1.
</event>
<event>
 5   0  0.1057872E-03  0.1588935E+04  0.7818609E-02  0.8827375E-01
       -2   -1    0    0    0  501  0.00000000000E+00  0.00000000000E+00  0.33580250933E+03  0.33580250934E+03  0.25500000920E-02 0. -1.
        2   -1    0    0  501    0  0.00000000000E+00  0.00000000000E+00 -0.18796127856E+04  0.18796127856E+04  0.25500000920E-02 0.  1.
    10030    2    1    2    0    0  0.00000000000E+00  0.00000000000E+00 -0.15438102763E+04  0.22154152949E+04  0.15889351025E+04 0.  0.
        2    1    3    3  502    0  0.73738285635E+03 -0.14677164078E+03 -0.41397145737E+03  0.85828186448E+03  0.25500000920E-02 0. -1.
       -2    1    3    3    0  502 -0.73738285635E+03  0.14677164078E+03 -0.11298388189E+04  0.13571334305E+04  0.25500000920E-02 0.  1.
</event>
<event>
 5   0  0.1030027E-03  0.1581200E+04  0.7818609E-02  0.8832182E-01
        2   -1    0    0  501    0  0.00000000000E+00  0.00000000000E+00  0.70103878167E+03  0.70103878167E+03  0.25500000920E-02 0. -1.
       -2   -1    0    0    0  501  0.00000000000E+00  0.00000000000E+00 -0.89160266369E+03  0.89160266369E+03  0.25500000920E-02 0.  1.
    10030    2    1    2    0    0  0.00000000000E+00  0.00000000000E+00 -0.19056388202E+03  0.15926414454E+04  0.15811996017E+04 0.  0.
        1    1    3    3  502    0  0.16233110537E+03  0.61379668336E+03 -0.56980702437E+03  0.85309893994E+03  0.50400001928E-02 0. -1.
       -1    1    3    3    0  502 -0.16233110537E+03 -0.61379668336E+03  0.37924314235E+03  0.73954250542E+03  0.50400001928E-02 0.  1.
</event>
<event>
 5   0  0.1037321E-03  0.1211223E+04  0.7818609E-02  0.9103089E-01
       -2   -1    0    0    0  501  0.00000000000E+00  0.00000000000E+00  0.38481426358E+03  0.38481426359E+03  0.25500000920E-02 0. -1.
        2   -1    0    0  501    0  0.00000000000E+00  0.00000000000E+00 -0.95309723058E+03  0.95309723059E+03  0.25500000920E-02 0.  1.
    10030    2    1    2    0    0  0.00000000000E+00  0.00000000000E+00 -0.56828296700E+03  0.13379114942E+04  0.12112231981E+04 0.  0.
        5    1    3    3  502    0  0.26963663605E+03 -0.44907778539E+03 -0.61985224147E+03  0.81155016116E+03  0.46999998093E+01 0.  1.
       -5    1    3    3    0  502 -0.26963663605E+03  0.44907778539E+03  0.51569274471E+02  0.52636133302E+03  0.46999998093E+01 0. -1.
</event>
<event>
 5   0  0.5281116E-04  0.1611246E+04  0.7818609E-02  0.8813669E-01
       -1   -1    0    0    0  501  0.00000000000E+00  0.00000000000E+00  0.50961137217E+03  0.50961137220E+03  0.50400001928E-02 0. -1.
        1   -1    0    0  501    0  0.00000000000E+00  0.00000000000E+00 -0.12735756609E+04  0.12735756609E+04  0.50400001928E-02 0.  1.
    10030    2    1    2    0    0  0.00000000000E+00  0.00000000000E+00 -0.76396428871E+03  0.17831870331E+04  0.16112462756E+04 0.  0.
        2    1    3    3  502    0 -0.42363170095E+03  0.64204044301E+03 -0.11695065002E+03  0.77804704424E+03  0.25500000920E-02 0. -1.
       -2    1    3    3    0  502  0.42363170095E+03 -0.64204044301E+03 -0.64701363870E+03  0.10051399888E+04  0.25500000920E-02 0.  1.
</event>
<event>
 5   0  0.5623061E-04  0.1590861E+04  0.7818609E-02  0.8826182E-01
        1   -1    0    0  501    0  0.00000000000E+00  0.00000000000E+00  0.11849856077E+04  0.11849856077E+04  0.50400001928E-02 0. -1.
       -1   -1    0    0    0  501  0.00000000000E+00  0.00000000000E+00 -0.53393894313E+03  0.53393894315E+03  0.50400001928E-02 0.  1.
    10030    2    1    2    0    0  0.00000000000E+00  0.00000000000E+00  0.65104666453E+03  0.17189245508E+04  0.15908613554E+04 0.  0.
        3    1    3    3  502    0  0.81231588682E+02 -0.64406393516E+03 -0.17114568261E+03  0.67134773289E+03  0.10100000352E+00 0.  1.
       -3    1    3    3    0  502 -0.81231588682E+02  0.64406393516E+03  0.82219234714E+03  0.10475768179E+04  0.10100000352E+00 0. -1.
</event>
<event>
 5   0  0.5288658E-04  0.1596913E+04  0.7818609E-02  0.8822447E-01
        1   -1    0    0  501    0  0.00000000000E+00  0.00000000000E+00  0.13895696753E+04  0.13895696753E+04  0.50400001928E-02 0.  1.
       -1   -1    0    0    0  501  0.00000000000E+00  0.00000000000E+00 -0.45879853719E+03  0.45879853721E+03  0.50400001928E-02 0. -1.
    10030    2    1    2    0    0  0.00000000000E+00  0.00000000000E+00  0.93077113810E+03  0.18483682125E+04  0.15969126894E+04 0.  0.
        1    1    3    3  502    0 -0.10251022941E+03  0.31228767719E+03  0.13076346485E+04  0.13483101699E+04  0.50400001928E-02 0.  1.
       -1    1    3    3    0  502  0.10251022941E+03 -0.31228767719E+03 -0.37686351038E+03  0.50005804256E+03  0.50400001928E-02 0. -1.
</event>
<event>
 5   0  0.5281116E-04  0.1605220E+04  0.7818609E-02  0.8817348E-01
        1   -1    0    0  501    0  0.00000000000E+00  0.00000000000E+00  0.17262964442E+04  0.17262964442E+04  0.50400001928E-02 0. -1.
       -1   -1    0    0    0  501  0.00000000000E+00  0.00000000000E+00 -0.37315891002E+03  0.37315891006E+03  0.50400001928E-02 0.  1.
    10030    2    1    2    0    0  0.00000000000E+00  0.00000000000E+00  0.13531375341E+04  0.20994553542E+04  0.16052201089E+04 0.  0.
        2    1    3    3  502    0 -0.53531687770E+03  0.59417042173E+03  0.76508371924E+03  0.11067771894E+04  0.25500000920E-02 0. -1.
       -2    1    3    3    0  502  0.53531687770E+03 -0.59417042173E+03  0.58805381490E+03  0.99267816478E+03  0.25500000920E-02 0.  1.
</event>
<event>
 5   0  0.9844690E-04  0.1589980E+04  0.7818609E-02  0.8826727E-01
       -2   -1    0    0    0  501  0.00000000000E+00  0.00000000000E+00  0.33119080039E+03  0.33119080040E+03  0.25500000920E-02 0.  1.
        2   -1    0    0  501    0  0.00000000000E+00  0.00000000000E+00 -0.19082929472E+04  0.19082929472E+04  0.25500000920E-02 0. -1.
    10030    2    1    2    0    0  0.00000000000E+00  0.00000000000E+00 -0.15771021469E+04  0.22394837476E+04  0.15899799604E+04 0.  0.
        3    1    3    3  502    0  0.25505865458E+03  0.64587206013E+03 -0.24339967181E+03  0.73583221306E+03  0.10100000352E+00 0.  1.
       -3    1    3    3    0  502 -0.25505865458E+03 -0.64587206013E+03 -0.13337024750E+04  0.15036515346E+04  0.10100000352E+00 0. -1.
</event>
<event>
 5   0  0.5281116E-04  0.1596689E+04  0.7818609E-02  0.8822584E-01
       -1   -1    0    0    0  501  0.00000000000E+00  0.00000000000E+00  0.74915845987E+03  0.74915845988E+03  0.50400001928E-02 0. -1.
        1   -1    0    0  501    0  0.00000000000E+00  0.00000000000E+00 -0.85076021662E+03  0.85076021663E+03  0.50400001928E-02 0.  1.
    10030    2    1    2    0    0  0.00000000000E+00  0.00000000000E+00 -0.10160175675E+03  0.15999186765E+04  0.15966893419E+04 0.  0.
        2    1    3    3  502    0  0.31536784648E+03 -0.27643312248E+03 -0.73149953718E+03  0.84318664760E+03  0.25500000920E-02 0.  1.
       -2    1    3    3    0  502 -0.31536784648E+03  0.27643312248E+03  0.62989778042E+03  0.75673202892E+03  0.25500000920E-02 0. -1.
</event>
<event>
 5   0  0.1037321E-03  0.1600538E+04  0.7818609E-02  0.8820218E-01
        2   -1    0    0  501    0  0.00000000000E+00  0.00000000000E+00  0.18604426221E+04  0.18604426221E+04  0.25500000920E-02 0. -1.
       -2   -1    0    0    0  501  0.00000000000E+00  0.00000000000E+00 -0.34423535047E+03  0.34423535048E+03  0.25500000920E-02 0.  1.
    10030    2    1    2    0    0  0.00000000000E+00  0.00000000000E+00  0.15162072716E+04  0.22046779725E+04  0.16005375573E+04 0.  0.
        5    1    3    3  502    0  0.21494952111E+03 -0.67621239889E+03  0.12678414711E+04  0.14528973091E+04  0.46999998093E+01 0. -1.
       -5    1    3    3    0  502 -0.21494952111E+03  0.67621239889E+03  0.24836580050E+03  0.75178066342E+03  0.46999998093E+01 0.  1.
</event>
<event>
 5   0  0.1030027E-03  0.1608147E+04  0.7818609E-02  0.8815559E-01
        2   -1    0    0  501    0  0.00000000000E+00  0.00000000000E+00  0.25738406974E+04  0.25738406974E+04  0.25500000920E-02 0. -1.
       -2   -1    0    0    0  501  0.00000000000E+00  0.00000000000E+00 -0.25119423032E+03  0.25119423034E+03  0.25500000920E-02 0.  1.
    10030    2    1    2    0    0  0.00000000000E+00  0.00000000000E+00  0.23226464671E+04  0.28250349277E+04  0.16081466761E+04 0.  0.
        1    1    3    3  502    0 -0.32585605676E+03 -0.90812907742E+02  0.24427587121E+04  0.24660696015E+04  0.50400001928E-02 0. -1.
       -1    1    3    3    0  502  0.32585605676E+03  0.90812907742E+02 -0.12011224509E+03  0.35896532616E+03  0.50400001928E-02 0.  1.
</event>
<event>
 5   0  0.5425525E-04  0.1558547E+04  0.7818609E-02  0.8846427E-01
        1   -1    0    0  501    0  0.00000000000E+00  0.00000000000E+00  0.12418144249E+04  0.12418144250E+04  0.50400001928E-02 0. -1.
       -1   -1    0    0    0  501  0.00000000000E+00  0.00000000000E+00 -0.48901626030E+03  0.48901626033E+03  0.50400001928E-02 0.  1.
    10030    2    1    2    0    0  0.00000000000E+00  0.00000000000E+00  0.75279816464E+03  0.17308306853E+04  0.15585473315E+04 0.  0.
        5    1    3    3  502    0  0.54492635954E+03  0.13541290986E+03  0.97646535136E+03  0.11264049298E+04  0.46999998093E+01 0. -1.
       -5    1    3    3    0  502 -0.54492635954E+03 -0.13541290986E+03 -0.22366718671E+03  0.60442575548E+03  0.46999998093E+01 0.  1.
</event>
<event>
 5   0  0.5623061E-04  0.1576998E+04  0.7818609E-02  0.8834805E-01
       -1   -1    0    0    0  501  0.00000000000E+00  0.00000000000E+00  0.80588688456E+03  0.80588688457E+03  0.50400001928E-02 0.  1.
        1   -1    0    0  501    0  0.00000000000E+00  0.00000000000E+00 -0.77148639476E+03  0.77148639477E+03  0.50400001928E-02 0. -1.
    10030    2    1    2    0    0  0.00000000000E+00  0.00000000000E+00  0.34400489802E+02  0.15773732793E+04  0.15769981194E+04 0.  0.
        3    1    3    3  502    0  0.47205768794E+03  0.58158051689E+03 -0.22914354280E+03  0.78331419736E+03  0.10100000352E+00 0. -1.
       -3    1    3    3    0  502 -0.47205768794E+03 -0.58158051689E+03  0.26354403260E+03  0.79405908199E+03  0.10100000352E+00 0.  1.
</event>
<event>
 5   0  0.5532881E-04  0.1344543E+04  0.7818609E-02  0.8994969E-01
        1   -1    0    0  501    0  0.00000000000E+00  0.00000000000E+00  0.11632556976E+04  0.11632556976E+04  0.50400001928E-02 0.  1.
       -1   -1    0    0    0  501  0.00000000000E+00  0.00000000000E+00 -0.38852094527E+03  0.38852094530E+03  0.50400001928E-02 0. -1.
    10030    2    1    2    0    0  0.00000000000E+00  0.00000000000E+00  0.77473475236E+03  0.15517766429E+04  0.13445433474E+04 0.  0.
        4    1    3    3  502    0 -0.60649843337E+03 -0.13593385815E+03  0.91700245564E+02  0.62827455098E+03  0.12699999809E+01 0. -1.
       -4    1    3    3    0  502  0.60649843337E+03  0.13593385815E+03  0.68303450680E+03  0.92350209196E+03  0.12699999809E+01 0.  1.
</event>
<event>
 5   0  0.5425525E-04  0.1576229E+04  0.7818609E-02  0.8835286E-01
       -1   -1    0    0    0  501  0.00000000000E+00  0.00000000000E+00  0.42688982561E+03  0.42688982564E+03  0.50400001928E-02 0. -1.
        1   -1    0    0  501    0  0.00000000000E+00  0.00000000000E+00 -0.14549989876E+04  0.14549989876E+04  0.50400001928E-02 0.  1.
    10030    2    1    2    0    0  0.00000000000E+00  0.00000000000E+00 -0.10281091620E+04  0.18818888132E+04  0.15762287449E+04 0.  0.
        5    1    3    3  502    0  0.68082478201E+03  0.17624086826E+03 -0.89383682392E+02  0.70893917942E+03  0.46999998093E+01 0. -1.
       -5    1    3    3    0  502 -0.68082478201E+03 -0.17624086826E+03 -0.93872547956E+03  0.11729496338E+04  0.46999998093E+01 0.  1.
</event>
<event>
 5   0  0.1057872E-03  0.1638407E+04  0.7818609E-02  0.8797294E-01
       -2   -1    0    0    0  501  0.00000000000E+00  0.00000000000E+00  0.10298513395E+04  0.10298513395E+04  0.25500000920E-02 0.  1.
        2   -1    0    0  501    0  0.00000000000E+00  0.00000000000E+00 -0.65164192491E+03  0.65164192491E+03  0.25500000920E-02 0. -1.
    10030    2    1    2    0    0  0.00000000000E+00  0.00000000000E+00  0.37820941455E+03  0.16814932644E+04  0.16384069204E+04 0.  0.
        2    1    3    3  502    0 -0.40557568958E+03 -0.44646329517E+03  0.75800439659E+03  0.96870623987E+03  0.25500000920E-02 0.  1.
       -2    1    3    3    0  502  0.40557568958E+03  0.44646329517E+03 -0.37979498204E+03  0.71278702450E+03  0.25500000920E-02 0. -1.
</event>
<event>
 5   0  0.5281116E-04  0.1633773E+04  0.7818609E-02  0.8800064E-01
       -1   -1    0    0    0  501  0.00000000000E+00  0.00000000000E+00  0.56306279547E+03  0.56306279549E+03  0.50400001928E-02 0. -1.
        1   -1    0    0  501    0  0.00000000000E+00  0.00000000000E+00 -0.11851323537E+04  0.11851323537E+04  0.50400001928E-02 0.  1.
    10030    2    1    2    0    0  0.00000000000E+00  0.00000000000E+00 -0.62206955820E+03  0.17481951492E+04  0.16337734679E+04 0.  0.
        2    1    3    3  502    0  0.71096916606E+03 -0.34892346840E+03 -0.52525356941E+03  0.95032418367E+03  0.25500000920E-02 0.  1.
       -2    1    3    3    0  502 -0.71096916606E+03  0.34892346840E+03 -0.96815988797E+02  0.79787096550E+03  0.25500000920E-02 0. -1.
</event>
<event>
 5   0  0.1037321E-03  0.1592425E+04  0.7818609E-02  0.8825215E-01
        2   -1    0    0  501    0  0.00000000000E+00  0.00000000000E+00  0.65673573108E+03  0.65673573109E+03  0.25500000920E-02 0.  1.
       -2   -1    0    0    0  501  0.00000000000E+00  0.00000000000E+00 -0.96531091146E+03  0.96531091146E+03  0.25500000920E-02 0. -1.
    10030    2    1    2    0    0  0.00000000000E+00  0.00000000000E+00 -0.30857518038E+03  0.16220466426E+04  0.15924247765E+04 0.  0.
        5    1    3    3  502    0  0.29893175015E+03  0.54864011539E+03 -0.65699196381E+03  0.90665687995E+03  0.46999998093E+01 0. -1.
       -5    1    3    3    0  502 -0.29893175015E+03 -0.54864011539E+03  0.34841678343E+03  0.71538976260E+03  0.46999998093E+01 0.  1.
</event>
<event>
 5   0  0.5288658E-04  0.1587426E+04  0.7818609E-02  0.8828310E-01
        1   -1    0    0  501    0  0.00000000000E+00  0.00000000000E+00  0.73895476142E+03  0.73895476144E+03  0.50400001928E-02 0. -1.
       -1   -1    0    0    0  501  0.00000000000E+00  0.00000000000E+00 -0.85252908627E+03  0.85252908629E+03  0.50400001928E-02 0.  1.
    10030    2    1    2    0    0  0.00000000000E+00  0.00000000000E+00 -0.11357432485E+03  0.15914838477E+04  0.15874261275E+04 0.  0.
        1    1    3    3  502    0 -0.28277917517E+03 -0.24944512182E+03 -0.75699459142E+03  0.84571138231E+03  0.50400001928E-02 0.  1.
       -1    1    3    3    0  502  0.28277917517E+03  0.24944512182E+03  0.64342026657E+03  0.74577246541E+03  0.50400001928E-02 0. -1.
</event>
<event>
 5   0  0.9844690E-04  0.1613578E+04  0.7818609E-02  0.8812250E-01
        2   -1    0    0  501    0  0.00000000000E+00  0.00000000000E+00  0.20389219369E+04  0.20389219369E+04  0.25500000920E-02 0.  1.
       -2   -1    0    0    0  501  0.00000000000E+00  0.00000000000E+00 -0.31924146966E+03  0.31924146967E+03  0.25500000920E-02 0. -1.
    10030    2    1    2    0    0  0.00000000000E+00  0.00000000000E+00  0.17196804672E+04  0.23581634066E+04  0.16135779320E+04 0.  0.
        3    1    3    3  502    0 -0.61688519959E+03 -0.10837183114E+03  0.16030513001E+04  0.17210651598E+04  0.10100000352E+00 0.  1.
       -3    1    3    3    0  502  0.61688519959E+03  0.10837183114E+03  0.11662916715E+03  0.63709824680E+03  0.10100000352E+00 0. -1.
</event>
<event>
 5   0  0.1037321E-03  0.1605783E+04  0.7818609E-02  0.8817003E-01
        2   -1    0    0  501    0  0.00000000000E+00  0.00000000000E+00  0.20912213535E+04  0.20912213535E+04  0.25500000920E-02 0. -1.
       -2   -1    0    0    0  501  0.00000000000E+00  0.00000000000E+00 -0.30825768620E+03  0.30825768621E+03  0.25500000920E-02 0.  1.
    10030    2    1    2    0    0  0.00000000000E+00  0.00000000000E+00  0.17829636673E+04  0.23994790397E+04  0.16057833674E+04 0.  0.
        5    1    3    3  502    0  0.21865937737E+03 -0.45337591052E+03 -0.43187334074E+02  0.50522161016E+03  0.46999998093E+01 0.  1.
       -5    1    3    3    0  502 -0.21865937737E+03  0.45337591052E+03  0.18261510014E+04  0.18942574295E+04  0.46999998093E+01 0. -1.
</event>
<event>
 5   0  0.1037321E-03  0.1522207E+04  0.7818609E-02  0.8869818E-01
       -2   -1    0    0    0  501  0.00000000000E+00  0.00000000000E+00  0.48149182030E+03  0.48149182031E+03  0.25500000920E-02 0.  1.
        2   -1    0    0  501    0  0.00000000000E+00  0.00000000000E+00 -0.12030915871E+04  0.12030915871E+04  0.25500000920E-02 0. -1.
    10030    2    1    2    0    0  0.00000000000E+00  0.00000000000E+00 -0.72159976683E+03  0.16845834074E+04  0.15222072898E+04 0.  0.
        5    1    3    3  502    0  0.60294105170E+02 -0.53464737767E+03 -0.95652791024E+03  0.10974747973E+04  0.46999998093E+01 0. -1.
       -5    1    3    3    0  502 -0.60294105170E+02  0.53464737767E+03  0.23492814342E+03  0.58710861017E+03  0.46999998093E+01 0.  1.
</event>
<event>
 5   0  0.9844690E-04  0.1337719E+04  0.7818609E-02  0.9000177E-01
       -2   -1    0    0    0  501  0.00000000000E+00  0.00000000000E+00  0.27896246904E+03  0.27896246905E+03  0.25500000920E-02 0.  1.
        2   -1    0    0  501    0  0.00000000000E+00  0.00000000000E+00 -0.16037044550E+04  0.16037044550E+04  0.25500000920E-02 0. -1.
    10030    2    1    2    0    0  0.00000000000E+00  0.00000000000E+00 -0.13247419860E+04  0.18826669241E+04  0.13377194839E+04 0.  0.
        3    1    3    3  502    0 -0.51509433986E+03 -0.40418880548E+03 -0.47000566186E+03  0.80597524888E+03  0.10100000352E+00 0. -1.
       -3    1    3    3    0  502  0.51509433986E+03  0.40418880548E+03 -0.85473632411E+03  0.10766916752E+04  0.10100000352E+00 0.  1.
</event>
<event>
 5   0  0.5288658E-04  0.1618526E+04  0.7818609E-02  0.8809247E-01
        1   -1    0    0  501    0  0.00000000000E+00  0.00000000000E+00  0.14011549218E+04  0.14011549218E+04  0.50400001928E-02 0. -1.
       -1   -1    0    0    0  501  0.00000000000E+00  0.00000000000E+00 -0.46740475780E+03  0.46740475783E+03  0.50400001928E-02 0.  1.
    10030    2    1    2    0    0  0.00000000000E+00  0.00000000000E+00  0.93375016397E+03  0.18685596796E+04  0.16185258440E+04 0.  0.
        1    1    3    3  502    0 -0.50023401273E+03 -0.14204921972E+03  0.11827421110E+04  0.12920104293E+04  0.50400001928E-02 0. -1.
       -1    1    3    3    0  502  0.50023401273E+03  0.14204921972E+03 -0.24899194702E+03  0.57654925030E+03  0.50400001928E-02 0.  1.
</event>
<event>
 5   0  0.5281116E-04  0.1599069E+04  0.7818609E-02  0.8821120E-01
        1   -1    0    0  501    0  0.00000000000E+00  0.00000000000E+00  0.11575548760E+04  0.11575548760E+04  0.50400001928E-02 0. -1.
       -1   -1    0    0    0  501  0.00000000000E+00  0.00000000000E+00 -0.55224655235E+03  0.55224655237E+03  0.50400001928E-02 0.  1.
    10030    2    1    2    0    0  0.00000000000E+00  0.00000000000E+00  0.60530832362E+03  0.17098014284E+04  0.15990693411E+04 0.  0.
        2    1    3    3  502    0  0.75097702192E+02  0.77661899073E+03  0.11598245155E+03  0.78881471253E+03  0.25500000920E-02 0. -1.
       -2    1    3    3    0  502 -0.75097702192E+02 -0.77661899073E+03  0.48932587207E+03  0.92098671582E+03  0.25500000920E-02 0.  1.
</event>
<event>
 5   0  0.5425525E-04  0.1594970E+04  0.7818609E-02  0.8823644E-01
       -1   -1    0    0    0  501  0.00000000000E+00  0.00000000000E+00  0.45268938988E+03  0.45268938991E+03  0.50400001928E-02 0.  1.
        1   -1    0    0  501    0  0.00000000000E+00  0.00000000000E+00 -0.14048986712E+04  0.14048986712E+04  0.50400001928E-02 0. -1.
    10030    2    1    2    0    0  0.00000000000E+00  0.00000000000E+00 -0.95220928129E+03  0.18575880611E+04  0.15949704979E+04 0.  0.
        5    1    3    3  502    0  0.41947859185E+03 -0.14556812336E+03  0.29539220752E+03  0.53332074198E+03  0.46999998093E+01 0.  1.
       -5    1    3    3    0  502 -0.41947859185E+03  0.14556812336E+03 -0.12476014888E+04  0.13242673191E+04  0.46999998093E+01 0. -1.
</event>
<event>
 5   0  0.1057872E-03  0.1638310E+04  0.7818609E-02  0.8797352E-01
        2   -1    0    0  501    0  0.00000000000E+00  0.00000000000E+00  0.12909757689E+04  0.12909757689E+04  0.25500000920E-02 0. -1.
       -2   -1    0    0    0  501  0.00000000000E+00  0.00000000000E+00 -0.51977371954E+03  0.51977371955E+03  0.25500000920E-02 0.  1.
    10030    2    1    2    0    0  0.00000000000E+00  0.00000000000E+00  0.77120204934E+03  0.18107494884E+04  0.16383104434E+04 0.  0.
        2    1    3    3  502    0 -0.14100149450E+03 -0.66566901186E+03 -0.11849500805E+03  0.69067917424E+03  0.25500000920E-02 0.  1.
       -2    1    3    3    0  502  0.14100149450E+03  0.66566901186E+03  0.88969705739E+03  0.11200703142E+04  0.25500000920E-02 0. -1.
</event>
<event>
 5   0  0.5623061E-04  0.1553640E+04  0.7818609E-02  0.8849546E-01
        1   -1    0    0  501    0  0.00000000000E+00  0.00000000000E+00  0.68015936070E+03  0.68015936072E+03  0.50400001928E-02 0.  1.
       -1   -1    0    0    0  501  0.00000000000E+00  0.00000000000E+00 -0.88721742329E+03  0.88721742331E+03  0.50400001928E-02 0. -1.
    10030    2    1    2    0    0  0.00000000000E+00  0.00000000000E+00 -0.20705806259E+03  0.15673767840E+04  0.15536399010E+04 0.  0.
        3    1    3    3  502    0  0.50481430103E+03 -0.10632669546E+03 -0.68944498253E+03  0.86109072625E+03  0.10100000352E+00 0. -1.
       -3    1    3    3    0  502 -0.50481430103E+03  0.10632669546E+03  0.48238691994E+03  0.70628605778E+03  0.10100000352E+00 0.  1.
</event>
<event>
 5   0  0.5532881E-04  0.1611940E+04  0.7818609E-02  0.8813246E-01
        1   -1    0    0  501    0  0.00000000000E+00  0.00000000000E+00  0.12994720343E+04  0.12994720343E+04  0.50400001928E-02 0. -1.
       -1   -1    0    0    0  501  0.00000000000E+00  0.00000000000E+00 -0.49988569487E+03  0.49988569489E+03  0.50400001928E-02 0.  1.
    10030    2    1    2    0    0  0.00000000000E+00  0.00000000000E+00  0.79958633942E+03  0.17993577292E+04  0.16119398014E+04 0.  0.
        4    1    3    3  502    0 -0.59516324455E+03  0.22247380059E+03  0.95330030217E+03  0.11456425964E+04  0.12699999809E+01 0. -1.
       -4    1    3    3    0  502  0.59516324455E+03 -0.22247380059E+03 -0.15371396275E+03  0.65371513281E+03  0.12699999809E+01 0.  1.
</event>
<event>
 5   0  0.1000121E-03  0.1618454E+04  0.7818609E-02  0.8809290E-01
        2   -1    0    0  501    0  0.00000000000E+00  0.00000000000E+00  0.88664451968E+03  0.88664451968E+03  0.25500000920E-02 0.  1.
       -2   -1    0    0    0  501  0.00000000000E+00  0.00000000000E+00 -0.73856949779E+03  0.73856949780E+03  0.25500000920E-02 0. -1.
    10030    2    1    2    0    0  0.00000000000E+00  0.00000000000E+00  0.14807502189E+03  0.16252140175E+04  0.16184543214E+04 0.  0.
        4    1    3    3  502    0 -0.50464871507E+03  0.13364872880E+03  0.69493599281E+03  0.86917774669E+03  0.12699999809E+01 0.  1.
       -4    1    3    3    0  502  0.50464871507E+03 -0.13364872880E+03 -0.54686097092E+03  0.75603627079E+03  0.12699999809E+01 0. -1.
</event>
<event>
 5   0  0.5532881E-04  0.1646633E+04  0.7818609E-02  0.8792401E-01
       -1   -1    0    0    0  501  0.00000000000E+00  0.00000000000E+00  0.82179769427E+03  0.82179769429E+03  0.50400001928E-02 0.  1.
        1   -1    0    0  501    0  0.00000000000E+00  0.00000000000E+00 -0.82483786402E+03  0.82483786403E+03  0.50400001928E-02 0. -1.
    10030    2    1    2    0    0  0.00000000000E+00  0.00000000000E+00 -0.30401697449E+01  0.16466355583E+04  0.16466327518E+04 0.  0.
        4    1    3    3  502    0  0.58214719250E+03  0.47014045539E+01  0.58065853062E+03  0.82224290755E+03  0.12699999809E+01 0.  1.
       -4    1    3    3    0  502 -0.58214719250E+03 -0.47014045539E+01 -0.58369870036E+03  0.82439265077E+03  0.12699999809E+01 0. -1.
</event>
<event>
 5   0  0.5532881E-04  0.1621042E+04  0.7818609E-02  0.8807725E-01
       -1   -1    0    0    0  501  0.00000000000E+00  0.00000000000E+00  0.56141788405E+03  0.56141788407E+03  0.50400001928E-02 0.  1.
        1   -1    0    0  501    0  0.00000000000E+00  0.00000000000E+00 -0.11701517542E+04  0.11701517542E+04  0.50400001928E-02 0. -1.
    10030    2    1    2    0    0  0.00000000000E+00  0.00000000000E+00 -0.60873387013E+03  0.17315696383E+04  0.16210417908E+04 0.  0.
        4    1    3    3  502    0  0.79980387817E+03 -0.11861001956E+03 -0.24405544600E+03  0.84458229551E+03  0.12699999809E+01 0.  1.
       -4    1    3    3    0  502 -0.79980387817E+03  0.11861001956E+03 -0.36467842414E+03  0.88698734275E+03  0.12699999809E+01 0. -1.
</event>
<event>
 5   0  0.5288658E-04  0.1639056E+04  0.7818609E-02  0.8796907E-01
        1   -1    0    0  501    0  0.00000000000E+00  0.00000000000E+00  0.92989853771E+03  0.92989853772E+03  0.50400001928E-02 0. -1.
       -1   -1    0    0    0  501  0.00000000000E+00  0.00000000000E+00 -0.72225781105E+03  0.72225781107E+03  0.50400001928E-02 0.  1.
    10030    2    1    2    0    0  0.00000000000E+00  0.00000000000E+00  0.20764072666E+03  0.16521563488E+04  0.16390564144E+04 0.  0.
        1    1    3    3  502    0  0.61652359513E+03 -0.26039621012E+03  0.58059004542E+03  0.88599792915E+03  0.50400001928E-02 0. -1.
       -1    1    3    3    0  502 -0.61652359513E+03  0.26039621012E+03 -0.37294931876E+03  0.76615841964E+03  0.50400001928E-02 0.  1.
</event>
<event>
 5   0  0.1030027E-03  0.1592568E+04  0.7818609E-02  0.8825127E-01
       -2   -1    0    0    0  501  0.00000000000E+00  0.00000000000E+00  0.65893322313E+03  0.65893322313E+03  0.25500000920E-02 0.  1.
        2   -1    0    0  501    0  0.00000000000E+00  0.00000000000E+00 -0.96226518655E+03  0.96226518656E+03  0.25500000920E-02 0. -1.
    10030    2    1    2    0    0  0.00000000000E+00  0.00000000000E+00 -0.30333196343E+03  0.16211984097E+04  0.15925683670E+04 0.  0.
        1    1    3    3  502    0  0.18262206389E+03  0.93814415902E+02 -0.93485812303E+03  0.95713722792E+03  0.50400001928E-02 0. -1.
       -1    1    3    3    0  502 -0.18262206389E+03 -0.93814415902E+02  0.63152615960E+03  0.66406118177E+03  0.50400001928E-02 0.  1.
</event>
<event>
 5   0  0.5623061E-04  0.1624498E+04  0.7818609E-02  0.8805638E-01
       -1   -1    0    0    0  501  0.00000000000E+00  0.00000000000E+00  0.63198353469E+03  0.63198353471E+03  0.50400001928E-02 0.  1.
        1   -1    0    0  501    0  0.00000000000E+00  0.00000000000E+00 -0.10439323403E+04  0.10439323403E+04  0.50400001928E-02 0. -1.
    10030    2    1    2    0    0  0.00000000000E+00  0.00000000000E+00 -0.41194880561E+03  0.16759158750E+04  0.16244975228E+04 0.  0.
        3    1    3    3  502    0 -0.32197010808E+03  0.70361465501E+03 -0.46079388623E+03  0.90059388685E+03  0.10100000352E+00 0. -1.
       -3    1    3    3    0  502  0.32197010808E+03 -0.70361465501E+03  0.48845080615E+02  0.77532198817E+03  0.10100000352E+00 0.  1.
</event>
<event>
 5   0  0.1057872E-03  0.1593134E+04  0.7818609E-02  0.8824777E-01
        2   -1    0    0  501    0  0.00000000000E+00  0.00000000000E+00  0.26468420094E+04  0.26468420094E+04  0.25500000920E-02 0.  1.
       -2   -1    0    0    0  501  0.00000000000E+00  0.00000000000E+00 -0.23972671827E+03  0.23972671828E+03  0.25500000920E-02 0. -1.
    10030    2    1    2    0    0  0.00000000000E+00  0.00000000000E+00  0.24071152911E+04  0.28865687277E+04  0.15931337027E+04 0.  0.
        2    1    3    3  502    0 -0.73825410460E+03  0.22538461556E+02  0.66304695173E+03  0.99255144220E+03  0.25500000920E-02 0. -1.
       -2    1    3    3    0  502  0.73825410460E+03 -0.22538461556E+02  0.17440683394E+04  0.18940172855E+04  0.25500000920E-02 0.  1.
</event>
<event>
 5   0  0.9844690E-04  0.1692038E+04  0.7818609E-02  0.8765919E-01
        2   -1    0    0  501    0  0.00000000000E+00  0.00000000000E+00  0.20735054214E+04  0.20735054214E+04  0.25500000920E-02 0. -1.
       -2   -1    0    0    0  501  0.00000000000E+00  0.00000000000E+00 -0.34518744191E+03  0.34518744192E+03  0.25500000920E-02 0.  1.
    10030    2    1    2    0    0  0.00000000000E+00  0.00000000000E+00  0.17283179795E+04  0.24186928633E+04  0.16920378627E+04 0.  0.
        3    1    3    3  502    0  0.86495557144E+01 -0.73886373929E+03  0.14531112864E+04  0.16301922773E+04  0.10100000352E+00 0. -1.
       -3    1    3    3    0  502 -0.86495557144E+01  0.73886373929E+03  0.27520669309E+03  0.78850058603E+03  0.10100000352E+00 0.  1.
</event>
<event>
 5   0  0.3832500E-04  0.1576776E+04  0.7818609E-02  0.8834944E-01
        3   -1    0    0  501    0  0.00000000000E+00  0.00000000000E+00  0.92653483108E+03  0.92653483658E+03  0.10100000352E+00 0. -1.
       -3   -1    0    0    0  501  0.00000000000E+00  0.00000000000E+00 -0.67083896092E+03  0.67083896852E+03  0.10100000352E+00 0.  1.
    10030    2    1    2    0    0  0.00000000000E+00  0.00000000000E+00  0.25569587016E+03  0.15973738051E+04  0.15767760447E+04 0.  0.
        4    1    3    3  502    0 -0.10883945196E+03 -0.58142398656E+03  0.65586109034E+03  0.88320737156E+03  0.12699999809E+01 0. -1.
       -4    1    3    3    0  502  0.10883945196E+03  0.58142398656E+03 -0.40016522019E+03  0.71416643354E+03  0.12699999809E+01 0.  1.
</event>
<event>
 5   0  0.5425525E-04  0.1631037E+04  0.7818609E-02  0.8801705E-01
        1   -1    0    0  501    0  0.00000000000E+00  0.00000000000E+00  0.73744805405E+03  0.73744805407E+03  0.50400001928E-02 0.  1.
       -1   -1    0    0    0  501  0.00000000000E+00  0.00000000000E+00 -0.90185374819E+03  0.90185374820E+03  0.50400001928E-02 0. -1.
    10030    2    1    2    0    0  0.00000000000E+00  0.00000000000E+00 -0.16440569414E+03  0.16393018023E+04  0.16310368379E+04 0.  0.
        5    1    3    3  502    0 -0.10726262975E+03  0.28736188836E+03 -0.84165479211E+03  0.89581639062E+03  0.46999998093E+01 0. -1.
       -5    1    3    3    0  502  0.10726262975E+03 -0.28736188836E+03  0.67724909798E+03  0.74348541164E+03  0.46999998093E+01 0.  1.
</event>
<event>
 5   0  0.1000121E-03  0.1626694E+04  0.7818609E-02  0.8804315E-01
       -2   -1    0    0    0  501  0.00000000000E+00  0.00000000000E+00  0.12149545939E+04  0.12149545939E+04  0.25500000920E-02 0.  1.
        2   -1    0    0  501    0  0.00000000000E+00  0.00000000000E+00 -0.54449238492E+03  0.54449238492E+03  0.25500000920E-02 0. -1.
    10030    2    1    2    0    0  0.00000000000E+00  0.00000000000E+00  0.67046220894E+03  0.17594469788E+04  0.16266942237E+04 0.  0.
        4    1    3    3  502    0  0.47560525153E+02  0.74763154555E+03 -0.73453293389E+01  0.74917988375E+03  0.12699999809E+01 0.  1.
       -4    1    3    3    0  502 -0.47560525153E+02 -0.74763154555E+03  0.67780753827E+03  0.10102670950E+04  0.12699999809E+01 0. -1.
</event>
<event>
 5   0  0.1000121E-03  0.1620158E+04  0.7818609E-02  0.8808259E-01
        2   -1    0    0  501    0  0.00000000000E+00  0.00000000000E+00  0.15162206954E+04  0.15162206954E+04  0.25500000920E-02 0. -1.
       -2   -1    0    0    0  501  0.00000000000E+00  0.00000000000E+00 -0.43280490568E+03  0.43280490569E+03  0.25500000920E-02 0.  1.
    10030    2    1    2    0    0  0.00000000000E+00  0.00000000000E+00  0.10834157898E+04  0.19490256011E+04  0.16201577146E+04 0.  0.
        4    1    3    3  502    0  0.12442458303E+03  0.25599544174E+03  0.14540838718E+04  0.14816803508E+04  0.12699999809E+01 0. -1.
       -4    1    3    3    0  502 -0.12442458303E+03 -0.25599544174E+03 -0.37066808200E+03  0.46734525029E+03  0.12699999809E+01 0.  1.
</event>
<event>
 5   0  0.1057872E-03  0.1604235E+04  0.7818609E-02  0.8817951E-01
        2   -1    0    0  501    0  0.00000000000E+00  0.00000000000E+00  0.20398880807E+04  0.20398880807E+04  0.25500000920E-02 0. -1.
       -2   -1    0    0    0  501  0.00000000000E+00  0.00000000000E+00 -0.31540575519E+03  0.31540575520E+03  0.25500000920E-02 0.  1.
    10030    2    1    2    0    0  0.00000000000E+00  0.00000000000E+00  0.17244823255E+04  0.23552938359E+04  0.16042349461E+04 0.  0.
        2    1    3    3  502    0  0.64164476232E+03  0.41552523120E+03  0.12189292286E+04  0.14388042546E+04  0.25500000920E-02 0. -1.
       -2    1    3    3    0  502 -0.64164476232E+03 -0.41552523120E+03  0.50555309690E+03  0.91648958126E+03  0.25500000920E-02 0.  1.
</event>
<event>
 5   0  0.5425525E-04  0.1679460E+04  0.7818609E-02  0.8773167E-01
       -1   -1    0    0    0  501  0.00000000000E+00  0.00000000000E+00  0.62638464310E+03  0.62638464312E+03  0.50400001928E-02 0. -1.
        1   -1    0    0  501    0  0.00000000000E+00  0.00000000000E+00 -0.11257400076E+04  0.11257400077E+04  0.50400001928E-02 0.  1.
    10030    2    1    2    0    0  0.00000000000E+00  0.00000000000E+00 -0.49935536455E+03  0.17521246508E+04  0.16794597381E+04 0.  0.
        5    1    3    3  502    0  0.15385733117E+03 -0.82547121533E+03 -0.25700712382E+03  0.87815121556E+03  0.46999998093E+01 0. -1.
       -5    1    3    3    0  502 -0.15385733117E+03  0.82547121533E+03 -0.24234824072E+03  0.87397343522E+03  0.46999998093E+01 0.  1.
</event>
<event>
 5   0  0.9844690E-04  0.1670364E+04  0.7818609E-02  0.8778450E-01
       -2   -1    0    0    0  501  0.00000000000E+00  0.00000000000E+00  0.43217458824E+03  0.43217458824E+03  0.25500000920E-02 0.  1.
        2   -1    0    0  501    0  0.00000000000E+00  0.00000000000E+00 -0.16139977304E+04  0.16139977304E+04  0.25500000920E-02 0. -1.
    10030    2    1    2    0    0  0.00000000000E+00  0.00000000000E+00 -0.11818231422E+04  0.20461723187E+04  0.16703637982E+04 0.  0.
        3    1    3    3  502    0 -0.44363113452E+03 -0.65136127018E+03 -0.25221078305E+03  0.82746019668E+03  0.10100000352E+00 0. -1.
       -3    1    3    3    0  502  0.44363113452E+03  0.65136127018E+03 -0.92961235913E+03  0.12187121220E+04  0.10100000352E+00 0.  1.
</event>
<event>
 5   0  0.5425525E-04  0.1611096E+04  0.7818609E-02  0.8813760E-01
       -1   -1    0    0    0  501  0.00000000000E+00  0.00000000000E+00  0.60394354780E+03  0.60394354783E+03  0.50400001928E-02 0. -1.
        1   -1    0    0  501    0  0.00000000000E+00  0.00000000000E+00 -0.10744512463E+04  0.10744512463E+04  0.50400001928E-02 0.  1.
    10030    2    1    2    0    0  0.00000000000E+00  0.00000000000E+00 -0.47050769847E+03  0.16783947941E+04  0.16110963939E+04 0.  0.
        5    1    3    3  502    0  0.58102420370E+03 -0.54674316446E+03 -0.11939404944E+03  0.80671819256E+03  0.46999998093E+01 0.  1.
       -5    1    3    3    0  502 -0.58102420370E+03  0.54674316446E+03 -0.35111364903E+03  0.87167660155E+03  0.46999998093E+01 0. -1.
</event>
<event>
 5   0  0.5623061E-04  0.1605591E+04  0.7818609E-02  0.8817120E-01
       -1   -1    0    0    0  501  0.00000000000E+00  0.00000000000E+00  0.70690780421E+03  0.70690780423E+03  0.50400001928E-02 0.  1.
        1   -1    0    0  501    0  0.00000000000E+00  0.00000000000E+00 -0.91168999174E+03  0.91168999175E+03  0.50400001928E-02 0. -1.
    10030    2    1    2    0    0  0.00000000000E+00  0.00000000000E+00 -0.20478218753E+03  0.16185977960E+04  0.16055911936E+04 0.  0.
        3    1    3    3  502    0  0.33858435563E+02 -0.39865181003E+03  0.59924352760E+03  0.72052930188E+03  0.10100000352E+00 0.  1.
       -3    1    3    3    0  502 -0.33858435563E+02  0.39865181003E+03 -0.80402571513E+03  0.89806849410E+03  0.10100000352E+00 0. -1.
</event>
<event>
 5   0  0.3832500E-04  0.1594849E+04  0.7818609E-02  0.8823718E-01
        3   -1    0    0  501    0  0.00000000000E+00  0.00000000000E+00  0.95973326942E+03  0.95973327474E+03  0.10100000352E+00 0. -1.
       -3   -1    0    0    0  501  0.00000000000E+00  0.00000000000E+00 -0.66256556484E+03  0.66256557254E+03  0.10100000352E+00 0.  1.
    10030    2    1    2    0    0  0.00000000000E+00  0.00000000000E+00  0.29716770458E+03  0.16222988473E+04  0.15948494930E+04 0.  0.
        2    1    3    3  502    0 -0.42561622870E+02 -0.68579497687E+03  0.56022146314E+03  0.88655193295E+03  0.25500000920E-02 0. -1.
       -2    1    3    3    0  502  0.42561622870E+02  0.68579497687E+03 -0.26305375856E+03  0.73574691433E+03  0.25500000920E-02 0.  1.
</event>
<event>
 5   0  0.1000121E-03  0.1465739E+04  0.7818609E-02  0.8907561E-01
        2   -1    0    0  501    0  0.00000000000E+00  0.00000000000E+00  0.14131990270E+04  0.14131990270E+04  0.25500000920E-02 0. -1.
       -2   -1    0    0    0  501  0.00000000000E+00  0.00000000000E+00 -0.38005793597E+03  0.38005793598E+03  0.25500000920E-02 0.  1.
    10030    2    1    2    0    0  0.00000000000E+00  0.00000000000E+00  0.10331410910E+04  0.17932569629E+04  0.14657387288E+04 0.  0.
        4    1    3    3  502    0 -0.54394801131E+02  0.40001317738E+03 -0.23176302898E+03  0.46549441562E+03  0.12699999809E+01 0.  1.
       -4    1    3    3    0  502  0.54394801131E+02 -0.40001317738E+03  0.12649041200E+04  0.13277625473E+04  0.12699999809E+01 0. -1.
</event>
<event>
 5   0  0.5532881E-04  0.1612711E+04  0.7818609E-02  0.8812777E-01
       -1   -1    0    0    0  501  0.00000000000E+00  0.00000000000E+00  0.81985216861E+03  0.81985216863E+03  0.50400001928E-02 0.  1.
        1   -1    0    0  501    0  0.00000000000E+00  0.00000000000E+00 -0.79308111392E+03  0.79308111394E+03  0.50400001928E-02 0. -1.
    10030    2    1    2    0    0  0.00000000000E+00  0.00000000000E+00  0.26771054691E+02  0.16129332826E+04  0.16127110977E+04 0.  0.
        4    1    3    3  502    0 -0.40831342385E+03 -0.67530471020E+03 -0.15232180220E+03  0.80371627335E+03  0.12699999809E+01 0.  1.
       -4    1    3    3    0  502  0.40831342385E+03  0.67530471020E+03  0.17909285689E+03  0.80921700922E+03  0.12699999809E+01 0. -1.
</event>
<event>
 5   0  0.5623061E-04  0.1583889E+04  0.7818609E-02  0.8830507E-01
       -1   -1    0    0    0  501  0.00000000000E+00  0.00000000000E+00  0.12369175095E+04  0.12369175095E+04  0.50400001928E-02 0. -1.
        1   -1    0    0  501    0  0.00000000000E+00  0.00000000000E+00 -0.50704757826E+03  0.50704757829E+03  0.50400001928E-02 0.  1.
    10030    2    1    2    0    0  0.00000000000E+00  0.00000000000E+00  0.72986993124E+03  0.17439650878E+04  0.15838889200E+04 0.  0.
        3    1    3    3  502    0  0.92864732840E+01  0.63823145255E+03  0.88108729900E+03  0.10879983751E+04  0.10100000352E+00 0. -1.
       -3    1    3    3    0  502 -0.92864732840E+01 -0.63823145255E+03 -0.15121736777E+03  0.65596671267E+03  0.10100000352E+00 0.  1.
</event>
<event>
 5   0  0.1057872E-03  0.1474852E+04  0.7818609E-02  0.8901351E-01
        2   -1    0    0  501    0  0.00000000000E+00  0.00000000000E+00  0.74910989079E+03  0.74910989080E+03  0.25500000920E-02 0. -1.
       -2   -1    0    0    0  501  0.00000000000E+00  0.00000000000E+00 -0.72592392568E+03  0.72592392568E+03  0.25500000920E-02 0.  1.
    10030    2    1    2    0    0  0.00000000000E+00  0.00000000000E+00  0.23185965117E+02  0.14750338165E+04  0.14748515758E+04 0.  0.
        2    1    3    3  502    0 -0.21796350979E+03  0.48070264735E+03  0.52664561331E+03  0.74561298861E+03  0.25500000920E-02 0. -1.
       -2    1    3    3    0  502  0.21796350979E+03 -0.48070264735E+03 -0.50345964819E+03  0.72942082787E+03  0.25500000920E-02 0.  1.
</event>
<event>
 5   0  0.5623061E-04  0.1597835E+04  0.7818609E-02  0.8821879E-01
       -1   -1    0    0    0  501  0.00000000000E+00  0.00000000000E+00  0.53424082692E+03  0.53424082694E+03  0.50400001928E-02 0.  1.
        1   -1    0    0  501    0  0.00000000000E+00  0.00000000000E+00 -0.11947219210E+04  0.11947219210E+04  0.50400001928E-02 0. -1.
    10030    2    1    2    0    0  0.00000000000E+00  0.00000000000E+00 -0.66048109406E+03  0.17289627479E+04  0.15978350691E+04 0.  0.
        3    1    3    3  502    0 -0.32547444048E+03 -0.46004623270E+03 -0.94301192895E+03  0.10985661819E+04  0.10100000352E+00 0. -1.
       -3    1    3    3    0  502  0.32547444048E+03  0.46004623270E+03  0.28253083489E+03  0.63039656606E+03  0.10100000352E+00 0.  1.
</event>
<event>
 5   0  0.1000121E-03  0.1584338E+04  0.7818609E-02  0.8830228E-01
        2   -1    0    0  501    0  0.00000000000E+00  0.00000000000E+00  0.10924913306E+04  0.10924913306E+04  0.25500000920E-02 0. -1.
       -2   -1    0    0    0  501  0.00000000000E+00  0.00000000000E+00 -0.57440463467E+03  0.57440463468E+03  0.25500000920E-02 0.  1.
    10030    2    1    2    0    0  0.00000000000E+00  0.00000000000E+00  0.51808669593E+03  0.16668959653E+04  0.15843384533E+04 0.  0.
        4    1    3    3  502    0  0.61200884840E+02 -0.71049371607E+03  0.62195765386E+03  0.94624510829E+03  0.12699999809E+01 0.  1.
       -4    1    3    3    0  502 -0.61200884840E+02  0.71049371607E+03 -0.10387095793E+03  0.72065085699E+03  0.12699999809E+01 0. -1.
</event>
<event>
 5   0  0.1030027E-03  0.1598627E+04  0.7818609E-02  0.8821392E-01
        2   -1    0    0  501    0  0.00000000000E+00  0.00000000000E+00  0.18253847026E+04  0.18253847026E+04  0.25500000920E-02 0.  1.
       -2   -1    0    0    0  501  0.00000000000E+00  0.00000000000E+00 -0.35000935469E+03  0.35000935470E+03  0.25500000920E-02 0. -1.
    10030    2    1    2    0    0  0.00000000000E+00  0.00000000000E+00  0.14753753479E+04  0.21753940573E+04  0.15986265628E+04 0.  0.
        1    1    3    3  502    0 -0.49259222257E+02  0.63833102406E+02 -0.34446128170E+03  0.35377211670E+03  0.50400001928E-02 0. -1.
       -1    1    3    3    0  502  0.49259222257E+02 -0.63833102406E+02  0.18198366296E+04  0.18216219406E+04  0.50400001928E-02 0.  1.
</event>
<event>
 5   0  0.1030027E-03  0.1595514E+04  0.7818609E-02  0.8823309E-01
        2   -1    0    0  501    0  0.00000000000E+00  0.00000000000E+00  0.13140302864E+04  0.13140302864E+04  0.25500000920E-02 0.  1.
       -2   -1    0    0    0  501  0.00000000000E+00  0.00000000000E+00 -0.48432396647E+03  0.48432396648E+03  0.25500000920E-02 0. -1.
    10030    2    1    2    0    0  0.00000000000E+00  0.00000000000E+00  0.82970631992E+03  0.17983542529E+04  0.15955141621E+04 0.  0.
        1    1    3    3  502    0 -0.25978880337E+03 -0.39712719658E+03 -0.30793270781E+03  0.56570556404E+03  0.50400001928E-02 0. -1.
       -1    1    3    3    0  502  0.25978880337E+03  0.39712719658E+03  0.11376390277E+04  0.12326486888E+04  0.50400001928E-02 0.  1.
</event>
<event>
 5   0  0.9844690E-04  0.1103944E+04  0.7818609E-02  0.9201356E-01
        2   -1    0    0  501    0  0.00000000000E+00  0.00000000000E+00  0.11306044476E+04  0.11306044476E+04  0.25500000920E-02 0. -1.
       -2   -1    0    0    0  501  0.00000000000E+00  0.00000000000E+00 -0.26947815169E+03  0.26947815170E+03  0.25500000920E-02 0.  1.
    10030    2    1    2    0    0  0.00000000000E+00  0.00000000000E+00  0.86112629592E+03  0.14000825993E+04  0.11039441958E+04 0.  0.
        3    1    3    3  502    0 -0.39705623253E+03  0.21892083554E+03  0.82979802124E+03  0.94559227486E+03  0.10100000352E+00 0. -1.
       -3    1    3    3    0  502  0.39705623253E+03 -0.21892083554E+03  0.31328274678E+02  0.45449032445E+03  0.10100000352E+00 0.  1.
</event>
<event>
 5   0  0.1037321E-03  0.1567701E+04  0.7818609E-02  0.8840640E-01
        2   -1    0    0  501    0  0.00000000000E+00  0.00000000000E+00  0.17692504458E+04  0.17692504458E+04  0.25500000920E-02 0. -1.
       -2   -1    0    0    0  501  0.00000000000E+00  0.00000000000E+00 -0.34727786964E+03  0.34727786964E+03  0.25500000920E-02 0.  1.
    10030    2    1    2    0    0  0.00000000000E+00  0.00000000000E+00  0.14219725762E+04  0.21165283154E+04  0.15677008971E+04 0.  0.
        5    1    3    3  502    0  0.30403462392E+03 -0.62945769214E+03  0.23223834156E+03  0.73662118896E+03  0.46999998093E+01 0.  1.
       -5    1    3    3    0  502 -0.30403462392E+03  0.62945769214E+03  0.11897342346E+04  0.13799071265E+04  0.46999998093E+01 0. -1.
</event>
<event>
 5   0  0.5623061E-04  0.1567918E+04  0.7818609E-02  0.8840503E-01
        1   -1    0    0  501    0  0.00000000000E+00  0.00000000000E+00  0.13580415157E+04  0.13580415157E+04  0.50400001928E-02 0. -1.
       -1   -1    0    0    0  501  0.00000000000E+00  0.00000000000E+00 -0.45255744817E+03  0.45255744820E+03  0.50400001928E-02 0.  1.
    10030    2    1    2    0    0  0.00000000000E+00  0.00000000000E+00  0.90548406753E+03  0.18105989639E+04  0.15679181138E+04 0.  0.
        3    1    3    3  502    0  0.26732741978E+03  0.79569005053E+02  0.12988071224E+04  0.13284182803E+04  0.10100000352E+00 0. -1.
       -3    1    3    3    0  502 -0.26732741978E+03 -0.79569005053E+02 -0.39332305491E+03  0.48218068362E+03  0.10100000352E+00 0.  1.
</event>
<event>
 5   0  0.5532881E-04  0.1590219E+04  0.7818609E-02  0.8826580E-01
       -1   -1    0    0    0  501  0.00000000000E+00  0.00000000000E+00  0.25621842568E+03  0.25621842573E+03  0.50400001928E-02 0. -1.
        1   -1    0    0  501    0  0.00000000000E+00  0.00000000000E+00 -0.24674212735E+04  0.24674212735E+04  0.50400001928E-02 0.  1.
    10030    2    1    2    0    0  0.00000000000E+00  0.00000000000E+00 -0.22112028478E+04  0.27236396992E+04  0.15902185941E+04 0.  0.
        4    1    3    3  502    0 -0.53511618445E+02  0.74119872087E+03 -0.62129059310E+03  0.96862926402E+03  0.12699999809E+01 0. -1.
       -4    1    3    3    0  502  0.53511618445E+02 -0.74119872087E+03 -0.15899122547E+04  0.17550104352E+04  0.12699999809E+01 0.  1.
</event>
<event>
 5   0  0.1000121E-03  0.1490831E+04  0.7818609E-02  0.8890573E-01
       -2   -1    0    0    0  501  0.00000000000E+00  0.00000000000E+00  0.11789866551E+04  0.11789866551E+04  0.25500000920E-02 0.  1.
        2   -1    0    0  501    0  0.00000000000E+00  0.00000000000E+00 -0.47128975563E+03  0.47128975564E+03  0.25500000920E-02 0. -1.
    10030    2    1    2    0    0  0.00000000000E+00  0.00000000000E+00  0.70769689951E+03  0.16502764108E+04  0.14908310871E+04 0.  0.
        4    1    3    3  502    0 -0.19359103053E+03  0.22642370428E+02 -0.44258122420E+03  0.48360098941E+03  0.12699999809E+01 0. -1.
       -4    1    3    3    0  502  0.19359103053E+03 -0.22642370428E+02  0.11502781237E+04  0.11666754214E+04  0.12699999809E+01 0.  1.
</event>
<event>
 5   0  0.5623061E-04  0.1585318E+04  0.7818609E-02  0.8829619E-01
        1   -1    0    0  501    0  0.00000000000E+00  0.00000000000E+00  0.55832661611E+03  0.55832661613E+03  0.50400001928E-02 0.  1.
       -1   -1    0    0    0  501  0.00000000000E+00  0.00000000000E+00 -0.11253418099E+04  0.11253418099E+04  0.50400001928E-02 0. -1.
    10030    2    1    2    0    0  0.00000000000E+00  0.00000000000E+00 -0.56701519375E+03  0.16836684260E+04  0.15853179929E+04 0.  0.
        3    1    3    3  502    0 -0.38824165141E+03  0.63005667599E+03 -0.58503162293E+03  0.94337956564E+03  0.10100000352E+00 0. -1.
       -3    1    3    3    0  502  0.38824165141E+03 -0.63005667599E+03  0.18016429179E+02  0.74028886035E+03  0.10100000352E+00 0.  1.
</event>
<event>
 5   0  0.5281116E-04  0.1415704E+04  0.7818609E-02  0.8942529E-01
        1   -1    0    0  501    0  0.00000000000E+00  0.00000000000E+00  0.15652292573E+04  0.15652292573E+04  0.50400001928E-02 0. -1.
       -1   -1    0    0    0  501  0.00000000000E+00  0.00000000000E+00 -0.32011551368E+03  0.32011551372E+03  0.50400001928E-02 0.  1.
    10030    2    1    2    0    0  0.00000000000E+00  0.00000000000E+00  0.12451137437E+04  0.18853447711E+04  0.14157035958E+04 0.  0.
        2    1    3    3  502    0  0.48751768236E+03  0.14536754567E+03 -0.32907968515E+02  0.50979225999E+03  0.25500000920E-02 0.  1.
       -2    1    3    3    0  502 -0.48751768236E+03 -0.14536754567E+03  0.12780217122E+04  0.13755525111E+04  0.25500000920E-02 0. -1.
</event>
<event>
 5   0  0.5623061E-04  0.1605006E+04  0.7818609E-02  0.8817478E-01
       -1   -1    0    0    0  501  0.00000000000E+00  0.00000000000E+00  0.41432608111E+03  0.41432608114E+03  0.50400001928E-02 0. -1.
        1   -1    0    0  501    0  0.00000000000E+00  0.00000000000E+00 -0.15543584301E+04  0.15543584301E+04  0.50400001928E-02 0.  1.
    10030    2    1    2    0    0  0.00000000000E+00  0.00000000000E+00 -0.11400323490E+04  0.19686845113E+04  0.16050062143E+04 0.  0.
        3    1    3    3  502    0  0.13162866067E+03 -0.14635048003E+03 -0.15242894953E+04  0.15369460117E+04  0.10100000352E+00 0.  1.
       -3    1    3    3    0  502 -0.13162866067E+03  0.14635048003E+03  0.38425714628E+03  0.43173849954E+03  0.10100000352E+00 0. -1.
</event>
<event>
 5   0  0.5623061E-04  0.1598106E+04  0.7818609E-02  0.8821712E-01
       -1   -1    0    0    0  501  0.00000000000E+00  0.00000000000E+00  0.46909636266E+03  0.46909636269E+03  0.50400001928E-02 0.  1.
        1   -1    0    0  501    0  0.00000000000E+00  0.00000000000E+00 -0.13610979427E+04  0.13610979427E+04  0.50400001928E-02 0. -1.
    10030    2    1    2    0    0  0.00000000000E+00  0.00000000000E+00 -0.89200158008E+03  0.18301943054E+04  0.15981064973E+04 0.  0.
        3    1    3    3  502    0  0.37414032114E+03  0.69616037367E+03 -0.31114656831E+03  0.84937179312E+03  0.10100000352E+00 0. -1.
       -3    1    3    3    0  502 -0.37414032114E+03 -0.69616037367E+03 -0.58085501177E+03  0.98082251232E+03  0.10100000352E+00 0.  1.
</event>
<event>
 5   0  0.5425525E-04  0.1564640E+04  0.7818609E-02  0.8842571E-01
       -1   -1    0    0    0  501  0.00000000000E+00  0.00000000000E+00  0.45154652223E+03  0.45154652226E+03  0.50400001928E-02 0.  1.
        1   -1    0    0  501    0  0.00000000000E+00  0.00000000000E+00 -0.13553959907E+04  0.13553959908E+04  0.50400001928E-02 0. -1.
    10030    2    1    2    0    0  0.00000000000E+00  0.00000000000E+00 -0.90384946851E+03  0.18069425130E+04  0.15646396977E+04 0.  0.
        5    1    3    3  502    0 -0.22696084019E+03  0.58051786674E+03 -0.99788253670E+03  0.11765644324E+04  0.46999998093E+01 0. -1.
       -5    1    3    3    0  502  0.22696084019E+03 -0.58051786674E+03  0.94033068187E+02  0.63037808059E+03  0.46999998093E+01 0.  1.
</event>
<event>
 5   0  0.5281116E-04  0.1614715E+04  0.7818609E-02  0.8811559E-01
       -1   -1    0    0    0  501  0.00000000000E+00  0.00000000000E+00  0.13379347965E+04  0.13379347965E+04  0.50400001928E-02 0. -1.
        1   -1    0    0  501    0  0.00000000000E+00  0.00000000000E+00 -0.48718799977E+03  0.48718799979E+03  0.50400001928E-02 0.  1.
    10030    2    1    2    0    0  0.00000000000E+00  0.00000000000E+00  0.85074679670E+03  0.18251227963E+04  0.16147145597E+04 0.  0.
        2    1    3    3  502    0  0.24355705116E+02  0.80452734866E+03  0.35417015239E+03  0.87937133906E+03  0.25500000920E-02 0.  1.
       -2    1    3    3    0  502 -0.24355705116E+02 -0.80452734866E+03  0.49657664431E+03  0.94575145720E+03  0.25500000920E-02 0. -1.
</event>
<event>
 5   0  0.3832500E-04  0.1618575E+04  0.7818609E-02  0.8809217E-01
       -3   -1    0    0    0  501  0.00000000000E+00  0.00000000000E+00  0.50528102148E+03  0.50528103158E+03  0.10100000352E+00 0. -1.
        3   -1    0    0  501    0  0.00000000000E+00  0.00000000000E+00 -0.12962021450E+04  0.12962021489E+04  0.10100000352E+00 0.  1.
    10030    2    1    2    0    0  0.00000000000E+00  0.00000000000E+00 -0.79092112353E+03  0.18014831805E+04  0.16185751222E+04 0.  0.
        1    1    3    3  502    0 -0.18023067090E+03 -0.36015588996E+03 -0.11767484764E+04  0.12437573464E+04  0.50400001928E-02 0.  1.
       -1    1    3    3    0  502  0.18023067090E+03  0.36015588996E+03  0.38582735291E+03  0.55772583416E+03  0.50400001928E-02 0. -1.
</event>
<event>
 5   0  0.3832500E-04  0.1639067E+04  0.7818609E-02  0.8796901E-01
       -4   -1    0    0    0  501  0.00000000000E+00  0.00000000000E+00  0.97529766997E+03  0.97529849685E+03  0.12699999809E+01 0.  1.
        4   -1    0    0  501    0  0.00000000000E+00  0.00000000000E+00 -0.68864465466E+03  0.68864582572E+03  0.12699999809E+01 0. -1.
    10030    2    1    2    0    0  0.00000000000E+00  0.00000000000E+00  0.28665301532E+03  0.16639443226E+04  0.16390670387E+04 0.  0.
        5    1    3    3  502    0 -0.28494366307E+03  0.56227490553E+03 -0.38832734015E+03  0.74038245091E+03  0.46999998093E+01 0. -1.
       -5    1    3    3    0  502  0.28494366307E+03 -0.56227490553E+03  0.67498035547E+03  0.92356187166E+03  0.46999998093E+01 0.  1.
</event>
<event>
 5   0  0.1037321E-03  0.1616572E+04  0.7818609E-02  0.8810431E-01
       -2   -1    0    0    0  501  0.00000000000E+00  0.00000000000E+00  0.37845429973E+03  0.37845429974E+03  0.25500000920E-02 0.  1.
        2   -1    0    0  501    0  0.00000000000E+00  0.00000000000E+00 -0.17263022437E+04  0.17263022437E+04  0.25500000920E-02 0. -1.
    10030    2    1    2    0    0  0.00000000000E+00  0.00000000000E+00 -0.13478479439E+04  0.21047565434E+04  0.16165723080E+04 0.  0.
        5    1    3    3  502    0  0.68918925040E+03 -0.10746746391E+03 -0.12056281147E+04  0.13928719682E+04  0.46999998093E+01 0. -1.
       -5    1    3    3    0  502 -0.68918925040E+03  0.10746746391E+03 -0.14221982921E+03  0.71188457525E+03  0.46999998093E+01 0.  1.
</event>
<event>
 5   0  0.5288658E-04  0.1596071E+04  0.7818609E-02  0.8822965E-01
        1   -1    0    0  501    0  0.00000000000E+00  0.00000000000E+00  0.13018980900E+04  0.13018980901E+04  0.50400001928E-02 0.  1.
       -1   -1    0    0    0  501  0.00000000000E+00  0.00000000000E+00 -0.48917878313E+03  0.48917878315E+03  0.50400001928E-02 0. -1.
    10030    2    1    2    0    0  0.00000000000E+00  0.00000000000E+00  0.81271930692E+03  0.17910768732E+04  0.15960713311E+04 0.  0.
        1    1    3    3  502    0  0.61360616607E+03  0.15187235266E+03 -0.14027279852E+03  0.64749841434E+03  0.50400001928E-02 0. -1.
       -1    1    3    3    0  502 -0.61360616607E+03 -0.15187235266E+03  0.95299210544E+03  0.11435784589E+04  0.50400001928E-02 0.  1.
</event>
<event>
 5   0  0.1037321E-03  0.1561177E+04  0.7818609E-02  0.8844760E-01
        2   -1    0    0  501    0  0.00000000000E+00  0.00000000000E+00  0.14369426533E+04  0.14369426533E+04  0.25500000920E-02 0. -1.
       -2   -1    0    0    0  501  0.00000000000E+00  0.00000000000E+00 -0.42403817358E+03  0.42403817359E+03  0.25500000920E-02 0.  1.
    10030    2    1    2    0    0  0.00000000000E+00  0.00000000000E+00  0.10129044798E+04  0.18609808269E+04  0.15611771690E+04 0.  0.
        5    1    3    3  502    0 -0.24941976317E+03 -0.49780498211E+03  0.11585699044E+04  0.12854284623E+04  0.46999998093E+01 0. -1.
       -5    1    3    3    0  502  0.24941976317E+03  0.49780498211E+03 -0.14566542461E+03  0.57555236460E+03  0.46999998093E+01 0.  1.
</event>
<event>
 5   0  0.5623061E-04  0.1606537E+04  0.7818609E-02  0.8816542E-01
       -1   -1    0    0    0  501  0.00000000000E+00  0.00000000000E+00  0.48117388717E+03  0.48117388719E+03  0.50400001928E-02 0.  1.
        1   -1    0    0  501    0  0.00000000000E+00  0.00000000000E+00 -0.13409709325E+04  0.13409709325E+04  0.50400001928E-02 0. -1.
    10030    2    1    2    0    0  0.00000000000E+00  0.00000000000E+00 -0.85979704529E+03  0.18221448197E+04  0.16065368918E+04 0.  0.
        3    1    3    3  502    0 -0.44315024655E+03 -0.24783782349E+03 -0.11358767537E+04  0.12441952169E+04  0.10100000352E+00 0. -1.
       -3    1    3    3    0  502  0.44315024655E+03  0.24783782349E+03  0.27607970844E+03  0.57794960281E+03  0.10100000352E+00 0.  1.
</event>
<event>
 5   0  0.1000121E-03  0.1608071E+04  0.7818609E-02  0.8815605E-01
       -2   -1    0    0    0  501  0.00000000000E+00  0.00000000000E+00  0.44198373258E+03  0.44198373259E+03  0.25500000920E-02 0.  1.
        2   -1    0    0  501    0  0.00000000000E+00  0.00000000000E+00 -0.14626628419E+04  0.14626628419E+04  0.25500000920E-02 0. -1.
    10030    2    1    2    0    0  0.00000000000E+00  0.00000000000E+00 -0.10206791093E+04  0.19046465745E+04  0.16080711208E+04 0.  0.
        4    1    3    3  502    0 -0.76734494690E+03 -0.14275859828E+03 -0.73900891656E+03  0.10748646783E+04  0.12699999809E+01 0. -1.
       -4    1    3    3    0  502  0.76734494690E+03  0.14275859828E+03 -0.28167019274E+03  0.82978189622E+03  0.12699999809E+01 0.  1.
</event>
<event>
 5   0  0.5532881E-04  0.1346787E+04  0.7818609E-02  0.8993264E-01
       -1   -1    0    0    0  501  0.00000000000E+00  0.00000000000E+00  0.48837838386E+03  0.48837838388E+03  0.50400001928E-02 0. -1.
        1   -1    0    0  501    0  0.00000000000E+00  0.00000000000E+00 -0.92849925373E+03  0.92849925374E+03  0.50400001928E-02 0.  1.
    10030    2    1    2    0    0  0.00000000000E+00  0.00000000000E+00 -0.44012086987E+03  0.14168776376E+04  0.13467872363E+04 0.  0.
        4    1    3    3  502    0 -0.25854373322E+03  0.22076086090E+03  0.39146250584E+03  0.51848310105E+03  0.12699999809E+01 0. -1.
       -4    1    3    3    0  502  0.25854373322E+03 -0.22076086090E+03 -0.83158337571E+03  0.89839453658E+03  0.12699999809E+01 0.  1.
</event>
<event>
 5   0  0.1000121E-03  0.1609113E+04  0.7818609E-02  0.8814969E-01
       -2   -1    0    0    0  501  0.00000000000E+00  0.00000000000E+00  0.12628959414E+04  0.12628959414E+04  0.25500000920E-02 0. -1.
        2   -1    0    0  501    0  0.00000000000E+00  0.00000000000E+00 -0.51256081833E+03  0.51256081834E+03  0.25500000920E-02 0.  1.
    10030    2    1    2    0    0  0.00000000000E+00  0.00000000000E+00  0.75033512306E+03  0.17754567597E+04  0.16091127707E+04 0.  0.
        4    1    3    3  502    0 -0.59570518272E+03  0.51935696712E+03  0.20887942987E+03  0.81745247760E+03  0.12699999809E+01 0. -1.
       -4    1    3    3    0  502  0.59570518272E+03 -0.51935696712E+03  0.54145569319E+03  0.95800428214E+03  0.12699999809E+01 0.  1.
</event>
<event>
 5   0  0.1057872E-03  0.1608213E+04  0.7818609E-02  0.8815519E-01
        2   -1    0    0  501    0  0.00000000000E+00  0.00000000000E+00  0.15770349247E+04  0.15770349247E+04  0.25500000920E-02 0.  1.
       -2   -1    0    0    0  501  0.00000000000E+00  0.00000000000E+00 -0.41000164771E+03  0.41000164772E+03  0.25500000920E-02 0. -1.
    10030    2    1    2    0    0  0.00000000000E+00  0.00000000000E+00  0.11670332770E+04  0.19870365724E+04  0.16082125701E+04 0.  0.
        2    1    3    3  502    0 -0.10965402633E+03 -0.42811863956E+03  0.14135282594E+04  0.14810036176E+04  0.25500000920E-02 0.  1.
       -2    1    3    3    0  502  0.10965402633E+03  0.42811863956E+03 -0.24649498244E+03  0.50603295486E+03  0.25500000920E-02 0. -1.
</event>
<event>
 5   0  0.5288658E-04  0.1609235E+04  0.7818609E-02  0.8814895E-01
       -1   -1    0    0    0  501  0.00000000000E+00  0.00000000000E+00  0.72808346634E+03  0.72808346636E+03  0.50400001928E-02 0. -1.
        1   -1    0    0  501    0  0.00000000000E+00  0.00000000000E+00 -0.88919643655E+03  0.88919643656E+03  0.50400001928E-02 0.  1.
    10030    2    1    2    0    0  0.00000000000E+00  0.00000000000E+00 -0.16111297021E+03  0.16172799029E+04  0.16092348788E+04 0.  0.
        1    1    3    3  502    0  0.78266047881E+03  0.36824727936E+02 -0.26448985553E+03  0.82696334222E+03  0.50400001928E-02 0.  1.
       -1    1    3    3    0  502 -0.78266047881E+03 -0.36824727936E+02  0.10337688532E+03  0.79031656070E+03  0.50400001928E-02 0. -1.
</event>
<event>
 5   0  0.3832500E-04  0.1615463E+04  0.7818609E-02  0.8811104E-01
        3   -1    0    0  501    0  0.00000000000E+00  0.00000000000E+00  0.18878263082E+04  0.18878263109E+04  0.10100000352E+00 0.  1.
       -3   -1    0    0    0  501  0.00000000000E+00  0.00000000000E+00 -0.34559858834E+03  0.34559860310E+03  0.10100000352E+00 0. -1.
    10030    2    1    2    0    0  0.00000000000E+00  0.00000000000E+00  0.15422277199E+04  0.22334249140E+04  0.16154629388E+04 0.  0.
        2    1    3    3  502    0  0.63181596677E+03  0.19030231922E+03  0.12705141379E+03  0.67197354882E+03  0.25500000920E-02 0. -1.
       -2    1    3    3    0  502 -0.63181596677E+03 -0.19030231922E+03  0.14151763061E+04  0.15614513652E+04  0.25500000920E-02 0.  1.
</event>
<event>
 5   0  0.5288658E-04  0.1546980E+04  0.7818609E-02  0.8853799E-01
       -1   -1    0    0    0  501  0.00000000000E+00  0.00000000000E+00  0.56750026521E+03  0.56750026523E+03  0.50400001928E-02 0.  1.
        1   -1    0    0  501    0  0.00000000000E+00  0.00000000000E+00 -0.10542498990E+04  0.10542498990E+04  0.50400001928E-02 0. -1.
    10030    2    1    2    0    0  0.00000000000E+00  0.00000000000E+00 -0.48674963383E+03  0.16217501643E+04  0.15469804101E+04 0.  0.
        1    1    3    3  502    0  0.76749421206E+03 -0.84435038603E+02 -0.29153490686E+03  0.82532977847E+03  0.50400001928E-02 0. -1.
       -1    1    3    3    0  502 -0.76749421206E+03  0.84435038603E+02 -0.19521472697E+03  0.79642038581E+03  0.50400001928E-02 0.  1.
</event>
<event>
 5   0  0.1037321E-03  0.1095692E+04  0.7818609E-02  0.9209401E-01
        2   -1    0    0  501    0  0.00000000000E+00  0.00000000000E+00  0.12311443629E+04  0.12311443629E+04  0.25500000920E-02 0.  1.
       -2   -1    0    0    0  501  0.00000000000E+00  0.00000000000E+00 -0.24378560558E+03  0.24378560559E+03  0.25500000920E-02 0. -1.
    10030    2    1    2    0    0  0.00000000000E+00  0.00000000000E+00  0.98735875736E+03  0.14749299685E+04  0.10956920627E+04 0.  0.
        5    1    3    3  502    0 -0.21484642003E+03 -0.36410520003E+03  0.96266477450E+03  0.10514167294E+04  0.46999998093E+01 0.  1.
       -5    1    3    3    0  502  0.21484642003E+03  0.36410520003E+03  0.24693982857E+02  0.42351323908E+03  0.46999998093E+01 0. -1.
</event>
<event>
 5   0  0.9844690E-04  0.1585221E+04  0.7818609E-02  0.8829679E-01
       -2   -1    0    0    0  501  0.00000000000E+00  0.00000000000E+00  0.50484898444E+03  0.50484898444E+03  0.25500000920E-02 0.  1.
        2   -1    0    0  501    0  0.00000000000E+00  0.00000000000E+00 -0.12443948167E+04  0.12443948167E+04  0.25500000920E-02 0. -1.
    10030    2    1    2    0    0  0.00000000000E+00  0.00000000000E+00 -0.73954583223E+03  0.17492438011E+04  0.15852210691E+04 0.  0.
        3    1    3    3  502    0  0.34264894248E+03  0.70934138037E+03 -0.46633730253E+03  0.91544742155E+03  0.10100000352E+00 0.  1.
       -3    1    3    3    0  502 -0.34264894248E+03 -0.70934138037E+03 -0.27320852970E+03  0.83379637957E+03  0.10100000352E+00 0. -1.
</event>
<event>
 5   0  0.9844690E-04  0.1576475E+04  0.7818609E-02  0.8835132E-01
       -2   -1    0    0    0  501  0.00000000000E+00  0.00000000000E+00  0.50712689820E+03  0.50712689821E+03  0.25500000920E-02 0. -1.
        2   -1    0    0  501    0  0.00000000000E+00  0.00000000000E+00 -0.12251729187E+04  0.12251729187E+04  0.25500000920E-02 0.  1.
    10030    2    1    2    0    0  0.00000000000E+00  0.00000000000E+00 -0.71804602050E+03  0.17322998169E+04  0.15764747280E+04 0.  0.
        3    1    3    3  502    0 -0.30725555315E+03  0.18416909095E+02  0.43835697292E+03  0.53563233975E+03  0.10100000352E+00 0. -1.
       -3    1    3    3    0  502  0.30725555315E+03 -0.18416909095E+02 -0.11564029934E+04  0.11966674771E+04  0.10100000352E+00 0.  1.
</event>
<event>
 5   0  0.5281116E-04  0.1625156E+04  0.7818609E-02  0.8805241E-01
        1   -1    0    0  501    0  0.00000000000E+00  0.00000000000E+00  0.58581470120E+03  0.58581470122E+03  0.50400001928E-02 0.  1.
       -1   -1    0    0    0  501  0.00000000000E+00  0.00000000000E+00 -0.11271188191E+04  0.11271188192E+04  0.50400001928E-02 0. -1.
    10030    2    1    2    0    0  0.00000000000E+00  0.00000000000E+00 -0.54130411795E+03  0.17129335204E+04  0.16251557147E+04 0.  0.
        2    1    3    3  502    0  0.71834004003E+03  0.37514028262E+03 -0.20793941595E+03  0.83664893801E+03  0.25500000920E-02 0. -1.
       -2    1    3    3    0  502 -0.71834004003E+03 -0.37514028262E+03 -0.33336470200E+03  0.87628458237E+03  0.25500000920E-02 0.  1.
</event>
<event>
 5   0  0.1000121E-03  0.9930205E+03  0.7818609E-02  0.9316233E-01
       -2   -1    0    0    0  501  0.00000000000E+00  0.00000000000E+00  0.64412488767E+03  0.64412488767E+03  0.25500000920E-02 0.  1.
        2   -1    0    0  501    0  0.00000000000E+00  0.00000000000E+00 -0.38272456864E+03  0.38272456865E+03  0.25500000920E-02 0. -1.
    10030    2    1    2    0    0  0.00000000000E+00  0.00000000000E+00  0.26140031903E+03  0.10268494563E+04  0.99302048275E+03 0.  0.
        4    1    3    3  502    0 -0.22248583255E+03  0.21751417675E+03  0.53080307799E+03  0.61527707846E+03  0.12699999809E+01 0.  1.
       -4    1    3    3    0  502  0.22248583255E+03 -0.21751417675E+03 -0.26940275897E+03  0.41157237786E+03  0.12699999809E+01 0. -1.
</event>
<event>
 5   0  0.5288658E-04  0.1138286E+04  0.7818609E-02  0.9168658E-01
       -1   -1    0    0    0  501  0.00000000000E+00  0.00000000000E+00  0.63182241897E+03  0.63182241899E+03  0.50400001928E-02 0.  1.
        1   -1    0    0  501    0  0.00000000000E+00  0.00000000000E+00 -0.51268193559E+03  0.51268193562E+03  0.50400001928E-02 0. -1.
    10030    2    1    2    0    0  0.00000000000E+00  0.00000000000E+00  0.11914048338E+03  0.11445043546E+04  0.11382863273E+04 0.  0.
        1    1    3    3  502    0  0.17493459270E+03  0.38293342792E+02  0.60275782401E+03  0.62879685611E+03  0.50400001928E-02 0.  1.
       -1    1    3    3    0  502 -0.17493459270E+03 -0.38293342792E+02 -0.48361734063E+03  0.51570749850E+03  0.50400001928E-02 0. -1.
</event>
<event>
 5   0  0.9844690E-04  0.1588748E+04  0.7818609E-02  0.8827491E-01
        2   -1    0    0  501    0  0.00000000000E+00  0.00000000000E+00  0.43951977326E+03  0.43951977327E+03  0.25500000920E-02 0.  1.
       -2   -1    0    0    0  501  0.00000000000E+00  0.00000000000E+00 -0.14357257857E+04  0.14357257857E+04  0.25500000920E-02 0. -1.
    10030    2    1    2    0    0  0.00000000000E+00  0.00000000000E+00 -0.99620601245E+03  0.18752455590E+04  0.15887477733E+04 0.  0.
        3    1    3    3  502    0 -0.42906046683E+03  0.44201062045E+03 -0.10901103330E+04  0.12521209291E+04  0.10100000352E+00 0. -1.
       -3    1    3    3    0  502  0.42906046683E+03 -0.44201062045E+03  0.93904320517E+02  0.62312462991E+03  0.10100000352E+00 0.  1.
</event>
<event>
 5   0  0.5288658E-04  0.1597386E+04  0.7818609E-02  0.8822156E-01
        1   -1    0    0  501    0  0.00000000000E+00  0.00000000000E+00  0.17712048659E+04  0.17712048659E+04  0.50400001928E-02 0.  1.
       -1   -1    0    0    0  501  0.00000000000E+00  0.00000000000E+00 -0.36015613797E+03  0.36015613801E+03  0.50400001928E-02 0. -1.
    10030    2    1    2    0    0  0.00000000000E+00  0.00000000000E+00  0.14110487279E+04  0.21313610039E+04  0.15973857444E+04 0.  0.
        1    1    3    3  502    0 -0.14817614502E+03  0.46724608346E+03 -0.13585070618E+03  0.50865556800E+03  0.50400001928E-02 0. -1.
       -1    1    3    3    0  502  0.14817614502E+03 -0.46724608346E+03  0.15468994341E+04  0.16227054359E+04  0.50400001928E-02 0.  1.
</event>
<event>
 5   0  0.1037321E-03  0.1569010E+04  0.7818609E-02  0.8839816E-01
       -2   -1    0    0    0  501  0.00000000000E+00  0.00000000000E+00  0.45987326887E+03  0.45987326888E+03  0.25500000920E-02 0. -1.
        2   -1    0    0  501    0  0.00000000000E+00  0.00000000000E+00 -0.13382987275E+04  0.13382987275E+04  0.25500000920E-02 0.  1.
    10030    2    1    2    0    0  0.00000000000E+00  0.00000000000E+00 -0.87842545866E+03  0.17981719964E+04  0.15690096374E+04 0.  0.
        5    1    3    3  502    0  0.66814918729E+02 -0.76318365455E+03 -0.63273054686E+03  0.99362143639E+03  0.46999998093E+01 0.  1.
       -5    1    3    3    0  502 -0.66814918729E+02  0.76318365455E+03 -0.24569491181E+03  0.80455056002E+03  0.46999998093E+01 0. -1.
</event>
<event>
 5   0  0.3832500E-04  0.1613300E+04  0.7818609E-02  0.8812419E-01
        3   -1    0    0  501    0  0.00000000000E+00  0.00000000000E+00  0.66524077680E+03  0.66524078447E+03  0.10100000352E+00 0. -1.
       -3   -1    0    0    0  501  0.00000000000E+00  0.00000000000E+00 -0.97811794157E+03  0.97811794678E+03  0.10100000352E+00 0.  1.
    10030    2    1    2    0    0  0.00000000000E+00  0.00000000000E+00 -0.31287716476E+03  0.16433587313E+04  0.16132996620E+04 0.  0.
        4    1    3    3  502    0 -0.15049816734E+03 -0.23552915848E+02  0.65045553733E+03  0.66805572908E+03  0.12699999809E+01 0. -1.
       -4    1    3    3    0  502  0.15049816734E+03  0.23552915848E+02 -0.96333270209E+03  0.97530300217E+03  0.12699999809E+01 0.  1.
</event>
<event>
 5   0  0.5532881E-04  0.1606333E+04  0.7818609E-02  0.8816667E-01
       -1   -1    0    0    0  501  0.00000000000E+00  0.00000000000E+00  0.57494204675E+03  0.57494204677E+03  0.50400001928E-02 0. -1.
        1   -1    0    0  501    0  0.00000000000E+00  0.00000000000E+00 -0.11219847491E+04  0.11219847491E+04  0.50400001928E-02 0.  1.
    10030    2    1    2    0    0  0.00000000000E+00  0.00000000000E+00 -0.54704270239E+03  0.16969267959E+04  0.16063327278E+04 0.  0.
        4    1    3    3  502    0 -0.20750648148E+03 -0.61951207700E+03 -0.76700789510E+03  0.10075499379E+04  0.12699999809E+01 0.  1.
       -4    1    3    3    0  502  0.20750648148E+03  0.61951207700E+03  0.21996519271E+03  0.68937685797E+03  0.12699999809E+01 0. -1.
</event>
<event>
 5   0  0.1057872E-03  0.1610686E+04  0.7818609E-02  0.8814010E-01
        2   -1    0    0  501    0  0.00000000000E+00  0.00000000000E+00  0.12938474131E+04  0.12938474132E+04  0.25500000920E-02 0.  1.
       -2   -1    0    0    0  501  0.00000000000E+00  0.00000000000E+00 -0.50127816610E+03  0.50127816611E+03  0.25500000920E-02 0. -1.
    10030    2    1    2    0    0  0.00000000000E+00  0.00000000000E+00  0.79256924705E+03  0.17951255793E+04  0.16106861376E+04 0.  0.
        2    1    3    3  502    0 -0.18330937541E+03 -0.30019362584E+02 -0.47707730916E+03  0.51196313165E+03  0.25500000920E-02 0. -1.
       -2    1    3    3    0  502  0.18330937541E+03  0.30019362584E+02  0.12696465562E+04  0.12831624476E+04  0.25500000920E-02 0.  1.
</event>
<event>
 5   0  0.9844690E-04  0.1626457E+04  0.7818609E-02  0.8804457E-01
       -2   -1    0    0    0  501  0.00000000000E+00  0.00000000000E+00  0.15115024178E+04  0.15115024178E+04  0.25500000920E-02 0.  1.
        2   -1    0    0  501    0  0.00000000000E+00  0.00000000000E+00 -0.43753861879E+03  0.43753861879E+03  0.25500000920E-02 0. -1.
    10030    2    1    2    0    0  0.00000000000E+00  0.00000000000E+00  0.10739637990E+04  0.19490410366E+04  0.16264571069E+04 0.  0.
        3    1    3    3  502    0  0.18049773877E+03  0.53855264842E+03  0.12344113001E+04  0.13588192142E+04  0.10100000352E+00 0.  1.
       -3    1    3    3    0  502 -0.18049773877E+03 -0.53855264842E+03 -0.16044750110E+03  0.59022182240E+03  0.10100000352E+00 0. -1.
</event>
<event>
 5   0  0.5425525E-04  0.1610991E+04  0.7818609E-02  0.8813824E-01
       -1   -1    0    0    0  501  0.00000000000E+00  0.00000000000E+00  0.77721263319E+03  0.77721263321E+03  0.50400001928E-02 0.  1.
        1   -1    0    0  501    0  0.00000000000E+00  0.00000000000E+00 -0.83480709888E+03  0.83480709889E+03  0.50400001928E-02 0. -1.
    10030    2    1    2    0    0  0.00000000000E+00  0.00000000000E+00 -0.57594465686E+02  0.16120197321E+04  0.16109905320E+04 0.  0.
        5    1    3    3  502    0 -0.69696056902E+03 -0.35310580514E+03 -0.22478657399E+03  0.81301220055E+03  0.46999998093E+01 0.  1.
       -5    1    3    3    0  502  0.69696056902E+03  0.35310580514E+03  0.16719210831E+03  0.79900753155E+03  0.46999998093E+01 0. -1.
</event>
<event>
 5   0  0.1037321E-03  0.1613228E+04  0.7818609E-02  0.8812463E-01
       -2   -1    0    0    0  501  0.00000000000E+00  0.00000000000E+00  0.51552081155E+03  0.51552081155E+03  0.25500000920E-02 0.  1.
        2   -1    0    0  501    0  0.00000000000E+00  0.00000000000E+00 -0.12620753972E+04  0.12620753972E+04  0.25500000920E-02 0. -1.
    10030    2    1    2    0    0  0.00000000000E+00  0.00000000000E+00 -0.74655458561E+03  0.17775962087E+04  0.16132279851E+04 0.  0.
        5    1    3    3  502    0  0.67892631125E+03  0.21704697974E+03 -0.78930919895E+03  0.10635231211E+04  0.46999998093E+01 0. -1.
       -5    1    3    3    0  502 -0.67892631125E+03 -0.21704697974E+03  0.42754613335E+02  0.71407308764E+03  0.46999998093E+01 0.  1.
</event>
<event>
 5   0  0.1000121E-03  0.1304663E+04  0.7818609E-02  0.9025876E-01
       -2   -1    0    0    0  501  0.00000000000E+00  0.00000000000E+00  0.32974183215E+03  0.32974183216E+03  0.25500000920E-02 0. -1.
        2   -1    0    0  501    0  0.00000000000E+00  0.00000000000E+00 -0.12905137619E+04  0.12905137619E+04  0.25500000920E-02 0.  1.
    10030    2    1    2    0    0  0.00000000000E+00  0.00000000000E+00 -0.96077192979E+03  0.16202555941E+04  0.13046629791E+04 0.  0.
        4    1    3    3  502    0  0.19690470124E+03 -0.24819531079E+03 -0.11885524040E+04  0.12300531710E+04  0.12699999809E+01 0.  1.
       -4    1    3    3    0  502 -0.19690470124E+03  0.24819531079E+03  0.22778047417E+03  0.39020242308E+03  0.12699999809E+01 0. -1.
</event>
<event>
 5   0  0.1057872E-03  0.1597332E+04  0.7818609E-02  0.8822189E-01
        2   -1    0    0  501    0  0.00000000000E+00  0.00000000000E+00  0.17730534787E+04  0.17730534787E+04  0.25500000920E-02 0.  1.
       -2   -1    0    0    0  501  0.00000000000E+00  0.00000000000E+00 -0.35975635988E+03  0.35975635989E+03  0.25500000920E-02 0. -1.
    10030    2    1    2    0    0  0.00000000000E+00  0.00000000000E+00  0.14132971189E+04  0.21328098386E+04  0.15973318571E+04 0.  0.
        2    1    3    3  502    0  0.32070823352E+03 -0.53675760516E+03  0.43177902525E+02  0.62675898799E+03  0.25500000920E-02 0. -1.
       -2    1    3    3    0  502 -0.32070823352E+03  0.53675760516E+03  0.13701192163E+04  0.15060508506E+04  0.25500000920E-02 0.  1.
</event>
<event>
 5   0  0.5281116E-04  0.1542961E+04  0.7818609E-02  0.8856377E-01
       -1   -1    0    0    0  501  0.00000000000E+00  0.00000000000E+00  0.43521343295E+03  0.43521343298E+03  0.50400001928E-02 0. -1.
        1   -1    0    0  501    0  0.00000000000E+00  0.00000000000E+00 -0.13675630234E+04  0.13675630234E+04  0.50400001928E-02 0.  1.
    10030    2    1    2    0    0  0.00000000000E+00  0.00000000000E+00 -0.93234959049E+03  0.18027764564E+04  0.15429605287E+04 0.  0.
        2    1    3    3  502    0  0.57314237669E+03  0.51581237128E+03 -0.49543613543E+03  0.91652144035E+03  0.25500000920E-02 0.  1.
       -2    1    3    3    0  502 -0.57314237669E+03 -0.51581237128E+03 -0.43691345506E+03  0.88625501609E+03  0.25500000920E-02 0. -1.
</event>
<event>
 5   0  0.1000121E-03  0.1587501E+04  0.7818609E-02  0.8828264E-01
       -2   -1    0    0    0  501  0.00000000000E+00  0.00000000000E+00  0.30740988682E+03  0.30740988684E+03  0.25500000920E-02 0.  1.
        2   -1    0    0  501    0  0.00000000000E+00  0.00000000000E+00 -0.20495097079E+04  0.20495097079E+04  0.25500000920E-02 0. -1.
    10030    2    1    2    0    0  0.00000000000E+00  0.00000000000E+00 -0.17420998211E+04  0.23569195948E+04  0.15875006109E+04 0.  0.
        4    1    3    3  502    0  0.50015230863E+03 -0.29986087178E+03 -0.16705282403E+04  0.17693883374E+04  0.12699999809E+01 0. -1.
       -4    1    3    3    0  502 -0.50015230863E+03  0.29986087178E+03 -0.71571580839E+02  0.58753125732E+03  0.12699999809E+01 0.  1.
</event>
<event>
 5   0  0.1037321E-03  0.1629383E+04  0.7818609E-02  0.8802698E-01
        2   -1    0    0  501    0  0.00000000000E+00  0.00000000000E+00  0.19591956778E+04  0.19591956778E+04  0.25500000920E-02 0.  1.
       -2   -1    0    0    0  501  0.00000000000E+00  0.00000000000E+00 -0.33877279496E+03  0.33877279497E+03  0.25500000920E-02 0. -1.
    10030    2    1    2    0    0  0.00000000000E+00  0.00000000000E+00  0.16204228828E+04  0.22979684727E+04  0.16293829453E+04 0.  0.
        5    1    3    3  502    0  0.79225118606E+03 -0.18247852421E+03  0.73639101857E+03  0.10969294307E+04  0.46999998093E+01 0.  1.
       -5    1    3    3    0  502 -0.79225118606E+03  0.18247852421E+03  0.88403186423E+03  0.12010390421E+04  0.46999998093E+01 0. -1.
</event>
<event>
 5   0  0.1000121E-03  0.1585321E+04  0.7818609E-02  0.8829617E-01
       -2   -1    0    0    0  501  0.00000000000E+00  0.00000000000E+00  0.38138039168E+03  0.38138039168E+03  0.25500000920E-02 0. -1.
        2   -1    0    0  501    0  0.00000000000E+00  0.00000000000E+00 -0.16474647975E+04  0.16474647975E+04  0.25500000920E-02 0.  1.
    10030    2    1    2    0    0  0.00000000000E+00  0.00000000000E+00 -0.12660844058E+04  0.20288451892E+04  0.15853211280E+04 0.  0.
        4    1    3    3  502    0 -0.21665027427E+03  0.32353023107E+03  0.25055481230E+03  0.46302103475E+03  0.12699999809E+01 0. -1.
       -4    1    3    3    0  502  0.21665027427E+03 -0.32353023107E+03 -0.15166392181E+04  0.15658241544E+04  0.12699999809E+01 0.  1.
</event>
<event>
 5   0  0.1057872E-03  0.1575655E+04  0.7818609E-02  0.8835645E-01
       -2   -1    0    0    0  501  0.00000000000E+00  0.00000000000E+00  0.67791616993E+03  0.67791616994E+03  0.25500000920E-02 0. -1.
        2   -1    0    0  501    0  0.00000000000E+00  0.00000000000E+00 -0.91555912540E+03  0.91555912541E+03  0.25500000920E-02 0.  1.
    10030    2    1    2    0    0  0.00000000000E+00  0.00000000000E+00 -0.23764295547E+03  0.15934752953E+04  0.15756552106E+04 0.  0.
        2    1    3    3  502    0 -0.52399740094E+03 -0.44867597468E+02 -0.71204398438E+03  0.88520789264E+03  0.25500000920E-02 0.  1.
       -2    1    3    3    0  502  0.52399740094E+03  0.44867597468E+02  0.47440102891E+03  0.70826740270E+03  0.25500000920E-02 0. -1.
</event>
<event>
 5   0  0.1037321E-03  0.1615689E+04  0.7818609E-02  0.8810967E-01
       -2   -1    0    0    0  501  0.00000000000E+00  0.00000000000E+00  0.86267500111E+03  0.86267500111E+03  0.25500000920E-02 0.  1.
        2   -1    0    0  501    0  0.00000000000E+00  0.00000000000E+00 -0.75649937836E+03  0.75649937836E+03  0.25500000920E-02 0. -1.
    10030    2    1    2    0    0  0.00000000000E+00  0.00000000000E+00  0.10617562275E+03  0.16191743795E+04  0.16156894529E+04 0.  0.
        5    1    3    3  502    0 -0.24361710687E+03  0.16107183418E+03  0.80790398860E+03  0.85908345073E+03  0.46999998093E+01 0.  1.
       -5    1    3    3    0  502  0.24361710687E+03 -0.16107183418E+03 -0.70172836585E+03  0.76009092874E+03  0.46999998093E+01 0. -1.
</event>
<event>
 5   0  0.5288658E-04  0.1562768E+04  0.7818609E-02  0.8843753E-01
       -1   -1    0    0    0  501  0.00000000000E+00  0.00000000000E+00  0.38983615615E+03  0.38983615619E+03  0.50400001928E-02 0.  1.
        1   -1    0    0  501    0  0.00000000000E+00  0.00000000000E+00 -0.15661998372E+04  0.15661998372E+04  0.50400001928E-02 0. -1.
    10030    2    1    2    0    0  0.00000000000E+00  0.00000000000E+00 -0.11763636810E+04  0.19560359934E+04  0.15627684721E+04 0.  0.
        1    1    3    3  502    0  0.52334451589E+03 -0.44551986082E+03 -0.10534581253E+04  0.12578360189E+04  0.50400001928E-02 0.  1.
       -1    1    3    3    0  502 -0.52334451589E+03  0.44551986082E+03 -0.12290555575E+03  0.69819997448E+03  0.50400001928E-02 0. -1.
</event>
<event>
 5   0  0.9844690E-04  0.1356878E+04  0.7818609E-02  0.8985638E-01
        2   -1    0    0  501    0  0.00000000000E+00  0.00000000000E+00  0.99262019342E+03  0.99262019342E+03  0.25500000920E-02 0. -1.
       -2   -1    0    0    0  501  0.00000000000E+00  0.00000000000E+00 -0.46370162485E+03  0.46370162485E+03  0.25500000920E-02 0.  1.
    10030    2    1    2    0    0  0.00000000000E+00  0.00000000000E+00  0.52891856857E+03  0.14563218183E+04  0.13568781766E+04 0.  0.
        3    1    3    3  502    0  0.52204063921E+03  0.38684426837E+03  0.47396968983E+03  0.80425256855E+03  0.10100000352E+00 0. -1.
       -3    1    3    3    0  502 -0.52204063921E+03 -0.38684426837E+03  0.54948878743E+02  0.65206924972E+03  0.10100000352E+00 0.  1.
</event>
<event>
 5   0  0.5288658E-04  0.1707523E+04  0.7818609E-02  0.8757085E-01
       -1   -1    0    0    0  501  0.00000000000E+00  0.00000000000E+00  0.54537045700E+03  0.54537045702E+03  0.50400001928E-02 0. -1.
        1   -1    0    0  501    0  0.00000000000E+00  0.00000000000E+00 -0.13365383424E+04  0.13365383424E+04  0.50400001928E-02 0.  1.
    10030    2    1    2    0    0  0.00000000000E+00  0.00000000000E+00 -0.79116788543E+03  0.18819087995E+04  0.17075227983E+04 0.  0.
        1    1    3    3  502    0  0.83507168534E+03 -0.91275425283E+02 -0.56357300433E+03  0.10115781997E+04  0.50400001928E-02 0. -1.
       -1    1    3    3    0  502 -0.83507168534E+03  0.91275425283E+02 -0.22759488110E+03  0.87033059974E+03  0.50400001928E-02 0.  1.
</event>
<event>
 5   0  0.1057872E-03  0.1600839E+04  0.7818609E-02  0.8820032E-01
       -2   -1    0    0    0  501  0.00000000000E+00  0.00000000000E+00  0.58703977000E+03  0.58703977001E+03  0.25500000920E-02 0.  1.
        2   -1    0    0  501    0  0.00000000000E+00  0.00000000000E+00 -0.10913600774E+04  0.10913600774E+04  0.25500000920E-02 0. -1.
    10030    2    1    2    0    0  0.00000000000E+00  0.00000000000E+00 -0.50432030744E+03  0.16783998475E+04  0.16008394908E+04 0.  0.
        2    1    3    3  502    0  0.35104244769E+03 -0.71440166404E+03 -0.16399536719E+03  0.81270844596E+03  0.25500000920E-02 0. -1.
       -2    1    3    3    0  502 -0.35104244769E+03  0.71440166404E+03 -0.34032494025E+03  0.86569140150E+03  0.25500000920E-02 0.  1.
</event>
<event>
 5   0  0.1037321E-03  0.1610407E+04  0.7818609E-02  0.8814180E-01
        2   -1    0    0  501    0  0.00000000000E+00  0.00000000000E+00  0.16472970481E+04  0.16472970481E+04  0.25500000920E-02 0. -1.
       -2   -1    0    0    0  501  0.00000000000E+00  0.00000000000E+00 -0.39358558744E+03  0.39358558744E+03  0.25500000920E-02 0.  1.
    10030    2    1    2    0    0  0.00000000000E+00  0.00000000000E+00  0.12537114606E+04  0.20408826355E+04  0.16104066273E+04 0.  0.
        5    1    3    3  502    0 -0.73677970522E+03 -0.19528615040E+03  0.95574441621E+03  0.12224771956E+04  0.46999998093E+01 0. -1.
       -5    1    3    3    0  502  0.73677970522E+03  0.19528615040E+03  0.29796704441E+03  0.81840543994E+03  0.46999998093E+01 0.  1.
</event>
<event>
 5   0  0.5288658E-04  0.1594198E+04  0.7818609E-02  0.8824120E-01
        1   -1    0    0  501    0  0.00000000000E+00  0.00000000000E+00  0.86041548564E+03  0.86041548565E+03  0.50400001928E-02 0.  1.
       -1   -1    0    0    0  501  0.00000000000E+00  0.00000000000E+00 -0.73844209161E+03  0.73844209162E+03  0.50400001928E-02 0. -1.
    10030    2    1    2    0    0  0.00000000000E+00  0.00000000000E+00  0.12197339403E+03  0.15988575773E+04  0.15941982447E+04 0.  0.
        1    1    3    3  502    0  0.68459964728E+03 -0.10682811642E+03 -0.33421840201E+03  0.76927944454E+03  0.50400001928E-02 0. -1.
       -1    1    3    3    0  502 -0.68459964728E+03  0.10682811642E+03  0.45619179604E+03  0.82957813274E+03  0.50400001928E-02 0.  1.
</event>
<event>
 5   0  0.5532881E-04  0.1610371E+04  0.7818609E-02  0.8814202E-01
        1   -1    0    0  501    0  0.00000000000E+00  0.00000000000E+00  0.13793705488E+04  0.13793705488E+04  0.50400001928E-02 0.  1.
       -1   -1    0    0    0  501  0.00000000000E+00  0.00000000000E+00 -0.47001434721E+03  0.47001434724E+03  0.50400001928E-02 0. -1.
    10030    2    1    2    0    0  0.00000000000E+00  0.00000000000E+00  0.90935620160E+03  0.18493848961E+04  0.16103713213E+04 0.  0.
        4    1    3    3  502    0 -0.32820492152E+03 -0.70772517168E+03  0.22577335293E+03  0.81213829421E+03  0.12699999809E+01 0.  1.
       -4    1    3    3    0  502  0.32820492152E+03  0.70772517168E+03  0.68358284868E+03  0.10372466018E+04  0.12699999809E+01 0. -1.
</event>
<event>
 5   0  0.5623061E-04  0.1621292E+04  0.7818609E-02  0.8807574E-01
       -1   -1    0    0    0  501  0.00000000000E+00  0.00000000000E+00  0.30966707909E+03  0.30966707913E+03  0.50400001928E-02 0.  1.
        1   -1    0    0  501    0  0.00000000000E+00  0.00000000000E+00 -0.21221065413E+04  0.21221065413E+04  0.50400001928E-02 0. -1.
    10030    2    1    2    0    0  0.00000000000E+00  0.00000000000E+00 -0.18124394622E+04  0.24317736204E+04  0.16212915028E+04 0.  0.
        3    1    3    3  502    0  0.38308662107E+03  0.61170964004E+03 -0.14597667877E+04  0.16284542141E+04  0.10100000352E+00 0. -1.
       -3    1    3    3    0  502 -0.38308662107E+03 -0.61170964004E+03 -0.35267267453E+03  0.80331940629E+03  0.10100000352E+00 0.  1.
</event>
<event>
 5   0  0.3832500E-04  0.1619917E+04  0.7818609E-02  0.8808405E-01
       -3   -1    0    0    0  501  0.00000000000E+00  0.00000000000E+00  0.65151586003E+03  0.65151586786E+03  0.10100000352E+00 0.  1.
        3   -1    0    0  501    0  0.00000000000E+00  0.00000000000E+00 -0.10069330252E+04  0.10069330303E+04  0.10100000352E+00 0. -1.
    10030    2    1    2    0    0  0.00000000000E+00  0.00000000000E+00 -0.35541716516E+03  0.16584488981E+04  0.16199170924E+04 0.  0.
        4    1    3    3  502    0 -0.11623343060E+03  0.29193421974E+01  0.64292653359E+03  0.65335662042E+03  0.12699999809E+01 0.  1.
       -4    1    3    3    0  502  0.11623343060E+03 -0.29193421974E+01 -0.99834369875E+03  0.10050922777E+04  0.12699999809E+01 0. -1.
</event>
<event>
 5   0  0.5425525E-04  0.1585282E+04  0.7818609E-02  0.8829641E-01
        1   -1    0    0  501    0  0.00000000000E+00  0.00000000000E+00  0.81720012939E+03  0.81720012940E+03  0.50400001928E-02 0. -1.
       -1   -1    0    0    0  501  0.00000000000E+00  0.00000000000E+00 -0.76881984938E+03  0.76881984940E+03  0.50400001928E-02 0.  1.
    10030    2    1    2    0    0  0.00000000000E+00  0.00000000000E+00  0.48380280008E+02  0.15860199788E+04  0.15852819061E+04 0.  0.
        5    1    3    3  502    0  0.41756091508E+02 -0.16048983647E+03  0.79963617981E+03  0.81666435507E+03  0.46999998093E+01 0. -1.
       -5    1    3    3    0  502 -0.41756091508E+02  0.16048983647E+03 -0.75125589980E+03  0.76935562373E+03  0.46999998093E+01 0.  1.
</event>
<event>
 5   0  0.5623061E-04  0.1582959E+04  0.7818609E-02  0.8831086E-01
        1   -1    0    0  501    0  0.00000000000E+00  0.00000000000E+00  0.46037324987E+03  0.46037324989E+03  0.50400001928E-02 0. -1.
       -1   -1    0    0    0  501  0.00000000000E+00  0.00000000000E+00 -0.13607209161E+04  0.13607209161E+04  0.50400001928E-02 0.  1.
    10030    2    1    2    0    0  0.00000000000E+00  0.00000000000E+00 -0.90034766623E+03  0.18210941660E+04  0.15829586354E+04 0.  0.
        3    1    3    3  502    0  0.22638574819E+03 -0.88302308257E+02 -0.13167451784E+04  0.13389793425E+04  0.10100000352E+00 0.  1.
       -3    1    3    3    0  502 -0.22638574819E+03  0.88302308257E+02  0.41639751220E+03  0.48211482346E+03  0.10100000352E+00 0. -1.
</event>
<event>
 5   0  0.1037321E-03  0.1595366E+04  0.7818609E-02  0.8823400E-01
       -2   -1    0    0    0  501  0.00000000000E+00  0.00000000000E+00  0.40307148266E+03  0.40307148267E+03  0.25500000920E-02 0.  1.
        2   -1    0    0  501    0  0.00000000000E+00  0.00000000000E+00 -0.15786228328E+04  0.15786228328E+04  0.25500000920E-02 0. -1.
    10030    2    1    2    0    0  0.00000000000E+00  0.00000000000E+00 -0.11755513501E+04  0.19816943154E+04  0.15953655954E+04 0.  0.
        5    1    3    3  502    0 -0.24558822550E+03  0.14788197290E+03  0.33685396902E+03  0.44235205533E+03  0.46999998093E+01 0.  1.
       -5    1    3    3    0  502  0.24558822550E+03 -0.14788197290E+03 -0.15124053191E+04  0.15393422601E+04  0.46999998093E+01 0. -1.
</event>
<event>
 5   0  0.5425525E-04  0.1641436E+04  0.7818609E-02  0.8795489E-01
       -1   -1    0    0    0  501  0.00000000000E+00  0.00000000000E+00  0.50848077190E+03  0.50848077192E+03  0.50400001928E-02 0.  1.
        1   -1    0    0  501    0  0.00000000000E+00  0.00000000000E+00 -0.13246872994E+04  0.13246872995E+04  0.50400001928E-02 0. -1.
    10030    2    1    2    0    0  0.00000000000E+00  0.00000000000E+00 -0.81620652755E+03  0.18331680714E+04  0.16414359818E+04 0.  0.
        5    1    3    3  502    0 -0.16124572838E+03  0.99209430318E+02 -0.12999516898E+04  0.13136739252E+04  0.46999998093E+01 0. -1.
       -5    1    3    3    0  502  0.16124572838E+03 -0.99209430318E+02  0.48374516221E+03  0.51949414620E+03  0.46999998093E+01 0.  1.
</event>
<event>
 5   0  0.1037321E-03  0.1599462E+04  0.7818609E-02  0.8820878E-01
        2   -1    0    0  501    0  0.00000000000E+00  0.00000000000E+00  0.10954605991E+04  0.10954605991E+04  0.25500000920E-02 0. -1.
       -2   -1    0    0    0  501  0.00000000000E+00  0.00000000000E+00 -0.58383645492E+03  0.58383645492E+03  0.25500000920E-02 0.  1.
    10030    2    1    2    0    0  0.00000000000E+00  0.00000000000E+00  0.51162414423E+03  0.16792970541E+04  0.15994622005E+04 0.  0.
        5    1    3    3  502    0  0.19647898135E+01 -0.25664747634E+03  0.10510312933E+04  0.10819245154E+04  0.46999998093E+01 0. -1.
       -5    1    3    3    0  502 -0.19647898135E+01  0.25664747634E+03 -0.53940714907E+03  0.59737253868E+03  0.46999998093E+01 0.  1.
</event>
<event>
 5   0  0.5532881E-04  0.1577670E+04  0.7818609E-02  0.8834385E-01
        1   -1    0    0  501    0  0.00000000000E+00  0.00000000000E+00  0.64934328342E+03  0.64934328344E+03  0.50400001928E-02 0. -1.
       -1   -1    0    0    0  501  0.00000000000E+00  0.00000000000E+00 -0.95829203767E+03  0.95829203768E+03  0.50400001928E-02 0.  1.
    10030    2    1    2    0    0  0.00000000000E+00  0.00000000000E+00 -0.30894875425E+03  0.16076353211E+04  0.15776697985E+04 0.  0.
        4    1    3    3  502    0  0.82721895698E+02 -0.66121194815E+03  0.27569870354E+03  0.72114876443E+03  0.12699999809E+01 0. -1.
       -4    1    3    3    0  502 -0.82721895698E+02  0.66121194815E+03 -0.58464745779E+03  0.88648655669E+03  0.12699999809E+01 0.  1.
</event>
<event>
 5   0  0.5425525E-04  0.1522884E+04  0.7818609E-02  0.8869376E-01
       -1   -1    0    0    0  501  0.00000000000E+00  0.00000000000E+00  0.29308043942E+03  0.29308043946E+03  0.50400001928E-02 0. -1.
        1   -1    0    0  501    0  0.00000000000E+00  0.00000000000E+00 -0.19782766567E+04  0.19782766567E+04  0.50400001928E-02 0.  1.
    10030    2    1    2    0    0  0.00000000000E+00  0.00000000000E+00 -0.16851962173E+04  0.22713570962E+04  0.15228843579E+04 0.  0.
        5    1    3    3  502    0  0.65787157623E+03  0.27828583759E+03 -0.44930407316E+03  0.84388047635E+03  0.46999998093E+01 0. -1.
       -5    1    3    3    0  502 -0.65787157623E+03 -0.27828583759E+03 -0.12358921441E+04  0.14274766198E+04  0.46999998093E+01 0.  1.
</event>
<event>
 5   0  0.9844690E-04  0.1586804E+04  0.7818609E-02  0.8828696E-01
       -2   -1    0    0    0  501  0.00000000000E+00  0.00000000000E+00  0.61819262221E+03  0.61819262222E+03  0.25500000920E-02 0.  1.
        2   -1    0    0  501    0  0.00000000000E+00  0.00000000000E+00 -0.10182694548E+04  0.10182694548E+04  0.25500000920E-02 0. -1.
    10030    2    1    2    0    0  0.00000000000E+00  0.00000000000E+00 -0.40007683260E+03  0.16364620770E+04  0.15868039128E+04 0.  0.
        3    1    3    3  502    0 -0.59367650727E+03  0.30946109266E+03 -0.63911884765E+03  0.92557596921E+03  0.10100000352E+00 0. -1.
       -3    1    3    3    0  502  0.59367650727E+03 -0.30946109266E+03  0.23904201504E+03  0.71088610783E+03  0.10100000352E+00 0.  1.
</event>
<event>
 5   0  0.1037321E-03  0.1613363E+04  0.7818609E-02  0.8812380E-01
        2   -1    0    0  501    0  0.00000000000E+00  0.00000000000E+00  0.11277061559E+04  0.11277061559E+04  0.25500000920E-02 0. -1.
       -2   -1    0    0    0  501  0.00000000000E+00  0.00000000000E+00 -0.57704306196E+03  0.57704306197E+03  0.25500000920E-02 0.  1.
    10030    2    1    2    0    0  0.00000000000E+00  0.00000000000E+00  0.55066309394E+03  0.17047492179E+04  0.16133629637E+04 0.  0.
        5    1    3    3  502    0 -0.14175161163E+03 -0.22633251938E+03  0.10796259318E+04  0.11121754229E+04  0.46999998093E+01 0. -1.
       -5    1    3    3    0  502  0.14175161163E+03  0.22633251938E+03 -0.52896283781E+03  0.59257379499E+03  0.46999998093E+01 0.  1.
</event>
<event>
 5   0  0.3832500E-04  0.1635348E+04  0.7818609E-02  0.8799122E-01
       -3   -1    0    0    0  501  0.00000000000E+00  0.00000000000E+00  0.10613893587E+04  0.10613893635E+04  0.10100000352E+00 0. -1.
        3   -1    0    0  501    0  0.00000000000E+00  0.00000000000E+00 -0.62992038371E+03  0.62992039180E+03  0.10100000352E+00 0.  1.
    10030    2    1    2    0    0  0.00000000000E+00  0.00000000000E+00  0.43146897496E+03  0.16913097553E+04  0.16353480400E+04 0.  0.
        2    1    3    3  502    0 -0.49702139110E+03 -0.64918069853E+03  0.22729558867E+03  0.84860422294E+03  0.25500000920E-02 0. -1.
       -2    1    3    3    0  502  0.49702139110E+03  0.64918069853E+03  0.20417338629E+03  0.84270553233E+03  0.25500000920E-02 0.  1.
</event>
<event>
 5   0  0.1000121E-03  0.1622282E+04  0.7818609E-02  0.8806975E-01
        2   -1    0    0  501    0  0.00000000000E+00  0.00000000000E+00  0.24008867641E+04  0.24008867641E+04  0.25500000920E-02 0.  1.
       -2   -1    0    0    0  501  0.00000000000E+00  0.00000000000E+00 -0.27404431041E+03  0.27404431042E+03  0.25500000920E-02 0. -1.
    10030    2    1    2    0    0  0.00000000000E+00  0.00000000000E+00  0.21268424537E+04  0.26749310746E+04  0.16222815510E+04 0.  0.
        4    1    3    3  502    0  0.79873231939E+03 -0.13371303101E+03  0.98794598642E+03  0.12774550394E+04  0.12699999809E+01 0.  1.
       -4    1    3    3    0  502 -0.79873231939E+03  0.13371303101E+03  0.11388964673E+04  0.13974760352E+04  0.12699999809E+01 0. -1.
</event>
<event>
 5   0  0.5288658E-04  0.1602039E+04  0.7818609E-02  0.8819296E-01
        1   -1    0    0  501    0  0.00000000000E+00  0.00000000000E+00  0.18872134376E+04  0.18872134376E+04  0.50400001928E-02 0.  1.
       -1   -1    0    0    0  501  0.00000000000E+00  0.00000000000E+00 -0.33998940422E+03  0.33998940426E+03  0.50400001928E-02 0. -1.
    10030    2    1    2    0    0  0.00000000000E+00  0.00000000000E+00  0.15472240334E+04  0.22272028419E+04  0.16020394157E+04 0.  0.
        1    1    3    3  502    0 -0.33640523375E+03  0.61285724502E+03  0.23005158710E+03  0.73599335379E+03  0.50400001928E-02 0. -1.
       -1    1    3    3    0  502  0.33640523375E+03 -0.61285724502E+03  0.13171724463E+04  0.14912094881E+04  0.50400001928E-02 0.  1.
</event>
<event>
 5   0  0.5281116E-04  0.1604807E+04  0.7818609E-02  0.8817600E-01
        1   -1    0    0  501    0  0.00000000000E+00  0.00000000000E+00  0.91165263772E+03  0.91165263774E+03  0.50400001928E-02 0.  1.
       -1   -1    0    0    0  501  0.00000000000E+00  0.00000000000E+00 -0.70624626775E+03  0.70624626777E+03  0.50400001928E-02 0. -1.
    10030    2    1    2    0    0  0.00000000000E+00  0.00000000000E+00  0.20540636998E+03  0.16178989055E+04  0.16048068705E+04 0.  0.
        2    1    3    3  502    0  0.23193120503E+03 -0.74412002382E+03 -0.89494622273E+02  0.78454826565E+03  0.25500000920E-02 0. -1.
       -2    1    3    3    0  502 -0.23193120503E+03  0.74412002382E+03  0.29490099225E+03  0.83335063986E+03  0.25500000920E-02 0.  1.
</event>
<event>
 5   0  0.5532881E-04  0.1595926E+04  0.7818609E-02  0.8823055E-01
       -1   -1    0    0    0  501  0.00000000000E+00  0.00000000000E+00  0.93511556148E+03  0.93511556149E+03  0.50400001928E-02 0. -1.
        1   -1    0    0  501    0  0.00000000000E+00  0.00000000000E+00 -0.68092640264E+03  0.68092640266E+03  0.50400001928E-02 0.  1.
    10030    2    1    2    0    0  0.00000000000E+00  0.00000000000E+00  0.25418915884E+03  0.16160419642E+04  0.15959259073E+04 0.  0.
        4    1    3    3  502    0 -0.64196130495E+03 -0.37773700861E+03  0.41696085340E+03  0.85361439239E+03  0.12699999809E+01 0. -1.
       -4    1    3    3    0  502  0.64196130495E+03  0.37773700861E+03 -0.16277169456E+03  0.76242757176E+03  0.12699999809E+01 0.  1.
</event>
<event>
 5   0  0.5532881E-04  0.1515784E+04  0.7818609E-02  0.8874024E-01
        1   -1    0    0  501    0  0.00000000000E+00  0.00000000000E+00  0.13955751153E+04  0.13955751154E+04  0.50400001928E-02 0.  1.
       -1   -1    0    0    0  501  0.00000000000E+00  0.00000000000E+00 -0.41158701580E+03  0.41158701583E+03  0.50400001928E-02 0. -1.
    10030    2    1    2    0    0  0.00000000000E+00  0.00000000000E+00  0.98398809955E+03  0.18071621312E+04  0.15157844135E+04 0.  0.
        4    1    3    3  502    0  0.11387350873E+02  0.53207273024E+03  0.11353205539E+04  0.12538681888E+04  0.12699999809E+01 0.  1.
       -4    1    3    3    0  502 -0.11387350873E+02 -0.53207273024E+03 -0.15133245432E+03  0.55329394236E+03  0.12699999809E+01 0. -1.
</event>
<event>
 5   0  0.5288658E-04  0.1594681E+04  0.7818609E-02  0.8823822E-01
        1   -1    0    0  501    0  0.00000000000E+00  0.00000000000E+00  0.95135093938E+03  0.95135093939E+03  0.50400001928E-02 0. -1.
       -1   -1    0    0    0  501  0.00000000000E+00  0.00000000000E+00 -0.66826204783E+03  0.66826204785E+03  0.50400001928E-02 0.  1.
    10030    2    1    2    0    0  0.00000000000E+00  0.00000000000E+00  0.28308889154E+03  0.16196129872E+04  0.15946808169E+04 0.  0.
        1    1    3    3  502    0  0.28832053512E+03  0.40150731968E+03 -0.49386861877E+03  0.69874392403E+03  0.50400001928E-02 0.  1.
       -1    1    3    3    0  502 -0.28832053512E+03 -0.40150731968E+03  0.77695751031E+03  0.92086906322E+03  0.50400001928E-02 0. -1.
</event>
<event>
 5   0  0.5425525E-04  0.1615193E+04  0.7818609E-02  0.8811268E-01
       -1   -1    0    0    0  501  0.00000000000E+00  0.00000000000E+00  0.92532516063E+03  0.92532516064E+03  0.50400001928E-02 0. -1.
        1   -1    0    0  501    0  0.00000000000E+00  0.00000000000E+00 -0.70484640234E+03  0.70484640236E+03  0.50400001928E-02 0.  1.
    10030    2    1    2    0    0  0.00000000000E+00  0.00000000000E+00  0.22047875829E+03  0.16301715630E+04  0.16151930046E+04 0.  0.
        5    1    3    3  502    0  0.31896657709E+03 -0.56829645687E+03  0.59162104693E+03  0.88019207754E+03  0.46999998093E+01 0. -1.
       -5    1    3    3    0  502 -0.31896657709E+03  0.56829645687E+03 -0.37114228865E+03  0.74997948546E+03  0.46999998093E+01 0.  1.
</event>
<event>
 5   0  0.1000121E-03  0.1152124E+04  0.7818609E-02  0.9155827E-01
       -2   -1    0    0    0  501  0.00000000000E+00  0.00000000000E+00  0.13985371129E+03  0.13985371131E+03  0.25500000920E-02 0. -1.
        2   -1    0    0  501    0  0.00000000000E+00  0.00000000000E+00 -0.23728167897E+04  0.23728167897E+04  0.25500000920E-02 0.  1.
    10030    2    1    2    0    0  0.00000000000E+00  0.00000000000E+00 -0.22329630784E+04  0.25126705010E+04  0.11521236640E+04 0.  0.
        4    1    3    3  502    0  0.24123028602E+03  0.42595533997E+03 -0.17787570355E+04  0.18448870444E+04  0.12699999809E+01 0.  1.
       -4    1    3    3    0  502 -0.24123028602E+03 -0.42595533997E+03 -0.45420604292E+03  0.66778345657E+03  0.12699999809E+01 0. -1.
</event>
<event>
 5   0  0.5425525E-04  0.1473634E+04  0.7818609E-02  0.8902178E-01
        1   -1    0    0  501    0  0.00000000000E+00  0.00000000000E+00  0.16296648681E+04  0.16296648682E+04  0.50400001928E-02 0.  1.
       -1   -1    0    0    0  501  0.00000000000E+00  0.00000000000E+00 -0.33313542093E+03  0.33313542097E+03  0.50400001928E-02 0. -1.
    10030    2    1    2    0    0  0.00000000000E+00  0.00000000000E+00  0.12965294472E+04  0.19628002891E+04  0.14736337291E+04 0.  0.
        5    1    3    3  502    0 -0.44067390050E+03 -0.58362719030E+03  0.76786439581E+03  0.10604018126E+04  0.46999998093E+01 0.  1.
       -5    1    3    3    0  502  0.44067390050E+03  0.58362719030E+03  0.52866505140E+03  0.90239847651E+03  0.46999998093E+01 0. -1.
</event>
<event>
 5   0  0.1000121E-03  0.1249679E+04  0.7818609E-02  0.9070451E-01
        2   -1    0    0  501    0  0.00000000000E+00  0.00000000000E+00  0.36125126132E+03  0.36125126133E+03  0.25500000920E-02 0.  1.
       -2   -1    0    0    0  501  0.00000000000E+00  0.00000000000E+00 -0.10807550600E+04  0.10807550600E+04  0.25500000920E-02 0. -1.
    10030    2    1    2    0    0  0.00000000000E+00  0.00000000000E+00 -0.71950379872E+03  0.14420063214E+04  0.12496785645E+04 0.  0.
        4    1    3    3  502    0  0.21015308901E+03  0.39136534034E+03 -0.86680129612E+03  0.97400064183E+03  0.12699999809E+01 0. -1.
       -4    1    3    3    0  502 -0.21015308901E+03 -0.39136534034E+03  0.14729749740E+03  0.46800567953E+03  0.12699999809E+01 0.  1.
</event>
<event>
 5   0  0.5288658E-04  0.1600879E+04  0.7818609E-02  0.8820008E-01
       -1   -1    0    0    0  501  0.00000000000E+00  0.00000000000E+00  0.64851932378E+03  0.64851932380E+03  0.50400001928E-02 0. -1.
        1   -1    0    0  501    0  0.00000000000E+00  0.00000000000E+00 -0.98794774300E+03  0.98794774301E+03  0.50400001928E-02 0.  1.
    10030    2    1    2    0    0  0.00000000000E+00  0.00000000000E+00 -0.33942841921E+03  0.16364670668E+04  0.16008787615E+04 0.  0.
        1    1    3    3  502    0 -0.56251922047E+02 -0.18495135472E+03 -0.96372604891E+03  0.98292379141E+03  0.50400001928E-02 0.  1.
       -1    1    3    3    0  502  0.56251922047E+02  0.18495135472E+03  0.62429762970E+03  0.65354327540E+03  0.50400001928E-02 0. -1.
</event>
<event>
 5   0  0.1030027E-03  0.1587940E+04  0.7818609E-02  0.8827991E-01
        2   -1    0    0  501    0  0.00000000000E+00  0.00000000000E+00  0.92098302462E+03  0.92098302462E+03  0.25500000920E-02 0.  1.
       -2   -1    0    0    0  501  0.00000000000E+00  0.00000000000E+00 -0.68447347621E+03  0.68447347622E+03  0.25500000920E-02 0. -1.
    10030    2    1    2    0    0  0.00000000000E+00  0.00000000000E+00  0.23650954841E+03  0.16054565008E+04  0.15879401152E+04 0.  0.
        1    1    3    3  502    0 -0.46835660654E+03  0.51365481419E+03  0.50613934394E+03  0.85986988233E+03  0.50400001928E-02 0.  1.
       -1    1    3    3    0  502  0.46835660654E+03 -0.51365481419E+03 -0.26962979553E+03  0.74558661851E+03  0.50400001928E-02 0. -1.
</event>
<event>
 5   0  0.5623061E-04  0.1519116E+04  0.7818609E-02  0.8871839E-01
       -1   -1    0    0    0  501  0.00000000000E+00  0.00000000000E+00  0.59841805710E+03  0.59841805712E+03  0.50400001928E-02 0.  1.
        1   -1    0    0  501    0  0.00000000000E+00  0.00000000000E+00 -0.96408935765E+03  0.96408935766E+03  0.50400001928E-02 0. -1.
    10030    2    1    2    0    0  0.00000000000E+00  0.00000000000E+00 -0.36567130055E+03  0.15625074148E+04  0.15191161645E+04 0.  0.
        3    1    3    3  502    0  0.70539312885E+03 -0.23814017361E+03 -0.33759348292E+03  0.81747145420E+03  0.10100000352E+00 0. -1.
       -3    1    3    3    0  502 -0.70539312885E+03  0.23814017361E+03 -0.28077817632E+02  0.74503596058E+03  0.10100000352E+00 0.  1.
</event>
<event>
 5   0  0.1057872E-03  0.1592001E+04  0.7818609E-02  0.8825477E-01
        2   -1    0    0  501    0  0.00000000000E+00  0.00000000000E+00  0.58346778963E+03  0.58346778963E+03  0.25500000920E-02 0.  1.
       -2   -1    0    0    0  501  0.00000000000E+00  0.00000000000E+00 -0.10859494431E+04  0.10859494431E+04  0.25500000920E-02 0. -1.
    10030    2    1    2    0    0  0.00000000000E+00  0.00000000000E+00 -0.50248165343E+03  0.16694172327E+04  0.15920006548E+04 0.  0.
        2    1    3    3  502    0 -0.26846183115E+03 -0.13991215954E+03 -0.10232260991E+04  0.10670702025E+04  0.25500000920E-02 0. -1.
       -2    1    3    3    0  502  0.26846183115E+03  0.13991215954E+03  0.52074444563E+03  0.60234703024E+03  0.25500000920E-02 0.  1.
</event>
<event>
 5   0  0.5288658E-04  0.1627213E+04  0.7818609E-02  0.8804002E-01
        1   -1    0    0  501    0  0.00000000000E+00  0.00000000000E+00  0.53985522659E+03  0.53985522661E+03  0.50400001928E-02 0. -1.
       -1   -1    0    0    0  501  0.00000000000E+00  0.00000000000E+00 -0.12261727439E+04  0.12261727439E+04  0.50400001928E-02 0.  1.
    10030    2    1    2    0    0  0.00000000000E+00  0.00000000000E+00 -0.68631751726E+03  0.17660279705E+04  0.16272132798E+04 0.  0.
        1    1    3    3  502    0  0.31224109042E+03  0.74886177171E+03 -0.27743429135E+03  0.85747200404E+03  0.50400001928E-02 0.  1.
       -1    1    3    3    0  502 -0.31224109042E+03 -0.74886177171E+03 -0.40888322591E+03  0.90855596643E+03  0.50400001928E-02 0. -1.
</event>
<event>
 5   0  0.5623061E-04  0.1488371E+04  0.7818609E-02  0.8892223E-01
        1   -1    0    0  501    0  0.00000000000E+00  0.00000000000E+00  0.55502109144E+03  0.55502109147E+03  0.50400001928E-02 0.  1.
       -1   -1    0    0    0  501  0.00000000000E+00  0.00000000000E+00 -0.99782212129E+03  0.99782212130E+03  0.50400001928E-02 0. -1.
    10030    2    1    2    0    0  0.00000000000E+00  0.00000000000E+00 -0.44280102984E+03  0.15528432128E+04  0.14883713553E+04 0.  0.
        3    1    3    3  502    0 -0.27274522261E+03 -0.17858395941E+03 -0.91935554685E+03  0.97544698408E+03  0.10100000352E+00 0. -1.
       -3    1    3    3    0  502  0.27274522261E+03  0.17858395941E+03  0.47655451701E+03  0.57739622869E+03  0.10100000352E+00 0.  1.
</event>
<event>
 5   0  0.5288658E-04  0.1229450E+04  0.7818609E-02  0.9087462E-01
       -1   -1    0    0    0  501  0.00000000000E+00  0.00000000000E+00  0.11945505571E+04  0.11945505571E+04  0.50400001928E-02 0.  1.
        1   -1    0    0  501    0  0.00000000000E+00  0.00000000000E+00 -0.31634238187E+03  0.31634238191E+03  0.50400001928E-02 0. -1.
    10030    2    1    2    0    0  0.00000000000E+00  0.00000000000E+00  0.87820817526E+03  0.15108929391E+04  0.12294502325E+04 0.  0.
        1    1    3    3  502    0  0.44771341966E+03 -0.37869660070E+03  0.66580039230E+03  0.88721394485E+03  0.50400001928E-02 0.  1.
       -1    1    3    3    0  502 -0.44771341966E+03  0.37869660070E+03  0.21240778296E+03  0.62367899421E+03  0.50400001928E-02 0. -1.
</event>
<event>
 5   0  0.1037321E-03  0.1651548E+04  0.7818609E-02  0.8789491E-01
       -2   -1    0    0    0  501  0.00000000000E+00  0.00000000000E+00  0.15256308771E+04  0.15256308771E+04  0.25500000920E-02 0. -1.
        2   -1    0    0  501    0  0.00000000000E+00  0.00000000000E+00 -0.44696448925E+03  0.44696448926E+03  0.25500000920E-02 0.  1.
    10030    2    1    2    0    0  0.00000000000E+00  0.00000000000E+00  0.10786663879E+04  0.19725953664E+04  0.16515481534E+04 0.  0.
        5    1    3    3  502    0 -0.11880883335E+03  0.36857128969E+02 -0.43569339990E+03  0.45312781370E+03  0.46999998093E+01 0.  1.
       -5    1    3    3    0  502  0.11880883335E+03 -0.36857128969E+02  0.15143597877E+04  0.15194675527E+04  0.46999998093E+01 0. -1.
</event>
<event>
 5   0  0.9844690E-04  0.1615499E+04  0.7818609E-02  0.8811082E-01
       -2   -1    0    0    0  501  0.00000000000E+00  0.00000000000E+00  0.94474139748E+03  0.94474139749E+03  0.25500000920E-02 0.  1.
        2   -1    0    0  501    0  0.00000000000E+00  0.00000000000E+00 -0.69062216804E+03  0.69062216804E+03  0.25500000920E-02 0. -1.
    10030    2    1    2    0    0  0.00000000000E+00  0.00000000000E+00  0.25411922945E+03  0.16353635655E+04  0.16154991206E+04 0.  0.
        3    1    3    3  502    0 -0.46523676007E+03  0.44119256087E+02 -0.53987962800E+03  0.71404605917E+03  0.10100000352E+00 0. -1.
       -3    1    3    3    0  502  0.46523676007E+03 -0.44119256087E+02  0.79399885745E+03  0.92131750636E+03  0.10100000352E+00 0.  1.
</event>
<event>
 5   0  0.1030027E-03  0.1608755E+04  0.7818609E-02  0.8815187E-01
        2   -1    0    0  501    0  0.00000000000E+00  0.00000000000E+00  0.14762042518E+04  0.14762042518E+04  0.25500000920E-02 0.  1.
       -2   -1    0    0    0  501  0.00000000000E+00  0.00000000000E+00 -0.43830212521E+03  0.43830212522E+03  0.25500000920E-02 0. -1.
    10030    2    1    2    0    0  0.00000000000E+00  0.00000000000E+00  0.10379021266E+04  0.19145063770E+04  0.16087553708E+04 0.  0.
        1    1    3    3  502    0 -0.65472372104E+03  0.46357511988E+03  0.44896596838E+03  0.91931250587E+03  0.50400001928E-02 0. -1.
       -1    1    3    3    0  502  0.65472372104E+03 -0.46357511988E+03  0.58893615818E+03  0.99519387111E+03  0.50400001928E-02 0.  1.
</event>
<event>
 5   0  0.5281116E-04  0.1055696E+04  0.7818609E-02  0.9249482E-01
        1   -1    0    0  501    0  0.00000000000E+00  0.00000000000E+00  0.10097118043E+04  0.10097118043E+04  0.50400001928E-02 0.  1.
       -1   -1    0    0    0  501  0.00000000000E+00  0.00000000000E+00 -0.27594385030E+03  0.27594385034E+03  0.50400001928E-02 0. -1.
    10030    2    1    2    0    0  0.00000000000E+00  0.00000000000E+00  0.73376795396E+03  0.12856556546E+04  0.10556964772E+04 0.  0.
        2    1    3    3  502    0 -0.21994138824E+03  0.17338148190E+03  0.91176923425E+03  0.95381260689E+03  0.25500000920E-02 0.  1.
       -2    1    3    3    0  502  0.21994138824E+03 -0.17338148190E+03 -0.17800128029E+03  0.33184304772E+03  0.25500000920E-02 0. -1.
</event>
<event>
 5   0  0.5288658E-04  0.1676988E+04  0.7818609E-02  0.8774599E-01
       -1   -1    0    0    0  501  0.00000000000E+00  0.00000000000E+00  0.47800142522E+03  0.47800142524E+03  0.50400001928E-02 0.  1.
        1   -1    0    0  501    0  0.00000000000E+00  0.00000000000E+00 -0.14708571199E+04  0.14708571199E+04  0.50400001928E-02 0. -1.
    10030    2    1    2    0    0  0.00000000000E+00  0.00000000000E+00 -0.99285569469E+03  0.19488585452E+04  0.16769875368E+04 0.  0.
        1    1    3    3  502    0 -0.72315645131E+03 -0.34322221112E+03 -0.20632833910E+03  0.82663663288E+03  0.50400001928E-02 0.  1.
       -1    1    3    3    0  502  0.72315645131E+03  0.34322221112E+03 -0.78652735559E+03  0.11222219123E+04  0.50400001928E-02 0. -1.
</event>
<event>
 5   0  0.1037321E-03  0.1573096E+04  0.7818609E-02  0.8837249E-01
        2   -1    0    0  501    0  0.00000000000E+00  0.00000000000E+00  0.13004230472E+04  0.13004230472E+04  0.25500000920E-02 0. -1.
       -2   -1    0    0    0  501  0.00000000000E+00  0.00000000000E+00 -0.47573557200E+03  0.47573557201E+03  0.25500000920E-02 0.  1.
    10030    2    1    2    0    0  0.00000000000E+00  0.00000000000E+00  0.82468747524E+03  0.17761586193E+04  0.15730956770E+04 0.  0.
        5    1    3    3  502    0 -0.31592475063E+03  0.45638684215E+03  0.10415369025E+04  0.11802197282E+04  0.46999998093E+01 0. -1.
       -5    1    3    3    0  502  0.31592475063E+03 -0.45638684215E+03 -0.21684942721E+03  0.59593889102E+03  0.46999998093E+01 0.  1.
</event>
<event>
 5   0  0.5623061E-04  0.1622468E+04  0.7818609E-02  0.8806863E-01
        1   -1    0    0  501    0  0.00000000000E+00  0.00000000000E+00  0.10651397253E+04  0.10651397254E+04  0.50400001928E-02 0.  1.
       -1   -1    0    0    0  501  0.00000000000E+00  0.00000000000E+00 -0.61785381282E+03  0.61785381284E+03  0.50400001928E-02 0. -1.
    10030    2    1    2    0    0  0.00000000000E+00  0.00000000000E+00  0.44728591253E+03  0.16829935382E+04  0.16224680465E+04 0.  0.
        3    1    3    3  502    0  0.12305017820E+03  0.57008213522E+03 -0.36127693973E+03  0.68604374834E+03  0.10100000352E+00 0. -1.
       -3    1    3    3    0  502 -0.12305017820E+03 -0.57008213522E+03  0.80856285225E+03  0.99694978986E+03  0.10100000352E+00 0.  1.
</event>
<event>
 5   0  0.5532881E-04  0.1509521E+04  0.7818609E-02  0.8878146E-01
        1   -1    0    0  501    0  0.00000000000E+00  0.00000000000E+00  0.12923402311E+04  0.12923402311E+04  0.50400001928E-02 0.  1.
       -1   -1    0    0    0  501  0.00000000000E+00  0.00000000000E+00 -0.44079995034E+03  0.44079995037E+03  0.50400001928E-02 0. -1.
    10030    2    1    2    0    0  0.00000000000E+00  0.00000000000E+00  0.85154028074E+03  0.17331401815E+04  0.15095211290E+04 0.  0.
        4    1    3    3  502    0 -0.11804870729E+03  0.65118639875E+03  0.84240807788E+03  0.10712759709E+04  0.12699999809E+01 0.  1.
       -4    1    3    3    0  502  0.11804870729E+03 -0.65118639875E+03  0.91322028590E+01  0.66186421057E+03  0.12699999809E+01 0. -1.
</event>
<event>
 5   0  0.9844690E-04  0.1507702E+04  0.7818609E-02  0.8879347E-01
        2   -1    0    0  501    0  0.00000000000E+00  0.00000000000E+00  0.23741704360E+04  0.23741704360E+04  0.25500000920E-02 0. -1.
       -2   -1    0    0    0  501  0.00000000000E+00  0.00000000000E+00 -0.23936414017E+03  0.23936414019E+03  0.25500000920E-02 0.  1.
    10030    2    1    2    0    0  0.00000000000E+00  0.00000000000E+00  0.21348062958E+04  0.26135345762E+04  0.15077019136E+04 0.  0.
        3    1    3    3  502    0  0.54242166866E+03 -0.32253162311E+03  0.35258992477E+03  0.72288835914E+03  0.10100000352E+00 0.  1.
       -3    1    3    3    0  502 -0.54242166866E+03  0.32253162311E+03  0.17822163711E+04  0.18906462170E+04  0.10100000352E+00 0. -1.
</event>
<event>
 5   0  0.5425525E-04  0.1591876E+04  0.7818609E-02  0.8825555E-01
        1   -1    0    0  501    0  0.00000000000E+00  0.00000000000E+00  0.43666382304E+03  0.43666382307E+03  0.50400001928E-02 0. -1.
       -1   -1    0    0    0  501  0.00000000000E+00  0.00000000000E+00 -0.14508120106E+04  0.14508120107E+04  0.50400001928E-02 0.  1.
    10030    2    1    2    0    0  0.00000000000E+00  0.00000000000E+00 -0.10141481876E+04  0.18874758337E+04  0.15918757729E+04 0.  0.
        5    1    3    3  502    0 -0.25488980955E+03  0.67410443357E+02 -0.13975145144E+04  0.14221750564E+04  0.46999998093E+01 0.  1.
       -5    1    3    3    0  502  0.25488980955E+03 -0.67410443357E+02  0.38336632681E+03  0.46530077737E+03  0.46999998093E+01 0. -1.
</event>
<event>
 5   0  0.1037321E-03  0.1524372E+04  0.7818609E-02  0.8868406E-01
       -2   -1    0    0    0  501  0.00000000000E+00  0.00000000000E+00  0.29115453061E+03  0.29115453062E+03  0.25500000920E-02 0.  1.
        2   -1    0    0  501    0  0.00000000000E+00  0.00000000000E+00 -0.19952540025E+04  0.19952540025E+04  0.25500000920E-02 0. -1.
    10030    2    1    2    0    0  0.00000000000E+00  0.00000000000E+00 -0.17040994719E+04  0.22864085331E+04  0.15243716641E+04 0.  0.
        5    1    3    3  502    0  0.50670234486E+03  0.51512902291E+03 -0.12157566353E+04  0.14142812531E+04  0.46999998093E+01 0. -1.
       -5    1    3    3    0  502 -0.50670234486E+03 -0.51512902291E+03 -0.48834283655E+03  0.87212728001E+03  0.46999998093E+01 0.  1.
</event>
<event>
 5   0  0.1000121E-03  0.1616859E+04  0.7818609E-02  0.8810258E-01
       -2   -1    0    0    0  501  0.00000000000E+00  0.00000000000E+00  0.79697519920E+03  0.79697519920E+03  0.25500000920E-02 0.  1.
        2   -1    0    0  501    0  0.00000000000E+00  0.00000000000E+00 -0.82004801663E+03  0.82004801663E+03  0.25500000920E-02 0. -1.
    10030    2    1    2    0    0  0.00000000000E+00  0.00000000000E+00 -0.23072817434E+02  0.16170232158E+04  0.16168585979E+04 0.  0.
        4    1    3    3  502    0  0.25672056336E+03  0.60473748042E+03  0.45962030256E+03  0.80178881465E+03  0.12699999809E+01 0. -1.
       -4    1    3    3    0  502 -0.25672056336E+03 -0.60473748042E+03 -0.48269311999E+03  0.81523440118E+03  0.12699999809E+01 0.  1.
</event>
<event>
 5   0  0.1030027E-03  0.1539556E+04  0.7818609E-02  0.8858566E-01
       -2   -1    0    0    0  501  0.00000000000E+00  0.00000000000E+00  0.51543849100E+03  0.51543849100E+03  0.25500000920E-02 0.  1.
        2   -1    0    0  501    0  0.00000000000E+00  0.00000000000E+00 -0.11496201840E+04  0.11496201840E+04  0.25500000920E-02 0. -1.
    10030    2    1    2    0    0  0.00000000000E+00  0.00000000000E+00 -0.63418169297E+03  0.16650586750E+04  0.15395564203E+04 0.  0.
        1    1    3    3  502    0  0.43864872198E+03 -0.46626225113E+03 -0.77942613901E+03  0.10086219779E+04  0.50400001928E-02 0. -1.
       -1    1    3    3    0  502 -0.43864872198E+03  0.46626225113E+03  0.14524444604E+03  0.65643669706E+03  0.50400001928E-02 0.  1.
</event>
<event>
 5   0  0.1030027E-03  0.1249026E+04  0.7818609E-02  0.9070994E-01
        2   -1    0    0  501    0  0.00000000000E+00  0.00000000000E+00  0.13279756570E+04  0.13279756570E+04  0.25500000920E-02 0.  1.
       -2   -1    0    0    0  501  0.00000000000E+00  0.00000000000E+00 -0.29369245345E+03  0.29369245346E+03  0.25500000920E-02 0. -1.
    10030    2    1    2    0    0  0.00000000000E+00  0.00000000000E+00  0.10342832036E+04  0.16216681105E+04  0.12490259066E+04 0.  0.
        1    1    3    3  502    0  0.34268412712E+03  0.17609011289E+03  0.11552841230E+04  0.12178347769E+04  0.50400001928E-02 0.  1.
       -1    1    3    3    0  502 -0.34268412712E+03 -0.17609011289E+03 -0.12100091941E+03  0.40383333364E+03  0.50400001928E-02 0. -1.
</event>
<event>
 5   0  0.5281116E-04  0.1600206E+04  0.7818609E-02  0.8820421E-01
        1   -1    0    0  501    0  0.00000000000E+00  0.00000000000E+00  0.11365052158E+04  0.11365052158E+04  0.50400001928E-02 0.  1.
       -1   -1    0    0    0  501  0.00000000000E+00  0.00000000000E+00 -0.56327511012E+03  0.56327511015E+03  0.50400001928E-02 0. -1.
    10030    2    1    2    0    0  0.00000000000E+00  0.00000000000E+00  0.57323010565E+03  0.16997803259E+04  0.16002063624E+04 0.  0.
        2    1    3    3  502    0  0.36256558634E+03  0.41165681746E+03 -0.33208009275E+03  0.64124279939E+03  0.25500000920E-02 0. -1.
       -2    1    3    3    0  502 -0.36256558634E+03 -0.41165681746E+03  0.90531019841E+03  0.10585375265E+04  0.25500000920E-02 0.  1.
</event>
<event>
 5   0  0.1030027E-03  0.1532779E+04  0.7818609E-02  0.8862943E-01
        2   -1    0    0  501    0  0.00000000000E+00  0.00000000000E+00  0.82347815590E+03  0.82347815590E+03  0.25500000920E-02 0.  1.
       -2   -1    0    0    0  501  0.00000000000E+00  0.00000000000E+00 -0.71325815259E+03  0.71325815260E+03  0.25500000920E-02 0. -1.
    10030    2    1    2    0    0  0.00000000000E+00  0.00000000000E+00  0.11022000331E+03  0.15367363085E+04  0.15327785335E+04 0.  0.
        1    1    3    3  502    0 -0.55245266186E+03 -0.48826989619E+03  0.26479369584E+03  0.78340738859E+03  0.50400001928E-02 0.  1.
       -1    1    3    3    0  502  0.55245266186E+03  0.48826989619E+03 -0.15457369253E+03  0.75332891991E+03  0.50400001928E-02 0. -1.
</event>
<event>
 5   0  0.5425525E-04  0.1624880E+04  0.7818609E-02  0.8805408E-01
       -1   -1    0    0    0  501  0.00000000000E+00  0.00000000000E+00  0.41344800045E+03  0.41344800048E+03  0.50400001928E-02 0. -1.
        1   -1    0    0  501    0  0.00000000000E+00  0.00000000000E+00 -0.15964726108E+04  0.15964726108E+04  0.50400001928E-02 0.  1.
    10030    2    1    2    0    0  0.00000000000E+00  0.00000000000E+00 -0.11830246104E+04  0.20099206113E+04  0.16248795755E+04 0.  0.
        5    1    3    3  502    0 -0.51472245399E+03  0.60795876472E+03 -0.39404956018E+03  0.88873517434E+03  0.46999998093E+01 0.  1.
       -5    1    3    3    0  502  0.51472245399E+03 -0.60795876472E+03 -0.78897505018E+03  0.11211854370E+04  0.46999998093E+01 0. -1.
</event>
<event>
 5   0  0.5623061E-04  0.1621249E+04  0.7818609E-02  0.8807599E-01
        1   -1    0    0  501    0  0.00000000000E+00  0.00000000000E+00  0.62231759503E+03  0.62231759506E+03  0.50400001928E-02 0.  1.
       -1   -1    0    0    0  501  0.00000000000E+00  0.00000000000E+00 -0.10559114912E+04  0.10559114912E+04  0.50400001928E-02 0. -1.
    10030    2    1    2    0    0  0.00000000000E+00  0.00000000000E+00 -0.43359389617E+03  0.16782290863E+04  0.16212492712E+04 0.  0.
        3    1    3    3  502    0 -0.79113441998E+03 -0.16777894702E+03 -0.27414106388E+03  0.85393019542E+03  0.10100000352E+00 0. -1.
       -3    1    3    3    0  502  0.79113441998E+03  0.16777894702E+03 -0.15945283229E+03  0.82429889085E+03  0.10100000352E+00 0.  1.
</event>
<event>
 5   0  0.1000121E-03  0.1599450E+04  0.7818609E-02  0.8820886E-01
       -2   -1    0    0    0  501  0.00000000000E+00  0.00000000000E+00  0.38509143865E+03  0.38509143866E+03  0.25500000920E-02 0. -1.
        2   -1    0    0  501    0  0.00000000000E+00  0.00000000000E+00 -0.16607997196E+04  0.16607997196E+04  0.25500000920E-02 0.  1.
    10030    2    1    2    0    0  0.00000000000E+00  0.00000000000E+00 -0.12757082810E+04  0.20458911583E+04  0.15994495970E+04 0.  0.
        4    1    3    3  502    0 -0.31934051655E+03  0.33498159004E+03  0.19639144948E+03  0.50275465737E+03  0.12699999809E+01 0. -1.
       -4    1    3    3    0  502  0.31934051655E+03 -0.33498159004E+03 -0.14720997305E+04  0.15431365009E+04  0.12699999809E+01 0.  1.
</event>
<event>
 5   0  0.5532881E-04  0.1545710E+04  0.7818609E-02  0.8854613E-01
       -1   -1    0    0    0  501  0.00000000000E+00  0.00000000000E+00  0.10454304337E+04  0.10454304337E+04  0.50400001928E-02 0.  1.
        1   -1    0    0  501    0  0.00000000000E+00  0.00000000000E+00 -0.57134811293E+03  0.57134811295E+03  0.50400001928E-02 0. -1.
    10030    2    1    2    0    0  0.00000000000E+00  0.00000000000E+00  0.47408232080E+03  0.16167785467E+04  0.15457098117E+04 0.  0.
        4    1    3    3  502    0 -0.29738245940E+03 -0.51746225269E+03  0.75063617954E+03  0.95898894522E+03  0.12699999809E+01 0. -1.
       -4    1    3    3    0  502  0.29738245940E+03  0.51746225269E+03 -0.27655385874E+03  0.65778960147E+03  0.12699999809E+01 0.  1.
</event>
<event>
 5   0  0.9844690E-04  0.1579446E+04  0.7818609E-02  0.8833276E-01
       -2   -1    0    0    0  501  0.00000000000E+00  0.00000000000E+00  0.84074969909E+03  0.84074969910E+03  0.25500000920E-02 0. -1.
        2   -1    0    0  501    0  0.00000000000E+00  0.00000000000E+00 -0.74179291835E+03  0.74179291836E+03  0.25500000920E-02 0.  1.
    10030    2    1    2    0    0  0.00000000000E+00  0.00000000000E+00  0.98956780740E+02  0.15825426175E+04  0.15794456912E+04 0.  0.
        3    1    3    3  502    0 -0.48493167399E+02 -0.61624540518E+03 -0.44296486537E+03  0.76047871032E+03  0.10100000352E+00 0.  1.
       -3    1    3    3    0  502  0.48493167399E+02  0.61624540518E+03  0.54192164611E+03  0.82206390714E+03  0.10100000352E+00 0. -1.
</event>
<event>
 5   0  0.9844690E-04  0.1597126E+04  0.7818609E-02  0.8822316E-01
        2   -1    0    0  501    0  0.00000000000E+00  0.00000000000E+00  0.18095048150E+04  0.18095048150E+04  0.25500000920E-02 0. -1.
       -2   -1    0    0    0  501  0.00000000000E+00  0.00000000000E+00 -0.35241823188E+03  0.35241823189E+03  0.25500000920E-02 0.  1.
    10030    2    1    2    0    0  0.00000000000E+00  0.00000000000E+00  0.14570865831E+04  0.21619230469E+04  0.15971255273E+04 0.  0.
        3    1    3    3  502    0  0.15786086497E+03 -0.42587091282E+03 -0.16055443637E+03  0.48173003261E+03  0.10100000352E+00 0.  1.
       -3    1    3    3    0  502 -0.15786086497E+03  0.42587091282E+03  0.16176410195E+04  0.16801930142E+04  0.10100000352E+00 0. -1.
</event>
<event>
 5   0  0.9844690E-04  0.1596493E+04  0.7818609E-02  0.8822706E-01
        2   -1    0    0  501    0  0.00000000000E+00  0.00000000000E+00  0.11188005277E+04  0.11188005277E+04  0.25500000920E-02 0.  1.
       -2   -1    0    0    0  501  0.00000000000E+00  0.00000000000E+00 -0.56953605834E+03  0.56953605835E+03  0.25500000920E-02 0. -1.
    10030    2    1    2    0    0  0.00000000000E+00  0.00000000000E+00  0.54926446938E+03  0.16883365861E+04  0.15964927092E+04 0.  0.
        3    1    3    3  502    0 -0.42566630258E+03 -0.47005644495E+03  0.78734532910E+03  0.10109686148E+04  0.10100000352E+00 0.  1.
       -3    1    3    3    0  502  0.42566630258E+03  0.47005644495E+03 -0.23808085972E+03  0.67736797131E+03  0.10100000352E+00 0. -1.
</event>
<event>
 5   0  0.5281116E-04  0.1593697E+04  0.7818609E-02  0.8824430E-01
        1   -1    0    0  501    0  0.00000000000E+00  0.00000000000E+00  0.11357845859E+04  0.11357845859E+04  0.50400001928E-02 0. -1.
       -1   -1    0    0    0  501  0.00000000000E+00  0.00000000000E+00 -0.55905600943E+03  0.55905600945E+03  0.50400001928E-02 0.  1.
    10030    2    1    2    0    0  0.00000000000E+00  0.00000000000E+00  0.57672857648E+03  0.16948405954E+04  0.15936965812E+04 0.  0.
        2    1    3    3  502    0 -0.20861957262E+03  0.73689277983E+02 -0.52573536400E+03  0.57039452026E+03  0.25500000920E-02 0.  1.
       -2    1    3    3    0  502  0.20861957262E+03 -0.73689277983E+02  0.11024639405E+04  0.11244460751E+04  0.25500000920E-02 0. -1.
</event>
<event>
 5   0  0.1037321E-03  0.1617708E+04  0.7818609E-02  0.8809742E-01
        2   -1    0    0  501    0  0.00000000000E+00  0.00000000000E+00  0.11934149223E+04  0.11934149223E+04  0.25500000920E-02 0.  1.
       -2   -1    0    0    0  501  0.00000000000E+00  0.00000000000E+00 -0.54821243899E+03  0.54821243899E+03  0.25500000920E-02 0. -1.
    10030    2    1    2    0    0  0.00000000000E+00  0.00000000000E+00  0.64520248334E+03  0.17416273613E+04  0.16177081384E+04 0.  0.
        5    1    3    3  502    0  0.12422792038E+02 -0.43144450141E+01  0.11932851180E+04  0.11933668351E+04  0.46999998093E+01 0.  1.
       -5    1    3    3    0  502 -0.12422792038E+02  0.43144450141E+01 -0.54808263468E+03  0.54826052624E+03  0.46999998093E+01 0. -1.
</event>
<event>
 5   0  0.1037321E-03  0.1678995E+04  0.7818609E-02  0.8773436E-01
        2   -1    0    0  501    0  0.00000000000E+00  0.00000000000E+00  0.12379880912E+04  0.12379880912E+04  0.25500000920E-02 0.  1.
       -2   -1    0    0    0  501  0.00000000000E+00  0.00000000000E+00 -0.56927497312E+03  0.56927497313E+03  0.25500000920E-02 0. -1.
    10030    2    1    2    0    0  0.00000000000E+00  0.00000000000E+00  0.66871311805E+03  0.18072630643E+04  0.16789945055E+04 0.  0.
        5    1    3    3  502    0  0.24874212975E+03  0.76516669953E+02 -0.52474378579E+03  0.58575214777E+03  0.46999998093E+01 0. -1.
       -5    1    3    3    0  502 -0.24874212975E+03 -0.76516669953E+02  0.11934569038E+04  0.12215109165E+04  0.46999998093E+01 0.  1.
</event>
<event>
 5   0  0.1000121E-03  0.1587122E+04  0.7818609E-02  0.8828499E-01
        2   -1    0    0  501    0  0.00000000000E+00  0.00000000000E+00  0.70882626510E+03  0.70882626510E+03  0.25500000920E-02 0. -1.
       -2   -1    0    0    0  501  0.00000000000E+00  0.00000000000E+00 -0.88842531577E+03  0.88842531577E+03  0.25500000920E-02 0.  1.
    10030    2    1    2    0    0  0.00000000000E+00  0.00000000000E+00 -0.17959905067E+03  0.15972515809E+04  0.15871221735E+04 0.  0.
        4    1    3    3  502    0  0.17628001117E+03 -0.30643144976E+03 -0.80480044277E+03  0.87902232129E+03  0.12699999809E+01 0.  1.
       -4    1    3    3    0  502 -0.17628001117E+03  0.30643144976E+03  0.62520139210E+03  0.71822925959E+03  0.12699999809E+01 0. -1.
</event>
<event>
 5   0  0.1000121E-03  0.1594656E+04  0.7818609E-02  0.8823837E-01
        2   -1    0    0  501    0  0.00000000000E+00  0.00000000000E+00  0.14259919502E+04  0.14259919502E+04  0.25500000920E-02 0. -1.
       -2   -1    0    0    0  501  0.00000000000E+00  0.00000000000E+00 -0.44581759756E+03  0.44581759757E+03  0.25500000920E-02 0.  1.
    10030    2    1    2    0    0  0.00000000000E+00  0.00000000000E+00  0.98017435260E+03  0.18718095477E+04  0.15946564588E+04 0.  0.
        4    1    3    3  502    0  0.73554509081E+03 -0.51109101306E+01  0.12891104841E+03  0.74677464695E+03  0.12699999809E+01 0.  1.
       -4    1    3    3    0  502 -0.73554509081E+03  0.51109101306E+01  0.85126330419E+03  0.11250349008E+04  0.12699999809E+01 0. -1.
</event>
<event>
 5   0  0.5281116E-04  0.1639508E+04  0.7818609E-02  0.8796638E-01
        1   -1    0    0  501    0  0.00000000000E+00  0.00000000000E+00  0.13058265952E+04  0.13058265952E+04  0.50400001928E-02 0. -1.
       -1   -1    0    0    0  501  0.00000000000E+00  0.00000000000E+00 -0.51461405150E+03  0.51461405152E+03  0.50400001928E-02 0.  1.
    10030    2    1    2    0    0  0.00000000000E+00  0.00000000000E+00  0.79121254374E+03  0.18204406468E+04  0.16395081150E+04 0.  0.
        2    1    3    3  502    0  0.77569907496E+03  0.26506880864E+03  0.40128828249E+03  0.91268987826E+03  0.25500000920E-02 0.  1.
       -2    1    3    3    0  502 -0.77569907496E+03 -0.26506880864E+03  0.38992426124E+03  0.90775076851E+03  0.25500000920E-02 0. -1.
</event>
<event>
 5   0  0.9844690E-04  0.1243240E+04  0.7818609E-02  0.9075828E-01
       -2   -1    0    0    0  501  0.00000000000E+00  0.00000000000E+00  0.35853732548E+03  0.35853732549E+03  0.25500000920E-02 0.  1.
        2   -1    0    0  501    0  0.00000000000E+00  0.00000000000E+00 -0.10777445084E+04  0.10777445084E+04  0.25500000920E-02 0. -1.
    10030    2    1    2    0    0  0.00000000000E+00  0.00000000000E+00 -0.71920718287E+03  0.14362818338E+04  0.12432403365E+04 0.  0.
        3    1    3    3  502    0  0.33833623043E+03 -0.12576210677E+03 -0.94427224119E+03  0.10109092877E+04  0.10100000352E+00 0. -1.
       -3    1    3    3    0  502 -0.33833623043E+03  0.12576210677E+03  0.22506505832E+03  0.42537254613E+03  0.10100000352E+00 0.  1.
</event>
<event>
 5   0  0.5532881E-04  0.1614084E+04  0.7818609E-02  0.8811942E-01
       -1   -1    0    0    0  501  0.00000000000E+00  0.00000000000E+00  0.97356612122E+03  0.97356612123E+03  0.50400001928E-02 0. -1.
        1   -1    0    0  501    0  0.00000000000E+00  0.00000000000E+00 -0.66900138575E+03  0.66900138577E+03  0.50400001928E-02 0.  1.
    10030    2    1    2    0    0  0.00000000000E+00  0.00000000000E+00  0.30456473546E+03  0.16425675070E+04  0.16140843649E+04 0.  0.
        4    1    3    3  502    0 -0.65209881981E+03 -0.20655099995E+03  0.58811474970E+03  0.90209575883E+03  0.12699999809E+01 0. -1.
       -4    1    3    3    0  502  0.65209881981E+03  0.20655099995E+03 -0.28355001424E+03  0.74047174818E+03  0.12699999809E+01 0.  1.
</event>
<event>
 5   0  0.1030027E-03  0.1557245E+04  0.7818609E-02  0.8847253E-01
       -2   -1    0    0    0  501  0.00000000000E+00  0.00000000000E+00  0.24123816981E+03  0.24123816982E+03  0.25500000920E-02 0.  1.
        2   -1    0    0  501    0  0.00000000000E+00  0.00000000000E+00 -0.25130880278E+04  0.25130880278E+04  0.25500000920E-02 0. -1.
    10030    2    1    2    0    0  0.00000000000E+00  0.00000000000E+00 -0.22718498580E+04  0.27543261976E+04  0.15572446904E+04 0.  0.
        1    1    3    3  502    0  0.51658534452E+03  0.44053569807E+03 -0.46167305762E+03  0.82102017734E+03  0.50400001928E-02 0.  1.
       -1    1    3    3    0  502 -0.51658534452E+03 -0.44053569807E+03 -0.18101768004E+04  0.19333060203E+04  0.50400001928E-02 0. -1.
</event>
<event>
 5   0  0.1057872E-03  0.1602131E+04  0.7818609E-02  0.8819240E-01
       -2   -1    0    0    0  501  0.00000000000E+00  0.00000000000E+00  0.63694413399E+03  0.63694413399E+03  0.25500000920E-02 0. -1.
        2   -1    0    0  501    0  0.00000000000E+00  0.00000000000E+00 -0.10074764578E+04  0.10074764578E+04  0.25500000920E-02 0.  1.
    10030    2    1    2    0    0  0.00000000000E+00  0.00000000000E+00 -0.37053232385E+03  0.16444205918E+04  0.16021313554E+04 0.  0.
        2    1    3    3  502    0  0.82198606548E+02  0.31987788998E+03 -0.93434353520E+03  0.99099763733E+03  0.25500000920E-02 0.  1.
       -2    1    3    3    0  502 -0.82198606548E+02 -0.31987788998E+03  0.56381121135E+03  0.65342295450E+03  0.25500000920E-02 0. -1.
</event>
<event>
 5   0  0.5532881E-04  0.1580299E+04  0.7818609E-02  0.8832743E-01
        1   -1    0    0  501    0  0.00000000000E+00  0.00000000000E+00  0.13836047326E+04  0.13836047326E+04  0.50400001928E-02 0. -1.
       -1   -1    0    0    0  501  0.00000000000E+00  0.00000000000E+00 -0.45123870897E+03  0.45123870900E+03  0.50400001928E-02 0.  1.
    10030    2    1    2    0    0  0.00000000000E+00  0.00000000000E+00  0.93236602365E+03  0.18348434416E+04  0.15802987228E+04 0.  0.
        4    1    3    3  502    0 -0.34322182449E+03 -0.70477855447E+03  0.58124284044E+03  0.97588876626E+03  0.12699999809E+01 0. -1.
       -4    1    3    3    0  502  0.34322182449E+03  0.70477855447E+03  0.35112318321E+03  0.85895467537E+03  0.12699999809E+01 0.  1.
</event>
<event>
 5   0  0.5281116E-04  0.1549501E+04  0.7818609E-02  0.8852187E-01
       -1   -1    0    0    0  501  0.00000000000E+00  0.00000000000E+00  0.44503253780E+03  0.44503253783E+03  0.50400001928E-02 0.  1.
        1   -1    0    0  501    0  0.00000000000E+00  0.00000000000E+00 -0.13487513727E+04  0.13487513727E+04  0.50400001928E-02 0. -1.
    10030    2    1    2    0    0  0.00000000000E+00  0.00000000000E+00 -0.90371883486E+03  0.17937839105E+04  0.15495008826E+04 0.  0.
        2    1    3    3  502    0  0.48217901521E+03  0.42826249166E+03  0.45167263431E+02  0.64648700386E+03  0.25500000920E-02 0.  1.
       -2    1    3    3    0  502 -0.48217901521E+03 -0.42826249166E+03 -0.94888609829E+03  0.11472969066E+04  0.25500000920E-02 0. -1.
</event>
<event>
 5   0  0.1000121E-03  0.1703097E+04  0.7818609E-02  0.8759600E-01
        2   -1    0    0  501    0  0.00000000000E+00  0.00000000000E+00  0.11097744230E+04  0.11097744230E+04  0.25500000920E-02 0. -1.
       -2   -1    0    0    0  501  0.00000000000E+00  0.00000000000E+00 -0.65340727645E+03  0.65340727646E+03  0.25500000920E-02 0.  1.
    10030    2    1    2    0    0  0.00000000000E+00  0.00000000000E+00  0.45636714656E+03  0.17631816995E+04  0.17030968067E+04 0.  0.
        4    1    3    3  502    0  0.48441229133E+03 -0.18410342096E+03  0.92773227035E+03  0.10626561607E+04  0.12699999809E+01 0. -1.
       -4    1    3    3    0  502 -0.48441229133E+03  0.18410342096E+03 -0.47136512379E+03  0.70052553874E+03  0.12699999809E+01 0.  1.
</event>
<event>
 5   0  0.1000121E-03  0.1625709E+04  0.7818609E-02  0.8804908E-01
       -2   -1    0    0    0  501  0.00000000000E+00  0.00000000000E+00  0.11101536551E+04  0.11101536551E+04  0.25500000920E-02 0. -1.
        2   -1    0    0  501    0  0.00000000000E+00  0.00000000000E+00 -0.59517203883E+03  0.59517203884E+03  0.25500000920E-02 0.  1.
    10030    2    1    2    0    0  0.00000000000E+00  0.00000000000E+00  0.51498161624E+03  0.17053256939E+04  0.16257089707E+04 0.  0.
        4    1    3    3  502    0 -0.28670313332E+03  0.18512172201E+03  0.10313617953E+04  0.10863597491E+04  0.12699999809E+01 0. -1.
       -4    1    3    3    0  502  0.28670313332E+03 -0.18512172201E+03 -0.51638017910E+03  0.61896594485E+03  0.12699999809E+01 0.  1.
</event>
<event>
 5   0  0.5532881E-04  0.1627837E+04  0.7818609E-02  0.8803627E-01
       -1   -1    0    0    0  501  0.00000000000E+00  0.00000000000E+00  0.56249286474E+03  0.56249286477E+03  0.50400001928E-02 0.  1.
        1   -1    0    0  501    0  0.00000000000E+00  0.00000000000E+00 -0.11777268423E+04  0.11777268423E+04  0.50400001928E-02 0. -1.
    10030    2    1    2    0    0  0.00000000000E+00  0.00000000000E+00 -0.61523397757E+03  0.17402197071E+04  0.16278365341E+04 0.  0.
        4    1    3    3  502    0 -0.54646367064E+03  0.56281201542E+03 -0.75654324378E+02  0.78810221274E+03  0.12699999809E+01 0.  1.
       -4    1    3    3    0  502  0.54646367064E+03 -0.56281201542E+03 -0.53957965319E+03  0.95211749436E+03  0.12699999809E+01 0. -1.
</event>
<event>
 5   0  0.5281116E-04  0.1265651E+04  0.7818609E-02  0.9057257E-01
       -1   -1    0    0    0  501  0.00000000000E+00  0.00000000000E+00  0.11672372683E+04  0.11672372683E+04  0.50400001928E-02 0. -1.
        1   -1    0    0  501    0  0.00000000000E+00  0.00000000000E+00 -0.34309059446E+03  0.34309059450E+03  0.50400001928E-02 0.  1.
    10030    2    1    2    0    0  0.00000000000E+00  0.00000000000E+00  0.82414667387E+03  0.15103278628E+04  0.12656510235E+04 0.  0.
        2    1    3    3  502    0 -0.22869296698E+03 -0.92124382935E+02 -0.28341960930E+03  0.37565150075E+03  0.25500000920E-02 0.  1.
       -2    1    3    3    0  502  0.22869296698E+03  0.92124382935E+02  0.11075662832E+04  0.11346763621E+04  0.25500000920E-02 0. -1.
</event>
<event>
 5   0  0.1037321E-03  0.1530661E+04  0.7818609E-02  0.8864316E-01
        2   -1    0    0  501    0  0.00000000000E+00  0.00000000000E+00  0.64440958351E+03  0.64440958351E+03  0.25500000920E-02 0.  1.
       -2   -1    0    0    0  501  0.00000000000E+00  0.00000000000E+00 -0.90894137429E+03  0.90894137430E+03  0.25500000920E-02 0. -1.
    10030    2    1    2    0    0  0.00000000000E+00  0.00000000000E+00 -0.26453179079E+03  0.15533509578E+04  0.15306606841E+04 0.  0.
        5    1    3    3  502    0 -0.36189055949E+03  0.29956887418E+02  0.55140176692E+03  0.66024858252E+03  0.46999998093E+01 0.  1.
       -5    1    3    3    0  502  0.36189055949E+03 -0.29956887418E+02 -0.81593355771E+03  0.89310237529E+03  0.46999998093E+01 0. -1.
</event>
<event>
 5   0  0.1037321E-03  0.1591311E+04  0.7818609E-02  0.8825904E-01
       -2   -1    0    0    0  501  0.00000000000E+00  0.00000000000E+00  0.60320064740E+03  0.60320064741E+03  0.25500000920E-02 0. -1.
        2   -1    0    0  501    0  0.00000000000E+00  0.00000000000E+00 -0.10495137945E+04  0.10495137946E+04  0.25500000920E-02 0.  1.
    10030    2    1    2    0    0  0.00000000000E+00  0.00000000000E+00 -0.44631314715E+03  0.16527144420E+04  0.15913106552E+04 0.  0.
        5    1    3    3  502    0 -0.49922416413E+03 -0.37018105811E+03  0.29278862568E+03  0.68702696538E+03  0.46999998093E+01 0.  1.
       -5    1    3    3    0  502  0.49922416413E+03  0.37018105811E+03 -0.73910177283E+03  0.96568747658E+03  0.46999998093E+01 0. -1.
</event>
<event>
 5   0  0.5425525E-04  0.1588626E+04  0.7818609E-02  0.8827566E-01
       -1   -1    0    0    0  501  0.00000000000E+00  0.00000000000E+00  0.95195463664E+03  0.95195463666E+03  0.50400001928E-02 0.  1.
        1   -1    0    0  501    0  0.00000000000E+00  0.00000000000E+00 -0.66277658960E+03  0.66277658962E+03  0.50400001928E-02 0. -1.
    10030    2    1    2    0    0  0.00000000000E+00  0.00000000000E+00  0.28917804705E+03  0.16147312263E+04  0.15886261329E+04 0.  0.
        5    1    3    3  502    0  0.48349061943E+02 -0.59715880095E+01  0.95042056957E+03  0.95167990455E+03  0.46999998093E+01 0.  1.
       -5    1    3    3    0  502 -0.48349061943E+02  0.59715880095E+01 -0.66124252252E+03  0.66305132173E+03  0.46999998093E+01 0. -1.
</event>
<event>
 5   0  0.1057872E-03  0.1614976E+04  0.7818609E-02  0.8811400E-01
       -2   -1    0    0    0  501  0.00000000000E+00  0.00000000000E+00  0.34830756140E+03  0.34830756141E+03  0.25500000920E-02 0.  1.
        2   -1    0    0  501    0  0.00000000000E+00  0.00000000000E+00 -0.18720135769E+04  0.18720135769E+04  0.25500000920E-02 0. -1.
    10030    2    1    2    0    0  0.00000000000E+00  0.00000000000E+00 -0.15237060155E+04  0.22203211383E+04  0.16149755216E+04 0.  0.
        2    1    3    3  502    0  0.45146580691E+03  0.63265242069E+03 -0.10629571348E+04  0.13167947185E+04  0.25500000920E-02 0. -1.
       -2    1    3    3    0  502 -0.45146580691E+03 -0.63265242069E+03 -0.46074888069E+03  0.90352641980E+03  0.25500000920E-02 0.  1.
</event>
<event>
 5   0  0.5532881E-04  0.1613277E+04  0.7818609E-02  0.8812433E-01
        1   -1    0    0  501    0  0.00000000000E+00  0.00000000000E+00  0.14937428961E+04  0.14937428961E+04  0.50400001928E-02 0.  1.
       -1   -1    0    0    0  501  0.00000000000E+00  0.00000000000E+00 -0.43559411024E+03  0.43559411027E+03  0.50400001928E-02 0. -1.
    10030    2    1    2    0    0  0.00000000000E+00  0.00000000000E+00  0.10581487858E+04  0.19293370063E+04  0.16132769233E+04 0.  0.
        4    1    3    3  502    0 -0.55109219878E+03  0.21540835929E+03  0.11847140484E+04  0.13242553991E+04  0.12699999809E+01 0.  1.
       -4    1    3    3    0  502  0.55109219878E+03 -0.21540835929E+03 -0.12656526254E+03  0.60508160722E+03  0.12699999809E+01 0. -1.
</event>
<event>
 5   0  0.9844690E-04  0.1598070E+04  0.7818609E-02  0.8821734E-01
        2   -1    0    0  501    0  0.00000000000E+00  0.00000000000E+00  0.79051757211E+03  0.79051757212E+03  0.25500000920E-02 0.  1.
       -2   -1    0    0    0  501  0.00000000000E+00  0.00000000000E+00 -0.80764447073E+03  0.80764447073E+03  0.25500000920E-02 0. -1.
    10030    2    1    2    0    0  0.00000000000E+00  0.00000000000E+00 -0.17126898617E+02  0.15981620429E+04  0.15980702690E+04 0.  0.
        3    1    3    3  502    0  0.23345571349E+03 -0.25837018313E+03 -0.72777122142E+03  0.80678849931E+03  0.10100000352E+00 0. -1.
       -3    1    3    3    0  502 -0.23345571349E+03  0.25837018313E+03  0.71064432280E+03  0.79137354354E+03  0.10100000352E+00 0.  1.
</event>
<event>
 5   0  0.1037321E-03  0.1635716E+04  0.7818609E-02  0.8798902E-01
        2   -1    0    0  501    0  0.00000000000E+00  0.00000000000E+00  0.12834551699E+04  0.12834551699E+04  0.25500000920E-02 0.  1.
       -2   -1    0    0    0  501  0.00000000000E+00  0.00000000000E+00 -0.52116457470E+03  0.52116457470E+03  0.25500000920E-02 0. -1.
    10030    2    1    2    0    0  0.00000000000E+00  0.00000000000E+00  0.76229059524E+03  0.18046197446E+04  0.16357155838E+04 0.  0.
        5    1    3    3  502    0 -0.26818517982E+03 -0.59629151884E+03  0.92318453360E+03  0.11312730171E+04  0.46999998093E+01 0.  1.
       -5    1    3    3    0  502  0.26818517982E+03  0.59629151884E+03 -0.16089393836E+03  0.67334672756E+03  0.46999998093E+01 0. -1.
</event>
<event>
 5   0  0.1057872E-03  0.1651233E+04  0.7818609E-02  0.8789678E-01
       -2   -1    0    0    0  501  0.00000000000E+00  0.00000000000E+00  0.75112578252E+03  0.75112578252E+03  0.25500000920E-02 0. -1.
        2   -1    0    0  501    0  0.00000000000E+00  0.00000000000E+00 -0.90749411232E+03  0.90749411232E+03  0.25500000920E-02 0.  1.
    10030    2    1    2    0    0  0.00000000000E+00  0.00000000000E+00 -0.15636832980E+03  0.16586198948E+04  0.16512325400E+04 0.  0.
        2    1    3    3  502    0 -0.37967774924E+03  0.92244593760E+02 -0.80874674478E+03  0.89818458879E+03  0.25500000920E-02 0.  1.
       -2    1    3    3    0  502  0.37967774924E+03 -0.92244593760E+02  0.65237841498E+03  0.76043530605E+03  0.25500000920E-02 0. -1.
</event>
<event>
 5   0  0.5623061E-04  0.1541213E+04  0.7818609E-02  0.8857500E-01
       -1   -1    0    0    0  501  0.00000000000E+00  0.00000000000E+00  0.53694350473E+03  0.53694350476E+03  0.50400001928E-02 0. -1.
        1   -1    0    0  501    0  0.00000000000E+00  0.00000000000E+00 -0.11059536553E+04  0.11059536553E+04  0.50400001928E-02 0.  1.
    10030    2    1    2    0    0  0.00000000000E+00  0.00000000000E+00 -0.56901015052E+03  0.16428971600E+04  0.15412133295E+04 0.  0.
        3    1    3    3  502    0  0.28110203883E+03  0.37567696995E+02  0.47929138482E+03  0.55691106099E+03  0.10100000352E+00 0. -1.
       -3    1    3    3    0  502 -0.28110203883E+03 -0.37567696995E+02 -0.10483015353E+04  0.10859860990E+04  0.10100000352E+00 0.  1.
</event>
<event>
 5   0  0.1057872E-03  0.1610233E+04  0.7818609E-02  0.8814286E-01
       -2   -1    0    0    0  501  0.00000000000E+00  0.00000000000E+00  0.44696604469E+03  0.44696604469E+03  0.25500000920E-02 0. -1.
        2   -1    0    0  501    0  0.00000000000E+00  0.00000000000E+00 -0.14502494106E+04  0.14502494106E+04  0.25500000920E-02 0.  1.
    10030    2    1    2    0    0  0.00000000000E+00  0.00000000000E+00 -0.10032833659E+04  0.18972154552E+04  0.16102325830E+04 0.  0.
        2    1    3    3  502    0 -0.60747093252E+03 -0.12148429786E+03  0.10423713081E+03  0.62820756755E+03  0.25500000920E-02 0. -1.
       -2    1    3    3    0  502  0.60747093252E+03  0.12148429786E+03 -0.11075204967E+04  0.12690078877E+04  0.25500000920E-02 0.  1.
</event>
<event>
 5   0  0.5425525E-04  0.1623453E+04  0.7818609E-02  0.8806268E-01
        1   -1    0    0  501    0  0.00000000000E+00  0.00000000000E+00  0.81543373137E+03  0.81543373138E+03  0.50400001928E-02 0.  1.
       -1   -1    0    0    0  501  0.00000000000E+00  0.00000000000E+00 -0.80803575615E+03  0.80803575617E+03  0.50400001928E-02 0. -1.
    10030    2    1    2    0    0  0.00000000000E+00  0.00000000000E+00  0.73979752149E+01  0.16234694875E+04  0.16234526316E+04 0.  0.
        5    1    3    3  502    0 -0.16817754480E+03 -0.54562834509E+03  0.58066558695E+03  0.81436391829E+03  0.46999998093E+01 0.  1.
       -5    1    3    3    0  502  0.16817754480E+03  0.54562834509E+03 -0.57326761173E+03  0.80910556926E+03  0.46999998093E+01 0. -1.
</event>
<event>
 5   0  0.5532881E-04  0.1615266E+04  0.7818609E-02  0.8811224E-01
        1   -1    0    0  501    0  0.00000000000E+00  0.00000000000E+00  0.88275344443E+03  0.88275344444E+03  0.50400001928E-02 0. -1.
       -1   -1    0    0    0  501  0.00000000000E+00  0.00000000000E+00 -0.73890481235E+03  0.73890481237E+03  0.50400001928E-02 0.  1.
    10030    2    1    2    0    0  0.00000000000E+00  0.00000000000E+00  0.14384863208E+03  0.16216582568E+04  0.16152656354E+04 0.  0.
        4    1    3    3  502    0  0.22102173535E+03  0.54424563676E+03  0.62838791245E+03  0.86019003833E+03  0.12699999809E+01 0. -1.
       -4    1    3    3    0  502 -0.22102173535E+03 -0.54424563676E+03 -0.48453928038E+03  0.76146821848E+03  0.12699999809E+01 0.  1.
</event>
<event>
 5   0  0.9844690E-04  0.1562905E+04  0.7818609E-02  0.8843666E-01
        2   -1    0    0  501    0  0.00000000000E+00  0.00000000000E+00  0.10266010448E+04  0.10266010448E+04  0.25500000920E-02 0. -1.
       -2   -1    0    0    0  501  0.00000000000E+00  0.00000000000E+00 -0.59484475490E+03  0.59484475490E+03  0.25500000920E-02 0.  1.
    10030    2    1    2    0    0  0.00000000000E+00  0.00000000000E+00  0.43175628992E+03  0.16214457997E+04  0.15629053035E+04 0.  0.
        3    1    3    3  502    0  0.97399659118E+02 -0.19182509009E+03  0.99527272004E+03  0.10182589829E+04  0.10100000352E+00 0. -1.
       -3    1    3    3    0  502 -0.97399659118E+02  0.19182509009E+03 -0.56351643012E+03  0.60318681683E+03  0.10100000352E+00 0.  1.
</event>
<event>
 5   0  0.5623061E-04  0.1691600E+04  0.7818609E-02  0.8766170E-01
       -1   -1    0    0    0  501  0.00000000000E+00  0.00000000000E+00  0.87658475696E+03  0.87658475698E+03  0.50400001928E-02 0. -1.
        1   -1    0    0  501    0  0.00000000000E+00  0.00000000000E+00 -0.81609594413E+03  0.81609594414E+03  0.50400001928E-02 0.  1.
    10030    2    1    2    0    0  0.00000000000E+00  0.00000000000E+00  0.60488812834E+02  0.16926807011E+04  0.16915995565E+04 0.  0.
        3    1    3    3  502    0 -0.81729976015E+03 -0.12767531979E+03  0.20670157516E+03  0.85264613797E+03  0.10100000352E+00 0. -1.
       -3    1    3    3    0  502  0.81729976015E+03  0.12767531979E+03 -0.14621276233E+03  0.84003456315E+03  0.10100000352E+00 0.  1.
</event>
<event>
 5   0  0.5281116E-04  0.1510782E+04  0.7818609E-02  0.8877315E-01
       -1   -1    0    0    0  501  0.00000000000E+00  0.00000000000E+00  0.33822208033E+03  0.33822208036E+03  0.50400001928E-02 0. -1.
        1   -1    0    0  501    0  0.00000000000E+00  0.00000000000E+00 -0.16871031495E+04  0.16871031495E+04  0.50400001928E-02 0.  1.
    10030    2    1    2    0    0  0.00000000000E+00  0.00000000000E+00 -0.13488810691E+04  0.20253252298E+04  0.15107819657E+04 0.  0.
        2    1    3    3  502    0  0.53661216475E+03  0.48370372196E+03 -0.37861949362E+03  0.81564368871E+03  0.25500000920E-02 0.  1.
       -2    1    3    3    0  502 -0.53661216475E+03 -0.48370372196E+03 -0.97026157551E+03  0.12096815411E+04  0.25500000920E-02 0. -1.
</event>
<event>
 5   0  0.5281116E-04  0.1599370E+04  0.7818609E-02  0.8820935E-01
       -1   -1    0    0    0  501  0.00000000000E+00  0.00000000000E+00  0.57297206519E+03  0.57297206521E+03  0.50400001928E-02 0. -1.
        1   -1    0    0  501    0  0.00000000000E+00  0.00000000000E+00 -0.11161034202E+04  0.11161034202E+04  0.50400001928E-02 0.  1.
    10030    2    1    2    0    0  0.00000000000E+00  0.00000000000E+00 -0.54313135504E+03  0.16890754854E+04  0.15993699781E+04 0.  0.
        2    1    3    3  502    0 -0.39254582865E+03  0.94338306238E+02  0.45744427514E+03  0.61012065075E+03  0.25500000920E-02 0. -1.
       -2    1    3    3    0  502  0.39254582865E+03 -0.94338306238E+02 -0.10005756302E+04  0.10789548347E+04  0.25500000920E-02 0.  1.
</event>
<event>
 5   0  0.1000121E-03  0.1590038E+04  0.7818609E-02  0.8826692E-01
       -2   -1    0    0    0  501  0.00000000000E+00  0.00000000000E+00  0.36484548010E+03  0.36484548011E+03  0.25500000920E-02 0. -1.
        2   -1    0    0  501    0  0.00000000000E+00  0.00000000000E+00 -0.17323909652E+04  0.17323909652E+04  0.25500000920E-02 0.  1.
    10030    2    1    2    0    0  0.00000000000E+00  0.00000000000E+00 -0.13675454851E+04  0.20972364453E+04  0.15900377523E+04 0.  0.
        4    1    3    3  502    0 -0.49755410727E+03  0.61767959701E+03 -0.61194885917E+03  0.10017840053E+04  0.12699999809E+01 0.  1.
       -4    1    3    3    0  502  0.49755410727E+03 -0.61767959701E+03 -0.75559662594E+03  0.10954524400E+04  0.12699999809E+01 0. -1.
</event>
<event>
 5   0  0.5532881E-04  0.1605778E+04  0.7818609E-02  0.8817006E-01
        1   -1    0    0  501    0  0.00000000000E+00  0.00000000000E+00  0.10587289022E+04  0.10587289022E+04  0.50400001928E-02 0. -1.
       -1   -1    0    0    0  501  0.00000000000E+00  0.00000000000E+00 -0.60887249284E+03  0.60887249286E+03  0.50400001928E-02 0.  1.
    10030    2    1    2    0    0  0.00000000000E+00  0.00000000000E+00  0.44985640935E+03  0.16676013951E+04  0.16057781988E+04 0.  0.
        4    1    3    3  502    0  0.33461022213E+03  0.41595866421E+03 -0.39786363013E+03  0.66579478232E+03  0.12699999809E+01 0.  1.
       -4    1    3    3    0  502 -0.33461022213E+03 -0.41595866421E+03  0.84772003948E+03  0.10018066127E+04  0.12699999809E+01 0. -1.
</event>
<event>
 5   0  0.5288658E-04  0.1576477E+04  0.7818609E-02  0.8835131E-01
        1   -1    0    0  501    0  0.00000000000E+00  0.00000000000E+00  0.71594920270E+03  0.71594920271E+03  0.50400001928E-02 0.  1.
       -1   -1    0    0    0  501  0.00000000000E+00  0.00000000000E+00 -0.86782720473E+03  0.86782720475E+03  0.50400001928E-02 0. -1.
    10030    2    1    2    0    0  0.00000000000E+00  0.00000000000E+00 -0.15187800204E+03  0.15837764075E+04  0.15764773330E+04 0.  0.
        1    1    3    3  502    0  0.68163116782E+03 -0.33781312925E+03  0.13136910816E+03  0.77200816178E+03  0.50400001928E-02 0.  1.
       -1    1    3    3    0  502 -0.68163116782E+03  0.33781312925E+03 -0.28324711020E+03  0.81176824569E+03  0.50400001928E-02 0. -1.
</event>
<event>
 5   0  0.1037321E-03  0.1597083E+04  0.7818609E-02  0.8822342E-01
        2   -1    0    0  501    0  0.00000000000E+00  0.00000000000E+00  0.70712606591E+03  0.70712606592E+03  0.25500000920E-02 0. -1.
       -2   -1    0    0    0  501  0.00000000000E+00  0.00000000000E+00 -0.90177450095E+03  0.90177450096E+03  0.25500000920E-02 0.  1.
    10030    2    1    2    0    0  0.00000000000E+00  0.00000000000E+00 -0.19464843504E+03  0.16089005669E+04  0.15970826594E+04 0.  0.
        5    1    3    3  502    0  0.70296734623E+02 -0.77118572763E+03  0.98994972765E+02  0.78069914310E+03  0.46999998093E+01 0. -1.
       -5    1    3    3    0  502 -0.70296734623E+02  0.77118572763E+03 -0.29364340781E+03  0.82820142378E+03  0.46999998093E+01 0.  1.
</event>
<event>
 5   0  0.1030027E-03  0.1487046E+04  0.7818609E-02  0.8893113E-01
       -2   -1    0    0    0  501  0.00000000000E+00  0.00000000000E+00  0.39080408170E+03  0.39080408171E+03  0.25500000920E-02 0.  1.
        2   -1    0    0  501    0  0.00000000000E+00  0.00000000000E+00 -0.14145864955E+04  0.14145864955E+04  0.25500000920E-02 0. -1.
    10030    2    1    2    0    0  0.00000000000E+00  0.00000000000E+00 -0.10237824138E+04  0.18053905772E+04  0.14870456299E+04 0.  0.
        1    1    3    3  502    0  0.37736145434E+03  0.23604038043E+03  0.21118364048E+03  0.49266140345E+03  0.50400001928E-02 0.  1.
       -1    1    3    3    0  502 -0.37736145434E+03 -0.23604038043E+03 -0.12349660542E+04  0.13127291737E+04  0.50400001928E-02 0. -1.
</event>
<event>
 5   0  0.1030027E-03  0.1591406E+04  0.7818609E-02  0.8825845E-01
       -2   -1    0    0    0  501  0.00000000000E+00  0.00000000000E+00  0.84856347976E+03  0.84856347977E+03  0.25500000920E-02 0.  1.
        2   -1    0    0  501    0  0.00000000000E+00  0.00000000000E+00 -0.74613525004E+03  0.74613525005E+03  0.25500000920E-02 0. -1.
    10030    2    1    2    0    0  0.00000000000E+00  0.00000000000E+00  0.10242822972E+03  0.15946987298E+04  0.15914058240E+04 0.  0.
        1    1    3    3  502    0  0.62689737013E+03 -0.14449935923E+03  0.52043802068E+03  0.82748783126E+03  0.50400001928E-02 0.  1.
       -1    1    3    3    0  502 -0.62689737013E+03  0.14449935923E+03 -0.41800979096E+03  0.76721089855E+03  0.50400001928E-02 0. -1.
</event>
<event>
 5   0  0.5623061E-04  0.1620334E+04  0.7818609E-02  0.8808152E-01
        1   -1    0    0  501    0  0.00000000000E+00  0.00000000000E+00  0.11525553776E+04  0.11525553776E+04  0.50400001928E-02 0.  1.
       -1   -1    0    0    0  501  0.00000000000E+00  0.00000000000E+00 -0.56949180872E+03  0.56949180875E+03  0.50400001928E-02 0. -1.
    10030    2    1    2    0    0  0.00000000000E+00  0.00000000000E+00  0.58306356884E+03  0.17220471863E+04  0.16203343441E+04 0.  0.
        3    1    3    3  502    0 -0.66989792282E+03 -0.43518401765E+03  0.14806738184E+03  0.81244834665E+03  0.10100000352E+00 0.  1.
       -3    1    3    3    0  502  0.66989792282E+03  0.43518401765E+03  0.43499618700E+03  0.90959883967E+03  0.10100000352E+00 0. -1.
</event>
<event>
 5   0  0.1037321E-03  0.1623123E+04  0.7818609E-02  0.8806467E-01
       -2   -1    0    0    0  501  0.00000000000E+00  0.00000000000E+00  0.65403342650E+03  0.65403342651E+03  0.25500000920E-02 0. -1.
        2   -1    0    0  501    0  0.00000000000E+00  0.00000000000E+00 -0.10070316814E+04  0.10070316814E+04  0.25500000920E-02 0.  1.
    10030    2    1    2    0    0  0.00000000000E+00  0.00000000000E+00 -0.35299825488E+03  0.16610651079E+04  0.16231233855E+04 0.  0.
        5    1    3    3  502    0 -0.40724656723E+03  0.37945452655E+03 -0.78087575593E+03  0.95897056287E+03  0.46999998093E+01 0.  1.
       -5    1    3    3    0  502  0.40724656723E+03 -0.37945452655E+03  0.42787750106E+03  0.70209454502E+03  0.46999998093E+01 0. -1.
</event>
<event>
 5   0  0.1057872E-03  0.1584098E+04  0.7818609E-02  0.8830377E-01
       -2   -1    0    0    0  501  0.00000000000E+00  0.00000000000E+00  0.89259002874E+03  0.89259002874E+03  0.25500000920E-02 0.  1.
        2   -1    0    0  501    0  0.00000000000E+00  0.00000000000E+00 -0.70283244686E+03  0.70283244687E+03  0.25500000920E-02 0. -1.
    10030    2    1    2    0    0  0.00000000000E+00  0.00000000000E+00  0.18975758187E+03  0.15954224756E+04  0.15840975146E+04 0.  0.
        2    1    3    3  502    0  0.13632261727E+03 -0.64195320519E+03  0.54150539569E+03  0.85083245542E+03  0.25500000920E-02 0.  1.
       -2    1    3    3    0  502 -0.13632261727E+03  0.64195320519E+03 -0.35174781381E+03  0.74459002019E+03  0.25500000920E-02 0. -1.
</event>
<event>
 5   0  0.5425525E-04  0.1604483E+04  0.7818609E-02  0.8817799E-01
       -1   -1    0    0    0  501  0.00000000000E+00  0.00000000000E+00  0.58676258881E+03  0.58676258883E+03  0.50400001928E-02 0. -1.
        1   -1    0    0  501    0  0.00000000000E+00  0.00000000000E+00 -0.10968509631E+04  0.10968509631E+04  0.50400001928E-02 0.  1.
    10030    2    1    2    0    0  0.00000000000E+00  0.00000000000E+00 -0.51008837431E+03  0.16836135520E+04  0.16044826090E+04 0.  0.
        5    1    3    3  502    0  0.75474302669E+03 -0.16282150487E+03 -0.48354797438E+03  0.91103710809E+03  0.46999998093E+01 0.  1.
       -5    1    3    3    0  502 -0.75474302669E+03  0.16282150487E+03 -0.26540399925E+02  0.77257644387E+03  0.46999998093E+01 0. -1.
</event>
<event>
 5   0  0.1030027E-03  0.1682129E+04  0.7818609E-02  0.8771623E-01
       -2   -1    0    0    0  501  0.00000000000E+00  0.00000000000E+00  0.82843132664E+03  0.82843132664E+03  0.25500000920E-02 0. -1.
        2   -1    0    0  501    0  0.00000000000E+00  0.00000000000E+00 -0.85389013714E+03  0.85389013714E+03  0.25500000920E-02 0.  1.
    10030    2    1    2    0    0  0.00000000000E+00  0.00000000000E+00 -0.25458810496E+02  0.16823214638E+04  0.16821288168E+04 0.  0.
        1    1    3    3  502    0 -0.79771698842E+03  0.11070778602E+03 -0.25520455071E+03  0.84483014283E+03  0.50400001928E-02 0.  1.
       -1    1    3    3    0  502  0.79771698842E+03 -0.11070778602E+03  0.22974574021E+03  0.83749132095E+03  0.50400001928E-02 0. -1.
</event>
<event>
 5   0  0.1000121E-03  0.1604037E+04  0.7818609E-02  0.8818071E-01
       -2   -1    0    0    0  501  0.00000000000E+00  0.00000000000E+00  0.33852725718E+03  0.33852725719E+03  0.25500000920E-02 0. -1.
        2   -1    0    0  501    0  0.00000000000E+00  0.00000000000E+00 -0.19000952757E+04  0.19000952757E+04  0.25500000920E-02 0.  1.
    10030    2    1    2    0    0  0.00000000000E+00  0.00000000000E+00 -0.15615680185E+04  0.22386225329E+04  0.16040374585E+04 0.  0.
        4    1    3    3  502    0  0.58975203827E+03  0.48710331050E+03 -0.11173429386E+04  0.13540804840E+04  0.12699999809E+01 0.  1.
       -4    1    3    3    0  502 -0.58975203827E+03 -0.48710331050E+03 -0.44422507990E+03  0.88454204889E+03  0.12699999809E+01 0. -1.
</event>
<event>
 5   0  0.1030027E-03  0.1617444E+04  0.7818609E-02  0.8809903E-01
       -2   -1    0    0    0  501  0.00000000000E+00  0.00000000000E+00  0.31082759484E+03  0.31082759485E+03  0.25500000920E-02 0. -1.
        2   -1    0    0  501    0  0.00000000000E+00  0.00000000000E+00 -0.21041606329E+04  0.21041606329E+04  0.25500000920E-02 0.  1.
    10030    2    1    2    0    0  0.00000000000E+00  0.00000000000E+00 -0.17933330381E+04  0.24149882278E+04  0.16174438954E+04 0.  0.
        1    1    3    3  502    0  0.77897644467E+03  0.21730510302E+03 -0.90012955995E+03  0.12100657147E+04  0.50400001928E-02 0. -1.
       -1    1    3    3    0  502 -0.77897644467E+03 -0.21730510302E+03 -0.89320347812E+03  0.12049225131E+04  0.50400001928E-02 0.  1.
</event>
<event>
 5   0  0.1057872E-03  0.1617966E+04  0.7818609E-02  0.8809586E-01
        2   -1    0    0  501    0  0.00000000000E+00  0.00000000000E+00  0.14122934375E+04  0.14122934375E+04  0.25500000920E-02 0. -1.
       -2   -1    0    0    0  501  0.00000000000E+00  0.00000000000E+00 -0.46339772591E+03  0.46339772592E+03  0.25500000920E-02 0.  1.
    10030    2    1    2    0    0  0.00000000000E+00  0.00000000000E+00  0.94889571161E+03  0.18756911634E+04  0.16179660902E+04 0.  0.
        2    1    3    3  502    0  0.31058566732E+03 -0.57242794478E+03 -0.81910109076E+02  0.65638896600E+03  0.25500000920E-02 0.  1.
       -2    1    3    3    0  502 -0.31058566732E+03  0.57242794478E+03  0.10308058207E+04  0.12193021974E+04  0.25500000920E-02 0. -1.
</event>
<event>
 5   0  0.5281116E-04  0.1588925E+04  0.7818609E-02  0.8827381E-01
       -1   -1    0    0    0  501  0.00000000000E+00  0.00000000000E+00  0.79317094615E+03  0.79317094617E+03  0.50400001928E-02 0. -1.
        1   -1    0    0  501    0  0.00000000000E+00  0.00000000000E+00 -0.79575566365E+03  0.79575566367E+03  0.50400001928E-02 0.  1.
    10030    2    1    2    0    0  0.00000000000E+00  0.00000000000E+00 -0.25847175051E+01  0.15889266098E+04  0.15889245075E+04 0.  0.
        2    1    3    3  502    0 -0.73468350605E+03  0.14603775402E+03 -0.26602539119E+03  0.79489394791E+03  0.25500000920E-02 0.  1.
       -2    1    3    3    0  502  0.73468350605E+03 -0.14603775402E+03  0.26344067368E+03  0.79403266193E+03  0.25500000920E-02 0. -1.
</event>
<event>
 5   0  0.5281116E-04  0.1590312E+04  0.7818609E-02  0.8826522E-01
       -1   -1    0    0    0  501  0.00000000000E+00  0.00000000000E+00  0.10745289141E+04  0.10745289141E+04  0.50400001928E-02 0.  1.
        1   -1    0    0  501    0  0.00000000000E+00  0.00000000000E+00 -0.58841858393E+03  0.58841858395E+03  0.50400001928E-02 0. -1.
    10030    2    1    2    0    0  0.00000000000E+00  0.00000000000E+00  0.48611033012E+03  0.16629474980E+04  0.15903116450E+04 0.  0.
        2    1    3    3  502    0  0.55940277773E+03 -0.19841563303E+03 -0.31023637026E+03  0.66973639337E+03  0.25500000920E-02 0. -1.
       -2    1    3    3    0  502 -0.55940277773E+03  0.19841563303E+03  0.79634670038E+03  0.99321110464E+03  0.25500000920E-02 0.  1.
</event>
<event>
 5   0  0.1030027E-03  0.1572538E+04  0.7818609E-02  0.8837599E-01
        2   -1    0    0  501    0  0.00000000000E+00  0.00000000000E+00  0.12490838577E+04  0.12490838577E+04  0.25500000920E-02 0.  1.
       -2   -1    0    0    0  501  0.00000000000E+00  0.00000000000E+00 -0.49493764587E+03  0.49493764588E+03  0.25500000920E-02 0. -1.
    10030    2    1    2    0    0  0.00000000000E+00  0.00000000000E+00  0.75414621182E+03  0.17440215036E+04  0.15725375977E+04 0.  0.
        1    1    3    3  502    0  0.39744148547E+03  0.11098783069E+03 -0.36519535385E+03  0.55104054246E+03  0.50400001928E-02 0. -1.
       -1    1    3    3    0  502 -0.39744148547E+03 -0.11098783069E+03  0.11193415657E+04  0.11929809611E+04  0.50400001928E-02 0.  1.
</event>
<event>
 5   0  0.5288658E-04  0.1609086E+04  0.7818609E-02  0.8814985E-01
        1   -1    0    0  501    0  0.00000000000E+00  0.00000000000E+00  0.82595783616E+03  0.82595783618E+03  0.50400001928E-02 0.  1.
       -1   -1    0    0    0  501  0.00000000000E+00  0.00000000000E+00 -0.78368358801E+03  0.78368358803E+03  0.50400001928E-02 0. -1.
    10030    2    1    2    0    0  0.00000000000E+00  0.00000000000E+00  0.42274248153E+02  0.16096414242E+04  0.16090862011E+04 0.  0.
        1    1    3    3  502    0  0.43025271451E+03 -0.62218588028E+01 -0.65890145471E+03  0.78696075944E+03  0.50400001928E-02 0. -1.
       -1    1    3    3    0  502 -0.43025271451E+03  0.62218588028E+01  0.70117570286E+03  0.82268066476E+03  0.50400001928E-02 0.  1.
</event>
<event>
 5   0  0.5425525E-04  0.1608212E+04  0.7818609E-02  0.8815519E-01
       -1   -1    0    0    0  501  0.00000000000E+00  0.00000000000E+00  0.48834540310E+03  0.48834540313E+03  0.50400001928E-02 0.  1.
        1   -1    0    0  501    0  0.00000000000E+00  0.00000000000E+00 -0.13240344894E+04  0.13240344894E+04  0.50400001928E-02 0. -1.
    10030    2    1    2    0    0  0.00000000000E+00  0.00000000000E+00 -0.83568908631E+03  0.18123798926E+04  0.16082116235E+04 0.  0.
        5    1    3    3  502    0 -0.35051055118E+03 -0.67224944645E+03 -0.71979052080E+03  0.10454173562E+04  0.46999998093E+01 0. -1.
       -5    1    3    3    0  502  0.35051055118E+03  0.67224944645E+03 -0.11589856551E+03  0.76696253639E+03  0.46999998093E+01 0.  1.
</event>
<event>
 5   0  0.1030027E-03  0.1615480E+04  0.7818609E-02  0.8811094E-01
        2   -1    0    0  501    0  0.00000000000E+00  0.00000000000E+00  0.11014374316E+04  0.11014374317E+04  0.25500000920E-02 0. -1.
       -2   -1    0    0    0  501  0.00000000000E+00  0.00000000000E+00 -0.59235677452E+03  0.59235677453E+03  0.25500000920E-02 0.  1.
    10030    2    1    2    0    0  0.00000000000E+00  0.00000000000E+00  0.50908065713E+03  0.16937942062E+04  0.16154800207E+04 0.  0.
        1    1    3    3  502    0 -0.48380693537E+03 -0.31130925488E+03  0.84900139260E+03  0.10255661693E+04  0.50400001928E-02 0. -1.
       -1    1    3    3    0  502  0.48380693537E+03  0.31130925488E+03 -0.33992073547E+03  0.66822803691E+03  0.50400001928E-02 0.  1.
</event>
<event>
 5   0  0.5532881E-04  0.1671699E+04  0.7818609E-02  0.8777672E-01
       -1   -1    0    0    0  501  0.00000000000E+00  0.00000000000E+00  0.14938924056E+04  0.14938924056E+04  0.50400001928E-02 0. -1.
        1   -1    0    0  501    0  0.00000000000E+00  0.00000000000E+00 -0.46766740098E+03  0.46766740101E+03  0.50400001928E-02 0.  1.
    10030    2    1    2    0    0  0.00000000000E+00  0.00000000000E+00  0.10262250046E+04  0.19615598066E+04  0.16716994691E+04 0.  0.
        4    1    3    3  502    0 -0.35213257283E+03 -0.47722819457E+03 -0.17799389892E+03  0.61921526103E+03  0.12699999809E+01 0.  1.
       -4    1    3    3    0  502  0.35213257283E+03  0.47722819457E+03  0.12042189035E+04  0.13423445456E+04  0.12699999809E+01 0. -1.
</event>
<event>
 5   0  0.1057872E-03  0.1566056E+04  0.7818609E-02  0.8841677E-01
       -2   -1    0    0    0  501  0.00000000000E+00  0.00000000000E+00  0.20340990599E+03  0.20340990601E+03  0.25500000920E-02 0. -1.
        2   -1    0    0  501    0  0.00000000000E+00  0.00000000000E+00 -0.30142716335E+04  0.30142716335E+04  0.25500000920E-02 0.  1.
    10030    2    1    2    0    0  0.00000000000E+00  0.00000000000E+00 -0.28108617275E+04  0.32176815395E+04  0.15660558223E+04 0.  0.
        2    1    3    3  502    0  0.14831667750E+03 -0.74797637859E+03 -0.17710541630E+04  0.19282373682E+04  0.25500000920E-02 0.  1.
       -2    1    3    3    0  502 -0.14831667750E+03  0.74797637859E+03 -0.10398075645E+04  0.12894441713E+04  0.25500000920E-02 0. -1.
</event>
<event>
 5   0  0.5532881E-04  0.1747455E+04  0.7818609E-02  0.8734752E-01
        1   -1    0    0  501    0  0.00000000000E+00  0.00000000000E+00  0.14881345286E+04  0.14881345286E+04  0.50400001928E-02 0. -1.
       -1   -1    0    0    0  501  0.00000000000E+00  0.00000000000E+00 -0.51299128874E+03  0.51299128876E+03  0.50400001928E-02 0.  1.
    10030    2    1    2    0    0  0.00000000000E+00  0.00000000000E+00  0.97514323982E+03  0.20011258173E+04  0.17474553495E+04 0.  0.
        4    1    3    3  502    0 -0.11866626040E+03 -0.29983943058E+03 -0.44235158121E+03  0.54741382865E+03  0.12699999809E+01 0.  1.
       -4    1    3    3    0  502  0.11866626040E+03  0.29983943058E+03  0.14174948210E+04  0.14537119887E+04  0.12699999809E+01 0. -1.
</event>
<event>
 5   0  0.5288658E-04  0.1600415E+04  0.7818609E-02  0.8820293E-01
        1   -1    0    0  501    0  0.00000000000E+00  0.00000000000E+00  0.12065653270E+04  0.12065653270E+04  0.50400001928E-02 0.  1.
       -1   -1    0    0    0  501  0.00000000000E+00  0.00000000000E+00 -0.53070655169E+03  0.53070655171E+03  0.50400001928E-02 0. -1.
    10030    2    1    2    0    0  0.00000000000E+00  0.00000000000E+00  0.67585877533E+03  0.17372718787E+04  0.16004151013E+04 0.  0.
        1    1    3    3  502    0 -0.21236868253E+03  0.74706942811E+03  0.12879140687E+03  0.78727404012E+03  0.50400001928E-02 0.  1.
       -1    1    3    3    0  502  0.21236868253E+03 -0.74706942811E+03  0.54706736846E+03  0.94999783862E+03  0.50400001928E-02 0. -1.
</event>
<event>
 5   0  0.1037321E-03  0.1596462E+04  0.7818609E-02  0.8822724E-01
        2   -1    0    0  501    0  0.00000000000E+00  0.00000000000E+00  0.55459497212E+03  0.55459497213E+03  0.25500000920E-02 0. -1.
       -2   -1    0    0    0  501  0.00000000000E+00  0.00000000000E+00 -0.11488978832E+04  0.11488978832E+04  0.25500000920E-02 0.  1.
    10030    2    1    2    0    0  0.00000000000E+00  0.00000000000E+00 -0.59430291111E+03  0.17034928554E+04  0.15964623259E+04 0.  0.
        5    1    3    3  502    0  0.28243414128E+03 -0.62820878117E+03 -0.72760164540E+03  0.10019189395E+04  0.46999998093E+01 0.  1.
       -5    1    3    3    0  502 -0.28243414128E+03  0.62820878117E+03  0.13329873429E+03  0.70157391589E+03  0.46999998093E+01 0. -1.
</event>
<event>
 5   0  0.5623061E-04  0.1613684E+04  0.7818609E-02  0.8812185E-01
        1   -1    0    0  501    0  0.00000000000E+00  0.00000000000E+00  0.13535779568E+04  0.13535779568E+04  0.50400001928E-02 0. -1.
       -1   -1    0    0    0  501  0.00000000000E+00  0.00000000000E+00 -0.48094323623E+03  0.48094323625E+03  0.50400001928E-02 0.  1.
    10030    2    1    2    0    0  0.00000000000E+00  0.00000000000E+00  0.87263472057E+03  0.18345211931E+04  0.16136841860E+04 0.  0.
        3    1    3    3  502    0 -0.25196699930E+03  0.71454146029E+03  0.75165268219E+03  0.10672575285E+04  0.10100000352E+00 0. -1.
       -3    1    3    3    0  502  0.25196699930E+03 -0.71454146029E+03  0.12098203838E+03  0.76726366461E+03  0.10100000352E+00 0.  1.
</event>
<event>
 5   0  0.5623061E-04  0.1503950E+04  0.7818609E-02  0.8881830E-01
       -1   -1    0    0    0  501  0.00000000000E+00  0.00000000000E+00  0.36149701576E+03  0.36149701580E+03  0.50400001928E-02 0. -1.
        1   -1    0    0  501    0  0.00000000000E+00  0.00000000000E+00 -0.15642352737E+04  0.15642352737E+04  0.50400001928E-02 0.  1.
    10030    2    1    2    0    0  0.00000000000E+00  0.00000000000E+00 -0.12027382579E+04  0.19257322895E+04  0.15039499771E+04 0.  0.
        3    1    3    3  502    0  0.47484967223E+03  0.58299141235E+03 -0.61450077167E+03  0.97106766328E+03  0.10100000352E+00 0.  1.
       -3    1    3    3    0  502 -0.47484967223E+03 -0.58299141235E+03 -0.58823748624E+03  0.95466462619E+03  0.10100000352E+00 0. -1.
</event>
<event>
 5   0  0.1057872E-03  0.1459750E+04  0.7818609E-02  0.8911669E-01
        2   -1    0    0  501    0  0.00000000000E+00  0.00000000000E+00  0.15500944310E+04  0.15500944310E+04  0.25500000920E-02 0. -1.
       -2   -1    0    0    0  501  0.00000000000E+00  0.00000000000E+00 -0.34366769096E+03  0.34366769097E+03  0.25500000920E-02 0.  1.
    10030    2    1    2    0    0  0.00000000000E+00  0.00000000000E+00  0.12064267400E+04  0.18937621219E+04  0.14597498058E+04 0.  0.
        2    1    3    3  502    0  0.18959012851E+03 -0.66064587538E+03  0.92183672759E+03  0.11498610098E+04  0.25500000920E-02 0. -1.
       -2    1    3    3    0  502 -0.18959012851E+03  0.66064587538E+03  0.28459001243E+03  0.74390111216E+03  0.25500000920E-02 0.  1.
</event>
<event>
 5   0  0.1000121E-03  0.1589213E+04  0.7818609E-02  0.8827203E-01
        2   -1    0    0  501    0  0.00000000000E+00  0.00000000000E+00  0.12068557296E+04  0.12068557296E+04  0.25500000920E-02 0. -1.
       -2   -1    0    0    0  501  0.00000000000E+00  0.00000000000E+00 -0.52317715788E+03  0.52317715789E+03  0.25500000920E-02 0.  1.
    10030    2    1    2    0    0  0.00000000000E+00  0.00000000000E+00  0.68367857171E+03  0.17300328875E+04  0.15892128248E+04 0.  0.
        4    1    3    3  502    0  0.11891404273E+03  0.77978466511E+03  0.23746285450E+03  0.82376871370E+03  0.12699999809E+01 0.  1.
       -4    1    3    3    0  502 -0.11891404273E+03 -0.77978466511E+03  0.44621571722E+03  0.90626417379E+03  0.12699999809E+01 0. -1.
</event>
<event>
 5   0  0.5623061E-04  0.1593148E+04  0.7818609E-02  0.8824769E-01
       -1   -1    0    0    0  501  0.00000000000E+00  0.00000000000E+00  0.67213240568E+03  0.67213240570E+03  0.50400001928E-02 0. -1.
        1   -1    0    0  501    0  0.00000000000E+00  0.00000000000E+00 -0.94405519468E+03  0.94405519469E+03  0.50400001928E-02 0.  1.
    10030    2    1    2    0    0  0.00000000000E+00  0.00000000000E+00 -0.27192278900E+03  0.16161876004E+04  0.15931479393E+04 0.  0.
        3    1    3    3  502    0  0.39053694970E+03 -0.62665692901E+03 -0.43913453695E+03  0.85910253608E+03  0.10100000352E+00 0.  1.
       -3    1    3    3    0  502 -0.39053694970E+03  0.62665692901E+03  0.16721174794E+03  0.75708506431E+03  0.10100000352E+00 0. -1.
</event>
<event>
 5   0  0.1057872E-03  0.1618730E+04  0.7818609E-02  0.8809123E-01
       -2   -1    0    0    0  501  0.00000000000E+00  0.00000000000E+00  0.19103239638E+04  0.19103239638E+04  0.25500000920E-02 0.  1.
        2   -1    0    0  501    0  0.00000000000E+00  0.00000000000E+00 -0.34291141411E+03  0.34291141412E+03  0.25500000920E-02 0. -1.
    10030    2    1    2    0    0  0.00000000000E+00  0.00000000000E+00  0.15674125497E+04  0.22532353779E+04  0.16187302330E+04 0.  0.
        2    1    3    3  502    0  0.25190239253E+03 -0.74163939215E+03  0.10675743566E+04  0.13240841402E+04  0.25500000920E-02 0.  1.
       -2    1    3    3    0  502 -0.25190239253E+03  0.74163939215E+03  0.49983819307E+03  0.92915123774E+03  0.25500000920E-02 0. -1.
</event>
<event>
 5   0  0.1000121E-03  0.1597063E+04  0.7818609E-02  0.8822354E-01
       -2   -1    0    0    0  501  0.00000000000E+00  0.00000000000E+00  0.58980245738E+03  0.58980245738E+03  0.25500000920E-02 0. -1.
        2   -1    0    0  501    0  0.00000000000E+00  0.00000000000E+00 -0.10811290269E+04  0.10811290269E+04  0.25500000920E-02 0.  1.
    10030    2    1    2    0    0  0.00000000000E+00  0.00000000000E+00 -0.49132656953E+03  0.16709314843E+04  0.15970630004E+04 0.  0.
        4    1    3    3  502    0  0.27813342175E+03  0.46266296437E+03 -0.86129719322E+03  0.10164889015E+04  0.12699999809E+01 0.  1.
       -4    1    3    3    0  502 -0.27813342175E+03 -0.46266296437E+03  0.36997062369E+03  0.65444258281E+03  0.12699999809E+01 0. -1.
</event>
<event>
 5   0  0.9844690E-04  0.1625170E+04  0.7818609E-02  0.8805233E-01
        2   -1    0    0  501    0  0.00000000000E+00  0.00000000000E+00  0.26740440090E+04  0.26740440090E+04  0.25500000920E-02 0. -1.
       -2   -1    0    0    0  501  0.00000000000E+00  0.00000000000E+00 -0.24692717508E+03  0.24692717510E+03  0.25500000920E-02 0.  1.
    10030    2    1    2    0    0  0.00000000000E+00  0.00000000000E+00  0.24271168339E+04  0.29209711841E+04  0.16251696936E+04 0.  0.
        3    1    3    3  502    0 -0.51267928877E+03  0.42551243118E+03  0.37747347221E+03  0.76575917536E+03  0.10100000352E+00 0.  1.
       -3    1    3    3    0  502  0.51267928877E+03 -0.42551243118E+03  0.20496433617E+04  0.21552120087E+04  0.10100000352E+00 0. -1.
</event>
<event>
 5   0  0.5623061E-04  0.1598566E+04  0.7818609E-02  0.8821429E-01
        1   -1    0    0  501    0  0.00000000000E+00  0.00000000000E+00  0.48930760310E+03  0.48930760312E+03  0.50400001928E-02 0.  1.
       -1   -1    0    0    0  501  0.00000000000E+00  0.00000000000E+00 -0.13056271476E+04  0.13056271476E+04  0.50400001928E-02 0. -1.
    10030    2    1    2    0    0  0.00000000000E+00  0.00000000000E+00 -0.81631954451E+03  0.17949347507E+04  0.15985659701E+04 0.  0.
        3    1    3    3  502    0 -0.45249675224E+03  0.52634251300E+03  0.36835889108E+02  0.69508750867E+03  0.10100000352E+00 0.  1.
       -3    1    3    3    0  502  0.45249675224E+03 -0.52634251300E+03 -0.85315543361E+03  0.10998472421E+04  0.10100000352E+00 0. -1.
</event>
<event>
 5   0  0.1057872E-03  0.1628111E+04  0.7818609E-02  0.8803462E-01
        2   -1    0    0  501    0  0.00000000000E+00  0.00000000000E+00  0.22423352065E+04  0.22423352065E+04  0.25500000920E-02 0.  1.
       -2   -1    0    0    0  501  0.00000000000E+00  0.00000000000E+00 -0.29553413733E+03  0.29553413734E+03  0.25500000920E-02 0. -1.
    10030    2    1    2    0    0  0.00000000000E+00  0.00000000000E+00  0.19468010691E+04  0.25378693438E+04  0.16281112995E+04 0.  0.
        2    1    3    3  502    0  0.47848392820E+03  0.21641204547E+03  0.38115932316E+01  0.52516242365E+03  0.25500000920E-02 0. -1.
       -2    1    3    3    0  502 -0.47848392820E+03 -0.21641204547E+03  0.19429894759E+04  0.20127069202E+04  0.25500000920E-02 0.  1.
</event>
<event>
 5   0  0.5425525E-04  0.1531378E+04  0.7818609E-02  0.8863851E-01
       -1   -1    0    0    0  501  0.00000000000E+00  0.00000000000E+00  0.32459171636E+03  0.32459171639E+03  0.50400001928E-02 0.  1.
        1   -1    0    0  501    0  0.00000000000E+00  0.00000000000E+00 -0.18062071717E+04  0.18062071717E+04  0.50400001928E-02 0. -1.
    10030    2    1    2    0    0  0.00000000000E+00  0.00000000000E+00 -0.14816154553E+04  0.21307988881E+04  0.15313783151E+04 0.  0.
        5    1    3    3  502    0 -0.25909132720E+03  0.58226507599E+03 -0.15031705670E+03  0.65481160808E+03  0.46999998093E+01 0.  1.
       -5    1    3    3    0  502  0.25909132720E+03 -0.58226507599E+03 -0.13312983986E+04  0.14759872800E+04  0.46999998093E+01 0. -1.
</event>
<event>
 5   0  0.5532881E-04  0.1606982E+04  0.7818609E-02  0.8816270E-01
        1   -1    0    0  501    0  0.00000000000E+00  0.00000000000E+00  0.73875763104E+03  0.73875763106E+03  0.50400001928E-02 0. -1.
       -1   -1    0    0    0  501  0.00000000000E+00  0.00000000000E+00 -0.87389637099E+03  0.87389637100E+03  0.50400001928E-02 0.  1.
    10030    2    1    2    0    0  0.00000000000E+00  0.00000000000E+00 -0.13513873995E+03  0.16126540021E+04  0.16069817831E+04 0.  0.
        4    1    3    3  502    0  0.11790096487E+03 -0.68020259942E+03 -0.48014067520E+03  0.84090005034E+03  0.12699999809E+01 0.  1.
       -4    1    3    3    0  502 -0.11790096487E+03  0.68020259942E+03  0.34500193526E+03  0.77175395172E+03  0.12699999809E+01 0. -1.
</event>
<event>
 5   0  0.1057872E-03  0.1602636E+04  0.7818609E-02  0.8818930E-01
        2   -1    0    0  501    0  0.00000000000E+00  0.00000000000E+00  0.15624498401E+04  0.15624498401E+04  0.25500000920E-02 0.  1.
       -2   -1    0    0    0  501  0.00000000000E+00  0.00000000000E+00 -0.41096401835E+03  0.41096401836E+03  0.25500000920E-02 0. -1.
    10030    2    1    2    0    0  0.00000000000E+00  0.00000000000E+00  0.11514858218E+04  0.19734138585E+04  0.16026361593E+04 0.  0.
        2    1    3    3  502    0  0.33041194886E+02  0.13892885345E+03  0.15466548881E+04  0.15532334950E+04  0.25500000920E-02 0.  1.
       -2    1    3    3    0  502 -0.33041194886E+02 -0.13892885345E+03 -0.39516906636E+03  0.42018036353E+03  0.25500000920E-02 0. -1.
</event>
<event>
 5   0  0.5425525E-04  0.1583026E+04  0.7818609E-02  0.8831044E-01
       -1   -1    0    0    0  501  0.00000000000E+00  0.00000000000E+00  0.52284199890E+03  0.52284199892E+03  0.50400001928E-02 0.  1.
        1   -1    0    0  501    0  0.00000000000E+00  0.00000000000E+00 -0.11982446637E+04  0.11982446637E+04  0.50400001928E-02 0. -1.
    10030    2    1    2    0    0  0.00000000000E+00  0.00000000000E+00 -0.67540266481E+03  0.17210866626E+04  0.15830257549E+04 0.  0.
        5    1    3    3  502    0 -0.44586165056E+03  0.24751447709E+03  0.32041261443E+03  0.60228096540E+03  0.46999998093E+01 0.  1.
       -5    1    3    3    0  502  0.44586165056E+03 -0.24751447709E+03 -0.99581527923E+03  0.11188056972E+04  0.46999998093E+01 0. -1.
</event>
<event>
 5   0  0.5623061E-04  0.1619190E+04  0.7818609E-02  0.8808845E-01
       -1   -1    0    0    0  501  0.00000000000E+00  0.00000000000E+00  0.46812475078E+03  0.46812475080E+03  0.50400001928E-02 0.  1.
        1   -1    0    0  501    0  0.00000000000E+00  0.00000000000E+00 -0.14001485162E+04  0.14001485162E+04  0.50400001928E-02 0. -1.
    10030    2    1    2    0    0  0.00000000000E+00  0.00000000000E+00 -0.93202376539E+03  0.18682732670E+04  0.16191901373E+04 0.  0.
        3    1    3    3  502    0 -0.64020602778E+03  0.24273370786E+03  0.32492588206E+02  0.68544816685E+03  0.10100000352E+00 0.  1.
       -3    1    3    3    0  502  0.64020602778E+03 -0.24273370786E+03 -0.96451635360E+03  0.11828251001E+04  0.10100000352E+00 0. -1.
</event>
<event>
 5   0  0.5623061E-04  0.1557830E+04  0.7818609E-02  0.8846882E-01
       -1   -1    0    0    0  501  0.00000000000E+00  0.00000000000E+00  0.36079255343E+03  0.36079255346E+03  0.50400001928E-02 0. -1.
        1   -1    0    0  501    0  0.00000000000E+00  0.00000000000E+00 -0.16815998338E+04  0.16815998338E+04  0.50400001928E-02 0.  1.
    10030    2    1    2    0    0  0.00000000000E+00  0.00000000000E+00 -0.13208072804E+04  0.20423923872E+04  0.15578301549E+04 0.  0.
        3    1    3    3  502    0 -0.12049973479E+03  0.69614808333E+03 -0.23041469695E+03  0.74312400229E+03  0.10100000352E+00 0. -1.
       -3    1    3    3    0  502  0.12049973479E+03 -0.69614808333E+03 -0.10903925834E+04  0.12992683850E+04  0.10100000352E+00 0.  1.
</event>
<event>
 5   0  0.5281116E-04  0.1602299E+04  0.7818609E-02  0.8819137E-01
        1   -1    0    0  501    0  0.00000000000E+00  0.00000000000E+00  0.67096572917E+03  0.67096572919E+03  0.50400001928E-02 0. -1.
       -1   -1    0    0    0  501  0.00000000000E+00  0.00000000000E+00 -0.95659198118E+03  0.95659198119E+03  0.50400001928E-02 0.  1.
    10030    2    1    2    0    0  0.00000000000E+00  0.00000000000E+00 -0.28562625201E+03  0.16275577104E+04  0.16022988937E+04 0.  0.
        2    1    3    3  502    0 -0.28221879081E+03  0.52980086545E+03  0.39612036745E+03  0.71919938016E+03  0.25500000920E-02 0. -1.
       -2    1    3    3    0  502  0.28221879081E+03 -0.52980086545E+03 -0.68174661946E+03  0.90835833021E+03  0.25500000920E-02 0.  1.
</event>
<event>
 5   0  0.1037321E-03  0.1596900E+04  0.7818609E-02  0.8822455E-01
       -2   -1    0    0    0  501  0.00000000000E+00  0.00000000000E+00  0.32819437229E+03  0.32819437230E+03  0.25500000920E-02 0.  1.
        2   -1    0    0  501    0  0.00000000000E+00  0.00000000000E+00 -0.19425149180E+04  0.19425149180E+04  0.25500000920E-02 0. -1.
    10030    2    1    2    0    0  0.00000000000E+00  0.00000000000E+00 -0.16143205457E+04  0.22707092903E+04  0.15969000773E+04 0.  0.
        5    1    3    3  502    0  0.59473278500E+03 -0.18495172070E+03 -0.15175456866E+04  0.16403905710E+04  0.46999998093E+01 0. -1.
       -5    1    3    3    0  502 -0.59473278500E+03  0.18495172070E+03 -0.96774859102E+02  0.63031871930E+03  0.46999998093E+01 0.  1.
</event>
<event>
 5   0  0.5532881E-04  0.1600153E+04  0.7818609E-02  0.8820454E-01
        1   -1    0    0  501    0  0.00000000000E+00  0.00000000000E+00  0.10224695080E+04  0.10224695080E+04  0.50400001928E-02 0. -1.
       -1   -1    0    0    0  501  0.00000000000E+00  0.00000000000E+00 -0.62605519187E+03  0.62605519189E+03  0.50400001928E-02 0.  1.
    10030    2    1    2    0    0  0.00000000000E+00  0.00000000000E+00  0.39641431611E+03  0.16485246999E+04  0.16001529227E+04 0.  0.
        4    1    3    3  502    0 -0.31335373033E+03  0.39385392620E+03  0.83894798614E+03  0.97833880217E+03  0.12699999809E+01 0. -1.
       -4    1    3    3    0  502  0.31335373033E+03 -0.39385392620E+03 -0.44253367002E+03  0.67018589772E+03  0.12699999809E+01 0.  1.
</event>
<event>
 5   0  0.5623061E-04  0.1373030E+04  0.7818609E-02  0.8973575E-01
       -1   -1    0    0    0  501  0.00000000000E+00  0.00000000000E+00  0.11064744586E+04  0.11064744586E+04  0.50400001928E-02 0. -1.
        1   -1    0    0  501    0  0.00000000000E+00  0.00000000000E+00 -0.42595032868E+03  0.42595032871E+03  0.50400001928E-02 0.  1.
    10030    2    1    2    0    0  0.00000000000E+00  0.00000000000E+00  0.68052412990E+03  0.15324247873E+04  0.13730304576E+04 0.  0.
        3    1    3    3  502    0  0.14505196209E+03  0.56336361332E+03  0.74711381411E+03  0.94688842741E+03  0.10100000352E+00 0.  1.
       -3    1    3    3    0  502 -0.14505196209E+03 -0.56336361332E+03 -0.66589684210E+02  0.58553635990E+03  0.10100000352E+00 0. -1.
</event>
<event>
 5   0  0.1057872E-03  0.1413560E+04  0.7818609E-02  0.8944061E-01
        2   -1    0    0  501    0  0.00000000000E+00  0.00000000000E+00  0.77152372383E+03  0.77152372384E+03  0.25500000920E-02 0. -1.
       -2   -1    0    0    0  501  0.00000000000E+00  0.00000000000E+00 -0.64746903748E+03  0.64746903749E+03  0.25500000920E-02 0.  1.
    10030    2    1    2    0    0  0.00000000000E+00  0.00000000000E+00  0.12405468635E+03  0.14189927613E+04  0.14135596526E+04 0.  0.
        2    1    3    3  502    0  0.49568775860E+03 -0.50115501964E+03  0.11394668293E+03  0.71403540129E+03  0.25500000920E-02 0.  1.
       -2    1    3    3    0  502 -0.49568775860E+03  0.50115501964E+03  0.10108003417E+02  0.70495736004E+03  0.25500000920E-02 0. -1.
</event>
<event>
 5   0  0.3832500E-04  0.1656470E+04  0.7818609E-02  0.8786588E-01
       -4   -1    0    0    0  501  0.00000000000E+00  0.00000000000E+00  0.50050129854E+03  0.50050290983E+03  0.12699999809E+01 0. -1.
        4   -1    0    0  501    0  0.00000000000E+00  0.00000000000E+00 -0.13705686498E+04  0.13705692382E+04  0.12699999809E+01 0.  1.
    10030    2    1    2    0    0  0.00000000000E+00  0.00000000000E+00 -0.87006735125E+03  0.18710721480E+04  0.16564702797E+04 0.  0.
        5    1    3    3  502    0  0.74739121380E+03  0.17425101182E+03 -0.78682087023E+03  0.10991206546E+04  0.46999998093E+01 0.  1.
       -5    1    3    3    0  502 -0.74739121380E+03 -0.17425101182E+03 -0.83246481028E+02  0.77195149341E+03  0.46999998093E+01 0. -1.
</event>
<event>
 5   0  0.1037321E-03  0.1607598E+04  0.7818609E-02  0.8815894E-01
       -2   -1    0    0    0  501  0.00000000000E+00  0.00000000000E+00  0.36186658236E+03  0.36186658237E+03  0.25500000920E-02 0.  1.
        2   -1    0    0  501    0  0.00000000000E+00  0.00000000000E+00 -0.17854453522E+04  0.17854453522E+04  0.25500000920E-02 0. -1.
    10030    2    1    2    0    0  0.00000000000E+00  0.00000000000E+00 -0.14235787698E+04  0.21473119345E+04  0.16075982180E+04 0.  0.
        5    1    3    3  502    0 -0.12806137214E+02  0.74505963274E+03 -0.11142690642E+04  0.13404833050E+04  0.46999998093E+01 0.  1.
       -5    1    3    3    0  502  0.12806137214E+02 -0.74505963274E+03 -0.30930970557E+03  0.80682862954E+03  0.46999998093E+01 0. -1.
</event>
<event>
 5   0  0.5288658E-04  0.1669670E+04  0.7818609E-02  0.8778854E-01
       -1   -1    0    0    0  501  0.00000000000E+00  0.00000000000E+00  0.52426489236E+03  0.52426489239E+03  0.50400001928E-02 0.  1.
        1   -1    0    0  501    0  0.00000000000E+00  0.00000000000E+00 -0.13293843116E+04  0.13293843116E+04  0.50400001928E-02 0. -1.
    10030    2    1    2    0    0  0.00000000000E+00  0.00000000000E+00 -0.80511941919E+03  0.18536492039E+04  0.16696700549E+04 0.  0.
        1    1    3    3  502    0  0.69469430484E+03 -0.42710900212E+03 -0.60093045304E+03  0.10129855311E+04  0.50400001928E-02 0.  1.
       -1    1    3    3    0  502 -0.69469430484E+03  0.42710900212E+03 -0.20418896616E+03  0.84066367282E+03  0.50400001928E-02 0. -1.
</event>
<event>
 5   0  0.9844690E-04  0.1527424E+04  0.7818609E-02  0.8866418E-01
       -2   -1    0    0    0  501  0.00000000000E+00  0.00000000000E+00  0.65443632708E+03  0.65443632708E+03  0.25500000920E-02 0. -1.
        2   -1    0    0  501    0  0.00000000000E+00  0.00000000000E+00 -0.89123391431E+03  0.89123391431E+03  0.25500000920E-02 0.  1.
    10030    2    1    2    0    0  0.00000000000E+00  0.00000000000E+00 -0.23679758723E+03  0.15456702414E+04  0.15274237781E+04 0.  0.
        3    1    3    3  502    0  0.55536500805E+03 -0.43314395704E+03 -0.41724315902E+03  0.81861825269E+03  0.10100000352E+00 0.  1.
       -3    1    3    3    0  502 -0.55536500805E+03  0.43314395704E+03  0.18044557180E+03  0.72705198870E+03  0.10100000352E+00 0. -1.
</event>
<event>
 5   0  0.1037321E-03  0.1576860E+04  0.7818609E-02  0.8834891E-01
        2   -1    0    0  501    0  0.00000000000E+00  0.00000000000E+00  0.11266522962E+04  0.11266522962E+04  0.25500000920E-02 0.  1.
       -2   -1    0    0    0  501  0.00000000000E+00  0.00000000000E+00 -0.55174252784E+03  0.55174252784E+03  0.25500000920E-02 0. -1.
    10030    2    1    2    0    0  0.00000000000E+00  0.00000000000E+00  0.57490976834E+03  0.16783948240E+04  0.15768601535E+04 0.  0.
        5    1    3    3  502    0  0.73233878203E+03 -0.10810301054E+02 -0.23162873087E+02  0.73279981098E+03  0.46999998093E+01 0. -1.
       -5    1    3    3    0  502 -0.73233878203E+03  0.10810301054E+02  0.59807264143E+03  0.94559501305E+03  0.46999998093E+01 0.  1.
</event>
<event>
 5   0  0.5288658E-04  0.1594128E+04  0.7818609E-02  0.8824164E-01
        1   -1    0    0  501    0  0.00000000000E+00  0.00000000000E+00  0.11922036303E+04  0.11922036303E+04  0.50400001928E-02 0.  1.
       -1   -1    0    0    0  501  0.00000000000E+00  0.00000000000E+00 -0.53288793912E+03  0.53288793915E+03  0.50400001928E-02 0. -1.
    10030    2    1    2    0    0  0.00000000000E+00  0.00000000000E+00  0.65931569115E+03  0.17250915694E+04  0.15941278940E+04 0.  0.
        1    1    3    3  502    0  0.25022310297E+03  0.22510177303E+03  0.11115306535E+04  0.11613710876E+04  0.50400001928E-02 0.  1.
       -1    1    3    3    0  502 -0.25022310297E+03 -0.22510177303E+03 -0.45221496231E+03  0.56372048184E+03  0.50400001928E-02 0. -1.
</event>
<event>
 5   0  0.1057872E-03  0.1613581E+04  0.7818609E-02  0.8812248E-01
        2   -1    0    0  501    0  0.00000000000E+00  0.00000000000E+00  0.17141911066E+04  0.17141911066E+04  0.25500000920E-02 0. -1.
       -2   -1    0    0    0  501  0.00000000000E+00  0.00000000000E+00 -0.37971918720E+03  0.37971918721E+03  0.25500000920E-02 0.  1.
    10030    2    1    2    0    0  0.00000000000E+00  0.00000000000E+00  0.13344719194E+04  0.20939102938E+04  0.16135814249E+04 0.  0.
        2    1    3    3  502    0  0.60017243509E+03  0.32284130576E+01 -0.32420953842E+02  0.60105614775E+03  0.25500000920E-02 0.  1.
       -2    1    3    3    0  502 -0.60017243509E+03 -0.32284130576E+01  0.13668928732E+04  0.14928541461E+04  0.25500000920E-02 0. -1.
</event>
<event>
 5   0  0.1037321E-03  0.1613463E+04  0.7818609E-02  0.8812320E-01
       -2   -1    0    0    0  501  0.00000000000E+00  0.00000000000E+00  0.54505675605E+03  0.54505675606E+03  0.25500000920E-02 0. -1.
        2   -1    0    0  501    0  0.00000000000E+00  0.00000000000E+00 -0.11940324624E+04  0.11940324624E+04  0.25500000920E-02 0.  1.
    10030    2    1    2    0    0  0.00000000000E+00  0.00000000000E+00 -0.64897570633E+03  0.17390892184E+04  0.16134626870E+04 0.  0.
        5    1    3    3  502    0  0.48105779274E+03  0.14154195747E+02  0.37336099063E+03  0.60912844338E+03  0.46999998093E+01 0. -1.
       -5    1    3    3    0  502 -0.48105779274E+03 -0.14154195747E+02 -0.10223366970E+04  0.11299607751E+04  0.46999998093E+01 0.  1.
</event>
<event>
 5   0  0.5281116E-04  0.1603864E+04  0.7818609E-02  0.8818178E-01
       -1   -1    0    0    0  501  0.00000000000E+00  0.00000000000E+00  0.10420893634E+04  0.10420893634E+04  0.50400001928E-02 0.  1.
        1   -1    0    0  501    0  0.00000000000E+00  0.00000000000E+00 -0.61712059681E+03  0.61712059683E+03  0.50400001928E-02 0. -1.
    10030    2    1    2    0    0  0.00000000000E+00  0.00000000000E+00  0.42496876660E+03  0.16592099603E+04  0.16038638470E+04 0.  0.
        2    1    3    3  502    0  0.87953024066E+02 -0.54286695696E+02  0.10351700096E+04  0.10403171289E+04  0.25500000920E-02 0.  1.
       -2    1    3    3    0  502 -0.87953024066E+02  0.54286695696E+02 -0.61020124302E+03  0.61889283140E+03  0.25500000920E-02 0. -1.
</event>
<event>
 5   0  0.1037321E-03  0.1589724E+04  0.7818609E-02  0.8826886E-01
        2   -1    0    0  501    0  0.00000000000E+00  0.00000000000E+00  0.11443346748E+04  0.11443346748E+04  0.25500000920E-02 0. -1.
       -2   -1    0    0    0  501  0.00000000000E+00  0.00000000000E+00 -0.55211610535E+03  0.55211610536E+03  0.25500000920E-02 0.  1.
    10030    2    1    2    0    0  0.00000000000E+00  0.00000000000E+00  0.59221856948E+03  0.16964507802E+04  0.15897240061E+04 0.  0.
        5    1    3    3  502    0 -0.96059701269E+01 -0.79255078324E+03  0.23248711159E+03  0.82601535441E+03  0.46999998093E+01 0. -1.
       -5    1    3    3    0  502  0.96059701269E+01  0.79255078324E+03  0.35973145789E+03  0.87043542579E+03  0.46999998093E+01 0.  1.
</event>
<event>
 5   0  0.5532881E-04  0.1634982E+04  0.7818609E-02  0.8799341E-01
        1   -1    0    0  501    0  0.00000000000E+00  0.00000000000E+00  0.77965142664E+03  0.77965142666E+03  0.50400001928E-02 0.  1.
       -1   -1    0    0    0  501  0.00000000000E+00  0.00000000000E+00 -0.85716696508E+03  0.85716696510E+03  0.50400001928E-02 0. -1.
    10030    2    1    2    0    0  0.00000000000E+00  0.00000000000E+00 -0.77515538439E+02  0.16368183918E+04  0.16349818925E+04 0.  0.
        4    1    3    3  502    0  0.47511150471E+03  0.59549182808E+01 -0.70472933148E+03  0.84994790811E+03  0.12699999809E+01 0. -1.
       -4    1    3    3    0  502 -0.47511150471E+03 -0.59549182808E+01  0.62721379304E+03  0.78687048365E+03  0.12699999809E+01 0.  1.
</event>
<event>
 5   0  0.5425525E-04  0.1602489E+04  0.7818609E-02  0.8819021E-01
        1   -1    0    0  501    0  0.00000000000E+00  0.00000000000E+00  0.78960015136E+03  0.78960015138E+03  0.50400001928E-02 0.  1.
       -1   -1    0    0    0  501  0.00000000000E+00  0.00000000000E+00 -0.81306027076E+03  0.81306027077E+03  0.50400001928E-02 0. -1.
    10030    2    1    2    0    0  0.00000000000E+00  0.00000000000E+00 -0.23460119393E+02  0.16026604221E+04  0.16024887056E+04 0.  0.
        5    1    3    3  502    0  0.24889206582E+02  0.39769752961E+03 -0.70692153249E+03  0.81150658701E+03  0.46999998093E+01 0. -1.
       -5    1    3    3    0  502 -0.24889206582E+02 -0.39769752961E+03  0.68346141310E+03  0.79115383514E+03  0.46999998093E+01 0.  1.
</event>
<event>
 5   0  0.5425525E-04  0.1594794E+04  0.7818609E-02  0.8823753E-01
       -1   -1    0    0    0  501  0.00000000000E+00  0.00000000000E+00  0.48451182788E+03  0.48451182790E+03  0.50400001928E-02 0.  1.
        1   -1    0    0  501    0  0.00000000000E+00  0.00000000000E+00 -0.13123353721E+04  0.13123353721E+04  0.50400001928E-02 0. -1.
    10030    2    1    2    0    0  0.00000000000E+00  0.00000000000E+00 -0.82782354418E+03  0.17968472000E+04  0.15947940431E+04 0.  0.
        5    1    3    3  502    0  0.55807724324E+02  0.52591017189E+03 -0.10862798841E+04  0.12081895910E+04  0.46999998093E+01 0. -1.
       -5    1    3    3    0  502 -0.55807724324E+02 -0.52591017189E+03  0.25845633996E+03  0.58865760902E+03  0.46999998093E+01 0.  1.
</event>
<event>
 5   0  0.5425525E-04  0.1603748E+04  0.7818609E-02  0.8818249E-01
       -1   -1    0    0    0  501  0.00000000000E+00  0.00000000000E+00  0.61138358191E+03  0.61138358193E+03  0.50400001928E-02 0.  1.
        1   -1    0    0  501    0  0.00000000000E+00  0.00000000000E+00 -0.10517154798E+04  0.10517154798E+04  0.50400001928E-02 0. -1.
    10030    2    1    2    0    0  0.00000000000E+00  0.00000000000E+00 -0.44033189789E+03  0.16630990617E+04  0.16037475826E+04 0.  0.
        5    1    3    3  502    0 -0.79225529385E+03  0.32065282612E+01 -0.34843991743E+03  0.86551210188E+03  0.46999998093E+01 0.  1.
       -5    1    3    3    0  502  0.79225529385E+03 -0.32065282612E+01 -0.91891980464E+02  0.79758695985E+03  0.46999998093E+01 0. -1.
</event>
<event>
 5   0  0.9844690E-04  0.1586953E+04  0.7818609E-02  0.8828604E-01
       -2   -1    0    0    0  501  0.00000000000E+00  0.00000000000E+00  0.12650611356E+04  0.12650611356E+04  0.25500000920E-02 0.  1.
        2   -1    0    0  501    0  0.00000000000E+00  0.00000000000E+00 -0.49768729092E+03  0.49768729092E+03  0.25500000920E-02 0. -1.
    10030    2    1    2    0    0  0.00000000000E+00  0.00000000000E+00  0.76737384469E+03  0.17627484265E+04  0.15869528656E+04 0.  0.
        3    1    3    3  502    0 -0.56738145728E+02  0.74713608788E+03  0.93663262382E+02  0.75511877735E+03  0.10100000352E+00 0.  1.
       -3    1    3    3    0  502  0.56738145728E+02 -0.74713608788E+03  0.67371058230E+03  0.10076296492E+04  0.10100000352E+00 0. -1.
</event>
<event>
 5   0  0.5425525E-04  0.1596104E+04  0.7818609E-02  0.8822945E-01
       -1   -1    0    0    0  501  0.00000000000E+00  0.00000000000E+00  0.72454457228E+03  0.72454457230E+03  0.50400001928E-02 0.  1.
        1   -1    0    0  501    0  0.00000000000E+00  0.00000000000E+00 -0.87901647333E+03  0.87901647335E+03  0.50400001928E-02 0. -1.
    10030    2    1    2    0    0  0.00000000000E+00  0.00000000000E+00 -0.15447190105E+03  0.16035610456E+04  0.15961035239E+04 0.  0.
        5    1    3    3  502    0  0.55174793009E+03 -0.33496691472E+03  0.39424973310E+03  0.75636205243E+03  0.46999998093E+01 0.  1.
       -5    1    3    3    0  502 -0.55174793009E+03  0.33496691472E+03 -0.54872163415E+03  0.84719899321E+03  0.46999998093E+01 0. -1.
</event>
<event>
 5   0  0.5425525E-04  0.1501976E+04  0.7818609E-02  0.8883140E-01
        1   -1    0    0  501    0  0.00000000000E+00  0.00000000000E+00  0.84550165768E+03  0.84550165769E+03  0.50400001928E-02 0.  1.
       -1   -1    0    0    0  501  0.00000000000E+00  0.00000000000E+00 -0.66703931279E+03  0.66703931281E+03  0.50400001928E-02 0. -1.
    10030    2    1    2    0    0  0.00000000000E+00  0.00000000000E+00  0.17846234489E+03  0.15125409705E+04  0.15019758250E+04 0.  0.
        5    1    3    3  502    0  0.58194570379E+03  0.16706419737E+03 -0.35817939279E+03  0.70348121199E+03  0.46999998093E+01 0. -1.
       -5    1    3    3    0  502 -0.58194570379E+03 -0.16706419737E+03  0.53664173768E+03  0.80905975850E+03  0.46999998093E+01 0.  1.
</event>
<event>
 5   0  0.9844690E-04  0.1611940E+04  0.7818609E-02  0.8813246E-01
        2   -1    0    0  501    0  0.00000000000E+00  0.00000000000E+00  0.13259558730E+04  0.13259558730E+04  0.25500000920E-02 0.  1.
       -2   -1    0    0    0  501  0.00000000000E+00  0.00000000000E+00 -0.48990167482E+03  0.48990167482E+03  0.25500000920E-02 0. -1.
    10030    2    1    2    0    0  0.00000000000E+00  0.00000000000E+00  0.83605419820E+03  0.18158575478E+04  0.16119404492E+04 0.  0.
        3    1    3    3  502    0  0.54911454012E+03  0.89921108074E+02  0.10748624743E+04  0.12103478561E+04  0.10100000352E+00 0.  1.
       -3    1    3    3    0  502 -0.54911454012E+03 -0.89921108074E+02 -0.23880827612E+03  0.60550969174E+03  0.10100000352E+00 0. -1.
</event>
<event>
 5   0  0.1030027E-03  0.1590772E+04  0.7818609E-02  0.8826237E-01
       -2   -1    0    0    0  501  0.00000000000E+00  0.00000000000E+00  0.95866372571E+03  0.95866372572E+03  0.25500000920E-02 0. -1.
        2   -1    0    0  501    0  0.00000000000E+00  0.00000000000E+00 -0.65991734959E+03  0.65991734960E+03  0.25500000920E-02 0.  1.
    10030    2    1    2    0    0  0.00000000000E+00  0.00000000000E+00  0.29874637612E+03  0.16185810753E+04  0.15907719196E+04 0.  0.
        1    1    3    3  502    0  0.60581536719E+03 -0.70030090286E+02  0.66890922235E+03  0.90518286574E+03  0.50400001928E-02 0. -1.
       -1    1    3    3    0  502 -0.60581536719E+03  0.70030090286E+02 -0.37016284622E+03  0.71339820957E+03  0.50400001928E-02 0.  1.
</event>
<event>
 5   0  0.1000121E-03  0.1561648E+04  0.7818609E-02  0.8844462E-01
        2   -1    0    0  501    0  0.00000000000E+00  0.00000000000E+00  0.52198719670E+03  0.52198719671E+03  0.25500000920E-02 0. -1.
       -2   -1    0    0    0  501  0.00000000000E+00  0.00000000000E+00 -0.11680091390E+04  0.11680091390E+04  0.25500000920E-02 0.  1.
    10030    2    1    2    0    0  0.00000000000E+00  0.00000000000E+00 -0.64602194231E+03  0.16899963357E+04  0.15616476122E+04 0.  0.
        4    1    3    3  502    0  0.39536182035E+03  0.56758410867E+03 -0.71502828042E+03  0.99485161914E+03  0.12699999809E+01 0.  1.
       -4    1    3    3    0  502 -0.39536182035E+03 -0.56758410867E+03  0.69006338101E+02  0.69514471659E+03  0.12699999809E+01 0. -1.
</event>
<event>
 5   0  0.5281116E-04  0.1627587E+04  0.7818609E-02  0.8803777E-01
       -1   -1    0    0    0  501  0.00000000000E+00  0.00000000000E+00  0.10918575364E+04  0.10918575364E+04  0.50400001928E-02 0.  1.
        1   -1    0    0  501    0  0.00000000000E+00  0.00000000000E+00 -0.60654423117E+03  0.60654423119E+03  0.50400001928E-02 0. -1.
    10030    2    1    2    0    0  0.00000000000E+00  0.00000000000E+00  0.48531330524E+03  0.16984017676E+04  0.16275870361E+04 0.  0.
        2    1    3    3  502    0  0.34050293446E+03 -0.73018289753E+03  0.36232206125E+03  0.88339492205E+03  0.25500000920E-02 0.  1.
       -2    1    3    3    0  502 -0.34050293446E+03  0.73018289753E+03  0.12299124398E+03  0.81500684557E+03  0.25500000920E-02 0. -1.
</event>
<event>
 5   0  0.1037321E-03  0.1585933E+04  0.7818609E-02  0.8829237E-01
       -2   -1    0    0    0  501  0.00000000000E+00  0.00000000000E+00  0.76479221522E+03  0.76479221522E+03  0.25500000920E-02 0.  1.
        2   -1    0    0  501    0  0.00000000000E+00  0.00000000000E+00 -0.82217843337E+03  0.82217843337E+03  0.25500000920E-02 0. -1.
    10030    2    1    2    0    0  0.00000000000E+00  0.00000000000E+00 -0.57386218154E+02  0.15869706486E+04  0.15859327418E+04 0.  0.
        5    1    3    3  502    0  0.25237010279E+03 -0.58738535888E+03 -0.49810708139E+03  0.81045973567E+03  0.46999998093E+01 0. -1.
       -5    1    3    3    0  502 -0.25237010279E+03  0.58738535888E+03  0.44072086323E+03  0.77651091293E+03  0.46999998093E+01 0.  1.
</event>
<event>
 5   0  0.5532881E-04  0.1653085E+04  0.7818609E-02  0.8788584E-01
        1   -1    0    0  501    0  0.00000000000E+00  0.00000000000E+00  0.11271931103E+04  0.11271931103E+04  0.50400001928E-02 0. -1.
       -1   -1    0    0    0  501  0.00000000000E+00  0.00000000000E+00 -0.60608260317E+03  0.60608260319E+03  0.50400001928E-02 0.  1.
    10030    2    1    2    0    0  0.00000000000E+00  0.00000000000E+00  0.52111050713E+03  0.17332757135E+04  0.16530845527E+04 0.  0.
        4    1    3    3  502    0  0.20378952559E+03 -0.76571129418E+03  0.13928925154E+02  0.79248948550E+03  0.12699999809E+01 0.  1.
       -4    1    3    3    0  502 -0.20378952559E+03  0.76571129418E+03  0.50718158197E+03  0.94078622799E+03  0.12699999809E+01 0. -1.
</event>
<event>
 5   0  0.1030027E-03  0.1600457E+04  0.7818609E-02  0.8820268E-01
        2   -1    0    0  501    0  0.00000000000E+00  0.00000000000E+00  0.15308039648E+04  0.15308039648E+04  0.25500000920E-02 0. -1.
       -2   -1    0    0    0  501  0.00000000000E+00  0.00000000000E+00 -0.41831964938E+03  0.41831964938E+03  0.25500000920E-02 0.  1.
    10030    2    1    2    0    0  0.00000000000E+00  0.00000000000E+00  0.11124843154E+04  0.19491236142E+04  0.16004566571E+04 0.  0.
        1    1    3    3  502    0  0.42292197560E+03  0.21814700781E+03  0.13397631957E+04  0.14217652883E+04  0.50400001928E-02 0. -1.
       -1    1    3    3    0  502 -0.42292197560E+03 -0.21814700781E+03 -0.22727888025E+03  0.52735832590E+03  0.50400001928E-02 0.  1.
</event>
<event>
 5   0  0.1037321E-03  0.1563047E+04  0.7818609E-02  0.8843577E-01
        2   -1    0    0  501    0  0.00000000000E+00  0.00000000000E+00  0.59808290515E+03  0.59808290515E+03  0.25500000920E-02 0. -1.
       -2   -1    0    0    0  501  0.00000000000E+00  0.00000000000E+00 -0.10212273824E+04  0.10212273824E+04  0.25500000920E-02 0.  1.
    10030    2    1    2    0    0  0.00000000000E+00  0.00000000000E+00 -0.42314447726E+03  0.16193102876E+04  0.15630465632E+04 0.  0.
        5    1    3    3  502    0  0.22241223889E+03 -0.30944624354E+03  0.49528726330E+03  0.62494459341E+03  0.46999998093E+01 0. -1.
       -5    1    3    3    0  502 -0.22241223889E+03  0.30944624354E+03 -0.91843174056E+03  0.99436569415E+03  0.46999998093E+01 0.  1.
</event>
<event>
 5   0  0.1057872E-03  0.1590211E+04  0.7818609E-02  0.8826585E-01
       -2   -1    0    0    0  501  0.00000000000E+00  0.00000000000E+00  0.53482362055E+03  0.53482362056E+03  0.25500000920E-02 0. -1.
        2   -1    0    0  501    0  0.00000000000E+00  0.00000000000E+00 -0.11820577095E+04  0.11820577095E+04  0.25500000920E-02 0.  1.
    10030    2    1    2    0    0  0.00000000000E+00  0.00000000000E+00 -0.64723408897E+03  0.17168813301E+04  0.15902105319E+04 0.  0.
        2    1    3    3  502    0  0.77463312143E+03 -0.17791734055E+03 -0.34730390919E+03  0.86737019677E+03  0.25500000920E-02 0.  1.
       -2    1    3    3    0  502 -0.77463312143E+03  0.17791734055E+03 -0.29993017979E+03  0.84951113333E+03  0.25500000920E-02 0. -1.
</event>
<event>
 5   0  0.5288658E-04  0.1764375E+04  0.7818609E-02  0.8725477E-01
        1   -1    0    0  501    0  0.00000000000E+00  0.00000000000E+00  0.70261640947E+03  0.70261640949E+03  0.50400001928E-02 0.  1.
       -1   -1    0    0    0  501  0.00000000000E+00  0.00000000000E+00 -0.11076528653E+04  0.11076528653E+04  0.50400001928E-02 0. -1.
    10030    2    1    2    0    0  0.00000000000E+00  0.00000000000E+00 -0.40503645587E+03  0.18102692748E+04  0.17643753333E+04 0.  0.
        1    1    3    3  502    0  0.48070394214E+03  0.50597214050E+02 -0.95969709768E+03  0.10745486854E+04  0.50400001928E-02 0. -1.
       -1    1    3    3    0  502 -0.48070394214E+03 -0.50597214050E+02  0.55466064181E+03  0.73572058939E+03  0.50400001928E-02 0.  1.
</event>
<event>
 5   0  0.5532881E-04  0.1608277E+04  0.7818609E-02  0.8815479E-01
        1   -1    0    0  501    0  0.00000000000E+00  0.00000000000E+00  0.19994762498E+04  0.19994762498E+04  0.50400001928E-02 0. -1.
       -1   -1    0    0    0  501  0.00000000000E+00  0.00000000000E+00 -0.32340416520E+03  0.32340416524E+03  0.50400001928E-02 0.  1.
    10030    2    1    2    0    0  0.00000000000E+00  0.00000000000E+00  0.16760720846E+04  0.23228804150E+04  0.16082772739E+04 0.  0.
        4    1    3    3  502    0  0.39638316797E+03 -0.38093930987E+03 -0.95803859214E+01  0.54984340530E+03  0.12699999809E+01 0.  1.
       -4    1    3    3    0  502 -0.39638316797E+03  0.38093930987E+03  0.16856524705E+04  0.17730370097E+04  0.12699999809E+01 0. -1.
</event>
<event>
 5   0  0.1057872E-03  0.1670325E+04  0.7818609E-02  0.8778473E-01
        2   -1    0    0  501    0  0.00000000000E+00  0.00000000000E+00  0.14171761936E+04  0.14171761936E+04  0.25500000920E-02 0.  1.
       -2   -1    0    0    0  501  0.00000000000E+00  0.00000000000E+00 -0.49217309929E+03  0.49217309930E+03  0.25500000920E-02 0. -1.
    10030    2    1    2    0    0  0.00000000000E+00  0.00000000000E+00  0.92500309435E+03  0.19093492929E+04  0.16703245187E+04 0.  0.
        2    1    3    3  502    0 -0.19480719564E+03 -0.18164085821E+03 -0.44232086706E+03  0.51632450483E+03  0.25500000920E-02 0. -1.
       -2    1    3    3    0  502  0.19480719564E+03  0.18164085821E+03  0.13673239614E+04  0.13930247881E+04  0.25500000920E-02 0.  1.
</event>
<event>
 5   0  0.1037321E-03  0.1591643E+04  0.7818609E-02  0.8825699E-01
       -2   -1    0    0    0  501  0.00000000000E+00  0.00000000000E+00  0.30688740484E+03  0.30688740485E+03  0.25500000920E-02 0.  1.
        2   -1    0    0  501    0  0.00000000000E+00  0.00000000000E+00 -0.20637266368E+04  0.20637266368E+04  0.25500000920E-02 0. -1.
    10030    2    1    2    0    0  0.00000000000E+00  0.00000000000E+00 -0.17568392320E+04  0.23706140417E+04  0.15916428140E+04 0.  0.
        5    1    3    3  502    0 -0.53941302014E+03  0.54153870278E+03 -0.12083811461E+04  0.14298383326E+04  0.46999998093E+01 0. -1.
       -5    1    3    3    0  502  0.53941302014E+03 -0.54153870278E+03 -0.54845808584E+03  0.94077570910E+03  0.46999998093E+01 0.  1.
</event>
<event>
 5   0  0.5532881E-04  0.1605028E+04  0.7818609E-02  0.8817465E-01
       -1   -1    0    0    0  501  0.00000000000E+00  0.00000000000E+00  0.36834575614E+03  0.36834575618E+03  0.50400001928E-02 0. -1.
        1   -1    0    0  501    0  0.00000000000E+00  0.00000000000E+00 -0.17484361233E+04  0.17484361233E+04  0.50400001928E-02 0.  1.
    10030    2    1    2    0    0  0.00000000000E+00  0.00000000000E+00 -0.13800903672E+04  0.21167818795E+04  0.16050283810E+04 0.  0.
        4    1    3    3  502    0 -0.14724539770E+03  0.64008104327E+03 -0.81884429379E+02  0.66188490070E+03  0.12699999809E+01 0. -1.
       -4    1    3    3    0  502  0.14724539770E+03 -0.64008104327E+03 -0.12982059378E+04  0.14548969788E+04  0.12699999809E+01 0.  1.
</event>
<event>
 5   0  0.5281116E-04  0.1584523E+04  0.7818609E-02  0.8830113E-01
       -1   -1    0    0    0  501  0.00000000000E+00  0.00000000000E+00  0.80375214991E+03  0.80375214993E+03  0.50400001928E-02 0. -1.
        1   -1    0    0  501    0  0.00000000000E+00  0.00000000000E+00 -0.78093514828E+03  0.78093514830E+03  0.50400001928E-02 0.  1.
    10030    2    1    2    0    0  0.00000000000E+00  0.00000000000E+00  0.22817001628E+02  0.15846872982E+04  0.15845230253E+04 0.  0.
        2    1    3    3  502    0 -0.75309316414E+03  0.13629665272E+03  0.21625212918E+03  0.79529307479E+03  0.25500000920E-02 0. -1.
       -2    1    3    3    0  502  0.75309316414E+03 -0.13629665272E+03 -0.19343512755E+03  0.78939422344E+03  0.25500000920E-02 0.  1.
</event>
<event>
 5   0  0.1000121E-03  0.1602992E+04  0.7818609E-02  0.8818712E-01
       -2   -1    0    0    0  501  0.00000000000E+00  0.00000000000E+00  0.69247119792E+03  0.69247119792E+03  0.25500000920E-02 0.  1.
        2   -1    0    0  501    0  0.00000000000E+00  0.00000000000E+00 -0.92768555474E+03  0.92768555475E+03  0.25500000920E-02 0. -1.
    10030    2    1    2    0    0  0.00000000000E+00  0.00000000000E+00 -0.23521435683E+03  0.16201567527E+04  0.16029916124E+04 0.  0.
        4    1    3    3  502    0 -0.14368467778E+03 -0.15641767977E+02  0.67918990624E+03  0.69439937584E+03  0.12699999809E+01 0.  1.
       -4    1    3    3    0  502  0.14368467778E+03  0.15641767977E+02 -0.91440426306E+03  0.92575737682E+03  0.12699999809E+01 0. -1.
</event>
<event>
 5   0  0.5425525E-04  0.1209278E+04  0.7818609E-02  0.9104774E-01
        1   -1    0    0  501    0  0.00000000000E+00  0.00000000000E+00  0.77126558480E+03  0.77126558482E+03  0.50400001928E-02 0.  1.
       -1   -1    0    0    0  501  0.00000000000E+00  0.00000000000E+00 -0.47401106717E+03  0.47401106720E+03  0.50400001928E-02 0. -1.
    10030    2    1    2    0    0  0.00000000000E+00  0.00000000000E+00  0.29725451763E+03  0.12452766520E+04  0.12092781697E+04 0.  0.
        5    1    3    3  502    0  0.42942346214E+02  0.45581690262E+03  0.55529229274E+03  0.71971154929E+03  0.46999998093E+01 0.  1.
       -5    1    3    3    0  502 -0.42942346214E+02 -0.45581690262E+03 -0.25803777511E+03  0.52556510272E+03  0.46999998093E+01 0. -1.
</event>
<event>
 5   0  0.1000121E-03  0.1583758E+04  0.7818609E-02  0.8830589E-01
        2   -1    0    0  501    0  0.00000000000E+00  0.00000000000E+00  0.78404553002E+03  0.78404553002E+03  0.25500000920E-02 0. -1.
       -2   -1    0    0    0  501  0.00000000000E+00  0.00000000000E+00 -0.79979084222E+03  0.79979084223E+03  0.25500000920E-02 0.  1.
    10030    2    1    2    0    0  0.00000000000E+00  0.00000000000E+00 -0.15745312209E+02  0.15838363722E+04  0.15837581063E+04 0.  0.
        4    1    3    3  502    0 -0.57634087728E+03 -0.20247516263E+02  0.53482538170E+03  0.78652308964E+03  0.12699999809E+01 0. -1.
       -4    1    3    3    0  502  0.57634087728E+03  0.20247516263E+02 -0.55057069391E+03  0.79731328261E+03  0.12699999809E+01 0.  1.
</event>
<event>
 5   0  0.1000121E-03  0.1593463E+04  0.7818609E-02  0.8824574E-01
       -2   -1    0    0    0  501  0.00000000000E+00  0.00000000000E+00  0.52888266014E+03  0.52888266015E+03  0.25500000920E-02 0.  1.
        2   -1    0    0  501    0  0.00000000000E+00  0.00000000000E+00 -0.12002306555E+04  0.12002306555E+04  0.25500000920E-02 0. -1.
    10030    2    1    2    0    0  0.00000000000E+00  0.00000000000E+00 -0.67134799536E+03  0.17291133157E+04  0.15934631240E+04 0.  0.
        4    1    3    3  502    0  0.33251356065E+02 -0.54653349375E+00 -0.11994760883E+04  0.11999376862E+04  0.12699999809E+01 0. -1.
       -4    1    3    3    0  502 -0.33251356065E+02  0.54653349375E+00  0.52812809295E+03  0.52917562948E+03  0.12699999809E+01 0.  1.
</event>
<event>
 5   0  0.9844690E-04  0.9976123E+03  0.7818609E-02  0.9311167E-01
       -2   -1    0    0    0  501  0.00000000000E+00  0.00000000000E+00  0.32099879033E+03  0.32099879034E+03  0.25500000920E-02 0. -1.
        2   -1    0    0  501    0  0.00000000000E+00  0.00000000000E+00 -0.77510446140E+03  0.77510446140E+03  0.25500000920E-02 0.  1.
    10030    2    1    2    0    0  0.00000000000E+00  0.00000000000E+00 -0.45410567107E+03  0.10961032517E+04  0.99761233853E+03 0.  0.
        3    1    3    3  502    0  0.15007804287E+03  0.36203100959E+03  0.11198528223E+03  0.40759119777E+03  0.10100000352E+00 0. -1.
       -3    1    3    3    0  502 -0.15007804287E+03 -0.36203100959E+03 -0.56609095330E+03  0.68851205398E+03  0.10100000352E+00 0.  1.
</event>
<event>
 5   0  0.5281116E-04  0.1581496E+04  0.7818609E-02  0.8831997E-01
       -1   -1    0    0    0  501  0.00000000000E+00  0.00000000000E+00  0.63529942309E+03  0.63529942311E+03  0.50400001928E-02 0. -1.
        1   -1    0    0  501    0  0.00000000000E+00  0.00000000000E+00 -0.98423209536E+03  0.98423209537E+03  0.50400001928E-02 0.  1.
    10030    2    1    2    0    0  0.00000000000E+00  0.00000000000E+00 -0.34893267227E+03  0.16195315185E+04  0.15814955990E+04 0.  0.
        2    1    3    3  502    0 -0.55539772288E+03 -0.49954891147E+03 -0.44006158733E+03  0.86698901157E+03  0.25500000920E-02 0.  1.
       -2    1    3    3    0  502  0.55539772288E+03  0.49954891147E+03  0.91128915059E+02  0.75254250691E+03  0.25500000920E-02 0. -1.
</event>
<event>
 5   0  0.5532881E-04  0.1608217E+04  0.7818609E-02  0.8815516E-01
       -1   -1    0    0    0  501  0.00000000000E+00  0.00000000000E+00  0.64450374464E+03  0.64450374466E+03  0.50400001928E-02 0.  1.
        1   -1    0    0  501    0  0.00000000000E+00  0.00000000000E+00 -0.10032381590E+04  0.10032381590E+04  0.50400001928E-02 0. -1.
    10030    2    1    2    0    0  0.00000000000E+00  0.00000000000E+00 -0.35873441436E+03  0.16477419037E+04  0.16082173364E+04 0.  0.
        4    1    3    3  502    0  0.17655400597E+03 -0.47090384831E+03 -0.82221649210E+03  0.96382743485E+03  0.12699999809E+01 0. -1.
       -4    1    3    3    0  502 -0.17655400597E+03  0.47090384831E+03  0.46348207774E+03  0.68391446882E+03  0.12699999809E+01 0.  1.
</event>
<event>
 5   0  0.5425525E-04  0.1572061E+04  0.7818609E-02  0.8837898E-01
        1   -1    0    0  501    0  0.00000000000E+00  0.00000000000E+00  0.13002113298E+04  0.13002113298E+04  0.50400001928E-02 0. -1.
       -1   -1    0    0    0  501  0.00000000000E+00  0.00000000000E+00 -0.47518746645E+03  0.47518746648E+03  0.50400001928E-02 0.  1.
    10030    2    1    2    0    0  0.00000000000E+00  0.00000000000E+00  0.82502386338E+03  0.17753987963E+04  0.15720612300E+04 0.  0.
        5    1    3    3  502    0 -0.56096791270E+03  0.54724933293E+03  0.48079018571E+03  0.91942815061E+03  0.46999998093E+01 0.  1.
       -5    1    3    3    0  502  0.56096791270E+03 -0.54724933293E+03  0.34423367767E+03  0.85597064570E+03  0.46999998093E+01 0. -1.
</event>
<event>
 5   0  0.1030027E-03  0.1596300E+04  0.7818609E-02  0.8822824E-01
        2   -1    0    0  501    0  0.00000000000E+00  0.00000000000E+00  0.19452201637E+04  0.19452201637E+04  0.25500000920E-02 0.  1.
       -2   -1    0    0    0  501  0.00000000000E+00  0.00000000000E+00 -0.32749163698E+03  0.32749163699E+03  0.25500000920E-02 0. -1.
    10030    2    1    2    0    0  0.00000000000E+00  0.00000000000E+00  0.16177285268E+04  0.22727118007E+04  0.15962998913E+04 0.  0.
        1    1    3    3  502    0  0.61464716312E+03 -0.48545921940E+03  0.10274974213E+04  0.12919801623E+04  0.50400001928E-02 0.  1.
       -1    1    3    3    0  502 -0.61464716312E+03  0.48545921940E+03  0.59023110541E+03  0.98073163844E+03  0.50400001928E-02 0. -1.
</event>
<event>
 5   0  0.1037321E-03  0.1478233E+04  0.7818609E-02  0.8899058E-01
        2   -1    0    0  501    0  0.00000000000E+00  0.00000000000E+00  0.12297687279E+04  0.12297687279E+04  0.25500000920E-02 0.  1.
       -2   -1    0    0    0  501  0.00000000000E+00  0.00000000000E+00 -0.44422448476E+03  0.44422448476E+03  0.25500000920E-02 0. -1.
    10030    2    1    2    0    0  0.00000000000E+00  0.00000000000E+00  0.78554424310E+03  0.16739932126E+04  0.14782332421E+04 0.  0.
        5    1    3    3  502    0 -0.60381125013E+03  0.18833272603E+03  0.82578945268E+03  0.10401959198E+04  0.46999998093E+01 0.  1.
       -5    1    3    3    0  502  0.60381125013E+03 -0.18833272603E+03 -0.40245209572E+02  0.63379729280E+03  0.46999998093E+01 0. -1.
</event>
<event>
 5   0  0.1000121E-03  0.1484786E+04  0.7818609E-02  0.8894633E-01
       -2   -1    0    0    0  501  0.00000000000E+00  0.00000000000E+00  0.36849455435E+03  0.36849455436E+03  0.25500000920E-02 0. -1.
        2   -1    0    0  501    0  0.00000000000E+00  0.00000000000E+00 -0.14956734408E+04  0.14956734408E+04  0.25500000920E-02 0.  1.
    10030    2    1    2    0    0  0.00000000000E+00  0.00000000000E+00 -0.11271788865E+04  0.18641679952E+04  0.14847862042E+04 0.  0.
        4    1    3    3  502    0 -0.54762829788E+03 -0.81284664070E+02  0.57403398430E+02  0.55659744188E+03  0.12699999809E+01 0. -1.
       -4    1    3    3    0  502  0.54762829788E+03  0.81284664070E+02 -0.11845822849E+04  0.13075705533E+04  0.12699999809E+01 0.  1.
</event>
<event>
 5   0  0.5425525E-04  0.1690566E+04  0.7818609E-02  0.8766764E-01
        1   -1    0    0  501    0  0.00000000000E+00  0.00000000000E+00  0.63801075412E+03  0.63801075414E+03  0.50400001928E-02 0.  1.
       -1   -1    0    0    0  501  0.00000000000E+00  0.00000000000E+00 -0.11198917232E+04  0.11198917232E+04  0.50400001928E-02 0. -1.
    10030    2    1    2    0    0  0.00000000000E+00  0.00000000000E+00 -0.48188096911E+03  0.17579024774E+04  0.16905655419E+04 0.  0.
        5    1    3    3  502    0  0.49112016372E+03 -0.29227876716E+03  0.40664551579E+03  0.70143321738E+03  0.46999998093E+01 0.  1.
       -5    1    3    3    0  502 -0.49112016372E+03  0.29227876716E+03 -0.88852648490E+03  0.10564692600E+04  0.46999998093E+01 0. -1.
</event>
<event>
 5   0  0.5288658E-04  0.1736303E+04  0.7818609E-02  0.8740926E-01
       -1   -1    0    0    0  501  0.00000000000E+00  0.00000000000E+00  0.56781691990E+03  0.56781691992E+03  0.50400001928E-02 0.  1.
        1   -1    0    0  501    0  0.00000000000E+00  0.00000000000E+00 -0.13273415089E+04  0.13273415089E+04  0.50400001928E-02 0. -1.
    10030    2    1    2    0    0  0.00000000000E+00  0.00000000000E+00 -0.75952458902E+03  0.18951584288E+04  0.17363029313E+04 0.  0.
        1    1    3    3  502    0  0.18141543627E+03 -0.32652897682E+03  0.47561702884E+03  0.60476796490E+03  0.50400001928E-02 0.  1.
       -1    1    3    3    0  502 -0.18141543627E+03  0.32652897682E+03 -0.12351416179E+04  0.12903904639E+04  0.50400001928E-02 0. -1.
</event>
<event>
 5   0  0.5281116E-04  0.1594192E+04  0.7818609E-02  0.8824124E-01
       -1   -1    0    0    0  501  0.00000000000E+00  0.00000000000E+00  0.55942487049E+03  0.55942487051E+03  0.50400001928E-02 0. -1.
        1   -1    0    0  501    0  0.00000000000E+00  0.00000000000E+00 -0.11357421874E+04  0.11357421874E+04  0.50400001928E-02 0.  1.
    10030    2    1    2    0    0  0.00000000000E+00  0.00000000000E+00 -0.57631731690E+03  0.16951670579E+04  0.15941924929E+04 0.  0.
        2    1    3    3  502    0  0.24939870401E+03 -0.42346367037E+03 -0.95547588378E+03  0.10744558428E+04  0.25500000920E-02 0.  1.
       -2    1    3    3    0  502 -0.24939870401E+03  0.42346367037E+03  0.37915856689E+03  0.62071121509E+03  0.25500000920E-02 0. -1.
</event>
<event>
 5   0  0.5281116E-04  0.1454921E+04  0.7818609E-02  0.8914996E-01
       -1   -1    0    0    0  501  0.00000000000E+00  0.00000000000E+00  0.63390210338E+03  0.63390210340E+03  0.50400001928E-02 0.  1.
        1   -1    0    0  501    0  0.00000000000E+00  0.00000000000E+00 -0.83482745100E+03  0.83482745101E+03  0.50400001928E-02 0. -1.
    10030    2    1    2    0    0  0.00000000000E+00  0.00000000000E+00 -0.20092534762E+03  0.14687295544E+04  0.14549211349E+04 0.  0.
        2    1    3    3  502    0  0.63575679398E+03 -0.23644543341E+03 -0.36583731535E+03  0.77066859634E+03  0.25500000920E-02 0. -1.
       -2    1    3    3    0  502 -0.63575679398E+03  0.23644543341E+03  0.16491196773E+03  0.69806095807E+03  0.25500000920E-02 0.  1.
</event>
<event>
 5   0  0.5623061E-04  0.1583594E+04  0.7818609E-02  0.8830691E-01
        1   -1    0    0  501    0  0.00000000000E+00  0.00000000000E+00  0.10056753522E+04  0.10056753522E+04  0.50400001928E-02 0.  1.
       -1   -1    0    0    0  501  0.00000000000E+00  0.00000000000E+00 -0.62340431638E+03  0.62340431640E+03  0.50400001928E-02 0. -1.
    10030    2    1    2    0    0  0.00000000000E+00  0.00000000000E+00  0.38227103580E+03  0.16290796686E+04  0.15835938311E+04 0.  0.
        3    1    3    3  502    0 -0.10389461507E+03 -0.10952960215E+03 -0.60846203940E+03  0.62691059041E+03  0.10100000352E+00 0. -1.
       -3    1    3    3    0  502  0.10389461507E+03  0.10952960215E+03  0.99073307519E+03  0.10021690782E+04  0.10100000352E+00 0.  1.
</event>
<event>
 5   0  0.1030027E-03  0.1621624E+04  0.7818609E-02  0.8807373E-01
       -2   -1    0    0    0  501  0.00000000000E+00  0.00000000000E+00  0.40723062010E+03  0.40723062011E+03  0.25500000920E-02 0. -1.
        2   -1    0    0  501    0  0.00000000000E+00  0.00000000000E+00 -0.16143576671E+04  0.16143576671E+04  0.25500000920E-02 0.  1.
    10030    2    1    2    0    0  0.00000000000E+00  0.00000000000E+00 -0.12071270470E+04  0.20215882873E+04  0.16216237219E+04 0.  0.
        1    1    3    3  502    0 -0.54018481326E+03 -0.67973766233E+02  0.14545697553E+03  0.56354041304E+03  0.50400001928E-02 0. -1.
       -1    1    3    3    0  502  0.54018481326E+03  0.67973766233E+02 -0.13525840226E+04  0.14580478742E+04  0.50400001928E-02 0.  1.
</event>
<event>
 5   0  0.5281116E-04  0.1627521E+04  0.7818609E-02  0.8803817E-01
        1   -1    0    0  501    0  0.00000000000E+00  0.00000000000E+00  0.94437287507E+03  0.94437287509E+03  0.50400001928E-02 0.  1.
       -1   -1    0    0    0  501  0.00000000000E+00  0.00000000000E+00 -0.70121223885E+03  0.70121223887E+03  0.50400001928E-02 0. -1.
    10030    2    1    2    0    0  0.00000000000E+00  0.00000000000E+00  0.24316063622E+03  0.16455851140E+04  0.16275205904E+04 0.  0.
        2    1    3    3  502    0 -0.62409735044E+03 -0.48010239996E+03 -0.86150790337E+02  0.79209707483E+03  0.25500000920E-02 0.  1.
       -2    1    3    3    0  502  0.62409735044E+03  0.48010239996E+03  0.32931142655E+03  0.85348803913E+03  0.25500000920E-02 0. -1.
</event>
<event>
 5   0  0.5532881E-04  0.1574258E+04  0.7818609E-02  0.8836520E-01
       -1   -1    0    0    0  501  0.00000000000E+00  0.00000000000E+00  0.36241492000E+03  0.36241492003E+03  0.50400001928E-02 0. -1.
        1   -1    0    0  501    0  0.00000000000E+00  0.00000000000E+00 -0.17095650097E+04  0.17095650097E+04  0.50400001928E-02 0.  1.
    10030    2    1    2    0    0  0.00000000000E+00  0.00000000000E+00 -0.13471500897E+04  0.20719799297E+04  0.15742577505E+04 0.  0.
        4    1    3    3  502    0 -0.57846466478E+03  0.10515599720E+03 -0.13623838105E+04  0.14838363832E+04  0.12699999809E+01 0.  1.
       -4    1    3    3    0  502  0.57846466478E+03 -0.10515599720E+03  0.15233720814E+02  0.58814354651E+03  0.12699999809E+01 0. -1.
</event>
<event>
 5   0  0.1000121E-03  0.1589750E+04  0.7818609E-02  0.8826870E-01
        2   -1    0    0  501    0  0.00000000000E+00  0.00000000000E+00  0.24207791242E+04  0.24207791242E+04  0.25500000920E-02 0.  1.
       -2   -1    0    0    0  501  0.00000000000E+00  0.00000000000E+00 -0.26100124576E+03  0.26100124577E+03  0.25500000920E-02 0. -1.
    10030    2    1    2    0    0  0.00000000000E+00  0.00000000000E+00  0.21597778784E+04  0.26817803699E+04  0.15897501277E+04 0.  0.
        4    1    3    3  502    0  0.56487225022E+03  0.55829545378E+03  0.11345587018E+04  0.13849186017E+04  0.12699999809E+01 0. -1.
       -4    1    3    3    0  502 -0.56487225022E+03 -0.55829545378E+03  0.10252191766E+04  0.12968617682E+04  0.12699999809E+01 0.  1.
</event>
<event>
 5   0  0.5425525E-04  0.1628341E+04  0.7818609E-02  0.8803324E-01
        1   -1    0    0  501    0  0.00000000000E+00  0.00000000000E+00  0.97793466613E+03  0.97793466614E+03  0.50400001928E-02 0.  1.
       -1   -1    0    0    0  501  0.00000000000E+00  0.00000000000E+00 -0.67783028381E+03  0.67783028383E+03  0.50400001928E-02 0. -1.
    10030    2    1    2    0    0  0.00000000000E+00  0.00000000000E+00  0.30010438231E+03  0.16557649500E+04  0.16283411587E+04 0.  0.
        5    1    3    3  502    0 -0.30967088222E+03  0.60598956140E+03  0.60449304717E+03  0.91024905268E+03  0.46999998093E+01 0.  1.
       -5    1    3    3    0  502  0.30967088222E+03 -0.60598956140E+03 -0.30438866486E+03  0.74551589729E+03  0.46999998093E+01 0. -1.
</event>
<event>
 5   0  0.5425525E-04  0.1574740E+04  0.7818609E-02  0.8836218E-01
        1   -1    0    0  501    0  0.00000000000E+00  0.00000000000E+00  0.60130792630E+03  0.60130792633E+03  0.50400001928E-02 0. -1.
       -1   -1    0    0    0  501  0.00000000000E+00  0.00000000000E+00 -0.10310047636E+04  0.10310047636E+04  0.50400001928E-02 0.  1.
    10030    2    1    2    0    0  0.00000000000E+00  0.00000000000E+00 -0.42969683727E+03  0.16323126899E+04  0.15747397708E+04 0.  0.
        5    1    3    3  502    0 -0.39576091710E+03 -0.39098774407E+03 -0.79238193332E+03  0.96818868913E+03  0.46999998093E+01 0.  1.
       -5    1    3    3    0  502  0.39576091710E+03  0.39098774407E+03  0.36268509605E+03  0.66412400078E+03  0.46999998093E+01 0. -1.
</event>
<event>
 5   0  0.5281116E-04  0.1582553E+04  0.7818609E-02  0.8831339E-01
       -1   -1    0    0    0  501  0.00000000000E+00  0.00000000000E+00  0.90784940210E+03  0.90784940211E+03  0.50400001928E-02 0.  1.
        1   -1    0    0  501    0  0.00000000000E+00  0.00000000000E+00 -0.68967212726E+03  0.68967212727E+03  0.50400001928E-02 0. -1.
    10030    2    1    2    0    0  0.00000000000E+00  0.00000000000E+00  0.21817727484E+03  0.15975215294E+04  0.15825529102E+04 0.  0.
        2    1    3    3  502    0  0.39691314300E+03 -0.61784526028E+03  0.40657183432E+03  0.83938874498E+03  0.25500000920E-02 0.  1.
       -2    1    3    3    0  502 -0.39691314300E+03  0.61784526028E+03 -0.18839455948E+03  0.75813278440E+03  0.25500000920E-02 0. -1.
</event>
<event>
 5   0  0.1030027E-03  0.1592535E+04  0.7818609E-02  0.8825147E-01
       -2   -1    0    0    0  501  0.00000000000E+00  0.00000000000E+00  0.25307290393E+03  0.25307290395E+03  0.25500000920E-02 0.  1.
        2   -1    0    0  501    0  0.00000000000E+00  0.00000000000E+00 -0.25053740548E+04  0.25053740548E+04  0.25500000920E-02 0. -1.
    10030    2    1    2    0    0  0.00000000000E+00  0.00000000000E+00 -0.22523011509E+04  0.27584469588E+04  0.15925354470E+04 0.  0.
        1    1    3    3  502    0 -0.34352481299E+03 -0.45306789498E+03 -0.16056712394E+03  0.59081436672E+03  0.50400001928E-02 0.  1.
       -1    1    3    3    0  502  0.34352481299E+03  0.45306789498E+03 -0.20917340269E+04  0.21676325920E+04  0.50400001928E-02 0. -1.
</event>
<event>
 5   0  0.5281116E-04  0.1591069E+04  0.7818609E-02  0.8826054E-01
       -1   -1    0    0    0  501  0.00000000000E+00  0.00000000000E+00  0.43588809979E+03  0.43588809982E+03  0.50400001928E-02 0.  1.
        1   -1    0    0  501    0  0.00000000000E+00  0.00000000000E+00 -0.14519204354E+04  0.14519204354E+04  0.50400001928E-02 0. -1.
    10030    2    1    2    0    0  0.00000000000E+00  0.00000000000E+00 -0.10160323356E+04  0.18878085352E+04  0.15910686216E+04 0.  0.
        2    1    3    3  502    0 -0.33640428494E+03  0.85387503727E+01 -0.13633149434E+04  0.14042323128E+04  0.25500000920E-02 0. -1.
       -2    1    3    3    0  502  0.33640428494E+03 -0.85387503727E+01  0.34728260786E+03  0.48357622244E+03  0.25500000920E-02 0.  1.
</event>
<event>
 5   0  0.1030027E-03  0.1609008E+04  0.7818609E-02  0.8815033E-01
       -2   -1    0    0    0  501  0.00000000000E+00  0.00000000000E+00  0.46167483806E+03  0.46167483806E+03  0.25500000920E-02 0.  1.
        2   -1    0    0  501    0  0.00000000000E+00  0.00000000000E+00 -0.14019104242E+04  0.14019104242E+04  0.25500000920E-02 0. -1.
    10030    2    1    2    0    0  0.00000000000E+00  0.00000000000E+00 -0.94023558611E+03  0.18635852622E+04  0.16090081020E+04 0.  0.
        1    1    3    3  502    0  0.41118325777E+02  0.79882247183E+03 -0.37035807156E+03  0.88146080991E+03  0.50400001928E-02 0.  1.
       -1    1    3    3    0  502 -0.41118325777E+02 -0.79882247183E+03 -0.56987751455E+03  0.98212445231E+03  0.50400001928E-02 0. -1.
</event>
<event>
 5   0  0.9844690E-04  0.1601435E+04  0.7818609E-02  0.8819667E-01
        2   -1    0    0  501    0  0.00000000000E+00  0.00000000000E+00  0.15321925252E+04  0.15321925252E+04  0.25500000920E-02 0. -1.
       -2   -1    0    0    0  501  0.00000000000E+00  0.00000000000E+00 -0.41845188685E+03  0.41845188686E+03  0.25500000920E-02 0.  1.
    10030    2    1    2    0    0  0.00000000000E+00  0.00000000000E+00  0.11137406383E+04  0.19506444120E+04  0.16014354226E+04 0.  0.
        3    1    3    3  502    0  0.48289376375E+03 -0.11972597292E+03 -0.20733798129E+03  0.53898955866E+03  0.10100000352E+00 0.  1.
       -3    1    3    3    0  502 -0.48289376375E+03  0.11972597292E+03  0.13210786196E+04  0.14116548534E+04  0.10100000352E+00 0. -1.
</event>
<event>
 5   0  0.9844690E-04  0.1538373E+04  0.7818609E-02  0.8859329E-01
       -2   -1    0    0    0  501  0.00000000000E+00  0.00000000000E+00  0.55051711157E+03  0.55051711158E+03  0.25500000920E-02 0.  1.
        2   -1    0    0  501    0  0.00000000000E+00  0.00000000000E+00 -0.10747124714E+04  0.10747124714E+04  0.25500000920E-02 0. -1.
    10030    2    1    2    0    0  0.00000000000E+00  0.00000000000E+00 -0.52419535983E+03  0.16252295830E+04  0.15383726538E+04 0.  0.
        3    1    3    3  502    0  0.16482703389E+03  0.57245400805E+03  0.25197207832E+03  0.64680868956E+03  0.10100000352E+00 0.  1.
       -3    1    3    3    0  502 -0.16482703389E+03 -0.57245400805E+03 -0.77616743815E+03  0.97842089342E+03  0.10100000352E+00 0. -1.
</event>
<event>
 5   0  0.5288658E-04  0.1609727E+04  0.7818609E-02  0.8814595E-01
        1   -1    0    0  501    0  0.00000000000E+00  0.00000000000E+00  0.80126276360E+03  0.80126276361E+03  0.50400001928E-02 0.  1.
       -1   -1    0    0    0  501  0.00000000000E+00  0.00000000000E+00 -0.80848023570E+03  0.80848023572E+03  0.50400001928E-02 0. -1.
    10030    2    1    2    0    0  0.00000000000E+00  0.00000000000E+00 -0.72174721068E+01  0.16097429993E+04  0.16097268191E+04 0.  0.
        1    1    3    3  502    0  0.68445257499E+03 -0.29483830190E+03  0.30036825951E+03  0.80350858305E+03  0.50400001928E-02 0.  1.
       -1    1    3    3    0  502 -0.68445257499E+03  0.29483830190E+03 -0.30758573162E+03  0.80623441628E+03  0.50400001928E-02 0. -1.
</event>
<event>
 5   0  0.5425525E-04  0.1603722E+04  0.7818609E-02  0.8818265E-01
       -1   -1    0    0    0  501  0.00000000000E+00  0.00000000000E+00  0.57242425534E+03  0.57242425536E+03  0.50400001928E-02 0.  1.
        1   -1    0    0  501    0  0.00000000000E+00  0.00000000000E+00 -0.11232600488E+04  0.11232600488E+04  0.50400001928E-02 0. -1.
    10030    2    1    2    0    0  0.00000000000E+00  0.00000000000E+00 -0.55083579342E+03  0.16956843041E+04  0.16037222914E+04 0.  0.
        5    1    3    3  502    0  0.61284095030E+03 -0.14154406600E+03 -0.80128038280E+03  0.10186663315E+04  0.46999998093E+01 0. -1.
       -5    1    3    3    0  502 -0.61284095030E+03  0.14154406600E+03  0.25044458938E+03  0.67701797268E+03  0.46999998093E+01 0.  1.
</event>
<event>
 5   0  0.9844690E-04  0.1577592E+04  0.7818609E-02  0.8834434E-01
       -2   -1    0    0    0  501  0.00000000000E+00  0.00000000000E+00  0.15210673141E+04  0.15210673141E+04  0.25500000920E-02 0. -1.
        2   -1    0    0  501    0  0.00000000000E+00  0.00000000000E+00 -0.40905419189E+03  0.40905419190E+03  0.25500000920E-02 0.  1.
    10030    2    1    2    0    0  0.00000000000E+00  0.00000000000E+00  0.11120131222E+04  0.19301215060E+04  0.15775917862E+04 0.  0.
        3    1    3    3  502    0 -0.74567737130E+03 -0.11447035233E+03  0.83782972994E+03  0.11274293194E+04  0.10100000352E+00 0. -1.
       -3    1    3    3    0  502  0.74567737130E+03  0.11447035233E+03  0.27418339225E+03  0.80269218660E+03  0.10100000352E+00 0.  1.
</event>
<event>
 5   0  0.5425525E-04  0.1335050E+04  0.7818609E-02  0.9002223E-01
        1   -1    0    0  501    0  0.00000000000E+00  0.00000000000E+00  0.66208029891E+03  0.66208029893E+03  0.50400001928E-02 0.  1.
       -1   -1    0    0    0  501  0.00000000000E+00  0.00000000000E+00 -0.67301478257E+03  0.67301478259E+03  0.50400001928E-02 0. -1.
    10030    2    1    2    0    0  0.00000000000E+00  0.00000000000E+00 -0.10934483654E+02  0.13350950815E+04  0.13350503038E+04 0.  0.
        5    1    3    3  502    0  0.24181240750E+02 -0.66705670563E+03 -0.97519525328E+01  0.66758263272E+03  0.46999998093E+01 0. -1.
       -5    1    3    3    0  502 -0.24181240750E+02  0.66705670563E+03 -0.11825311209E+01  0.66751244880E+03  0.46999998093E+01 0.  1.
</event>
<event>
 5   0  0.1057872E-03  0.1558679E+04  0.7818609E-02  0.8846343E-01
        2   -1    0    0  501    0  0.00000000000E+00  0.00000000000E+00  0.10074694024E+04  0.10074694024E+04  0.25500000920E-02 0. -1.
       -2   -1    0    0    0  501  0.00000000000E+00  0.00000000000E+00 -0.60286683557E+03  0.60286683557E+03  0.25500000920E-02 0.  1.
    10030    2    1    2    0    0  0.00000000000E+00  0.00000000000E+00  0.40460256683E+03  0.16103362380E+04  0.15586787874E+04 0.  0.
        2    1    3    3  502    0  0.24539519151E+03  0.73963214871E+03  0.21239096634E+03  0.80770318683E+03  0.25500000920E-02 0. -1.
       -2    1    3    3    0  502 -0.24539519151E+03 -0.73963214871E+03  0.19221160049E+03  0.80263305114E+03  0.25500000920E-02 0.  1.
</event>
<event>
 5   0  0.5288658E-04  0.1614015E+04  0.7818609E-02  0.8811984E-01
        1   -1    0    0  501    0  0.00000000000E+00  0.00000000000E+00  0.12937626447E+04  0.12937626447E+04  0.50400001928E-02 0. -1.
       -1   -1    0    0    0  501  0.00000000000E+00  0.00000000000E+00 -0.50338539151E+03  0.50338539154E+03  0.50400001928E-02 0.  1.
    10030    2    1    2    0    0  0.00000000000E+00  0.00000000000E+00  0.79037725318E+03  0.17971480362E+04  0.16140151368E+04 0.  0.
        1    1    3    3  502    0 -0.64655257278E+03  0.67180807589E+02  0.92769665607E+03  0.11327685448E+04  0.50400001928E-02 0. -1.
       -1    1    3    3    0  502  0.64655257278E+03 -0.67180807589E+02 -0.13731940289E+03  0.66437949149E+03  0.50400001928E-02 0.  1.
</event>
<event>
 5   0  0.5288658E-04  0.1618828E+04  0.7818609E-02  0.8809064E-01
        1   -1    0    0  501    0  0.00000000000E+00  0.00000000000E+00  0.15943180955E+04  0.15943180955E+04  0.50400001928E-02 0.  1.
       -1   -1    0    0    0  501  0.00000000000E+00  0.00000000000E+00 -0.41092862018E+03  0.41092862021E+03  0.50400001928E-02 0. -1.
    10030    2    1    2    0    0  0.00000000000E+00  0.00000000000E+00  0.11833894753E+04  0.20052467157E+04  0.16188278910E+04 0.  0.
        1    1    3    3  502    0  0.23737385227E+02  0.19255711798E+02 -0.41021349419E+03  0.41135064937E+03  0.50400001928E-02 0. -1.
       -1    1    3    3    0  502 -0.23737385227E+02 -0.19255711798E+02  0.15936029695E+04  0.15938960664E+04  0.50400001928E-02 0.  1.
</event>
<event>
 5   0  0.5281116E-04  0.1672353E+04  0.7818609E-02  0.8777291E-01
        1   -1    0    0  501    0  0.00000000000E+00  0.00000000000E+00  0.11220998639E+04  0.11220998640E+04  0.50400001928E-02 0. -1.
       -1   -1    0    0    0  501  0.00000000000E+00  0.00000000000E+00 -0.62310965905E+03  0.62310965907E+03  0.50400001928E-02 0.  1.
    10030    2    1    2    0    0  0.00000000000E+00  0.00000000000E+00  0.49899020490E+03  0.17452095230E+04  0.16723531489E+04 0.  0.
        2    1    3    3  502    0  0.49439027291E+03  0.84562349874E+02  0.94768523640E+03  0.10722312438E+04  0.25500000920E-02 0. -1.
       -2    1    3    3    0  502 -0.49439027291E+03 -0.84562349874E+02 -0.44869503151E+03  0.67297827919E+03  0.25500000920E-02 0.  1.
</event>
<event>
 5   0  0.1000121E-03  0.1600479E+04  0.7818609E-02  0.8820254E-01
        2   -1    0    0  501    0  0.00000000000E+00  0.00000000000E+00  0.11512218795E+04  0.11512218795E+04  0.25500000920E-02 0. -1.
       -2   -1    0    0    0  501  0.00000000000E+00  0.00000000000E+00 -0.55626427673E+03  0.55626427673E+03  0.25500000920E-02 0.  1.
    10030    2    1    2    0    0  0.00000000000E+00  0.00000000000E+00  0.59495760278E+03  0.17074861562E+04  0.16004794359E+04 0.  0.
        4    1    3    3  502    0 -0.66939219673E+03  0.43712394899E+03  0.33472324206E+03  0.86672055560E+03  0.12699999809E+01 0.  1.
       -4    1    3    3    0  502  0.66939219673E+03 -0.43712394899E+03  0.26023436071E+03  0.84076560064E+03  0.12699999809E+01 0. -1.
</event>
<event>
 5   0  0.5623061E-04  0.1486469E+04  0.7818609E-02  0.8893501E-01
       -1   -1    0    0    0  501  0.00000000000E+00  0.00000000000E+00  0.32264171320E+03  0.32264171324E+03  0.50400001928E-02 0.  1.
        1   -1    0    0  501    0  0.00000000000E+00  0.00000000000E+00 -0.17121077337E+04  0.17121077337E+04  0.50400001928E-02 0. -1.
    10030    2    1    2    0    0  0.00000000000E+00  0.00000000000E+00 -0.13894660205E+04  0.20347494469E+04  0.14864687988E+04 0.  0.
        3    1    3    3  502    0 -0.31356834934E+03 -0.61525384469E+03 -0.10709419753E+04  0.12742759230E+04  0.10100000352E+00 0. -1.
       -3    1    3    3    0  502  0.31356834934E+03  0.61525384469E+03 -0.31852404516E+03  0.76047352397E+03  0.10100000352E+00 0.  1.
</event>
<event>
 5   0  0.5425525E-04  0.1606204E+04  0.7818609E-02  0.8816746E-01
        1   -1    0    0  501    0  0.00000000000E+00  0.00000000000E+00  0.10416457018E+04  0.10416457018E+04  0.50400001928E-02 0.  1.
       -1   -1    0    0    0  501  0.00000000000E+00  0.00000000000E+00 -0.61918618963E+03  0.61918618965E+03  0.50400001928E-02 0. -1.
    10030    2    1    2    0    0  0.00000000000E+00  0.00000000000E+00  0.42245951221E+03  0.16608318915E+04  0.16062037643E+04 0.  0.
        5    1    3    3  502    0 -0.76245426824E+03  0.16973657848E+03  0.18327788273E+02  0.78134820346E+03  0.46999998093E+01 0. -1.
       -5    1    3    3    0  502  0.76245426824E+03 -0.16973657848E+03  0.40413172393E+03  0.87948368804E+03  0.46999998093E+01 0.  1.
</event>
<event>
 5   0  0.5281116E-04  0.1521331E+04  0.7818609E-02  0.8870391E-01
       -1   -1    0    0    0  501  0.00000000000E+00  0.00000000000E+00  0.33667290014E+03  0.33667290018E+03  0.50400001928E-02 0.  1.
        1   -1    0    0  501    0  0.00000000000E+00  0.00000000000E+00 -0.17186171517E+04  0.17186171517E+04  0.50400001928E-02 0. -1.
    10030    2    1    2    0    0  0.00000000000E+00  0.00000000000E+00 -0.13819442515E+04  0.20552900519E+04  0.15213307605E+04 0.  0.
        2    1    3    3  502    0  0.36763342735E+03 -0.37617497091E+02  0.20724522798E+03  0.42369800274E+03  0.25500000920E-02 0.  1.
       -2    1    3    3    0  502 -0.36763342735E+03  0.37617497091E+02 -0.15891894795E+04  0.16315920491E+04  0.25500000920E-02 0. -1.
</event>
<event>
 5   0  0.1057872E-03  0.1598694E+04  0.7818609E-02  0.8821351E-01
        2   -1    0    0  501    0  0.00000000000E+00  0.00000000000E+00  0.15223710040E+04  0.15223710040E+04  0.25500000920E-02 0.  1.
       -2   -1    0    0    0  501  0.00000000000E+00  0.00000000000E+00 -0.41971076407E+03  0.41971076408E+03  0.25500000920E-02 0. -1.
    10030    2    1    2    0    0  0.00000000000E+00  0.00000000000E+00  0.11026602399E+04  0.19420817681E+04  0.15986938385E+04 0.  0.
        2    1    3    3  502    0 -0.51125673358E+03  0.50798216953E+02  0.12952274063E+04  0.13934051602E+04  0.25500000920E-02 0.  1.
       -2    1    3    3    0  502  0.51125673358E+03 -0.50798216953E+02 -0.19256716636E+03  0.54867660788E+03  0.25500000920E-02 0. -1.
</event>
<event>
 5   0  0.3832500E-04  0.1640348E+04  0.7818609E-02  0.8796137E-01
       -3   -1    0    0    0  501  0.00000000000E+00  0.00000000000E+00  0.94940543569E+03  0.94940544106E+03  0.10100000352E+00 0. -1.
        3   -1    0    0  501    0  0.00000000000E+00  0.00000000000E+00 -0.70853328025E+03  0.70853328745E+03  0.10100000352E+00 0.  1.
    10030    2    1    2    0    0  0.00000000000E+00  0.00000000000E+00  0.24087215544E+03  0.16579387285E+04  0.16403479607E+04 0.  0.
        5    1    3    3  502    0  0.54983097426E+03 -0.27428831130E+03 -0.42863453730E+03  0.74919812769E+03  0.46999998093E+01 0.  1.
       -5    1    3    3    0  502 -0.54983097426E+03  0.27428831130E+03  0.66950669273E+03  0.90874060082E+03  0.46999998093E+01 0. -1.
</event>
<event>
 5   0  0.1000121E-03  0.1600792E+04  0.7818609E-02  0.8820062E-01
        2   -1    0    0  501    0  0.00000000000E+00  0.00000000000E+00  0.99516701546E+03  0.99516701547E+03  0.25500000920E-02 0. -1.
       -2   -1    0    0    0  501  0.00000000000E+00  0.00000000000E+00 -0.64374471084E+03  0.64374471084E+03  0.25500000920E-02 0.  1.
    10030    2    1    2    0    0  0.00000000000E+00  0.00000000000E+00  0.35142230462E+03  0.16389117263E+04  0.16007916824E+04 0.  0.
        4    1    3    3  502    0  0.72507049653E+03  0.31476483073E+03  0.30451550975E+03  0.84707463201E+03  0.12699999809E+01 0. -1.
       -4    1    3    3    0  502 -0.72507049653E+03 -0.31476483073E+03  0.46906794874E+02  0.79183709430E+03  0.12699999809E+01 0.  1.
</event>
<event>
 5   0  0.1000121E-03  0.1664842E+04  0.7818609E-02  0.8781674E-01
       -2   -1    0    0    0  501  0.00000000000E+00  0.00000000000E+00  0.34637222370E+03  0.34637222371E+03  0.25500000920E-02 0. -1.
        2   -1    0    0  501    0  0.00000000000E+00  0.00000000000E+00 -0.20005203580E+04  0.20005203580E+04  0.25500000920E-02 0.  1.
    10030    2    1    2    0    0  0.00000000000E+00  0.00000000000E+00 -0.16541481343E+04  0.23468925817E+04  0.16648419564E+04 0.  0.
        4    1    3    3  502    0 -0.35438775458E+03 -0.47430867453E+03 -0.22448458204E+01  0.59208618592E+03  0.12699999809E+01 0. -1.
       -4    1    3    3    0  502  0.35438775458E+03  0.47430867453E+03 -0.16519032885E+04  0.17548063958E+04  0.12699999809E+01 0.  1.
</event>
<event>
 5   0  0.5532881E-04  0.1696401E+04  0.7818609E-02  0.8763420E-01
        1   -1    0    0  501    0  0.00000000000E+00  0.00000000000E+00  0.90721136167E+03  0.90721136169E+03  0.50400001928E-02 0.  1.
       -1   -1    0    0    0  501  0.00000000000E+00  0.00000000000E+00 -0.79302824972E+03  0.79302824974E+03  0.50400001928E-02 0. -1.
    10030    2    1    2    0    0  0.00000000000E+00  0.00000000000E+00  0.11418311195E+03  0.17002396114E+04  0.16964011770E+04 0.  0.
        4    1    3    3  502    0  0.60668234716E+02  0.83732239289E+03 -0.64232751015E+02  0.84197202064E+03  0.12699999809E+01 0.  1.
       -4    1    3    3    0  502 -0.60668234716E+02 -0.83732239289E+03  0.17841586297E+03  0.85826759078E+03  0.12699999809E+01 0. -1.
</event>
<event>
 5   0  0.1057872E-03  0.1587187E+04  0.7818609E-02  0.8828458E-01
        2   -1    0    0  501    0  0.00000000000E+00  0.00000000000E+00  0.11754119382E+04  0.11754119382E+04  0.25500000920E-02 0. -1.
       -2   -1    0    0    0  501  0.00000000000E+00  0.00000000000E+00 -0.53580412531E+03  0.53580412532E+03  0.25500000920E-02 0.  1.
    10030    2    1    2    0    0  0.00000000000E+00  0.00000000000E+00  0.63960781285E+03  0.17112160635E+04  0.15871869019E+04 0.  0.
        2    1    3    3  502    0 -0.56692342859E+03  0.15188558286E+03  0.89569749936E+03  0.10708619960E+04  0.25500000920E-02 0. -1.
       -2    1    3    3    0  502  0.56692342859E+03 -0.15188558286E+03 -0.25608968651E+03  0.64035406746E+03  0.25500000920E-02 0.  1.
</event>
<event>
 5   0  0.1000121E-03  0.1501580E+04  0.7818609E-02  0.8883403E-01
       -2   -1    0    0    0  501  0.00000000000E+00  0.00000000000E+00  0.52945955640E+03  0.52945955641E+03  0.25500000920E-02 0.  1.
        2   -1    0    0  501    0  0.00000000000E+00  0.00000000000E+00 -0.10646430299E+04  0.10646430299E+04  0.25500000920E-02 0. -1.
    10030    2    1    2    0    0  0.00000000000E+00  0.00000000000E+00 -0.53518347349E+03  0.15941025863E+04  0.15015797366E+04 0.  0.
        4    1    3    3  502    0  0.26100110950E+03 -0.61531618660E+03 -0.63064026817E+03  0.91893653175E+03  0.12699999809E+01 0. -1.
       -4    1    3    3    0  502 -0.26100110950E+03  0.61531618660E+03  0.95456794678E+02  0.67516605454E+03  0.12699999809E+01 0.  1.
</event>
<event>
 5   0  0.1037321E-03  0.1590974E+04  0.7818609E-02  0.8826112E-01
       -2   -1    0    0    0  501  0.00000000000E+00  0.00000000000E+00  0.10073344456E+04  0.10073344456E+04  0.25500000920E-02 0.  1.
        2   -1    0    0  501    0  0.00000000000E+00  0.00000000000E+00 -0.62819250534E+03  0.62819250535E+03  0.25500000920E-02 0. -1.
    10030    2    1    2    0    0  0.00000000000E+00  0.00000000000E+00  0.37914194021E+03  0.16355269509E+04  0.15909744801E+04 0.  0.
        5    1    3    3  502    0 -0.74034010722E+03  0.15077311515E+03  0.44542165642E+03  0.87707385585E+03  0.46999998093E+01 0.  1.
       -5    1    3    3    0  502  0.74034010722E+03 -0.15077311515E+03 -0.66279716213E+02  0.75845309505E+03  0.46999998093E+01 0. -1.
</event>
<event>
 5   0  0.3832500E-04  0.1595641E+04  0.7818609E-02  0.8823231E-01
       -4   -1    0    0    0  501  0.00000000000E+00  0.00000000000E+00  0.11363118723E+04  0.11363125821E+04  0.12699999809E+01 0.  1.
        4   -1    0    0  501    0  0.00000000000E+00  0.00000000000E+00 -0.56015919683E+03  0.56016063651E+03  0.12699999809E+01 0. -1.
    10030    2    1    2    0    0  0.00000000000E+00  0.00000000000E+00  0.57615267551E+03  0.16964732186E+04  0.15956407728E+04 0.  0.
        2    1    3    3  502    0  0.54075670184E+03 -0.26958956300E+03  0.84197922218E+03  0.10363519449E+04  0.25500000920E-02 0.  1.
       -2    1    3    3    0  502 -0.54075670184E+03  0.26958956300E+03 -0.26582654666E+03  0.66012127369E+03  0.25500000920E-02 0. -1.
</event>
<event>
 5   0  0.9844690E-04  0.1586464E+04  0.7818609E-02  0.8828907E-01
        2   -1    0    0  501    0  0.00000000000E+00  0.00000000000E+00  0.10138493931E+04  0.10138493931E+04  0.25500000920E-02 0.  1.
       -2   -1    0    0    0  501  0.00000000000E+00  0.00000000000E+00 -0.62062151602E+03  0.62062151602E+03  0.25500000920E-02 0. -1.
    10030    2    1    2    0    0  0.00000000000E+00  0.00000000000E+00  0.39322787709E+03  0.16344709091E+04  0.15864636742E+04 0.  0.
        3    1    3    3  502    0 -0.30203608190E+03  0.42949146416E+02  0.95099143539E+03  0.99872676160E+03  0.10100000352E+00 0.  1.
       -3    1    3    3    0  502  0.30203608190E+03 -0.42949146416E+02 -0.55776355831E+03  0.63574414753E+03  0.10100000352E+00 0. -1.
</event>
<event>
 5   0  0.5425525E-04  0.1606703E+04  0.7818609E-02  0.8816441E-01
       -1   -1    0    0    0  501  0.00000000000E+00  0.00000000000E+00  0.44288679010E+03  0.44288679013E+03  0.50400001928E-02 0.  1.
        1   -1    0    0  501    0  0.00000000000E+00  0.00000000000E+00 -0.14571970135E+04  0.14571970136E+04  0.50400001928E-02 0. -1.
    10030    2    1    2    0    0  0.00000000000E+00  0.00000000000E+00 -0.10143102235E+04  0.19000838037E+04  0.16067025959E+04 0.  0.
        5    1    3    3  502    0  0.23160348007E+03 -0.24996687458E+03  0.35316189158E+03  0.49078408902E+03  0.46999998093E+01 0.  1.
       -5    1    3    3    0  502 -0.23160348007E+03  0.24996687458E+03 -0.13674721150E+04  0.14092997147E+04  0.46999998093E+01 0. -1.
</event>
<event>
 5   0  0.5281116E-04  0.1662437E+04  0.7818609E-02  0.8783083E-01
        1   -1    0    0  501    0  0.00000000000E+00  0.00000000000E+00  0.30594447743E+03  0.30594447747E+03  0.50400001928E-02 0.  1.
       -1   -1    0    0    0  501  0.00000000000E+00  0.00000000000E+00 -0.22583306652E+04  0.22583306652E+04  0.50400001928E-02 0. -1.
    10030    2    1    2    0    0  0.00000000000E+00  0.00000000000E+00 -0.19523861877E+04  0.25642751426E+04  0.16624365194E+04 0.  0.
        2    1    3    3  502    0 -0.77824753818E+02 -0.82755789260E+03 -0.97021166041E+03  0.12775834313E+04  0.25500000920E-02 0.  1.
       -2    1    3    3    0  502  0.77824753818E+02  0.82755789260E+03 -0.98217452734E+03  0.12866917114E+04  0.25500000920E-02 0. -1.
</event>
<event>
 5   0  0.1030027E-03  0.1525056E+04  0.7818609E-02  0.8867960E-01
        2   -1    0    0  501    0  0.00000000000E+00  0.00000000000E+00  0.97608595056E+03  0.97608595057E+03  0.25500000920E-02 0. -1.
       -2   -1    0    0    0  501  0.00000000000E+00  0.00000000000E+00 -0.59569459799E+03  0.59569459800E+03  0.25500000920E-02 0.  1.
    10030    2    1    2    0    0  0.00000000000E+00  0.00000000000E+00  0.38039135257E+03  0.15717805486E+04  0.15250562323E+04 0.  0.
        1    1    3    3  502    0 -0.13996227847E+03  0.63282210542E+03  0.60424517483E+03  0.88609564260E+03  0.50400001928E-02 0. -1.
       -1    1    3    3    0  502  0.13996227847E+03 -0.63282210542E+03 -0.22385382226E+03  0.68568490597E+03  0.50400001928E-02 0.  1.
</event>
<event>
 5   0  0.5532881E-04  0.1617092E+04  0.7818609E-02  0.8810116E-01
        1   -1    0    0  501    0  0.00000000000E+00  0.00000000000E+00  0.13137374429E+04  0.13137374429E+04  0.50400001928E-02 0. -1.
       -1   -1    0    0    0  501  0.00000000000E+00  0.00000000000E+00 -0.49762349854E+03  0.49762349857E+03  0.50400001928E-02 0.  1.
    10030    2    1    2    0    0  0.00000000000E+00  0.00000000000E+00  0.81611394439E+03  0.18113609415E+04  0.16170919857E+04 0.  0.
        4    1    3    3  502    0  0.72314769815E+03  0.27040730106E+03  0.67708132051E+03  0.10268901739E+04  0.12699999809E+01 0.  1.
       -4    1    3    3    0  502 -0.72314769815E+03 -0.27040730106E+03  0.13903262388E+03  0.78447076759E+03  0.12699999809E+01 0. -1.
</event>
<event>
 5   0  0.9844690E-04  0.1465798E+04  0.7818609E-02  0.8907521E-01
       -2   -1    0    0    0  501  0.00000000000E+00  0.00000000000E+00  0.38359788346E+03  0.38359788347E+03  0.25500000920E-02 0.  1.
        2   -1    0    0  501    0  0.00000000000E+00  0.00000000000E+00 -0.14002701285E+04  0.14002701285E+04  0.25500000920E-02 0. -1.
    10030    2    1    2    0    0  0.00000000000E+00  0.00000000000E+00 -0.10166722451E+04  0.17838680120E+04  0.14657976089E+04 0.  0.
        3    1    3    3  502    0  0.50823748062E+03 -0.40579486457E+03 -0.91953961488E+03  0.11262894487E+04  0.10100000352E+00 0. -1.
       -3    1    3    3    0  502 -0.50823748062E+03  0.40579486457E+03 -0.97132630194E+02  0.65757856326E+03  0.10100000352E+00 0.  1.
</event>
<event>
 5   0  0.5425525E-04  0.1951427E+04  0.7818609E-02  0.8629673E-01
        1   -1    0    0  501    0  0.00000000000E+00  0.00000000000E+00  0.89261416922E+03  0.89261416924E+03  0.50400001928E-02 0.  1.
       -1   -1    0    0    0  501  0.00000000000E+00  0.00000000000E+00 -0.10665486933E+04  0.10665486933E+04  0.50400001928E-02 0. -1.
    10030    2    1    2    0    0  0.00000000000E+00  0.00000000000E+00 -0.17393452408E+03  0.19591628626E+04  0.19514266328E+04 0.  0.
        5    1    3    3  502    0 -0.67427425489E+03 -0.13906358209E+03  0.60715627884E+03  0.91795712732E+03  0.46999998093E+01 0.  1.
       -5    1    3    3    0  502  0.67427425489E+03  0.13906358209E+03 -0.78109080292E+03  0.10412057352E+04  0.46999998093E+01 0. -1.
</event>
<event>
 5   0  0.5623061E-04  0.1609117E+04  0.7818609E-02  0.8814967E-01
       -1   -1    0    0    0  501  0.00000000000E+00  0.00000000000E+00  0.34627836925E+03  0.34627836928E+03  0.50400001928E-02 0. -1.
        1   -1    0    0  501    0  0.00000000000E+00  0.00000000000E+00 -0.18693471447E+04  0.18693471447E+04  0.50400001928E-02 0.  1.
    10030    2    1    2    0    0  0.00000000000E+00  0.00000000000E+00 -0.15230687754E+04  0.22156255140E+04  0.16091171255E+04 0.  0.
        3    1    3    3  502    0  0.68419817208E+03  0.31668506196E+03 -0.11482942815E+04  0.13736798514E+04  0.10100000352E+00 0.  1.
       -3    1    3    3    0  502 -0.68419817208E+03 -0.31668506196E+03 -0.37477449394E+03  0.84194566253E+03  0.10100000352E+00 0. -1.
</event>
<event>
 5   0  0.5425525E-04  0.1614863E+04  0.7818609E-02  0.8811469E-01
       -1   -1    0    0    0  501  0.00000000000E+00  0.00000000000E+00  0.41157528052E+03  0.41157528055E+03  0.50400001928E-02 0. -1.
        1   -1    0    0  501    0  0.00000000000E+00  0.00000000000E+00 -0.15840255004E+04  0.15840255004E+04  0.50400001928E-02 0.  1.
    10030    2    1    2    0    0  0.00000000000E+00  0.00000000000E+00 -0.11724502199E+04  0.19956007810E+04  0.16148631394E+04 0.  0.
        5    1    3    3  502    0 -0.13124603069E+03 -0.75003480785E+03 -0.91815305719E+03  0.11928138413E+04  0.46999998093E+01 0.  1.
       -5    1    3    3    0  502  0.13124603069E+03  0.75003480785E+03 -0.25429716270E+03  0.80278693968E+03  0.46999998093E+01 0. -1.
</event>
<event>
 5   0  0.1057872E-03  0.1675111E+04  0.7818609E-02  0.8775688E-01
       -2   -1    0    0    0  501  0.00000000000E+00  0.00000000000E+00  0.10182370142E+04  0.10182370142E+04  0.25500000920E-02 0. -1.
        2   -1    0    0  501    0  0.00000000000E+00  0.00000000000E+00 -0.68893519653E+03  0.68893519654E+03  0.25500000920E-02 0.  1.
    10030    2    1    2    0    0  0.00000000000E+00  0.00000000000E+00  0.32930181771E+03  0.17071722108E+04  0.16751111217E+04 0.  0.
        2    1    3    3  502    0 -0.16609319606E+03 -0.36646495839E+03 -0.58399428376E+03  0.70917757930E+03  0.25500000920E-02 0.  1.
       -2    1    3    3    0  502  0.16609319606E+03  0.36646495839E+03  0.91329610147E+03  0.99799463149E+03  0.25500000920E-02 0. -1.
</event>
<event>
 5   0  0.1037321E-03  0.1398718E+04  0.7818609E-02  0.8954747E-01
       -2   -1    0    0    0  501  0.00000000000E+00  0.00000000000E+00  0.37577767017E+03  0.37577767017E+03  0.25500000920E-02 0.  1.
        2   -1    0    0  501    0  0.00000000000E+00  0.00000000000E+00 -0.13015747941E+04  0.13015747941E+04  0.25500000920E-02 0. -1.
    10030    2    1    2    0    0  0.00000000000E+00  0.00000000000E+00 -0.92579712389E+03  0.16773524642E+04  0.13987176179E+04 0.  0.
        5    1    3    3  502    0 -0.62790645012E+03  0.51807318065E+02 -0.98903774792E+02  0.63777312186E+03  0.46999998093E+01 0.  1.
       -5    1    3    3    0  502  0.62790645012E+03 -0.51807318065E+02 -0.82689334910E+03  0.10395793424E+04  0.46999998093E+01 0. -1.
</event>
<event>
 5   0  0.5532881E-04  0.1605270E+04  0.7818609E-02  0.8817317E-01
        1   -1    0    0  501    0  0.00000000000E+00  0.00000000000E+00  0.67858577948E+03  0.67858577950E+03  0.50400001928E-02 0. -1.
       -1   -1    0    0    0  501  0.00000000000E+00  0.00000000000E+00 -0.94936116401E+03  0.94936116402E+03  0.50400001928E-02 0.  1.
    10030    2    1    2    0    0  0.00000000000E+00  0.00000000000E+00 -0.27077538453E+03  0.16279469435E+04  0.16052700527E+04 0.  0.
        4    1    3    3  502    0 -0.20666548574E+03 -0.25704426309E+03  0.60668618204E+03  0.69054479403E+03  0.12699999809E+01 0. -1.
       -4    1    3    3    0  502  0.20666548574E+03  0.25704426309E+03 -0.87746156656E+03  0.93740214950E+03  0.12699999809E+01 0.  1.
</event>
<event>
 5   0  0.1000121E-03  0.1544127E+04  0.7818609E-02  0.8855628E-01
       -2   -1    0    0    0  501  0.00000000000E+00  0.00000000000E+00  0.38210596585E+03  0.38210596586E+03  0.25500000920E-02 0.  1.
        2   -1    0    0  501    0  0.00000000000E+00  0.00000000000E+00 -0.15599913509E+04  0.15599913509E+04  0.25500000920E-02 0. -1.
    10030    2    1    2    0    0  0.00000000000E+00  0.00000000000E+00 -0.11778853851E+04  0.19420973168E+04  0.15441269402E+04 0.  0.
        4    1    3    3  502    0  0.74381971653E+03 -0.20102772411E+03 -0.52732061340E+03  0.93367476070E+03  0.12699999809E+01 0. -1.
       -4    1    3    3    0  502 -0.74381971653E+03  0.20102772411E+03 -0.65056477168E+03  0.10084225561E+04  0.12699999809E+01 0.  1.
</event>
<event>
 5   0  0.5425525E-04  0.1506938E+04  0.7818609E-02  0.8879852E-01
       -1   -1    0    0    0  501  0.00000000000E+00  0.00000000000E+00  0.82430042750E+03  0.82430042751E+03  0.50400001928E-02 0.  1.
        1   -1    0    0  501    0  0.00000000000E+00  0.00000000000E+00 -0.68872407638E+03  0.68872407640E+03  0.50400001928E-02 0. -1.
    10030    2    1    2    0    0  0.00000000000E+00  0.00000000000E+00  0.13557635112E+03  0.15130245039E+04  0.15069380221E+04 0.  0.
        5    1    3    3  502    0  0.65057316316E+03 -0.36228258838E+03 -0.47564262986E+02  0.74617596020E+03  0.46999998093E+01 0.  1.
       -5    1    3    3    0  502 -0.65057316316E+03  0.36228258838E+03  0.18314061410E+03  0.76684854371E+03  0.46999998093E+01 0. -1.
</event>
<event>
 5   0  0.1057872E-03  0.1584589E+04  0.7818609E-02  0.8830072E-01
       -2   -1    0    0    0  501  0.00000000000E+00  0.00000000000E+00  0.59119500800E+03  0.59119500801E+03  0.25500000920E-02 0.  1.
        2   -1    0    0  501    0  0.00000000000E+00  0.00000000000E+00 -0.10617994941E+04  0.10617994941E+04  0.25500000920E-02 0. -1.
    10030    2    1    2    0    0  0.00000000000E+00  0.00000000000E+00 -0.47060448612E+03  0.16529945021E+04  0.15845889820E+04 0.  0.
        2    1    3    3  502    0  0.58550580100E+03  0.48676690974E+03 -0.46378129857E+03  0.89154481679E+03  0.25500000920E-02 0. -1.
       -2    1    3    3    0  502 -0.58550580100E+03 -0.48676690974E+03 -0.68231875529E+01  0.76144968535E+03  0.25500000920E-02 0.  1.
</event>
<event>
 5   0  0.9844690E-04  0.1600353E+04  0.7818609E-02  0.8820331E-01
       -2   -1    0    0    0  501  0.00000000000E+00  0.00000000000E+00  0.10403578063E+04  0.10403578063E+04  0.25500000920E-02 0. -1.
        2   -1    0    0  501    0  0.00000000000E+00  0.00000000000E+00 -0.61544457440E+03  0.61544457440E+03  0.25500000920E-02 0.  1.
    10030    2    1    2    0    0  0.00000000000E+00  0.00000000000E+00  0.42491323189E+03  0.16558023807E+04  0.16003531702E+04 0.  0.
        3    1    3    3  502    0 -0.49465865602E+03  0.46981251825E+03  0.64512212057E+03  0.93893213223E+03  0.10100000352E+00 0.  1.
       -3    1    3    3    0  502  0.49465865602E+03 -0.46981251825E+03 -0.22020888868E+03  0.71687024846E+03  0.10100000352E+00 0. -1.
</event>
<event>
 5   0  0.5281116E-04  0.1594958E+04  0.7818609E-02  0.8823652E-01
       -1   -1    0    0    0  501  0.00000000000E+00  0.00000000000E+00  0.11830545258E+04  0.11830545258E+04  0.50400001928E-02 0.  1.
        1   -1    0    0  501    0  0.00000000000E+00  0.00000000000E+00 -0.53756821928E+03  0.53756821931E+03  0.50400001928E-02 0. -1.
    10030    2    1    2    0    0  0.00000000000E+00  0.00000000000E+00  0.64548630651E+03  0.17206227451E+04  0.15949576982E+04 0.  0.
        2    1    3    3  502    0 -0.62826536223E+03 -0.48093404193E+03  0.21509322196E+03  0.81992683344E+03  0.25500000920E-02 0. -1.
       -2    1    3    3    0  502  0.62826536223E+03  0.48093404193E+03  0.43039308455E+03  0.90069591167E+03  0.25500000920E-02 0.  1.
</event>
<event>
 5   0  0.5425525E-04  0.1558219E+04  0.7818609E-02  0.8846635E-01
       -1   -1    0    0    0  501  0.00000000000E+00  0.00000000000E+00  0.37876295871E+03  0.37876295874E+03  0.50400001928E-02 0.  1.
        1   -1    0    0  501    0  0.00000000000E+00  0.00000000000E+00 -0.16026153713E+04  0.16026153713E+04  0.50400001928E-02 0. -1.
    10030    2    1    2    0    0  0.00000000000E+00  0.00000000000E+00 -0.12238524126E+04  0.19813783300E+04  0.15582186493E+04 0.  0.
        5    1    3    3  502    0 -0.22624386451E+03 -0.73898216094E+03 -0.73721472109E+03  0.10680770363E+04  0.46999998093E+01 0. -1.
       -5    1    3    3    0  502  0.22624386451E+03  0.73898216094E+03 -0.48663769148E+03  0.91330129376E+03  0.46999998093E+01 0.  1.
</event>
<event>
 5   0  0.9844690E-04  0.1620507E+04  0.7818609E-02  0.8808048E-01
       -2   -1    0    0    0  501  0.00000000000E+00  0.00000000000E+00  0.83695389981E+03  0.83695389981E+03  0.25500000920E-02 0. -1.
        2   -1    0    0  501    0  0.00000000000E+00  0.00000000000E+00 -0.78440505905E+03  0.78440505905E+03  0.25500000920E-02 0.  1.
    10030    2    1    2    0    0  0.00000000000E+00  0.00000000000E+00  0.52548840756E+02  0.16213589589E+04  0.16205071715E+04 0.  0.
        3    1    3    3  502    0  0.45841173117E+03  0.43255816164E+03 -0.48317195465E+03  0.79416813487E+03  0.10100000352E+00 0.  1.
       -3    1    3    3    0  502 -0.45841173117E+03 -0.43255816164E+03  0.53572079541E+03  0.82719082400E+03  0.10100000352E+00 0. -1.
</event>
<event>
 5   0  0.9844690E-04  0.1546050E+04  0.7818609E-02  0.8854395E-01
        2   -1    0    0  501    0  0.00000000000E+00  0.00000000000E+00  0.81344545310E+03  0.81344545310E+03  0.25500000920E-02 0. -1.
       -2   -1    0    0    0  501  0.00000000000E+00  0.00000000000E+00 -0.73461319877E+03  0.73461319878E+03  0.25500000920E-02 0.  1.
    10030    2    1    2    0    0  0.00000000000E+00  0.00000000000E+00  0.78832254327E+02  0.15480586519E+04  0.15460501497E+04 0.  0.
        3    1    3    3  502    0  0.57922222316E+03  0.23948995818E+03 -0.41362490082E+03  0.75095898200E+03  0.10100000352E+00 0.  1.
       -3    1    3    3    0  502 -0.57922222316E+03 -0.23948995818E+03  0.49245715515E+03  0.79709966988E+03  0.10100000352E+00 0. -1.
</event>
<event>
 5   0  0.1057872E-03  0.1608293E+04  0.7818609E-02  0.8815470E-01
       -2   -1    0    0    0  501  0.00000000000E+00  0.00000000000E+00  0.80083057337E+03  0.80083057337E+03  0.25500000920E-02 0.  1.
        2   -1    0    0  501    0  0.00000000000E+00  0.00000000000E+00 -0.80747592290E+03  0.80747592290E+03  0.25500000920E-02 0. -1.
    10030    2    1    2    0    0  0.00000000000E+00  0.00000000000E+00 -0.66453495315E+01  0.16083064963E+04  0.16082927673E+04 0.  0.
        2    1    3    3  502    0 -0.24285179323E+02 -0.52677951747E+03  0.60377803253E+03  0.80164477328E+03  0.25500000920E-02 0.  1.
       -2    1    3    3    0  502  0.24285179323E+02  0.52677951747E+03 -0.61042338206E+03  0.80666172299E+03  0.25500000920E-02 0. -1.
</event>
<event>
 5   0  0.5288658E-04  0.1485600E+04  0.7818609E-02  0.8894086E-01
        1   -1    0    0  501    0  0.00000000000E+00  0.00000000000E+00  0.21522100923E+04  0.21522100923E+04  0.50400001928E-02 0. -1.
       -1   -1    0    0    0  501  0.00000000000E+00  0.00000000000E+00 -0.25636507174E+03  0.25636507179E+03  0.50400001928E-02 0.  1.
    10030    2    1    2    0    0  0.00000000000E+00  0.00000000000E+00  0.18958450205E+04  0.24085751641E+04  0.14855995353E+04 0.  0.
        1    1    3    3  502    0 -0.65103588693E+03  0.26197403119E+03  0.55320328507E+03  0.89359498305E+03  0.50400001928E-02 0.  1.
       -1    1    3    3    0  502  0.65103588693E+03 -0.26197403119E+03  0.13426417355E+04  0.15149801810E+04  0.50400001928E-02 0. -1.
</event>
<event>
 5   0  0.1000121E-03  0.1600103E+04  0.7818609E-02  0.8820485E-01
        2   -1    0    0  501    0  0.00000000000E+00  0.00000000000E+00  0.12320432602E+04  0.12320432603E+04  0.25500000920E-02 0.  1.
       -2   -1    0    0    0  501  0.00000000000E+00  0.00000000000E+00 -0.51952930523E+03  0.51952930523E+03  0.25500000920E-02 0. -1.
    10030    2    1    2    0    0  0.00000000000E+00  0.00000000000E+00  0.71251395502E+03  0.17515725655E+04  0.16001032204E+04 0.  0.
        4    1    3    3  502    0  0.32227825828E+03 -0.59484575871E+03 -0.11122431118E+03  0.68562177088E+03  0.12699999809E+01 0. -1.
       -4    1    3    3    0  502 -0.32227825828E+03  0.59484575871E+03  0.82373826620E+03  0.10659507946E+04  0.12699999809E+01 0.  1.
</event>
<event>
 5   0  0.9844690E-04  0.1587968E+04  0.7818609E-02  0.8827974E-01
        2   -1    0    0  501    0  0.00000000000E+00  0.00000000000E+00  0.14634363753E+04  0.14634363753E+04  0.25500000920E-02 0. -1.
       -2   -1    0    0    0  501  0.00000000000E+00  0.00000000000E+00 -0.43077418749E+03  0.43077418750E+03  0.25500000920E-02 0.  1.
    10030    2    1    2    0    0  0.00000000000E+00  0.00000000000E+00  0.10326621878E+04  0.18942105628E+04  0.15879680293E+04 0.  0.
        3    1    3    3  502    0  0.18726552322E+03  0.14991326974E+03 -0.38651531004E+03  0.45490269259E+03  0.10100000352E+00 0.  1.
       -3    1    3    3    0  502 -0.18726552322E+03 -0.14991326974E+03  0.14191774978E+04  0.14393078702E+04  0.10100000352E+00 0. -1.
</event>
<event>
 5   0  0.5281116E-04  0.1284039E+04  0.7818609E-02  0.9042319E-01
        1   -1    0    0  501    0  0.00000000000E+00  0.00000000000E+00  0.80472860468E+03  0.80472860469E+03  0.50400001928E-02 0.  1.
       -1   -1    0    0    0  501  0.00000000000E+00  0.00000000000E+00 -0.51220862046E+03  0.51220862048E+03  0.50400001928E-02 0. -1.
    10030    2    1    2    0    0  0.00000000000E+00  0.00000000000E+00  0.29251998422E+03  0.13169372252E+04  0.12840388288E+04 0.  0.
        2    1    3    3  502    0 -0.73668787239E+02  0.24111330692E+02  0.79991176327E+03  0.80365868098E+03  0.25500000920E-02 0.  1.
       -2    1    3    3    0  502  0.73668787239E+02 -0.24111330692E+02 -0.50739177905E+03  0.51327854420E+03  0.25500000920E-02 0. -1.
</event>
<event>
 5   0  0.5288658E-04  0.1593506E+04  0.7818609E-02  0.8824548E-01
       -1   -1    0    0    0  501  0.00000000000E+00  0.00000000000E+00  0.29459016955E+03  0.29459016960E+03  0.50400001928E-02 0. -1.
        1   -1    0    0  501    0  0.00000000000E+00  0.00000000000E+00 -0.21549094827E+04  0.21549094827E+04  0.50400001928E-02 0.  1.
    10030    2    1    2    0    0  0.00000000000E+00  0.00000000000E+00 -0.18603193131E+04  0.24494996523E+04  0.15935057577E+04 0.  0.
        1    1    3    3  502    0  0.15364908026E+03 -0.62157012104E+03 -0.16590758894E+04  0.17783391865E+04  0.50400001928E-02 0.  1.
       -1    1    3    3    0  502 -0.15364908026E+03  0.62157012104E+03 -0.20124342368E+03  0.67116046579E+03  0.50400001928E-02 0. -1.
</event>
<event>
 5   0  0.1030027E-03  0.1594131E+04  0.7818609E-02  0.8824162E-01
       -2   -1    0    0    0  501  0.00000000000E+00  0.00000000000E+00  0.37721508166E+03  0.37721508167E+03  0.25500000920E-02 0. -1.
        2   -1    0    0  501    0  0.00000000000E+00  0.00000000000E+00 -0.16842198212E+04  0.16842198212E+04  0.25500000920E-02 0.  1.
    10030    2    1    2    0    0  0.00000000000E+00  0.00000000000E+00 -0.13070047395E+04  0.20614349029E+04  0.15941306313E+04 0.  0.
        1    1    3    3  502    0 -0.74188463586E+02 -0.56918510344E+03 -0.13686424037E+04  0.14841353170E+04  0.50400001928E-02 0.  1.
       -1    1    3    3    0  502  0.74188463586E+02  0.56918510344E+03  0.61637664170E+02  0.57729958581E+03  0.50400001928E-02 0. -1.
</event>
<event>
 5   0  0.5425525E-04  0.1590092E+04  0.7818609E-02  0.8826658E-01
        1   -1    0    0  501    0  0.00000000000E+00  0.00000000000E+00  0.11961410078E+04  0.11961410078E+04  0.50400001928E-02 0. -1.
       -1   -1    0    0    0  501  0.00000000000E+00  0.00000000000E+00 -0.52844777900E+03  0.52844777903E+03  0.50400001928E-02 0.  1.
    10030    2    1    2    0    0  0.00000000000E+00  0.00000000000E+00  0.66769322877E+03  0.17245887868E+04  0.15900918954E+04 0.  0.
        5    1    3    3  502    0  0.58540464520E+03 -0.15002865455E+03  0.89413576582E+03  0.10792164072E+04  0.46999998093E+01 0. -1.
       -5    1    3    3    0  502 -0.58540464520E+03  0.15002865455E+03 -0.22644253705E+03  0.64537237963E+03  0.46999998093E+01 0.  1.
</event>
<event>
 5   0  0.5532881E-04  0.1639280E+04  0.7818609E-02  0.8796774E-01
       -1   -1    0    0    0  501  0.00000000000E+00  0.00000000000E+00  0.12794560978E+04  0.12794560978E+04  0.50400001928E-02 0. -1.
        1   -1    0    0  501    0  0.00000000000E+00  0.00000000000E+00 -0.52507433877E+03  0.52507433879E+03  0.50400001928E-02 0.  1.
    10030    2    1    2    0    0  0.00000000000E+00  0.00000000000E+00  0.75438175902E+03  0.18045304366E+04  0.16392797986E+04 0.  0.
        4    1    3    3  502    0  0.74191580178E+03 -0.30245773333E+03  0.56750066017E+03  0.98182399114E+03  0.12699999809E+01 0. -1.
       -4    1    3    3    0  502 -0.74191580178E+03  0.30245773333E+03  0.18688109885E+03  0.82270644545E+03  0.12699999809E+01 0.  1.
</event>
<event>
 5   0  0.9844690E-04  0.1561727E+04  0.7818609E-02  0.8844412E-01
        2   -1    0    0  501    0  0.00000000000E+00  0.00000000000E+00  0.96061326524E+03  0.96061326524E+03  0.25500000920E-02 0.  1.
       -2   -1    0    0    0  501  0.00000000000E+00  0.00000000000E+00 -0.63474814568E+03  0.63474814569E+03  0.25500000920E-02 0. -1.
    10030    2    1    2    0    0  0.00000000000E+00  0.00000000000E+00  0.32586511955E+03  0.15953614109E+04  0.15617265943E+04 0.  0.
        3    1    3    3  502    0 -0.36101756653E+03  0.68180785839E+03  0.39703531046E+02  0.77251020685E+03  0.10100000352E+00 0. -1.
       -3    1    3    3    0  502  0.36101756653E+03 -0.68180785839E+03  0.28616158851E+03  0.82285120408E+03  0.10100000352E+00 0.  1.
</event>
<event>
 5   0  0.5532881E-04  0.1490692E+04  0.7818609E-02  0.8890667E-01
        1   -1    0    0  501    0  0.00000000000E+00  0.00000000000E+00  0.12305973135E+04  0.12305973135E+04  0.50400001928E-02 0. -1.
       -1   -1    0    0    0  501  0.00000000000E+00  0.00000000000E+00 -0.45143965129E+03  0.45143965132E+03  0.50400001928E-02 0.  1.
    10030    2    1    2    0    0  0.00000000000E+00  0.00000000000E+00  0.77915766217E+03  0.16820369648E+04  0.14906916812E+04 0.  0.
        4    1    3    3  502    0 -0.27515543660E+03  0.54868893065E+03 -0.87503697428E+02  0.62002303737E+03  0.12699999809E+01 0.  1.
       -4    1    3    3    0  502  0.27515543660E+03 -0.54868893065E+03  0.86666135959E+03  0.10620139274E+04  0.12699999809E+01 0. -1.
</event>
<event>
 5   0  0.5288658E-04  0.1637889E+04  0.7818609E-02  0.8797604E-01
       -1   -1    0    0    0  501  0.00000000000E+00  0.00000000000E+00  0.77951921638E+03  0.77951921639E+03  0.50400001928E-02 0.  1.
        1   -1    0    0  501    0  0.00000000000E+00  0.00000000000E+00 -0.86036332009E+03  0.86036332011E+03  0.50400001928E-02 0. -1.
    10030    2    1    2    0    0  0.00000000000E+00  0.00000000000E+00 -0.80844103714E+02  0.16398825365E+04  0.16378885690E+04 0.  0.
        1    1    3    3  502    0  0.11313277407E+03 -0.33406868916E+03  0.69957774118E+03  0.78346022849E+03  0.50400001928E-02 0.  1.
       -1    1    3    3    0  502 -0.11313277407E+03  0.33406868916E+03 -0.78042184489E+03  0.85642230801E+03  0.50400001928E-02 0. -1.
</event>
<event>
 5   0  0.5281116E-04  0.1517986E+04  0.7818609E-02  0.8872580E-01
        1   -1    0    0  501    0  0.00000000000E+00  0.00000000000E+00  0.65390102232E+03  0.65390102234E+03  0.50400001928E-02 0. -1.
       -1   -1    0    0    0  501  0.00000000000E+00  0.00000000000E+00 -0.88097475515E+03  0.88097475516E+03  0.50400001928E-02 0.  1.
    10030    2    1    2    0    0  0.00000000000E+00  0.00000000000E+00 -0.22707373283E+03  0.15348757775E+04  0.15179858933E+04 0.  0.
        2    1    3    3  502    0  0.45313156342E+03 -0.59903734341E+03 -0.32529477680E+01  0.75112218330E+03  0.25500000920E-02 0.  1.
       -2    1    3    3    0  502 -0.45313156342E+03  0.59903734341E+03 -0.22382078506E+03  0.78375359419E+03  0.25500000920E-02 0. -1.
</event>
<event>
 5   0  0.1030027E-03  0.1622945E+04  0.7818609E-02  0.8806575E-01
        2   -1    0    0  501    0  0.00000000000E+00  0.00000000000E+00  0.88267519028E+03  0.88267519028E+03  0.25500000920E-02 0. -1.
       -2   -1    0    0    0  501  0.00000000000E+00  0.00000000000E+00 -0.74601311306E+03  0.74601311306E+03  0.25500000920E-02 0.  1.
    10030    2    1    2    0    0  0.00000000000E+00  0.00000000000E+00  0.13666207722E+03  0.16286883033E+04  0.16229445665E+04 0.  0.
        1    1    3    3  502    0 -0.38580946591E+03 -0.42733876424E+03  0.64221142748E+03  0.86249804696E+03  0.50400001928E-02 0. -1.
       -1    1    3    3    0  502  0.38580946591E+03  0.42733876424E+03 -0.50554935026E+03  0.76619025638E+03  0.50400001928E-02 0.  1.
</event>
<event>
 5   0  0.5425525E-04  0.1637950E+04  0.7818609E-02  0.8797567E-01
        1   -1    0    0  501    0  0.00000000000E+00  0.00000000000E+00  0.14238088854E+04  0.14238088854E+04  0.50400001928E-02 0.  1.
       -1   -1    0    0    0  501  0.00000000000E+00  0.00000000000E+00 -0.47107425554E+03  0.47107425557E+03  0.50400001928E-02 0. -1.
    10030    2    1    2    0    0  0.00000000000E+00  0.00000000000E+00  0.95273462990E+03  0.18948831410E+04  0.16379495850E+04 0.  0.
        5    1    3    3  502    0 -0.10995650170E+03 -0.11199790887E+02 -0.46239095080E+03  0.47544016339E+03  0.46999998093E+01 0. -1.
       -5    1    3    3    0  502  0.10995650170E+03  0.11199790887E+02  0.14151255807E+04  0.14194429776E+04  0.46999998093E+01 0.  1.
</event>
<event>
 5   0  0.9844690E-04  0.1647527E+04  0.7818609E-02  0.8791871E-01
       -2   -1    0    0    0  501  0.00000000000E+00  0.00000000000E+00  0.49783248497E+03  0.49783248498E+03  0.25500000920E-02 0.  1.
        2   -1    0    0  501    0  0.00000000000E+00  0.00000000000E+00 -0.13630810489E+04  0.13630810489E+04  0.25500000920E-02 0. -1.
    10030    2    1    2    0    0  0.00000000000E+00  0.00000000000E+00 -0.86524856395E+03  0.18609135339E+04  0.16475266624E+04 0.  0.
        3    1    3    3  502    0 -0.73947010759E+03  0.36270409007E+03 -0.44921394506E+03  0.93817028072E+03  0.10100000352E+00 0. -1.
       -3    1    3    3    0  502  0.73947010759E+03 -0.36270409007E+03 -0.41603461889E+03  0.92274325318E+03  0.10100000352E+00 0.  1.
</event>
<event>
 5   0  0.1057872E-03  0.1603354E+04  0.7818609E-02  0.8818490E-01
       -2   -1    0    0    0  501  0.00000000000E+00  0.00000000000E+00  0.16244181225E+04  0.16244181225E+04  0.25500000920E-02 0.  1.
        2   -1    0    0  501    0  0.00000000000E+00  0.00000000000E+00 -0.39564089068E+03  0.39564089069E+03  0.25500000920E-02 0. -1.
    10030    2    1    2    0    0  0.00000000000E+00  0.00000000000E+00  0.12287772319E+04  0.20200590132E+04  0.16033542751E+04 0.  0.
        2    1    3    3  502    0  0.26113054477E+03 -0.23321384273E+03  0.15230069303E+04  0.15627309326E+04  0.25500000920E-02 0.  1.
       -2    1    3    3    0  502 -0.26113054477E+03  0.23321384273E+03 -0.29422969848E+03  0.45732808062E+03  0.25500000920E-02 0. -1.
</event>
<event>
 5   0  0.1000121E-03  0.1668881E+04  0.7818609E-02  0.8779314E-01
       -2   -1    0    0    0  501  0.00000000000E+00  0.00000000000E+00  0.46878739322E+03  0.46878739323E+03  0.25500000920E-02 0. -1.
        2   -1    0    0  501    0  0.00000000000E+00  0.00000000000E+00 -0.14853028385E+04  0.14853028385E+04  0.25500000920E-02 0.  1.
    10030    2    1    2    0    0  0.00000000000E+00  0.00000000000E+00 -0.10165154453E+04  0.19540902318E+04  0.16688813569E+04 0.  0.
        4    1    3    3  502    0  0.36788459414E+03  0.64856393176E+03 -0.69654522274E+02  0.74888424577E+03  0.12699999809E+01 0. -1.
       -4    1    3    3    0  502 -0.36788459414E+03 -0.64856393176E+03 -0.94686092303E+03  0.12052059860E+04  0.12699999809E+01 0.  1.
</event>
<event>
 5   0  0.9844690E-04  0.1558635E+04  0.7818609E-02  0.8846371E-01
       -2   -1    0    0    0  501  0.00000000000E+00  0.00000000000E+00  0.31937764928E+03  0.31937764929E+03  0.25500000920E-02 0. -1.
        2   -1    0    0  501    0  0.00000000000E+00  0.00000000000E+00 -0.19016233078E+04  0.19016233078E+04  0.25500000920E-02 0.  1.
    10030    2    1    2    0    0  0.00000000000E+00  0.00000000000E+00 -0.15822456585E+04  0.22210009571E+04  0.15586352773E+04 0.  0.
        3    1    3    3  502    0 -0.18430094864E+03  0.52927162112E+03 -0.19479945564E+02  0.56078049812E+03  0.10100000352E+00 0. -1.
       -3    1    3    3    0  502  0.18430094864E+03 -0.52927162112E+03 -0.15627657130E+04  0.16602204590E+04  0.10100000352E+00 0.  1.
</event>
<event>
 5   0  0.5288658E-04  0.1691069E+04  0.7818609E-02  0.8766474E-01
       -1   -1    0    0    0  501  0.00000000000E+00  0.00000000000E+00  0.54932325961E+03  0.54932325963E+03  0.50400001928E-02 0. -1.
        1   -1    0    0  501    0  0.00000000000E+00  0.00000000000E+00 -0.13014721382E+04  0.13014721382E+04  0.50400001928E-02 0.  1.
    10030    2    1    2    0    0  0.00000000000E+00  0.00000000000E+00 -0.75214887859E+03  0.18507953978E+04  0.16910693862E+04 0.  0.
        1    1    3    3  502    0  0.72464651028E+03 -0.14803083281E+03  0.72388441413E+02  0.74314586643E+03  0.50400001928E-02 0.  1.
       -1    1    3    3    0  502 -0.72464651028E+03  0.14803083281E+03 -0.82453732000E+03  0.11076495314E+04  0.50400001928E-02 0. -1.
</event>
<event>
 5   0  0.5425525E-04  0.1606559E+04  0.7818609E-02  0.8816529E-01
       -1   -1    0    0    0  501  0.00000000000E+00  0.00000000000E+00  0.97822446027E+03  0.97822446028E+03  0.50400001928E-02 0.  1.
        1   -1    0    0  501    0  0.00000000000E+00  0.00000000000E+00 -0.65962161002E+03  0.65962161004E+03  0.50400001928E-02 0. -1.
    10030    2    1    2    0    0  0.00000000000E+00  0.00000000000E+00  0.31860285025E+03  0.16378460703E+04  0.16065590477E+04 0.  0.
        5    1    3    3  502    0 -0.38738503884E+03 -0.51065445485E+03  0.65287954704E+03  0.91493657350E+03  0.46999998093E+01 0.  1.
       -5    1    3    3    0  502  0.38738503884E+03  0.51065445485E+03 -0.33427669679E+03  0.72290949682E+03  0.46999998093E+01 0. -1.
</event>
<event>
 5   0  0.3832500E-04  0.1595050E+04  0.7818609E-02  0.8823595E-01
       -3   -1    0    0    0  501  0.00000000000E+00  0.00000000000E+00  0.12683044971E+04  0.12683045012E+04  0.10100000352E+00 0.  1.
        3   -1    0    0  501    0  0.00000000000E+00  0.00000000000E+00 -0.50149310345E+03  0.50149311362E+03  0.10100000352E+00 0. -1.
    10030    2    1    2    0    0  0.00000000000E+00  0.00000000000E+00  0.76681139368E+03  0.17697976148E+04  0.15950498061E+04 0.  0.
        4    1    3    3  502    0 -0.46165048554E+03  0.39021064148E+02 -0.33686691752E+03  0.57282174127E+03  0.12699999809E+01 0. -1.
       -4    1    3    3    0  502  0.46165048554E+03 -0.39021064148E+02  0.11036783112E+04  0.11969758735E+04  0.12699999809E+01 0.  1.
</event>
<event>
 5   0  0.1000121E-03  0.1568984E+04  0.7818609E-02  0.8839832E-01
       -2   -1    0    0    0  501  0.00000000000E+00  0.00000000000E+00  0.34751946730E+03  0.34751946731E+03  0.25500000920E-02 0. -1.
        2   -1    0    0  501    0  0.00000000000E+00  0.00000000000E+00 -0.17709164223E+04  0.17709164223E+04  0.25500000920E-02 0.  1.
    10030    2    1    2    0    0  0.00000000000E+00  0.00000000000E+00 -0.14233969550E+04  0.21184358896E+04  0.15689842978E+04 0.  0.
        4    1    3    3  502    0  0.12121058409E+03 -0.73599626596E+03 -0.38361533680E+03  0.83877580362E+03  0.12699999809E+01 0.  1.
       -4    1    3    3    0  502 -0.12121058409E+03  0.73599626596E+03 -0.10397816182E+04  0.12796600860E+04  0.12699999809E+01 0. -1.
</event>
<event>
 5   0  0.1057872E-03  0.1601992E+04  0.7818609E-02  0.8819325E-01
        2   -1    0    0  501    0  0.00000000000E+00  0.00000000000E+00  0.21132117070E+04  0.21132117070E+04  0.25500000920E-02 0.  1.
       -2   -1    0    0    0  501  0.00000000000E+00  0.00000000000E+00 -0.30361096751E+03  0.30361096752E+03  0.25500000920E-02 0. -1.
    10030    2    1    2    0    0  0.00000000000E+00  0.00000000000E+00  0.18096007394E+04  0.24168226745E+04  0.16019915741E+04 0.  0.
        2    1    3    3  502    0  0.25441160190E+03  0.74958915744E+03  0.72012280783E+03  0.10701336489E+04  0.25500000920E-02 0. -1.
       -2    1    3    3    0  502 -0.25441160190E+03 -0.74958915744E+03  0.10894779316E+04  0.13466890256E+04  0.25500000920E-02 0.  1.
</event>
<event>
 5   0  0.5281116E-04  0.1603415E+04  0.7818609E-02  0.8818453E-01
        1   -1    0    0  501    0  0.00000000000E+00  0.00000000000E+00  0.71410450940E+03  0.71410450942E+03  0.50400001928E-02 0. -1.
       -1   -1    0    0    0  501  0.00000000000E+00  0.00000000000E+00 -0.90005697771E+03  0.90005697772E+03  0.50400001928E-02 0.  1.
    10030    2    1    2    0    0  0.00000000000E+00  0.00000000000E+00 -0.18595246831E+03  0.16141614871E+04  0.16034147892E+04 0.  0.
        2    1    3    3  502    0 -0.38131500382E+03 -0.10456362822E+03 -0.79507451063E+03  0.88796292825E+03  0.25500000920E-02 0.  1.
       -2    1    3    3    0  502  0.38131500382E+03  0.10456362822E+03  0.60912204232E+03  0.72619855889E+03  0.25500000920E-02 0. -1.
</event>
<event>
 5   0  0.3832500E-04  0.1211285E+04  0.7818609E-02  0.9103036E-01
       -4   -1    0    0    0  501  0.00000000000E+00  0.00000000000E+00  0.21153818339E+03  0.21154199567E+03  0.12699999809E+01 0. -1.
        4   -1    0    0  501    0  0.00000000000E+00  0.00000000000E+00 -0.17339604792E+04  0.17339609443E+04  0.12699999809E+01 0.  1.
    10030    2    1    2    0    0  0.00000000000E+00  0.00000000000E+00 -0.15224222958E+04  0.19455029399E+04  0.12112852854E+04 0.  0.
        4    1    3    3  502    0  0.28263517300E+03 -0.42315703625E+03 -0.23372704527E+03  0.55997719859E+03  0.12699999809E+01 0. -1.
       -4    1    3    3    0  502 -0.28263517300E+03  0.42315703625E+03 -0.12886952505E+04  0.13855257413E+04  0.12699999809E+01 0.  1.
</event>
<event>
 5   0  0.1030027E-03  0.1609084E+04  0.7818609E-02  0.8814987E-01
        2   -1    0    0  501    0  0.00000000000E+00  0.00000000000E+00  0.11935876702E+04  0.11935876702E+04  0.25500000920E-02 0.  1.
       -2   -1    0    0    0  501  0.00000000000E+00  0.00000000000E+00 -0.54230408949E+03  0.54230408949E+03  0.25500000920E-02 0. -1.
    10030    2    1    2    0    0  0.00000000000E+00  0.00000000000E+00  0.65128358068E+03  0.17358917597E+04  0.16090835587E+04 0.  0.
        1    1    3    3  502    0  0.45722311562E+03 -0.61676493442E+03  0.58508442134E+03  0.96528531633E+03  0.50400001928E-02 0.  1.
       -1    1    3    3    0  502 -0.45722311562E+03  0.61676493442E+03  0.66199159336E+02  0.77060644334E+03  0.50400001928E-02 0. -1.
</event>
<event>
 5   0  0.5532881E-04  0.1657193E+04  0.7818609E-02  0.8786163E-01
        1   -1    0    0  501    0  0.00000000000E+00  0.00000000000E+00  0.12834136534E+04  0.12834136534E+04  0.50400001928E-02 0. -1.
       -1   -1    0    0    0  501  0.00000000000E+00  0.00000000000E+00 -0.53495753847E+03  0.53495753849E+03  0.50400001928E-02 0.  1.
    10030    2    1    2    0    0  0.00000000000E+00  0.00000000000E+00  0.74845611493E+03  0.18183711919E+04  0.16571925765E+04 0.  0.
        4    1    3    3  502    0 -0.75128884135E+03  0.11541576128E+03  0.73618165578E+03  0.10581685897E+04  0.12699999809E+01 0.  1.
       -4    1    3    3    0  502  0.75128884135E+03 -0.11541576128E+03  0.12274459157E+02  0.76020260217E+03  0.12699999809E+01 0. -1.
</event>
<event>
 5   0  0.5425525E-04  0.1602707E+04  0.7818609E-02  0.8818887E-01
       -1   -1    0    0    0  501  0.00000000000E+00  0.00000000000E+00  0.77255550431E+03  0.77255550433E+03  0.50400001928E-02 0. -1.
        1   -1    0    0  501    0  0.00000000000E+00  0.00000000000E+00 -0.83122495721E+03  0.83122495723E+03  0.50400001928E-02 0.  1.
    10030    2    1    2    0    0  0.00000000000E+00  0.00000000000E+00 -0.58669452901E+02  0.16037804616E+04  0.16027069801E+04 0.  0.
        5    1    3    3  502    0 -0.50735134088E+03 -0.38984642515E+03  0.45344018350E+03  0.78422937225E+03  0.46999998093E+01 0. -1.
       -5    1    3    3    0  502  0.50735134088E+03  0.38984642515E+03 -0.51210963640E+03  0.81955108931E+03  0.46999998093E+01 0.  1.
</event>
<event>
 5   0  0.5288658E-04  0.1553644E+04  0.7818609E-02  0.8849543E-01
       -1   -1    0    0    0  501  0.00000000000E+00  0.00000000000E+00  0.80035675942E+03  0.80035675944E+03  0.50400001928E-02 0.  1.
        1   -1    0    0  501    0  0.00000000000E+00  0.00000000000E+00 -0.75397945433E+03  0.75397945435E+03  0.50400001928E-02 0. -1.
    10030    2    1    2    0    0  0.00000000000E+00  0.00000000000E+00  0.46377305091E+02  0.15543362138E+04  0.15536441713E+04 0.  0.
        1    1    3    3  502    0  0.39937568872E+03 -0.55522721540E+03 -0.34531541192E+03  0.76617291469E+03  0.50400001928E-02 0. -1.
       -1    1    3    3    0  502 -0.39937568872E+03  0.55522721540E+03  0.39169271701E+03  0.78816329910E+03  0.50400001928E-02 0.  1.
</event>
<event>
 5   0  0.5623061E-04  0.1783665E+04  0.7818609E-02  0.8715035E-01
       -1   -1    0    0    0  501  0.00000000000E+00  0.00000000000E+00  0.54160991029E+03  0.54160991032E+03  0.50400001928E-02 0. -1.
        1   -1    0    0  501    0  0.00000000000E+00  0.00000000000E+00 -0.14685199626E+04  0.14685199626E+04  0.50400001928E-02 0.  1.
    10030    2    1    2    0    0  0.00000000000E+00  0.00000000000E+00 -0.92691005235E+03  0.20101298730E+04  0.17836647278E+04 0.  0.
        3    1    3    3  502    0  0.71026534957E+03 -0.38587891195E+03 -0.88810682990E+03  0.12008801576E+04  0.10100000352E+00 0.  1.
       -3    1    3    3    0  502 -0.71026534957E+03  0.38587891195E+03 -0.38803222451E+02  0.80924971533E+03  0.10100000352E+00 0. -1.
</event>
<event>
 5   0  0.9844690E-04  0.1590510E+04  0.7818609E-02  0.8826400E-01
        2   -1    0    0  501    0  0.00000000000E+00  0.00000000000E+00  0.89032623383E+03  0.89032623383E+03  0.25500000920E-02 0. -1.
       -2   -1    0    0    0  501  0.00000000000E+00  0.00000000000E+00 -0.71033536195E+03  0.71033536196E+03  0.25500000920E-02 0.  1.
    10030    2    1    2    0    0  0.00000000000E+00  0.00000000000E+00  0.17999087188E+03  0.16006615958E+04  0.15905096134E+04 0.  0.
        3    1    3    3  502    0  0.42048352864E+03 -0.66735688930E+03 -0.11935706075E+02  0.78886886542E+03  0.10100000352E+00 0.  1.
       -3    1    3    3    0  502 -0.42048352864E+03  0.66735688930E+03  0.19192657795E+03  0.81179273037E+03  0.10100000352E+00 0. -1.
</event>
<event>
 5   0  0.1030027E-03  0.1591121E+04  0.7818609E-02  0.8826021E-01
        2   -1    0    0  501    0  0.00000000000E+00  0.00000000000E+00  0.11095014955E+04  0.11095014955E+04  0.25500000920E-02 0. -1.
       -2   -1    0    0    0  501  0.00000000000E+00  0.00000000000E+00 -0.57045118866E+03  0.57045118866E+03  0.25500000920E-02 0.  1.
    10030    2    1    2    0    0  0.00000000000E+00  0.00000000000E+00  0.53905030682E+03  0.16799526841E+04  0.15911209218E+04 0.  0.
        1    1    3    3  502    0  0.23559526247E+03 -0.71885880111E+03  0.52955382417E+03  0.92341234362E+03  0.50400001928E-02 0. -1.
       -1    1    3    3    0  502 -0.23559526247E+03  0.71885880111E+03  0.94964826500E+01  0.75654034052E+03  0.50400001928E-02 0.  1.
</event>
<event>
 5   0  0.3832500E-04  0.1540331E+04  0.7818609E-02  0.8858068E-01
        3   -1    0    0  501    0  0.00000000000E+00  0.00000000000E+00  0.41579370331E+03  0.41579371558E+03  0.10100000352E+00 0. -1.
       -3   -1    0    0    0  501  0.00000000000E+00  0.00000000000E+00 -0.14265599375E+04  0.14265599411E+04  0.10100000352E+00 0.  1.
    10030    2    1    2    0    0  0.00000000000E+00  0.00000000000E+00 -0.10107662342E+04  0.18423536567E+04  0.15403306840E+04 0.  0.
        2    1    3    3  502    0 -0.43420768047E+03 -0.38985645050E+03  0.95793037383E+02  0.59135494231E+03  0.25500000920E-02 0. -1.
       -2    1    3    3    0  502  0.43420768047E+03  0.38985645050E+03 -0.11065592716E+04  0.12509987144E+04  0.25500000920E-02 0.  1.
</event>
<event>
 5   0  0.1000121E-03  0.1634921E+04  0.7818609E-02  0.8799378E-01
        2   -1    0    0  501    0  0.00000000000E+00  0.00000000000E+00  0.15929998647E+04  0.15929998647E+04  0.25500000920E-02 0. -1.
       -2   -1    0    0    0  501  0.00000000000E+00  0.00000000000E+00 -0.41948613870E+03  0.41948613871E+03  0.25500000920E-02 0.  1.
    10030    2    1    2    0    0  0.00000000000E+00  0.00000000000E+00  0.11735137260E+04  0.20124860034E+04  0.16349206246E+04 0.  0.
        4    1    3    3  502    0 -0.14518768754E+03  0.36274127586E+03  0.14706175707E+04  0.15216367340E+04  0.12699999809E+01 0. -1.
       -4    1    3    3    0  502  0.14518768754E+03 -0.36274127586E+03 -0.29710384477E+03  0.49084926943E+03  0.12699999809E+01 0.  1.
</event>
<event>
 5   0  0.5281116E-04  0.1618262E+04  0.7818609E-02  0.8809407E-01
        1   -1    0    0  501    0  0.00000000000E+00  0.00000000000E+00  0.18129213058E+04  0.18129213058E+04  0.50400001928E-02 0.  1.
       -1   -1    0    0    0  501  0.00000000000E+00  0.00000000000E+00 -0.36112596258E+03  0.36112596261E+03  0.50400001928E-02 0. -1.
    10030    2    1    2    0    0  0.00000000000E+00  0.00000000000E+00  0.14517953433E+04  0.21740472685E+04  0.16182619710E+04 0.  0.
        2    1    3    3  502    0 -0.52860368793E+03  0.29733798772E+03  0.63558026806E+01  0.60652463599E+03  0.25500000920E-02 0. -1.
       -2    1    3    3    0  502  0.52860368793E+03 -0.29733798772E+03  0.14454395406E+04  0.15675226325E+04  0.25500000920E-02 0.  1.
</event>
<event>
 5   0  0.1037321E-03  0.1608005E+04  0.7818609E-02  0.8815645E-01
       -2   -1    0    0    0  501  0.00000000000E+00  0.00000000000E+00  0.50710192611E+03  0.50710192611E+03  0.25500000920E-02 0. -1.
        2   -1    0    0  501    0  0.00000000000E+00  0.00000000000E+00 -0.12747343248E+04  0.12747343248E+04  0.25500000920E-02 0.  1.
    10030    2    1    2    0    0  0.00000000000E+00  0.00000000000E+00 -0.76763239868E+03  0.17818362509E+04  0.16080052629E+04 0.  0.
        5    1    3    3  502    0  0.52054595451E+03 -0.24675382778E+03  0.23765364475E+03  0.62318286814E+03  0.46999998093E+01 0. -1.
       -5    1    3    3    0  502 -0.52054595451E+03  0.24675382778E+03 -0.10052860434E+04  0.11586533828E+04  0.46999998093E+01 0.  1.
</event>
<event>
 5   0  0.1037321E-03  0.1608134E+04  0.7818609E-02  0.8815566E-01
        2   -1    0    0  501    0  0.00000000000E+00  0.00000000000E+00  0.83650433894E+03  0.83650433895E+03  0.25500000920E-02 0. -1.
       -2   -1    0    0    0  501  0.00000000000E+00  0.00000000000E+00 -0.77288783867E+03  0.77288783868E+03  0.25500000920E-02 0.  1.
    10030    2    1    2    0    0  0.00000000000E+00  0.00000000000E+00  0.63616500269E+02  0.16093921776E+04  0.16081343608E+04 0.  0.
        5    1    3    3  502    0 -0.53647602560E+03 -0.19189312463E+03 -0.53597353106E+03  0.78225265312E+03  0.46999998093E+01 0.  1.
       -5    1    3    3    0  502  0.53647602560E+03  0.19189312463E+03  0.59959003133E+03  0.82713952450E+03  0.46999998093E+01 0. -1.
</event>
<event>
 5   0  0.9844690E-04  0.1584809E+04  0.7818609E-02  0.8829935E-01
        2   -1    0    0  501    0  0.00000000000E+00  0.00000000000E+00  0.56094717128E+03  0.56094717128E+03  0.25500000920E-02 0.  1.
       -2   -1    0    0    0  501  0.00000000000E+00  0.00000000000E+00 -0.11193648353E+04  0.11193648353E+04  0.25500000920E-02 0. -1.
    10030    2    1    2    0    0  0.00000000000E+00  0.00000000000E+00 -0.55841766403E+03  0.16803120066E+04  0.15848085537E+04 0.  0.
        3    1    3    3  502    0 -0.73015642126E+03  0.15720703156E+03 -0.55985210046E+03  0.93342210969E+03  0.10100000352E+00 0. -1.
       -3    1    3    3    0  502  0.73015642126E+03 -0.15720703156E+03  0.14344364326E+01  0.74688989689E+03  0.10100000352E+00 0.  1.
</event>
<event>
 5   0  0.1037321E-03  0.1557174E+04  0.7818609E-02  0.8847298E-01
        2   -1    0    0  501    0  0.00000000000E+00  0.00000000000E+00  0.21024931781E+04  0.21024931781E+04  0.25500000920E-02 0. -1.
       -2   -1    0    0    0  501  0.00000000000E+00  0.00000000000E+00 -0.28832331270E+03  0.28832331271E+03  0.25500000920E-02 0.  1.
    10030    2    1    2    0    0  0.00000000000E+00  0.00000000000E+00  0.18141698654E+04  0.23908164908E+04  0.15571741046E+04 0.  0.
        5    1    3    3  502    0  0.18663277462E+03 -0.61727376618E+03  0.15768891480E+04  0.17036608142E+04  0.46999998093E+01 0. -1.
       -5    1    3    3    0  502 -0.18663277462E+03  0.61727376618E+03  0.23728071741E+03  0.68715567656E+03  0.46999998093E+01 0.  1.
</event>
<event>
 5   0  0.1057872E-03  0.1334725E+04  0.7818609E-02  0.9002472E-01
        2   -1    0    0  501    0  0.00000000000E+00  0.00000000000E+00  0.74874691953E+03  0.74874691954E+03  0.25500000920E-02 0. -1.
       -2   -1    0    0    0  501  0.00000000000E+00  0.00000000000E+00 -0.59482386724E+03  0.59482386725E+03  0.25500000920E-02 0.  1.
    10030    2    1    2    0    0  0.00000000000E+00  0.00000000000E+00  0.15392305229E+03  0.13435707868E+04  0.13347247481E+04 0.  0.
        2    1    3    3  502    0  0.48721758053E+03  0.26913642388E+03 -0.29365950379E+03  0.62932605985E+03  0.25500000920E-02 0.  1.
       -2    1    3    3    0  502 -0.48721758053E+03 -0.26913642388E+03  0.44758255608E+03  0.71424472693E+03  0.25500000920E-02 0. -1.
</event>
<event>
 5   0  0.1037321E-03  0.1594195E+04  0.7818609E-02  0.8824122E-01
       -2   -1    0    0    0  501  0.00000000000E+00  0.00000000000E+00  0.91156022603E+03  0.91156022603E+03  0.25500000920E-02 0. -1.
        2   -1    0    0  501    0  0.00000000000E+00  0.00000000000E+00 -0.69700791099E+03  0.69700791100E+03  0.25500000920E-02 0.  1.
    10030    2    1    2    0    0  0.00000000000E+00  0.00000000000E+00  0.21455231503E+03  0.16085681370E+04  0.15941953317E+04 0.  0.
        5    1    3    3  502    0 -0.45386227463E+02  0.29834887016E+03 -0.63712216003E+03  0.70499552819E+03  0.46999998093E+01 0.  1.
       -5    1    3    3    0  502  0.45386227463E+02 -0.29834887016E+03  0.85167447506E+03  0.90357260884E+03  0.46999998093E+01 0. -1.
</event>
<event>
 5   0  0.1057872E-03  0.1592110E+04  0.7818609E-02  0.8825410E-01
       -2   -1    0    0    0  501  0.00000000000E+00  0.00000000000E+00  0.11801763801E+04  0.11801763801E+04  0.25500000920E-02 0.  1.
        2   -1    0    0  501    0  0.00000000000E+00  0.00000000000E+00 -0.53695677039E+03  0.53695677040E+03  0.25500000920E-02 0. -1.
    10030    2    1    2    0    0  0.00000000000E+00  0.00000000000E+00  0.64321960969E+03  0.17171331505E+04  0.15921101690E+04 0.  0.
        2    1    3    3  502    0  0.58376054263E+03  0.90574318770E+02  0.89710619542E+03  0.10741413334E+04  0.25500000920E-02 0.  1.
       -2    1    3    3    0  502 -0.58376054263E+03 -0.90574318770E+02 -0.25388658573E+03  0.64299181703E+03  0.25500000920E-02 0. -1.
</event>
<event>
 5   0  0.1000121E-03  0.1610872E+04  0.7818609E-02  0.8813897E-01
        2   -1    0    0  501    0  0.00000000000E+00  0.00000000000E+00  0.11684015827E+04  0.11684015827E+04  0.25500000920E-02 0.  1.
       -2   -1    0    0    0  501  0.00000000000E+00  0.00000000000E+00 -0.55522613690E+03  0.55522613691E+03  0.25500000920E-02 0. -1.
    10030    2    1    2    0    0  0.00000000000E+00  0.00000000000E+00  0.61317544583E+03  0.17236277196E+04  0.16108719343E+04 0.  0.
        4    1    3    3  502    0 -0.48047722780E+03  0.27398565767E+03  0.93306051415E+03  0.10846796960E+04  0.12699999809E+01 0.  1.
       -4    1    3    3    0  502  0.48047722780E+03 -0.27398565767E+03 -0.31988506831E+03  0.63894802361E+03  0.12699999809E+01 0. -1.
</event>
<event>
 5   0  0.1030027E-03  0.1589543E+04  0.7818609E-02  0.8826998E-01
        2   -1    0    0  501    0  0.00000000000E+00  0.00000000000E+00  0.17296282442E+04  0.17296282442E+04  0.25500000920E-02 0. -1.
       -2   -1    0    0    0  501  0.00000000000E+00  0.00000000000E+00 -0.36520075860E+03  0.36520075861E+03  0.25500000920E-02 0.  1.
    10030    2    1    2    0    0  0.00000000000E+00  0.00000000000E+00  0.13644274856E+04  0.20948290028E+04  0.15895427605E+04 0.  0.
        1    1    3    3  502    0 -0.69403854157E+03  0.38235493156E+03  0.60122291715E+03  0.99466264985E+03  0.50400001928E-02 0.  1.
       -1    1    3    3    0  502  0.69403854157E+03 -0.38235493156E+03  0.76320456841E+03  0.11001663529E+04  0.50400001928E-02 0. -1.
</event>
<event>
 5   0  0.5288658E-04  0.1728451E+04  0.7818609E-02  0.8745302E-01
       -1   -1    0    0    0  501  0.00000000000E+00  0.00000000000E+00  0.11936548823E+04  0.11936548823E+04  0.50400001928E-02 0.  1.
        1   -1    0    0  501    0  0.00000000000E+00  0.00000000000E+00 -0.62571318807E+03  0.62571318809E+03  0.50400001928E-02 0. -1.
    10030    2    1    2    0    0  0.00000000000E+00  0.00000000000E+00  0.56794169419E+03  0.18193680704E+04  0.17284508693E+04 0.  0.
        1    1    3    3  502    0  0.22675692828E+03 -0.47010400810E+03 -0.44107839843E+03  0.68334957127E+03  0.50400001928E-02 0. -1.
       -1    1    3    3    0  502 -0.22675692828E+03  0.47010400810E+03  0.10090200926E+04  0.11360184991E+04  0.50400001928E-02 0.  1.
</event>
<event>
 5   0  0.5425525E-04  0.1596566E+04  0.7818609E-02  0.8822660E-01
       -1   -1    0    0    0  501  0.00000000000E+00  0.00000000000E+00  0.59675729102E+03  0.59675729104E+03  0.50400001928E-02 0. -1.
        1   -1    0    0  501    0  0.00000000000E+00  0.00000000000E+00 -0.10678643603E+04  0.10678643603E+04  0.50400001928E-02 0.  1.
    10030    2    1    2    0    0  0.00000000000E+00  0.00000000000E+00 -0.47110706928E+03  0.16646216514E+04  0.15965661187E+04 0.  0.
        5    1    3    3  502    0  0.16904343853E+03  0.31735823192E+03 -0.97863360979E+03  0.10426110318E+04  0.46999998093E+01 0.  1.
       -5    1    3    3    0  502 -0.16904343853E+03 -0.31735823192E+03  0.50752654051E+03  0.62201061953E+03  0.46999998093E+01 0. -1.
</event>
<event>
 5   0  0.5281116E-04  0.1603305E+04  0.7818609E-02  0.8818520E-01
        1   -1    0    0  501    0  0.00000000000E+00  0.00000000000E+00  0.10787369303E+04  0.10787369303E+04  0.50400001928E-02 0. -1.
       -1   -1    0    0    0  501  0.00000000000E+00  0.00000000000E+00 -0.59573989739E+03  0.59573989741E+03  0.50400001928E-02 0.  1.
    10030    2    1    2    0    0  0.00000000000E+00  0.00000000000E+00  0.48299703294E+03  0.16744768278E+04  0.16033048721E+04 0.  0.
        2    1    3    3  502    0 -0.19560028333E+03 -0.44150136450E+03 -0.42680036496E+03  0.64446991957E+03  0.25500000920E-02 0.  1.
       -2    1    3    3    0  502  0.19560028333E+03  0.44150136450E+03  0.90979739790E+03  0.10300069082E+04  0.25500000920E-02 0. -1.
</event>
<event>
 5   0  0.5425525E-04  0.1593762E+04  0.7818609E-02  0.8824389E-01
        1   -1    0    0  501    0  0.00000000000E+00  0.00000000000E+00  0.53025753468E+03  0.53025753471E+03  0.50400001928E-02 0.  1.
       -1   -1    0    0    0  501  0.00000000000E+00  0.00000000000E+00 -0.11975684451E+04  0.11975684452E+04  0.50400001928E-02 0. -1.
    10030    2    1    2    0    0  0.00000000000E+00  0.00000000000E+00 -0.66731091046E+03  0.17278259799E+04  0.15937624558E+04 0.  0.
        5    1    3    3  502    0  0.11894485501E+03  0.44848808886E+03  0.36868892659E+03  0.59265762373E+03  0.46999998093E+01 0.  1.
       -5    1    3    3    0  502 -0.11894485501E+03 -0.44848808886E+03 -0.10359998371E+04  0.11351683561E+04  0.46999998093E+01 0. -1.
</event>
<event>
 5   0  0.1030027E-03  0.1610434E+04  0.7818609E-02  0.8814164E-01
        2   -1    0    0  501    0  0.00000000000E+00  0.00000000000E+00  0.87118281686E+03  0.87118281687E+03  0.25500000920E-02 0.  1.
       -2   -1    0    0    0  501  0.00000000000E+00  0.00000000000E+00 -0.74424595149E+03  0.74424595150E+03  0.25500000920E-02 0. -1.
    10030    2    1    2    0    0  0.00000000000E+00  0.00000000000E+00  0.12693686537E+03  0.16154287684E+04  0.16104338353E+04 0.  0.
        1    1    3    3  502    0 -0.58527547987E+03 -0.10996446862E+03  0.60712240151E+03  0.85043352600E+03  0.50400001928E-02 0.  1.
       -1    1    3    3    0  502  0.58527547987E+03  0.10996446862E+03 -0.48018553614E+03  0.76499524237E+03  0.50400001928E-02 0. -1.
</event>
<event>
 5   0  0.1000121E-03  0.1542313E+04  0.7818609E-02  0.8856793E-01
        2   -1    0    0  501    0  0.00000000000E+00  0.00000000000E+00  0.62772291269E+03  0.62772291270E+03  0.25500000920E-02 0.  1.
       -2   -1    0    0    0  501  0.00000000000E+00  0.00000000000E+00 -0.94736430730E+03  0.94736430730E+03  0.25500000920E-02 0. -1.
    10030    2    1    2    0    0  0.00000000000E+00  0.00000000000E+00 -0.31964139461E+03  0.15750872200E+04  0.15423129155E+04 0.  0.
        4    1    3    3  502    0 -0.35780271247E+03  0.13165214558E+03  0.52474115516E+03  0.64862158560E+03  0.12699999809E+01 0.  1.
       -4    1    3    3    0  502  0.35780271247E+03 -0.13165214558E+03 -0.84438254977E+03  0.92646563441E+03  0.12699999809E+01 0. -1.
</event>
<event>
 5   0  0.5532881E-04  0.1570891E+04  0.7818609E-02  0.8838633E-01
        1   -1    0    0  501    0  0.00000000000E+00  0.00000000000E+00  0.10290634436E+04  0.10290634437E+04  0.50400001928E-02 0.  1.
       -1   -1    0    0    0  501  0.00000000000E+00  0.00000000000E+00 -0.59950115237E+03  0.59950115239E+03  0.50400001928E-02 0. -1.
    10030    2    1    2    0    0  0.00000000000E+00  0.00000000000E+00  0.42956229128E+03  0.16285645961E+04  0.15708911106E+04 0.  0.
        4    1    3    3  502    0  0.16531582476E+03 -0.52946794458E+03 -0.36174500915E+03  0.66221347826E+03  0.12699999809E+01 0. -1.
       -4    1    3    3    0  502 -0.16531582476E+03  0.52946794458E+03  0.79130730042E+03  0.96635111779E+03  0.12699999809E+01 0.  1.
</event>
<event>
 5   0  0.5281116E-04  0.1597386E+04  0.7818609E-02  0.8822155E-01
        1   -1    0    0  501    0  0.00000000000E+00  0.00000000000E+00  0.57899260391E+03  0.57899260394E+03  0.50400001928E-02 0. -1.
       -1   -1    0    0    0  501  0.00000000000E+00  0.00000000000E+00 -0.11017598269E+04  0.11017598269E+04  0.50400001928E-02 0.  1.
    10030    2    1    2    0    0  0.00000000000E+00  0.00000000000E+00 -0.52276722298E+03  0.16807524308E+04  0.15973863541E+04 0.  0.
        2    1    3    3  502    0 -0.15958407277E+03 -0.68482439822E+03 -0.65991090397E+03  0.96433082179E+03  0.25500000920E-02 0.  1.
       -2    1    3    3    0  502  0.15958407277E+03  0.68482439822E+03  0.13714368098E+03  0.71642160905E+03  0.25500000920E-02 0. -1.
</event>
<event>
 5   0  0.5281116E-04  0.1664274E+04  0.7818609E-02  0.8782007E-01
       -1   -1    0    0    0  501  0.00000000000E+00  0.00000000000E+00  0.53156004538E+03  0.53156004541E+03  0.50400001928E-02 0. -1.
        1   -1    0    0  501    0  0.00000000000E+00  0.00000000000E+00 -0.13026789465E+04  0.13026789465E+04  0.50400001928E-02 0.  1.
    10030    2    1    2    0    0  0.00000000000E+00  0.00000000000E+00 -0.77111890110E+03  0.18342389919E+04  0.16642741120E+04 0.  0.
        2    1    3    3  502    0  0.59040597140E+03 -0.58599148516E+03 -0.36124145089E+03  0.90689614487E+03  0.25500000920E-02 0.  1.
       -2    1    3    3    0  502 -0.59040597140E+03  0.58599148516E+03 -0.40987745021E+03  0.92734284703E+03  0.25500000920E-02 0. -1.
</event>
<event>
 5   0  0.1057872E-03  0.1635966E+04  0.7818609E-02  0.8798752E-01
       -2   -1    0    0    0  501  0.00000000000E+00  0.00000000000E+00  0.37576047543E+03  0.37576047544E+03  0.25500000920E-02 0. -1.
        2   -1    0    0  501    0  0.00000000000E+00  0.00000000000E+00 -0.17806460703E+04  0.17806460703E+04  0.25500000920E-02 0.  1.
    10030    2    1    2    0    0  0.00000000000E+00  0.00000000000E+00 -0.14048855949E+04  0.21564065457E+04  0.16359662759E+04 0.  0.
        2    1    3    3  502    0  0.53377270951E+02 -0.36498563045E+03 -0.16647932384E+04  0.17051686632E+04  0.25500000920E-02 0.  1.
       -2    1    3    3    0  502 -0.53377270951E+02  0.36498563045E+03  0.25990764349E+03  0.45123788254E+03  0.25500000920E-02 0. -1.
</event>
<event>
 5   0  0.5288658E-04  0.1633199E+04  0.7818609E-02  0.8800408E-01
        1   -1    0    0  501    0  0.00000000000E+00  0.00000000000E+00  0.16348025844E+04  0.16348025844E+04  0.50400001928E-02 0.  1.
       -1   -1    0    0    0  501  0.00000000000E+00  0.00000000000E+00 -0.40789926653E+03  0.40789926656E+03  0.50400001928E-02 0. -1.
    10030    2    1    2    0    0  0.00000000000E+00  0.00000000000E+00  0.12269033179E+04  0.20427018510E+04  0.16331990389E+04 0.  0.
        1    1    3    3  502    0 -0.44191151905E+03 -0.44035884380E+03 -0.45572699390E+02  0.62552263983E+03  0.50400001928E-02 0. -1.
       -1    1    3    3    0  502  0.44191151905E+03  0.44035884380E+03  0.12724760173E+04  0.14171792111E+04  0.50400001928E-02 0.  1.
</event>
<event>
 5   0  0.5281116E-04  0.1600786E+04  0.7818609E-02  0.8820065E-01
       -1   -1    0    0    0  501  0.00000000000E+00  0.00000000000E+00  0.30496751945E+03  0.30496751949E+03  0.50400001928E-02 0.  1.
        1   -1    0    0  501    0  0.00000000000E+00  0.00000000000E+00 -0.21006475329E+04  0.21006475329E+04  0.50400001928E-02 0. -1.
    10030    2    1    2    0    0  0.00000000000E+00  0.00000000000E+00 -0.17956800134E+04  0.24056150524E+04  0.16007863910E+04 0.  0.
        2    1    3    3  502    0 -0.10843428320E+03 -0.58863756916E+03 -0.16963998642E+04  0.17988954057E+04  0.25500000920E-02 0. -1.
       -2    1    3    3    0  502  0.10843428320E+03  0.58863756916E+03 -0.99280149271E+02  0.60671964666E+03  0.25500000920E-02 0.  1.
</event>
<event>
 5   0  0.5623061E-04  0.1648661E+04  0.7818609E-02  0.8791199E-01
       -1   -1    0    0    0  501  0.00000000000E+00  0.00000000000E+00  0.47894348719E+03  0.47894348721E+03  0.50400001928E-02 0.  1.
        1   -1    0    0  501    0  0.00000000000E+00  0.00000000000E+00 -0.14187910194E+04  0.14187910194E+04  0.50400001928E-02 0. -1.
    10030    2    1    2    0    0  0.00000000000E+00  0.00000000000E+00 -0.93984753221E+03  0.18977345066E+04  0.16486609335E+04 0.  0.
        3    1    3    3  502    0  0.36971772201E+02  0.69449641615E+03  0.39456461314E+02  0.69659816718E+03  0.10100000352E+00 0.  1.
       -3    1    3    3    0  502 -0.36971772201E+02 -0.69449641615E+03 -0.97930399353E+03  0.12011363394E+04  0.10100000352E+00 0. -1.
</event>
<event>
 5   0  0.5532881E-04  0.1304661E+04  0.7818609E-02  0.9025877E-01
        1   -1    0    0  501    0  0.00000000000E+00  0.00000000000E+00  0.50035245551E+03  0.50035245553E+03  0.50400001928E-02 0. -1.
       -1   -1    0    0    0  501  0.00000000000E+00  0.00000000000E+00 -0.85047090259E+03  0.85047090261E+03  0.50400001928E-02 0.  1.
    10030    2    1    2    0    0  0.00000000000E+00  0.00000000000E+00 -0.35011844709E+03  0.13508233581E+04  0.13046611889E+04 0.  0.
        4    1    3    3  502    0  0.22435014717E+03  0.21131201023E+03  0.42021623554E+03  0.52112287583E+03  0.12699999809E+01 0. -1.
       -4    1    3    3    0  502 -0.22435014717E+03 -0.21131201023E+03 -0.77033468262E+03  0.82970048232E+03  0.12699999809E+01 0.  1.
</event>
<event>
 5   0  0.1000121E-03  0.1590818E+04  0.7818609E-02  0.8826209E-01
        2   -1    0    0  501    0  0.00000000000E+00  0.00000000000E+00  0.16410180114E+04  0.16410180114E+04  0.25500000920E-02 0. -1.
       -2   -1    0    0    0  501  0.00000000000E+00  0.00000000000E+00 -0.38553846482E+03  0.38553846483E+03  0.25500000920E-02 0.  1.
    10030    2    1    2    0    0  0.00000000000E+00  0.00000000000E+00  0.12554795466E+04  0.20265564763E+04  0.15908181101E+04 0.  0.
        4    1    3    3  502    0 -0.72395175335E+03 -0.32875363656E+03  0.59957351129E+03  0.99582885230E+03  0.12699999809E+01 0.  1.
       -4    1    3    3    0  502  0.72395175335E+03  0.32875363656E+03  0.65590603533E+03  0.10307276240E+04  0.12699999809E+01 0. -1.
</event>
<event>
 5   0  0.1057872E-03  0.1534019E+04  0.7818609E-02  0.8862141E-01
        2   -1    0    0  501    0  0.00000000000E+00  0.00000000000E+00  0.67420830630E+03  0.67420830630E+03  0.25500000920E-02 0. -1.
       -2   -1    0    0    0  501  0.00000000000E+00  0.00000000000E+00 -0.87258380906E+03  0.87258380906E+03  0.25500000920E-02 0.  1.
    10030    2    1    2    0    0  0.00000000000E+00  0.00000000000E+00 -0.19837550276E+03  0.15467921154E+04  0.15340185814E+04 0.  0.
        2    1    3    3  502    0 -0.48679865969E+03 -0.88761974272E+02  0.49173963760E+03  0.69760984393E+03  0.25500000920E-02 0. -1.
       -2    1    3    3    0  502  0.48679865969E+03  0.88761974272E+02 -0.69011514037E+03  0.84918227143E+03  0.25500000920E-02 0.  1.
</event>
<event>
 5   0  0.1037321E-03  0.1634926E+04  0.7818609E-02  0.8799374E-01
       -2   -1    0    0    0  501  0.00000000000E+00  0.00000000000E+00  0.12738206796E+04  0.12738206796E+04  0.25500000920E-02 0.  1.
        2   -1    0    0  501    0  0.00000000000E+00  0.00000000000E+00 -0.52459956314E+03  0.52459956315E+03  0.25500000920E-02 0. -1.
    10030    2    1    2    0    0  0.00000000000E+00  0.00000000000E+00  0.74922111641E+03  0.17984202427E+04  0.16349260191E+04 0.  0.
        5    1    3    3  502    0  0.26411828386E+03  0.66910931512E+03 -0.52492982689E+02  0.72127896592E+03  0.46999998093E+01 0. -1.
       -5    1    3    3    0  502 -0.26411828386E+03 -0.66910931512E+03  0.80171409910E+03  0.10771412768E+04  0.46999998093E+01 0.  1.
</event>
<event>
 5   0  0.9844690E-04  0.1602456E+04  0.7818609E-02  0.8819040E-01
        2   -1    0    0  501    0  0.00000000000E+00  0.00000000000E+00  0.94714327321E+03  0.94714327322E+03  0.25500000920E-02 0. -1.
       -2   -1    0    0    0  501  0.00000000000E+00  0.00000000000E+00 -0.67779257847E+03  0.67779257847E+03  0.25500000920E-02 0.  1.
    10030    2    1    2    0    0  0.00000000000E+00  0.00000000000E+00  0.26935069474E+03  0.16249358517E+04  0.16024564660E+04 0.  0.
        3    1    3    3  502    0 -0.59448438496E+03  0.21815025349E+03 -0.36309311060E+03  0.72995741945E+03  0.10100000352E+00 0.  1.
       -3    1    3    3    0  502  0.59448438496E+03 -0.21815025349E+03  0.63244380534E+03  0.89497843224E+03  0.10100000352E+00 0. -1.
</event>
<event>
 5   0  0.1030027E-03  0.1558939E+04  0.7818609E-02  0.8846178E-01
        2   -1    0    0  501    0  0.00000000000E+00  0.00000000000E+00  0.55924260836E+03  0.55924260837E+03  0.25500000920E-02 0. -1.
       -2   -1    0    0    0  501  0.00000000000E+00  0.00000000000E+00 -0.10864205676E+04  0.10864205676E+04  0.25500000920E-02 0.  1.
    10030    2    1    2    0    0  0.00000000000E+00  0.00000000000E+00 -0.52717795927E+03  0.16456631760E+04  0.15589389623E+04 0.  0.
        1    1    3    3  502    0  0.14387621465E+03 -0.32649864393E+03  0.46797951758E+03  0.58847817167E+03  0.50400001928E-02 0. -1.
       -1    1    3    3    0  502 -0.14387621465E+03  0.32649864393E+03 -0.99515747685E+03  0.10571850043E+04  0.50400001928E-02 0.  1.
</event>
<event>
 5   0  0.5623061E-04  0.1614092E+04  0.7818609E-02  0.8811938E-01
        1   -1    0    0  501    0  0.00000000000E+00  0.00000000000E+00  0.85763887453E+03  0.85763887454E+03  0.50400001928E-02 0. -1.
       -1   -1    0    0    0  501  0.00000000000E+00  0.00000000000E+00 -0.75943721698E+03  0.75943721700E+03  0.50400001928E-02 0.  1.
    10030    2    1    2    0    0  0.00000000000E+00  0.00000000000E+00  0.98201657543E+02  0.16170760915E+04  0.16140915464E+04 0.  0.
        3    1    3    3  502    0 -0.58614064460E+03  0.85277692301E+02 -0.50008220234E+03  0.77518730598E+03  0.10100000352E+00 0.  1.
       -3    1    3    3    0  502  0.58614064460E+03 -0.85277692301E+02  0.59828385988E+03  0.84188878556E+03  0.10100000352E+00 0. -1.
</event>
<event>
 5   0  0.5623061E-04  0.1598293E+04  0.7818609E-02  0.8821597E-01
        1   -1    0    0  501    0  0.00000000000E+00  0.00000000000E+00  0.44060172357E+03  0.44060172359E+03  0.50400001928E-02 0. -1.
       -1   -1    0    0    0  501  0.00000000000E+00  0.00000000000E+00 -0.14494617801E+04  0.14494617801E+04  0.50400001928E-02 0.  1.
    10030    2    1    2    0    0  0.00000000000E+00  0.00000000000E+00 -0.10088600565E+04  0.18900635037E+04  0.15982932880E+04 0.  0.
        3    1    3    3  502    0 -0.33943084929E+03 -0.65550325370E+03 -0.14237325516E+03  0.75177654330E+03  0.10100000352E+00 0. -1.
       -3    1    3    3    0  502  0.33943084929E+03  0.65550325370E+03 -0.86648680137E+03  0.11382869604E+04  0.10100000352E+00 0.  1.
</event>
<event>
 5   0  0.9844690E-04  0.1615936E+04  0.7818609E-02  0.8810817E-01
       -2   -1    0    0    0  501  0.00000000000E+00  0.00000000000E+00  0.31245852074E+03  0.31245852075E+03  0.25500000920E-02 0. -1.
        2   -1    0    0  501    0  0.00000000000E+00  0.00000000000E+00 -0.20892774618E+04  0.20892774618E+04  0.25500000920E-02 0.  1.
    10030    2    1    2    0    0  0.00000000000E+00  0.00000000000E+00 -0.17768189411E+04  0.24017359826E+04  0.16159363170E+04 0.  0.
        3    1    3    3  502    0  0.20242628163E+03  0.51288266244E+03 -0.17661809901E+04  0.18502487197E+04  0.10100000352E+00 0.  1.
       -3    1    3    3    0  502 -0.20242628163E+03 -0.51288266244E+03 -0.10637951036E+02  0.55148726289E+03  0.10100000352E+00 0. -1.
</event>
<event>
 5   0  0.5532881E-04  0.1637869E+04  0.7818609E-02  0.8797615E-01
        1   -1    0    0  501    0  0.00000000000E+00  0.00000000000E+00  0.16935094268E+04  0.16935094268E+04  0.50400001928E-02 0. -1.
       -1   -1    0    0    0  501  0.00000000000E+00  0.00000000000E+00 -0.39601420483E+03  0.39601420487E+03  0.50400001928E-02 0.  1.
    10030    2    1    2    0    0  0.00000000000E+00  0.00000000000E+00  0.12974952219E+04  0.20895236317E+04  0.16378690901E+04 0.  0.
        4    1    3    3  502    0 -0.24036081788E+03 -0.27272040472E+03  0.15849331655E+04  0.16260887104E+04  0.12699999809E+01 0. -1.
       -4    1    3    3    0  502  0.24036081788E+03  0.27272040472E+03 -0.28743794360E+03  0.46343492126E+03  0.12699999809E+01 0.  1.
</event>
<event>
 5   0  0.1030027E-03  0.1620038E+04  0.7818609E-02  0.8808332E-01
       -2   -1    0    0    0  501  0.00000000000E+00  0.00000000000E+00  0.52831735940E+03  0.52831735941E+03  0.25500000920E-02 0.  1.
        2   -1    0    0  501    0  0.00000000000E+00  0.00000000000E+00 -0.12419257112E+04  0.12419257112E+04  0.25500000920E-02 0. -1.
    10030    2    1    2    0    0  0.00000000000E+00  0.00000000000E+00 -0.71360835181E+03  0.17702430706E+04  0.16200381629E+04 0.  0.
        1    1    3    3  502    0 -0.39857232170E+03 -0.63459174661E+03 -0.69282898028E+03  0.10205775700E+04  0.50400001928E-02 0. -1.
       -1    1    3    3    0  502  0.39857232170E+03  0.63459174661E+03 -0.20779371536E+02  0.74966550061E+03  0.50400001928E-02 0.  1.
</event>
<event>
 5   0  0.9844690E-04  0.1589099E+04  0.7818609E-02  0.8827273E-01
       -2   -1    0    0    0  501  0.00000000000E+00  0.00000000000E+00  0.21368622106E+03  0.21368622108E+03  0.25500000920E-02 0. -1.
        2   -1    0    0  501    0  0.00000000000E+00  0.00000000000E+00 -0.29543740584E+04  0.29543740584E+04  0.25500000920E-02 0.  1.
    10030    2    1    2    0    0  0.00000000000E+00  0.00000000000E+00 -0.27406878374E+04  0.31680602795E+04  0.15890991513E+04 0.  0.
        3    1    3    3  502    0 -0.39714363935E+03 -0.65861940081E+03 -0.17681020529E+04  0.19281305622E+04  0.10100000352E+00 0.  1.
       -3    1    3    3    0  502  0.39714363935E+03  0.65861940081E+03 -0.97258578450E+03  0.12399297173E+04  0.10100000352E+00 0. -1.
</event>
<event>
 5   0  0.5288658E-04  0.1607964E+04  0.7818609E-02  0.8815671E-01
        1   -1    0    0  501    0  0.00000000000E+00  0.00000000000E+00  0.11340190438E+04  0.11340190438E+04  0.50400001928E-02 0. -1.
       -1   -1    0    0    0  501  0.00000000000E+00  0.00000000000E+00 -0.56999640573E+03  0.56999640575E+03  0.50400001928E-02 0.  1.
    10030    2    1    2    0    0  0.00000000000E+00  0.00000000000E+00  0.56402263811E+03  0.17040154496E+04  0.16079636551E+04 0.  0.
        1    1    3    3  502    0 -0.15622825033E+03  0.78742651993E+03  0.23534700142E+03  0.83656201300E+03  0.50400001928E-02 0. -1.
       -1    1    3    3    0  502  0.15622825033E+03 -0.78742651993E+03  0.32867563668E+03  0.86745343660E+03  0.50400001928E-02 0.  1.
</event>
<event>
 5   0  0.9844690E-04  0.1596102E+04  0.7818609E-02  0.8822946E-01
       -2   -1    0    0    0  501  0.00000000000E+00  0.00000000000E+00  0.74731262330E+03  0.74731262331E+03  0.25500000920E-02 0.  1.
        2   -1    0    0  501    0  0.00000000000E+00  0.00000000000E+00 -0.85223463224E+03  0.85223463224E+03  0.25500000920E-02 0. -1.
    10030    2    1    2    0    0  0.00000000000E+00  0.00000000000E+00 -0.10492200894E+03  0.15995472556E+04  0.15961023760E+04 0.  0.
        3    1    3    3  502    0  0.51937827620E+03  0.39958719424E+01 -0.65966964725E+03  0.83960336736E+03  0.10100000352E+00 0. -1.
       -3    1    3    3    0  502 -0.51937827620E+03 -0.39958719424E+01  0.55474763832E+03  0.75994388819E+03  0.10100000352E+00 0.  1.
</event>
<event>
 5   0  0.1030027E-03  0.1567640E+04  0.7818609E-02  0.8840678E-01
        2   -1    0    0  501    0  0.00000000000E+00  0.00000000000E+00  0.21923865293E+04  0.21923865293E+04  0.25500000920E-02 0. -1.
       -2   -1    0    0    0  501  0.00000000000E+00  0.00000000000E+00 -0.28023073329E+03  0.28023073330E+03  0.25500000920E-02 0.  1.
    10030    2    1    2    0    0  0.00000000000E+00  0.00000000000E+00  0.19121557960E+04  0.24726172626E+04  0.15676403730E+04 0.  0.
        1    1    3    3  502    0  0.25722534474E+03 -0.73874886595E+03  0.87785787053E+03  0.11758185259E+04  0.50400001928E-02 0. -1.
       -1    1    3    3    0  502 -0.25722534474E+03  0.73874886595E+03  0.10342979255E+04  0.12967987367E+04  0.50400001928E-02 0.  1.
</event>
<event>
 5   0  0.5281116E-04  0.1558135E+04  0.7818609E-02  0.8846688E-01
       -1   -1    0    0    0  501  0.00000000000E+00  0.00000000000E+00  0.16173863289E+04  0.16173863289E+04  0.50400001928E-02 0.  1.
        1   -1    0    0  501    0  0.00000000000E+00  0.00000000000E+00 -0.37526372235E+03  0.37526372238E+03  0.50400001928E-02 0. -1.
    10030    2    1    2    0    0  0.00000000000E+00  0.00000000000E+00  0.12421226066E+04  0.19926500513E+04  0.15581353142E+04 0.  0.
        2    1    3    3  502    0  0.70701402252E+03  0.13878680392E+03  0.10000377488E+04  0.12325607912E+04  0.25500000920E-02 0.  1.
       -2    1    3    3    0  502 -0.70701402252E+03 -0.13878680392E+03  0.24208485779E+03  0.76008926012E+03  0.25500000920E-02 0. -1.
</event>
<event>
 5   0  0.1000121E-03  0.1604677E+04  0.7818609E-02  0.8817680E-01
       -2   -1    0    0    0  501  0.00000000000E+00  0.00000000000E+00  0.35381179050E+03  0.35381179051E+03  0.25500000920E-02 0. -1.
        2   -1    0    0  501    0  0.00000000000E+00  0.00000000000E+00 -0.18194610536E+04  0.18194610536E+04  0.25500000920E-02 0.  1.
    10030    2    1    2    0    0  0.00000000000E+00  0.00000000000E+00 -0.14656492631E+04  0.21732728441E+04  0.16046766318E+04 0.  0.
        4    1    3    3  502    0  0.34620106083E+03 -0.97672229587E+02 -0.17041308037E+04  0.17416826484E+04  0.12699999809E+01 0.  1.
       -4    1    3    3    0  502 -0.34620106083E+03  0.97672229587E+02  0.23848154053E+03  0.43159019570E+03  0.12699999809E+01 0. -1.
</event>
<event>
 5   0  0.1057872E-03  0.1594711E+04  0.7818609E-02  0.8823804E-01
       -2   -1    0    0    0  501  0.00000000000E+00  0.00000000000E+00  0.47841804333E+03  0.47841804334E+03  0.25500000920E-02 0.  1.
        2   -1    0    0  501    0  0.00000000000E+00  0.00000000000E+00 -0.13289119181E+04  0.13289119181E+04  0.25500000920E-02 0. -1.
    10030    2    1    2    0    0  0.00000000000E+00  0.00000000000E+00 -0.85049387473E+03  0.18073299614E+04  0.15947105563E+04 0.  0.
        2    1    3    3  502    0 -0.11438420745E+03  0.57836983830E+02  0.46666597160E+03  0.48394833678E+03  0.25500000920E-02 0.  1.
       -2    1    3    3    0  502  0.11438420745E+03 -0.57836983830E+02 -0.13171598463E+04  0.13233816246E+04  0.25500000920E-02 0. -1.
</event>
<event>
 5   0  0.5623061E-04  0.1561892E+04  0.7818609E-02  0.8844308E-01
       -1   -1    0    0    0  501  0.00000000000E+00  0.00000000000E+00  0.11063701375E+04  0.11063701376E+04  0.50400001928E-02 0.  1.
        1   -1    0    0  501    0  0.00000000000E+00  0.00000000000E+00 -0.55124079733E+03  0.55124079735E+03  0.50400001928E-02 0. -1.
    10030    2    1    2    0    0  0.00000000000E+00  0.00000000000E+00  0.55512934021E+03  0.16576109349E+04  0.15618916182E+04 0.  0.
        3    1    3    3  502    0  0.14959917495E+03 -0.76100206896E+03  0.18045696359E+03  0.79628436379E+03  0.10100000352E+00 0. -1.
       -3    1    3    3    0  502 -0.14959917495E+03  0.76100206896E+03  0.37467237662E+03  0.86132657112E+03  0.10100000352E+00 0.  1.
</event>
<event>
 5   0  0.5532881E-04  0.1592936E+04  0.7818609E-02  0.8824899E-01
       -1   -1    0    0    0  501  0.00000000000E+00  0.00000000000E+00  0.65284593581E+03  0.65284593583E+03  0.50400001928E-02 0.  1.
        1   -1    0    0  501    0  0.00000000000E+00  0.00000000000E+00 -0.97168627304E+03  0.97168627305E+03  0.50400001928E-02 0. -1.
    10030    2    1    2    0    0  0.00000000000E+00  0.00000000000E+00 -0.31884033723E+03  0.16245322089E+04  0.15929361999E+04 0.  0.
        4    1    3    3  502    0  0.78499868810E+03  0.13255150672E+03 -0.18370379105E+03  0.81703215237E+03  0.12699999809E+01 0. -1.
       -4    1    3    3    0  502 -0.78499868810E+03 -0.13255150672E+03 -0.13513654618E+03  0.80750005651E+03  0.12699999809E+01 0.  1.
</event>
<event>
 5   0  0.5425525E-04  0.1949319E+04  0.7818609E-02  0.8630689E-01
        1   -1    0    0  501    0  0.00000000000E+00  0.00000000000E+00  0.18255045229E+04  0.18255045229E+04  0.50400001928E-02 0. -1.
       -1   -1    0    0    0  501  0.00000000000E+00  0.00000000000E+00 -0.52038267911E+03  0.52038267914E+03  0.50400001928E-02 0.  1.
    10030    2    1    2    0    0  0.00000000000E+00  0.00000000000E+00  0.13051218438E+04  0.23458872021E+04  0.19493187881E+04 0.  0.
        5    1    3    3  502    0 -0.43529782998E+03 -0.60798279424E+03  0.14048901960E+04  0.15914979836E+04  0.46999998093E+01 0. -1.
       -5    1    3    3    0  502  0.43529782998E+03  0.60798279424E+03 -0.99768352210E+02  0.75438921849E+03  0.46999998093E+01 0.  1.
</event>
<event>
 5   0  0.5532881E-04  0.1602139E+04  0.7818609E-02  0.8819235E-01
        1   -1    0    0  501    0  0.00000000000E+00  0.00000000000E+00  0.10509425134E+04  0.10509425134E+04  0.50400001928E-02 0.  1.
       -1   -1    0    0    0  501  0.00000000000E+00  0.00000000000E+00 -0.61060645149E+03  0.61060645151E+03  0.50400001928E-02 0. -1.
    10030    2    1    2    0    0  0.00000000000E+00  0.00000000000E+00  0.44033606189E+03  0.16615489649E+04  0.16021389189E+04 0.  0.
        4    1    3    3  502    0  0.13837565074E+03  0.74886320021E+02  0.10347591618E+04  0.10466536760E+04  0.12699999809E+01 0.  1.
       -4    1    3    3    0  502 -0.13837565074E+03 -0.74886320021E+02 -0.59442309994E+03  0.61489528888E+03  0.12699999809E+01 0. -1.
</event>
<event>
 5   0  0.5288658E-04  0.1606518E+04  0.7818609E-02  0.8816554E-01
        1   -1    0    0  501    0  0.00000000000E+00  0.00000000000E+00  0.50121055054E+03  0.50121055057E+03  0.50400001928E-02 0. -1.
       -1   -1    0    0    0  501  0.00000000000E+00  0.00000000000E+00 -0.12873337009E+04  0.12873337009E+04  0.50400001928E-02 0.  1.
    10030    2    1    2    0    0  0.00000000000E+00  0.00000000000E+00 -0.78612315038E+03  0.17885442515E+04  0.16065182638E+04 0.  0.
        1    1    3    3  502    0  0.72004252584E+01  0.36382306182E+03  0.40418129139E+03  0.54385805388E+03  0.50400001928E-02 0. -1.
       -1    1    3    3    0  502 -0.72004252584E+01 -0.36382306182E+03 -0.11903044418E+04  0.12446861976E+04  0.50400001928E-02 0.  1.
</event>
<event>
 5   0  0.1037321E-03  0.1597561E+04  0.7818609E-02  0.8822048E-01
        2   -1    0    0  501    0  0.00000000000E+00  0.00000000000E+00  0.67481150134E+03  0.67481150135E+03  0.25500000920E-02 0.  1.
       -2   -1    0    0    0  501  0.00000000000E+00  0.00000000000E+00 -0.94552326576E+03  0.94552326577E+03  0.25500000920E-02 0. -1.
    10030    2    1    2    0    0  0.00000000000E+00  0.00000000000E+00 -0.27071176442E+03  0.16203347671E+04  0.15975606086E+04 0.  0.
        5    1    3    3  502    0  0.20885145391E+03  0.26917446124E+03  0.59740714628E+03  0.68774356326E+03  0.46999998093E+01 0.  1.
       -5    1    3    3    0  502 -0.20885145391E+03 -0.26917446124E+03 -0.86811891070E+03  0.93259120385E+03  0.46999998093E+01 0. -1.
</event>
<event>
 5   0  0.5532881E-04  0.1583008E+04  0.7818609E-02  0.8831055E-01
       -1   -1    0    0    0  501  0.00000000000E+00  0.00000000000E+00  0.66533313718E+03  0.66533313720E+03  0.50400001928E-02 0.  1.
        1   -1    0    0  501    0  0.00000000000E+00  0.00000000000E+00 -0.94160191289E+03  0.94160191290E+03  0.50400001928E-02 0. -1.
    10030    2    1    2    0    0  0.00000000000E+00  0.00000000000E+00 -0.27626877570E+03  0.16069350501E+04  0.15830084709E+04 0.  0.
        4    1    3    3  502    0 -0.21305251283E+03 -0.49655318710E+03 -0.72525417015E+03  0.90440680286E+03  0.12699999809E+01 0. -1.
       -4    1    3    3    0  502  0.21305251283E+03  0.49655318710E+03  0.44898539445E+03  0.70252824724E+03  0.12699999809E+01 0.  1.
</event>
<event>
 5   0  0.1037321E-03  0.1631556E+04  0.7818609E-02  0.8801393E-01
       -2   -1    0    0    0  501  0.00000000000E+00  0.00000000000E+00  0.19235452268E+04  0.19235452268E+04  0.25500000920E-02 0.  1.
        2   -1    0    0  501    0  0.00000000000E+00  0.00000000000E+00 -0.34597261088E+03  0.34597261089E+03  0.25500000920E-02 0. -1.
    10030    2    1    2    0    0  0.00000000000E+00  0.00000000000E+00  0.15775726160E+04  0.22695178377E+04  0.16315562685E+04 0.  0.
        5    1    3    3  502    0  0.47301229304E+03 -0.49019192922E+01 -0.13569639836E+03  0.49213845684E+03  0.46999998093E+01 0. -1.
       -5    1    3    3    0  502 -0.47301229304E+03  0.49019192922E+01  0.17132690143E+04  0.17773793809E+04  0.46999998093E+01 0.  1.
</event>
<event>
 5   0  0.9844690E-04  0.1062207E+04  0.7818609E-02  0.9242831E-01
       -2   -1    0    0    0  501  0.00000000000E+00  0.00000000000E+00  0.17542000818E+03  0.17542000819E+03  0.25500000920E-02 0. -1.
        2   -1    0    0  501    0  0.00000000000E+00  0.00000000000E+00 -0.16079733949E+04  0.16079733949E+04  0.25500000920E-02 0.  1.
    10030    2    1    2    0    0  0.00000000000E+00  0.00000000000E+00 -0.14325533868E+04  0.17833934031E+04  0.10622065827E+04 0.  0.
        3    1    3    3  502    0 -0.28486157355E+03  0.14363908848E+03 -0.14291738257E+04  0.14643483664E+04  0.10100000352E+00 0.  1.
       -3    1    3    3    0  502  0.28486157355E+03 -0.14363908848E+03 -0.33795610170E+01  0.31904503672E+03  0.10100000352E+00 0. -1.
</event>
<event>
 5   0  0.9844690E-04  0.1591062E+04  0.7818609E-02  0.8826058E-01
       -2   -1    0    0    0  501  0.00000000000E+00  0.00000000000E+00  0.98791881370E+03  0.98791881370E+03  0.25500000920E-02 0.  1.
        2   -1    0    0  501    0  0.00000000000E+00  0.00000000000E+00 -0.64060916066E+03  0.64060916066E+03  0.25500000920E-02 0. -1.
    10030    2    1    2    0    0  0.00000000000E+00  0.00000000000E+00  0.34730965304E+03  0.16285279744E+04  0.15910623395E+04 0.  0.
        3    1    3    3  502    0  0.78345727312E+02  0.39383360157E+03 -0.52926743656E+03  0.66435456521E+03  0.10100000352E+00 0. -1.
       -3    1    3    3    0  502 -0.78345727312E+02 -0.39383360157E+03  0.87657708960E+03  0.96417340916E+03  0.10100000352E+00 0.  1.
</event>
<event>
 5   0  0.5425525E-04  0.1494768E+04  0.7818609E-02  0.8887939E-01
       -1   -1    0    0    0  501  0.00000000000E+00  0.00000000000E+00  0.50525972626E+03  0.50525972628E+03  0.50400001928E-02 0. -1.
        1   -1    0    0  501    0  0.00000000000E+00  0.00000000000E+00 -0.11055363295E+04  0.11055363296E+04  0.50400001928E-02 0.  1.
    10030    2    1    2    0    0  0.00000000000E+00  0.00000000000E+00 -0.60027660329E+03  0.16107960558E+04  0.14947681871E+04 0.  0.
        5    1    3    3  502    0 -0.96334213694E+02  0.60568167751E+03  0.16013440096E+03  0.63387356118E+03  0.46999998093E+01 0. -1.
       -5    1    3    3    0  502  0.96334213694E+02 -0.60568167751E+03 -0.76041100425E+03  0.97692249466E+03  0.46999998093E+01 0.  1.
</event>
<event>
 5   0  0.1037321E-03  0.1610909E+04  0.7818609E-02  0.8813874E-01
       -2   -1    0    0    0  501  0.00000000000E+00  0.00000000000E+00  0.67590061250E+03  0.67590061250E+03  0.25500000920E-02 0. -1.
        2   -1    0    0  501    0  0.00000000000E+00  0.00000000000E+00 -0.95984037171E+03  0.95984037171E+03  0.25500000920E-02 0.  1.
    10030    2    1    2    0    0  0.00000000000E+00  0.00000000000E+00 -0.28393975921E+03  0.16357409842E+04  0.16109086816E+04 0.  0.
        5    1    3    3  502    0 -0.17327335874E+03 -0.87600044132E+01 -0.94062738934E+03  0.95650529015E+03  0.46999998093E+01 0.  1.
       -5    1    3    3    0  502  0.17327335874E+03  0.87600044132E+01  0.65668763013E+03  0.67923569406E+03  0.46999998093E+01 0. -1.
</event>
<event>
 5   0  0.9844690E-04  0.1609998E+04  0.7818609E-02  0.8814429E-01
        2   -1    0    0  501    0  0.00000000000E+00  0.00000000000E+00  0.15434781910E+04  0.15434781910E+04  0.25500000920E-02 0.  1.
       -2   -1    0    0    0  501  0.00000000000E+00  0.00000000000E+00 -0.41984627610E+03  0.41984627611E+03  0.25500000920E-02 0. -1.
    10030    2    1    2    0    0  0.00000000000E+00  0.00000000000E+00  0.11236319149E+04  0.19633244671E+04  0.16099982245E+04 0.  0.
        3    1    3    3  502    0  0.98354043847E+02  0.44113532581E+03 -0.25052004562E+03  0.51675351675E+03  0.10100000352E+00 0. -1.
       -3    1    3    3    0  502 -0.98354043847E+02 -0.44113532581E+03  0.13741519605E+04  0.14465709504E+04  0.10100000352E+00 0.  1.
</event>
<event>
 5   0  0.5623061E-04  0.1561521E+04  0.7818609E-02  0.8844542E-01
        1   -1    0    0  501    0  0.00000000000E+00  0.00000000000E+00  0.13977287857E+04  0.13977287857E+04  0.50400001928E-02 0.  1.
       -1   -1    0    0    0  501  0.00000000000E+00  0.00000000000E+00 -0.43612659071E+03  0.43612659074E+03  0.50400001928E-02 0. -1.
    10030    2    1    2    0    0  0.00000000000E+00  0.00000000000E+00  0.96160219500E+03  0.18338553765E+04  0.15615206564E+04 0.  0.
        3    1    3    3  502    0 -0.42224187509E+03 -0.93320461157E+01 -0.29039080707E+03  0.51254474848E+03  0.10100000352E+00 0. -1.
       -3    1    3    3    0  502  0.42224187509E+03  0.93320461157E+01  0.12519930021E+04  0.13213106280E+04  0.10100000352E+00 0.  1.
</event>
<event>
 5   0  0.5623061E-04  0.1557585E+04  0.7818609E-02  0.8847037E-01
       -1   -1    0    0    0  501  0.00000000000E+00  0.00000000000E+00  0.39698506502E+03  0.39698506505E+03  0.50400001928E-02 0. -1.
        1   -1    0    0  501    0  0.00000000000E+00  0.00000000000E+00 -0.15278105110E+04  0.15278105110E+04  0.50400001928E-02 0.  1.
    10030    2    1    2    0    0  0.00000000000E+00  0.00000000000E+00 -0.11308254460E+04  0.19247955761E+04  0.15575852530E+04 0.  0.
        3    1    3    3  502    0 -0.13626646809E+03  0.91239671876E+02 -0.15062320567E+04  0.15151330789E+04  0.10100000352E+00 0.  1.
       -3    1    3    3    0  502  0.13626646809E+03 -0.91239671876E+02  0.37540661067E+03  0.40966249717E+03  0.10100000352E+00 0. -1.
</event>
<event>
 5   0  0.5532881E-04  0.1690113E+04  0.7818609E-02  0.8767023E-01
        1   -1    0    0  501    0  0.00000000000E+00  0.00000000000E+00  0.15268467629E+04  0.15268467629E+04  0.50400001928E-02 0.  1.
       -1   -1    0    0    0  501  0.00000000000E+00  0.00000000000E+00 -0.46770932207E+03  0.46770932210E+03  0.50400001928E-02 0. -1.
    10030    2    1    2    0    0  0.00000000000E+00  0.00000000000E+00  0.10591374408E+04  0.19945560850E+04  0.16901129718E+04 0.  0.
        4    1    3    3  502    0  0.32289392926E+03 -0.33896977436E+03  0.13598297004E+04  0.14381583447E+04  0.12699999809E+01 0.  1.
       -4    1    3    3    0  502 -0.32289392926E+03  0.33896977436E+03 -0.30069225961E+03  0.55639774026E+03  0.12699999809E+01 0. -1.
</event>
<event>
 5   0  0.1030027E-03  0.1576895E+04  0.7818609E-02  0.8834869E-01
       -2   -1    0    0    0  501  0.00000000000E+00  0.00000000000E+00  0.82012453326E+03  0.82012453327E+03  0.25500000920E-02 0.  1.
        2   -1    0    0  501    0  0.00000000000E+00  0.00000000000E+00 -0.75799438334E+03  0.75799438335E+03  0.25500000920E-02 0. -1.
    10030    2    1    2    0    0  0.00000000000E+00  0.00000000000E+00  0.62130149922E+02  0.15781189166E+04  0.15768954180E+04 0.  0.
        1    1    3    3  502    0 -0.17174916196E+03  0.73316828713E+03  0.26494765950E+03  0.79826735759E+03  0.50400001928E-02 0.  1.
       -1    1    3    3    0  502  0.17174916196E+03 -0.73316828713E+03 -0.20281750958E+03  0.77985155902E+03  0.50400001928E-02 0. -1.
</event>
<event>
 5   0  0.1037321E-03  0.1602430E+04  0.7818609E-02  0.8819056E-01
       -2   -1    0    0    0  501  0.00000000000E+00  0.00000000000E+00  0.69222269858E+03  0.69222269859E+03  0.25500000920E-02 0. -1.
        2   -1    0    0  501    0  0.00000000000E+00  0.00000000000E+00 -0.92736874676E+03  0.92736874677E+03  0.25500000920E-02 0.  1.
    10030    2    1    2    0    0  0.00000000000E+00  0.00000000000E+00 -0.23514604818E+03  0.16195914454E+04  0.16024302749E+04 0.  0.
        5    1    3    3  502    0 -0.64455288158E+03 -0.27533770596E+03  0.27473895111E+03  0.75283653653E+03  0.46999998093E+01 0.  1.
       -5    1    3    3    0  502  0.64455288158E+03  0.27533770596E+03 -0.50988499930E+03  0.86675490883E+03  0.46999998093E+01 0. -1.
</event>
<event>
 5   0  0.1057872E-03  0.1558937E+04  0.7818609E-02  0.8846180E-01
        2   -1    0    0  501    0  0.00000000000E+00  0.00000000000E+00  0.10502048703E+04  0.10502048703E+04  0.25500000920E-02 0.  1.
       -2   -1    0    0    0  501  0.00000000000E+00  0.00000000000E+00 -0.57852611010E+03  0.57852611011E+03  0.25500000920E-02 0. -1.
    10030    2    1    2    0    0  0.00000000000E+00  0.00000000000E+00  0.47167876018E+03  0.16287309804E+04  0.15589367382E+04 0.  0.
        2    1    3    3  502    0 -0.60508795939E+03  0.42139855921E+03  0.49986415878E+03  0.89082678538E+03  0.25500000920E-02 0.  1.
       -2    1    3    3    0  502  0.60508795939E+03 -0.42139855921E+03 -0.28185398608E+02  0.73790419501E+03  0.25500000920E-02 0. -1.
</event>
<event>
 5   0  0.9844690E-04  0.1631724E+04  0.7818609E-02  0.8801292E-01
       -2   -1    0    0    0  501  0.00000000000E+00  0.00000000000E+00  0.86719688077E+03  0.86719688078E+03  0.25500000920E-02 0. -1.
        2   -1    0    0  501    0  0.00000000000E+00  0.00000000000E+00 -0.76756637748E+03  0.76756637748E+03  0.25500000920E-02 0.  1.
    10030    2    1    2    0    0  0.00000000000E+00  0.00000000000E+00  0.99630503296E+02  0.16347632583E+04  0.16317244477E+04 0.  0.
        3    1    3    3  502    0  0.64757244453E+03 -0.48437306625E+03  0.15801554814E+03  0.82397588670E+03  0.10100000352E+00 0. -1.
       -3    1    3    3    0  502 -0.64757244453E+03  0.48437306625E+03 -0.58385044840E+02  0.81078737156E+03  0.10100000352E+00 0.  1.
</event>
<event>
 5   0  0.5281116E-04  0.1589163E+04  0.7818609E-02  0.8827234E-01
       -1   -1    0    0    0  501  0.00000000000E+00  0.00000000000E+00  0.76224889634E+03  0.76224889636E+03  0.50400001928E-02 0. -1.
        1   -1    0    0  501    0  0.00000000000E+00  0.00000000000E+00 -0.82828505843E+03  0.82828505844E+03  0.50400001928E-02 0.  1.
    10030    2    1    2    0    0  0.00000000000E+00  0.00000000000E+00 -0.66036162086E+02  0.15905339548E+04  0.15891625111E+04 0.  0.
        2    1    3    3  502    0  0.11834154185E+02  0.23647738056E+02 -0.82784453705E+03  0.82826676877E+03  0.25500000920E-02 0.  1.
       -2    1    3    3    0  502 -0.11834154185E+02 -0.23647738056E+02  0.76180837496E+03  0.76226718603E+03  0.25500000920E-02 0. -1.
</event>
<event>
 5   0  0.5288658E-04  0.1459999E+04  0.7818609E-02  0.8911498E-01
        1   -1    0    0  501    0  0.00000000000E+00  0.00000000000E+00  0.86969068639E+03  0.86969068640E+03  0.50400001928E-02 0. -1.
       -1   -1    0    0    0  501  0.00000000000E+00  0.00000000000E+00 -0.61274544656E+03  0.61274544658E+03  0.50400001928E-02 0.  1.
    10030    2    1    2    0    0  0.00000000000E+00  0.00000000000E+00  0.25694523983E+03  0.14824361330E+04  0.14599986411E+04 0.  0.
        1    1    3    3  502    0  0.16847963173E+03  0.36769560381E+03  0.74552377557E+03  0.84816928931E+03  0.50400001928E-02 0. -1.
       -1    1    3    3    0  502 -0.16847963173E+03 -0.36769560381E+03 -0.48857853575E+03  0.63426684367E+03  0.50400001928E-02 0.  1.
</event>
<event>
 5   0  0.9844690E-04  0.1618813E+04  0.7818609E-02  0.8809073E-01
       -2   -1    0    0    0  501  0.00000000000E+00  0.00000000000E+00  0.31410474356E+03  0.31410474357E+03  0.25500000920E-02 0. -1.
        2   -1    0    0  501    0  0.00000000000E+00  0.00000000000E+00 -0.20857345855E+04  0.20857345855E+04  0.25500000920E-02 0.  1.
    10030    2    1    2    0    0  0.00000000000E+00  0.00000000000E+00 -0.17716298419E+04  0.23998393290E+04  0.16188133025E+04 0.  0.
        3    1    3    3  502    0  0.73920964015E+03 -0.28353071584E+02 -0.13727878668E+04  0.15594169828E+04  0.10100000352E+00 0.  1.
       -3    1    3    3    0  502 -0.73920964015E+03  0.28353071584E+02 -0.39884197509E+03  0.84042234623E+03  0.10100000352E+00 0. -1.
</event>
<event>
 5   0  0.1037321E-03  0.1591070E+04  0.7818609E-02  0.8826053E-01
        2   -1    0    0  501    0  0.00000000000E+00  0.00000000000E+00  0.14973220058E+04  0.14973220058E+04  0.25500000920E-02 0.  1.
       -2   -1    0    0    0  501  0.00000000000E+00  0.00000000000E+00 -0.42267185444E+03  0.42267185445E+03  0.25500000920E-02 0. -1.
    10030    2    1    2    0    0  0.00000000000E+00  0.00000000000E+00  0.10746501513E+04  0.19199938602E+04  0.15910699154E+04 0.  0.
        5    1    3    3  502    0  0.33136490753E+03 -0.65765090339E+03  0.90044166366E+03  0.11632388802E+04  0.46999998093E+01 0.  1.
       -5    1    3    3    0  502 -0.33136490753E+03  0.65765090339E+03  0.17420848767E+03  0.75675498006E+03  0.46999998093E+01 0. -1.
</event>
<event>
 5   0  0.5623061E-04  0.1608949E+04  0.7818609E-02  0.8815069E-01
       -1   -1    0    0    0  501  0.00000000000E+00  0.00000000000E+00  0.12443323331E+04  0.12443323331E+04  0.50400001928E-02 0. -1.
        1   -1    0    0  501    0  0.00000000000E+00  0.00000000000E+00 -0.52010183465E+03  0.52010183468E+03  0.50400001928E-02 0.  1.
    10030    2    1    2    0    0  0.00000000000E+00  0.00000000000E+00  0.72423049843E+03  0.17644341678E+04  0.16089493832E+04 0.  0.
        3    1    3    3  502    0 -0.27593500230E+03  0.78946948719E+02  0.11862780826E+04  0.12205033575E+04  0.10100000352E+00 0. -1.
       -3    1    3    3    0  502  0.27593500230E+03 -0.78946948719E+02 -0.46204758413E+03  0.54393081031E+03  0.10100000352E+00 0.  1.
</event>
<event>
 5   0  0.5281116E-04  0.1773307E+04  0.7818609E-02  0.8720625E-01
        1   -1    0    0  501    0  0.00000000000E+00  0.00000000000E+00  0.19122671361E+04  0.19122671361E+04  0.50400001928E-02 0. -1.
       -1   -1    0    0    0  501  0.00000000000E+00  0.00000000000E+00 -0.41111103957E+03  0.41111103960E+03  0.50400001928E-02 0.  1.
    10030    2    1    2    0    0  0.00000000000E+00  0.00000000000E+00  0.15011560965E+04  0.23233781757E+04  0.17733066630E+04 0.  0.
        2    1    3    3  502    0 -0.63684733683E+03 -0.47731381845E+03  0.23850931442E+03  0.83083674978E+03  0.25500000920E-02 0.  1.
       -2    1    3    3    0  502  0.63684733683E+03  0.47731381845E+03  0.12626467821E+04  0.14925414259E+04  0.25500000920E-02 0. -1.
</event>
<event>
 5   0  0.5281116E-04  0.1629636E+04  0.7818609E-02  0.8802546E-01
       -1   -1    0    0    0  501  0.00000000000E+00  0.00000000000E+00  0.91366759395E+03  0.91366759396E+03  0.50400001928E-02 0. -1.
        1   -1    0    0  501    0  0.00000000000E+00  0.00000000000E+00 -0.72666259209E+03  0.72666259210E+03  0.50400001928E-02 0.  1.
    10030    2    1    2    0    0  0.00000000000E+00  0.00000000000E+00  0.18700500186E+03  0.16403301861E+04  0.16296356184E+04 0.  0.
        2    1    3    3  502    0 -0.16248446438E+03  0.70082877200E+03  0.47859114566E+03  0.86406692654E+03  0.25500000920E-02 0. -1.
       -2    1    3    3    0  502  0.16248446438E+03 -0.70082877200E+03 -0.29158614380E+03  0.77626325953E+03  0.25500000920E-02 0.  1.
</event>
<event>
 5   0  0.1000121E-03  0.1610015E+04  0.7818609E-02  0.8814419E-01
        2   -1    0    0  501    0  0.00000000000E+00  0.00000000000E+00  0.17204376121E+04  0.17204376121E+04  0.25500000920E-02 0. -1.
       -2   -1    0    0    0  501  0.00000000000E+00  0.00000000000E+00 -0.37666985892E+03  0.37666985893E+03  0.25500000920E-02 0.  1.
    10030    2    1    2    0    0  0.00000000000E+00  0.00000000000E+00  0.13437677532E+04  0.20971074711E+04  0.16100148976E+04 0.  0.
        4    1    3    3  502    0 -0.17940359012E+03  0.52455081677E+03  0.14321653715E+04  0.15357208313E+04  0.12699999809E+01 0. -1.
       -4    1    3    3    0  502  0.17940359012E+03 -0.52455081677E+03 -0.88397618233E+02  0.56138663979E+03  0.12699999809E+01 0.  1.
</event>
<event>
 5   0  0.5425525E-04  0.1609727E+04  0.7818609E-02  0.8814594E-01
       -1   -1    0    0    0  501  0.00000000000E+00  0.00000000000E+00  0.12601934706E+04  0.12601934706E+04  0.50400001928E-02 0.  1.
        1   -1    0    0  501    0  0.00000000000E+00  0.00000000000E+00 -0.51405231797E+03  0.51405231800E+03  0.50400001928E-02 0. -1.
    10030    2    1    2    0    0  0.00000000000E+00  0.00000000000E+00  0.74614115262E+03  0.17742457886E+04  0.16097271504E+04 0.  0.
        5    1    3    3  502    0  0.13159592678E+03  0.73421398864E+03  0.39855843466E+02  0.74699280272E+03  0.46999998093E+01 0. -1.
       -5    1    3    3    0  502 -0.13159592678E+03 -0.73421398864E+03  0.70628530916E+03  0.10272529859E+04  0.46999998093E+01 0.  1.
</event>
<event>
 5   0  0.1037321E-03  0.1652603E+04  0.7818609E-02  0.8788868E-01
       -2   -1    0    0    0  501  0.00000000000E+00  0.00000000000E+00  0.74883950716E+03  0.74883950717E+03  0.25500000920E-02 0. -1.
        2   -1    0    0  501    0  0.00000000000E+00  0.00000000000E+00 -0.91177619724E+03  0.91177619725E+03  0.25500000920E-02 0.  1.
    10030    2    1    2    0    0  0.00000000000E+00  0.00000000000E+00 -0.16293669008E+03  0.16606157044E+04  0.16526028418E+04 0.  0.
        5    1    3    3  502    0 -0.37649206162E+03 -0.15066738887E+03  0.64195638421E+03  0.75932669107E+03  0.46999998093E+01 0. -1.
       -5    1    3    3    0  502  0.37649206162E+03  0.15066738887E+03 -0.80489307430E+03  0.90128901335E+03  0.46999998093E+01 0.  1.
</event>
<event>
 5   0  0.5281116E-04  0.1560647E+04  0.7818609E-02  0.8845096E-01
        1   -1    0    0  501    0  0.00000000000E+00  0.00000000000E+00  0.73017243427E+03  0.73017243429E+03  0.50400001928E-02 0.  1.
       -1   -1    0    0    0  501  0.00000000000E+00  0.00000000000E+00 -0.83391922865E+03  0.83391922867E+03  0.50400001928E-02 0. -1.
    10030    2    1    2    0    0  0.00000000000E+00  0.00000000000E+00 -0.10374679438E+03  0.15640916630E+04  0.15606470878E+04 0.  0.
        2    1    3    3  502    0  0.38188198276E+03 -0.67929762995E+03 -0.92282538057E+02  0.78472618515E+03  0.25500000920E-02 0. -1.
       -2    1    3    3    0  502 -0.38188198276E+03  0.67929762995E+03 -0.11464256327E+02  0.77936547781E+03  0.25500000920E-02 0.  1.
</event>
<event>
 5   0  0.1030027E-03  0.1604155E+04  0.7818609E-02  0.8818000E-01
       -2   -1    0    0    0  501  0.00000000000E+00  0.00000000000E+00  0.11830578993E+04  0.11830578993E+04  0.25500000920E-02 0. -1.
        2   -1    0    0  501    0  0.00000000000E+00  0.00000000000E+00 -0.54378429393E+03  0.54378429394E+03  0.25500000920E-02 0.  1.
    10030    2    1    2    0    0  0.00000000000E+00  0.00000000000E+00  0.63927360532E+03  0.17268421932E+04  0.16041549856E+04 0.  0.
        1    1    3    3  502    0 -0.31661647178E+03 -0.44050627666E+02 -0.47224778377E+03  0.57026697020E+03  0.50400001928E-02 0.  1.
       -1    1    3    3    0  502  0.31661647178E+03  0.44050627666E+02  0.11115213891E+04  0.11565752230E+04  0.50400001928E-02 0. -1.
</event>
<event>
 5   0  0.5425525E-04  0.1602551E+04  0.7818609E-02  0.8818982E-01
        1   -1    0    0  501    0  0.00000000000E+00  0.00000000000E+00  0.13470969146E+04  0.13470969146E+04  0.50400001928E-02 0.  1.
       -1   -1    0    0    0  501  0.00000000000E+00  0.00000000000E+00 -0.47661217401E+03  0.47661217403E+03  0.50400001928E-02 0. -1.
    10030    2    1    2    0    0  0.00000000000E+00  0.00000000000E+00  0.87048474059E+03  0.18237090886E+04  0.16025514520E+04 0.  0.
        5    1    3    3  502    0 -0.29163755620E+02 -0.51039492499E+03  0.11373703928E+04  0.12469911806E+04  0.46999998093E+01 0.  1.
       -5    1    3    3    0  502  0.29163755620E+02  0.51039492499E+03 -0.26688565220E+03  0.57671790804E+03  0.46999998093E+01 0. -1.
</event>
<event>
 5   0  0.3832500E-04  0.1564640E+04  0.7818609E-02  0.8842570E-01
        4   -1    0    0  501    0  0.00000000000E+00  0.00000000000E+00  0.19969908129E+04  0.19969912167E+04  0.12699999809E+01 0.  1.
       -4   -1    0    0    0  501  0.00000000000E+00  0.00000000000E+00 -0.30647158203E+03  0.30647421342E+03  0.12699999809E+01 0. -1.
    10030    2    1    2    0    0  0.00000000000E+00  0.00000000000E+00  0.16905192309E+04  0.23034654302E+04  0.15646398046E+04 0.  0.
        3    1    3    3  502    0 -0.28882416637E+03 -0.25421295627E+03 -0.15754731281E+03  0.41577011940E+03  0.10100000352E+00 0. -1.
       -3    1    3    3    0  502  0.28882416637E+03  0.25421295627E+03  0.18480665437E+04  0.18876953108E+04  0.10100000352E+00 0.  1.
</event>
<event>
 5   0  0.1057872E-03  0.1564118E+04  0.7818609E-02  0.8842900E-01
       -2   -1    0    0    0  501  0.00000000000E+00  0.00000000000E+00  0.94595224234E+03  0.94595224234E+03  0.25500000920E-02 0. -1.
        2   -1    0    0  501    0  0.00000000000E+00  0.00000000000E+00 -0.64656172702E+03  0.64656172703E+03  0.25500000920E-02 0.  1.
    10030    2    1    2    0    0  0.00000000000E+00  0.00000000000E+00  0.29939051531E+03  0.15925139694E+04  0.15641183018E+04 0.  0.
        2    1    3    3  502    0  0.34560800415E+02 -0.46750659325E+02 -0.64435843826E+03  0.64697594240E+03  0.25500000920E-02 0.  1.
       -2    1    3    3    0  502 -0.34560800415E+02  0.46750659325E+02  0.94374895357E+03  0.94553802697E+03  0.25500000920E-02 0. -1.
</event>
<event>
 5   0  0.1057872E-03  0.1630877E+04  0.7818609E-02  0.8801800E-01
       -2   -1    0    0    0  501  0.00000000000E+00  0.00000000000E+00  0.91952017146E+03  0.91952017146E+03  0.25500000920E-02 0. -1.
        2   -1    0    0  501    0  0.00000000000E+00  0.00000000000E+00 -0.72313806943E+03  0.72313806944E+03  0.25500000920E-02 0.  1.
    10030    2    1    2    0    0  0.00000000000E+00  0.00000000000E+00  0.19638210203E+03  0.16426582409E+04  0.16308771157E+04 0.  0.
        2    1    3    3  502    0  0.69073967127E+03  0.30625033999E+03 -0.21066633333E+03  0.78440478594E+03  0.25500000920E-02 0.  1.
       -2    1    3    3    0  502 -0.69073967127E+03 -0.30625033999E+03  0.40704843536E+03  0.85825345496E+03  0.25500000920E-02 0. -1.
</event>
<event>
 5   0  0.1000121E-03  0.1585932E+04  0.7818609E-02  0.8829238E-01
        2   -1    0    0  501    0  0.00000000000E+00  0.00000000000E+00  0.17787277458E+04  0.17787277458E+04  0.25500000920E-02 0.  1.
       -2   -1    0    0    0  501  0.00000000000E+00  0.00000000000E+00 -0.35350815982E+03  0.35350815983E+03  0.25500000920E-02 0. -1.
    10030    2    1    2    0    0  0.00000000000E+00  0.00000000000E+00  0.14252195860E+04  0.21322359056E+04  0.15859316155E+04 0.  0.
        4    1    3    3  502    0 -0.66912900215E+03 -0.11582662880E+03  0.16212610691E+03  0.69816610982E+03  0.12699999809E+01 0. -1.
       -4    1    3    3    0  502  0.66912900215E+03  0.11582662880E+03  0.12630934790E+04  0.14340697958E+04  0.12699999809E+01 0.  1.
</event>
<event>
 5   0  0.1057872E-03  0.1613721E+04  0.7818609E-02  0.8812162E-01
        2   -1    0    0  501    0  0.00000000000E+00  0.00000000000E+00  0.23208448077E+04  0.23208448077E+04  0.25500000920E-02 0. -1.
       -2   -1    0    0    0  501  0.00000000000E+00  0.00000000000E+00 -0.28051175561E+03  0.28051175562E+03  0.25500000920E-02 0.  1.
    10030    2    1    2    0    0  0.00000000000E+00  0.00000000000E+00  0.20403330520E+04  0.26013565633E+04  0.16137214772E+04 0.  0.
        2    1    3    3  502    0 -0.52325792261E+02 -0.56492874618E+03  0.19449984410E+04  0.20260556291E+04  0.25500000920E-02 0. -1.
       -2    1    3    3    0  502  0.52325792261E+02  0.56492874618E+03  0.95334611063E+02  0.57530093418E+03  0.25500000920E-02 0.  1.
</event>
<event>
 5   0  0.1057872E-03  0.1605896E+04  0.7818609E-02  0.8816934E-01
        2   -1    0    0  501    0  0.00000000000E+00  0.00000000000E+00  0.18534334454E+04  0.18534334454E+04  0.25500000920E-02 0. -1.
       -2   -1    0    0    0  501  0.00000000000E+00  0.00000000000E+00 -0.34785450406E+03  0.34785450407E+03  0.25500000920E-02 0.  1.
    10030    2    1    2    0    0  0.00000000000E+00  0.00000000000E+00  0.15055789414E+04  0.22012879495E+04  0.16058956031E+04 0.  0.
        2    1    3    3  502    0 -0.38879297688E+03 -0.69568962732E+03  0.61861557201E+03  0.10088752462E+04  0.25500000920E-02 0.  1.
       -2    1    3    3    0  502  0.38879297688E+03  0.69568962732E+03  0.88696336936E+03  0.11924127033E+04  0.25500000920E-02 0. -1.
</event>
<event>
 5   0  0.9844690E-04  0.1602726E+04  0.7818609E-02  0.8818875E-01
        2   -1    0    0  501    0  0.00000000000E+00  0.00000000000E+00  0.20129134438E+04  0.20129134438E+04  0.25500000920E-02 0.  1.
       -2   -1    0    0    0  501  0.00000000000E+00  0.00000000000E+00 -0.31903140194E+03  0.31903140195E+03  0.25500000920E-02 0. -1.
    10030    2    1    2    0    0  0.00000000000E+00  0.00000000000E+00  0.16938820419E+04  0.23319448457E+04  0.16027259254E+04 0.  0.
        3    1    3    3  502    0  0.60896213489E+03  0.47667587753E+03  0.11525845591E+04  0.13879862932E+04  0.10100000352E+00 0.  1.
       -3    1    3    3    0  502 -0.60896213489E+03 -0.47667587753E+03  0.54129748275E+03  0.94395855257E+03  0.10100000352E+00 0. -1.
</event>
<event>
 5   0  0.5532881E-04  0.1586510E+04  0.7818609E-02  0.8828878E-01
       -1   -1    0    0    0  501  0.00000000000E+00  0.00000000000E+00  0.96719963358E+03  0.96719963360E+03  0.50400001928E-02 0. -1.
        1   -1    0    0  501    0  0.00000000000E+00  0.00000000000E+00 -0.65059336616E+03  0.65059336618E+03  0.50400001928E-02 0.  1.
    10030    2    1    2    0    0  0.00000000000E+00  0.00000000000E+00  0.31660626743E+03  0.16177929998E+04  0.15865102148E+04 0.  0.
        4    1    3    3  502    0 -0.40618974879E+03 -0.52986739814E+03  0.59512165992E+03  0.89438301339E+03  0.12699999809E+01 0. -1.
       -4    1    3    3    0  502  0.40618974879E+03  0.52986739814E+03 -0.27851539250E+03  0.72340998638E+03  0.12699999809E+01 0.  1.
</event>
<event>
 5   0  0.5288658E-04  0.1589330E+04  0.7818609E-02  0.8827130E-01
       -1   -1    0    0    0  501  0.00000000000E+00  0.00000000000E+00  0.74825554581E+03  0.74825554582E+03  0.50400001928E-02 0.  1.
        1   -1    0    0  501    0  0.00000000000E+00  0.00000000000E+00 -0.84395312302E+03  0.84395312304E+03  0.50400001928E-02 0. -1.
    10030    2    1    2    0    0  0.00000000000E+00  0.00000000000E+00 -0.95697577217E+02  0.15922086689E+04  0.15893301793E+04 0.  0.
        1    1    3    3  502    0 -0.92197517088E+02 -0.36547228725E+03 -0.74870301985E+03  0.83822824270E+03  0.50400001928E-02 0. -1.
       -1    1    3    3    0  502  0.92197517088E+02  0.36547228725E+03  0.65300544263E+03  0.75398042616E+03  0.50400001928E-02 0.  1.
</event>
<event>
 5   0  0.5623061E-04  0.1593203E+04  0.7818609E-02  0.8824735E-01
        1   -1    0    0  501    0  0.00000000000E+00  0.00000000000E+00  0.64750721182E+03  0.64750721184E+03  0.50400001928E-02 0. -1.
       -1   -1    0    0    0  501  0.00000000000E+00  0.00000000000E+00 -0.98002609148E+03  0.98002609150E+03  0.50400001928E-02 0.  1.
    10030    2    1    2    0    0  0.00000000000E+00  0.00000000000E+00 -0.33251887966E+03  0.16275333033E+04  0.15932030154E+04 0.  0.
        3    1    3    3  502    0 -0.13106137349E+03  0.36506351946E+03  0.54452472098E+03  0.66854740955E+03  0.10100000352E+00 0. -1.
       -3    1    3    3    0  502  0.13106137349E+03 -0.36506351946E+03 -0.87704360064E+03  0.95898589379E+03  0.10100000352E+00 0.  1.
</event>
<event>
 5   0  0.5281116E-04  0.1447056E+04  0.7818609E-02  0.8920444E-01
        1   -1    0    0  501    0  0.00000000000E+00  0.00000000000E+00  0.79705029231E+03  0.79705029233E+03  0.50400001928E-02 0. -1.
       -1   -1    0    0    0  501  0.00000000000E+00  0.00000000000E+00 -0.65678789545E+03  0.65678789546E+03  0.50400001928E-02 0.  1.
    10030    2    1    2    0    0  0.00000000000E+00  0.00000000000E+00  0.14026239687E+03  0.14538381878E+04  0.14470563003E+04 0.  0.
        2    1    3    3  502    0  0.59792418686E+03 -0.25751537123E+03  0.38730918270E+03  0.75751957246E+03  0.25500000920E-02 0. -1.
       -2    1    3    3    0  502 -0.59792418686E+03  0.25751537123E+03 -0.24704678583E+03  0.69631861533E+03  0.25500000920E-02 0.  1.
</event>
<event>
 5   0  0.5288658E-04  0.1594219E+04  0.7818609E-02  0.8824107E-01
        1   -1    0    0  501    0  0.00000000000E+00  0.00000000000E+00  0.48835897140E+03  0.48835897142E+03  0.50400001928E-02 0. -1.
       -1   -1    0    0    0  501  0.00000000000E+00  0.00000000000E+00 -0.13010589273E+04  0.13010589273E+04  0.50400001928E-02 0.  1.
    10030    2    1    2    0    0  0.00000000000E+00  0.00000000000E+00 -0.81269995591E+03  0.17894178987E+04  0.15942193067E+04 0.  0.
        1    1    3    3  502    0  0.55010977295E+03 -0.53111779140E+03 -0.15367114840E+03  0.77994980128E+03  0.50400001928E-02 0. -1.
       -1    1    3    3    0  502 -0.55010977295E+03  0.53111779140E+03 -0.65902880751E+03  0.10094680975E+04  0.50400001928E-02 0.  1.
</event>
<event>
 5   0  0.1000121E-03  0.1595001E+04  0.7818609E-02  0.8823625E-01
       -2   -1    0    0    0  501  0.00000000000E+00  0.00000000000E+00  0.14322474258E+04  0.14322474258E+04  0.25500000920E-02 0.  1.
        2   -1    0    0  501    0  0.00000000000E+00  0.00000000000E+00 -0.44406224884E+03  0.44406224885E+03  0.25500000920E-02 0. -1.
    10030    2    1    2    0    0  0.00000000000E+00  0.00000000000E+00  0.98818517696E+03  0.18763096746E+04  0.15950009565E+04 0.  0.
        4    1    3    3  502    0  0.23656841940E+03  0.90597760621E+02  0.13836584590E+04  0.14066573554E+04  0.12699999809E+01 0.  1.
       -4    1    3    3    0  502 -0.23656841940E+03 -0.90597760621E+02 -0.39547328206E+03  0.46965231928E+03  0.12699999809E+01 0. -1.
</event>
<event>
 5   0  0.1000121E-03  0.1575902E+04  0.7818609E-02  0.8835491E-01
        2   -1    0    0  501    0  0.00000000000E+00  0.00000000000E+00  0.19493610152E+04  0.19493610152E+04  0.25500000920E-02 0. -1.
       -2   -1    0    0    0  501  0.00000000000E+00  0.00000000000E+00 -0.31849750213E+03  0.31849750214E+03  0.25500000920E-02 0.  1.
    10030    2    1    2    0    0  0.00000000000E+00  0.00000000000E+00  0.16308635131E+04  0.22678585173E+04  0.15759017915E+04 0.  0.
        4    1    3    3  502    0  0.18026804669E+03  0.19475003479E+03 -0.25225077909E+03  0.36613687763E+03  0.12699999809E+01 0.  1.
       -4    1    3    3    0  502 -0.18026804669E+03 -0.19475003479E+03  0.18831142922E+04  0.19017216397E+04  0.12699999809E+01 0. -1.
</event>
<event>
 5   0  0.1057872E-03  0.1627697E+04  0.7818609E-02  0.8803711E-01
       -2   -1    0    0    0  501  0.00000000000E+00  0.00000000000E+00  0.77617285715E+03  0.77617285716E+03  0.25500000920E-02 0. -1.
        2   -1    0    0  501    0  0.00000000000E+00  0.00000000000E+00 -0.85335319269E+03  0.85335319270E+03  0.25500000920E-02 0.  1.
    10030    2    1    2    0    0  0.00000000000E+00  0.00000000000E+00 -0.77180335542E+02  0.16295260499E+04  0.16276972516E+04 0.  0.
        2    1    3    3  502    0 -0.67257891538E+03  0.32853071951E+03  0.28122886012E+03  0.79961522174E+03  0.25500000920E-02 0. -1.
       -2    1    3    3    0  502  0.67257891538E+03 -0.32853071951E+03 -0.35840919566E+03  0.82991082811E+03  0.25500000920E-02 0.  1.
</event>
<event>
 5   0  0.5425525E-04  0.1113467E+04  0.7818609E-02  0.9192164E-01
        1   -1    0    0  501    0  0.00000000000E+00  0.00000000000E+00  0.36157598918E+03  0.36157598922E+03  0.50400001928E-02 0.  1.
       -1   -1    0    0    0  501  0.00000000000E+00  0.00000000000E+00 -0.85722609135E+03  0.85722609136E+03  0.50400001928E-02 0. -1.
    10030    2    1    2    0    0  0.00000000000E+00  0.00000000000E+00 -0.49565010217E+03  0.12188020806E+04  0.11134673268E+04 0.  0.
        5    1    3    3  502    0  0.47253311850E+03 -0.13305040643E+03 -0.53522875896E+03  0.72627947317E+03  0.46999998093E+01 0. -1.
       -5    1    3    3    0  502 -0.47253311850E+03  0.13305040643E+03  0.39578656798E+02  0.49252260741E+03  0.46999998093E+01 0.  1.
</event>
<event>
 5   0  0.5532881E-04  0.1606169E+04  0.7818609E-02  0.8816767E-01
       -1   -1    0    0    0  501  0.00000000000E+00  0.00000000000E+00  0.61780939446E+03  0.61780939448E+03  0.50400001928E-02 0. -1.
        1   -1    0    0  501    0  0.00000000000E+00  0.00000000000E+00 -0.10439213018E+04  0.10439213018E+04  0.50400001928E-02 0.  1.
    10030    2    1    2    0    0  0.00000000000E+00  0.00000000000E+00 -0.42611190738E+03  0.16617306963E+04  0.16061685931E+04 0.  0.
        4    1    3    3  502    0 -0.58129101926E+03 -0.28742964151E+03  0.27707007636E+03  0.70518401003E+03  0.12699999809E+01 0. -1.
       -4    1    3    3    0  502  0.58129101926E+03  0.28742964151E+03 -0.70318198374E+03  0.95654668629E+03  0.12699999809E+01 0.  1.
</event>
<event>
 5   0  0.5623061E-04  0.1580572E+04  0.7818609E-02  0.8832573E-01
        1   -1    0    0  501    0  0.00000000000E+00  0.00000000000E+00  0.16083098989E+04  0.16083098989E+04  0.50400001928E-02 0. -1.
       -1   -1    0    0    0  501  0.00000000000E+00  0.00000000000E+00 -0.38832828150E+03  0.38832828154E+03  0.50400001928E-02 0.  1.
    10030    2    1    2    0    0  0.00000000000E+00  0.00000000000E+00  0.12199816174E+04  0.19966381804E+04  0.15805723257E+04 0.  0.
        3    1    3    3  502    0  0.27936002237E+03 -0.72228391604E+03  0.41099128399E+03  0.87672682358E+03  0.10100000352E+00 0.  1.
       -3    1    3    3    0  502 -0.27936002237E+03  0.72228391604E+03  0.80899033339E+03  0.11199113568E+04  0.10100000352E+00 0. -1.
</event>
<event>
 5   0  0.3832500E-04  0.1585643E+04  0.7818609E-02  0.8829417E-01
        3   -1    0    0  501    0  0.00000000000E+00  0.00000000000E+00  0.12432234231E+04  0.12432234272E+04  0.10100000352E+00 0. -1.
       -3   -1    0    0    0  501  0.00000000000E+00  0.00000000000E+00 -0.50559370018E+03  0.50559371026E+03  0.10100000352E+00 0.  1.
    10030    2    1    2    0    0  0.00000000000E+00  0.00000000000E+00  0.73762972295E+03  0.17488171375E+04  0.15856430154E+04 0.  0.
        5    1    3    3  502    0  0.59663006336E+03  0.26872855876E+03  0.86249538186E+03  0.10826369865E+04  0.46999998093E+01 0.  1.
       -5    1    3    3    0  502 -0.59663006336E+03 -0.26872855876E+03 -0.12486565892E+03  0.66618015099E+03  0.46999998093E+01 0. -1.
</event>
<event>
 5   0  0.5532881E-04  0.1576788E+04  0.7818609E-02  0.8834936E-01
       -1   -1    0    0    0  501  0.00000000000E+00  0.00000000000E+00  0.46717540843E+03  0.46717540846E+03  0.50400001928E-02 0.  1.
        1   -1    0    0  501    0  0.00000000000E+00  0.00000000000E+00 -0.13304748117E+04  0.13304748117E+04  0.50400001928E-02 0. -1.
    10030    2    1    2    0    0  0.00000000000E+00  0.00000000000E+00 -0.86329940323E+03  0.17976502201E+04  0.15767880182E+04 0.  0.
        4    1    3    3  502    0  0.36307132554E+03 -0.40158807981E+03 -0.10850503426E+04  0.12126127296E+04  0.12699999809E+01 0. -1.
       -4    1    3    3    0  502 -0.36307132554E+03  0.40158807981E+03  0.22175093934E+03  0.58503749049E+03  0.12699999809E+01 0.  1.
</event>
<event>
 5   0  0.5281116E-04  0.1579394E+04  0.7818609E-02  0.8833308E-01
        1   -1    0    0  501    0  0.00000000000E+00  0.00000000000E+00  0.16634787685E+04  0.16634787685E+04  0.50400001928E-02 0. -1.
       -1   -1    0    0    0  501  0.00000000000E+00  0.00000000000E+00 -0.37488989002E+03  0.37488989005E+03  0.50400001928E-02 0.  1.
    10030    2    1    2    0    0  0.00000000000E+00  0.00000000000E+00  0.12885888785E+04  0.20383686585E+04  0.15793940263E+04 0.  0.
        2    1    3    3  502    0 -0.38609066291E+03 -0.21437463759E+02  0.15329332964E+04  0.15809522624E+04  0.25500000920E-02 0. -1.
       -2    1    3    3    0  502  0.38609066291E+03  0.21437463759E+02 -0.24434441795E+03  0.45741639611E+03  0.25500000920E-02 0.  1.
</event>
<event>
 5   0  0.1030027E-03  0.1609832E+04  0.7818609E-02  0.8814530E-01
        2   -1    0    0  501    0  0.00000000000E+00  0.00000000000E+00  0.18669769423E+04  0.18669769423E+04  0.25500000920E-02 0.  1.
       -2   -1    0    0    0  501  0.00000000000E+00  0.00000000000E+00 -0.34702628370E+03  0.34702628371E+03  0.25500000920E-02 0. -1.
    10030    2    1    2    0    0  0.00000000000E+00  0.00000000000E+00  0.15199506586E+04  0.22140032260E+04  0.16098323764E+04 0.  0.
        1    1    3    3  502    0  0.44934477208E+03  0.63949722358E+03  0.49535005327E+03  0.92533188557E+03  0.50400001928E-02 0. -1.
       -1    1    3    3    0  502 -0.44934477208E+03 -0.63949722358E+03  0.10246006053E+04  0.12886713404E+04  0.50400001928E-02 0.  1.
</event>
<event>
 5   0  0.1057872E-03  0.1589465E+04  0.7818609E-02  0.8827046E-01
        2   -1    0    0  501    0  0.00000000000E+00  0.00000000000E+00  0.83880586836E+03  0.83880586836E+03  0.25500000920E-02 0.  1.
       -2   -1    0    0    0  501  0.00000000000E+00  0.00000000000E+00 -0.75297514994E+03  0.75297514994E+03  0.25500000920E-02 0. -1.
    10030    2    1    2    0    0  0.00000000000E+00  0.00000000000E+00  0.85830718421E+02  0.15917810183E+04  0.15894652868E+04 0.  0.
        2    1    3    3  502    0 -0.27311571632E+02 -0.49828826050E+03  0.66233315417E+03  0.82929025053E+03  0.25500000920E-02 0.  1.
       -2    1    3    3    0  502  0.27311571632E+02  0.49828826050E+03 -0.57650243575E+03  0.76249076777E+03  0.25500000920E-02 0. -1.
</event>
<event>
 5   0  0.9844690E-04  0.1618255E+04  0.7818609E-02  0.8809411E-01
       -2   -1    0    0    0  501  0.00000000000E+00  0.00000000000E+00  0.46353982307E+03  0.46353982307E+03  0.25500000920E-02 0.  1.
        2   -1    0    0  501    0  0.00000000000E+00  0.00000000000E+00 -0.14123646937E+04  0.14123646937E+04  0.25500000920E-02 0. -1.
    10030    2    1    2    0    0  0.00000000000E+00  0.00000000000E+00 -0.94882487062E+03  0.18759045168E+04  0.16182549616E+04 0.  0.
        3    1    3    3  502    0  0.53657940306E+03 -0.52497135752E+03 -0.82443931870E+03  0.11149944316E+04  0.10100000352E+00 0. -1.
       -3    1    3    3    0  502 -0.53657940306E+03  0.52497135752E+03 -0.12438555192E+03  0.76091008519E+03  0.10100000352E+00 0.  1.
</event>
<event>
 5   0  0.1037321E-03  0.1597474E+04  0.7818609E-02  0.8822101E-01
        2   -1    0    0  501    0  0.00000000000E+00  0.00000000000E+00  0.93762864134E+03  0.93762864134E+03  0.25500000920E-02 0.  1.
       -2   -1    0    0    0  501  0.00000000000E+00  0.00000000000E+00 -0.68041987570E+03  0.68041987570E+03  0.25500000920E-02 0. -1.
    10030    2    1    2    0    0  0.00000000000E+00  0.00000000000E+00  0.25720876564E+03  0.16180485170E+04  0.15974744613E+04 0.  0.
        5    1    3    3  502    0 -0.34657871941E+03 -0.66703522641E+01 -0.60024485556E+03  0.69316468388E+03  0.46999998093E+01 0. -1.
       -5    1    3    3    0  502  0.34657871941E+03  0.66703522641E+01  0.85745362120E+03  0.92488383317E+03  0.46999998093E+01 0.  1.
</event>
<event>
 5   0  0.5425525E-04  0.1766650E+04  0.7818609E-02  0.8724238E-01
        1   -1    0    0  501    0  0.00000000000E+00  0.00000000000E+00  0.58024572938E+03  0.58024572940E+03  0.50400001928E-02 0. -1.
       -1   -1    0    0    0  501  0.00000000000E+00  0.00000000000E+00 -0.13447113120E+04  0.13447113120E+04  0.50400001928E-02 0.  1.
    10030    2    1    2    0    0  0.00000000000E+00  0.00000000000E+00 -0.76446558258E+03  0.19249570414E+04  0.17666499325E+04 0.  0.
        5    1    3    3  502    0  0.20614691816E+03  0.48148907533E+03  0.39277898069E+03  0.65469511927E+03  0.46999998093E+01 0. -1.
       -5    1    3    3    0  502 -0.20614691816E+03 -0.48148907533E+03 -0.11572445633E+04  0.12702619221E+04  0.46999998093E+01 0.  1.
</event>
<event>
 5   0  0.5281116E-04  0.1624438E+04  0.7818609E-02  0.8805674E-01
        1   -1    0    0  501    0  0.00000000000E+00  0.00000000000E+00  0.14371111713E+04  0.14371111713E+04  0.50400001928E-02 0. -1.
       -1   -1    0    0    0  501  0.00000000000E+00  0.00000000000E+00 -0.45904573847E+03  0.45904573850E+03  0.50400001928E-02 0.  1.
    10030    2    1    2    0    0  0.00000000000E+00  0.00000000000E+00  0.97806543279E+03  0.18961569098E+04  0.16244380677E+04 0.  0.
        2    1    3    3  502    0  0.60521365571E+02 -0.17053458600E+03 -0.43521685444E+03  0.47133702497E+03  0.25500000920E-02 0.  1.
       -2    1    3    3    0  502 -0.60521365571E+02  0.17053458600E+03  0.14132822872E+04  0.14248198848E+04  0.25500000920E-02 0. -1.
</event>
<event>
 5   0  0.5425525E-04  0.1584777E+04  0.7818609E-02  0.8829955E-01
       -1   -1    0    0    0  501  0.00000000000E+00  0.00000000000E+00  0.54267664334E+03  0.54267664336E+03  0.50400001928E-02 0.  1.
        1   -1    0    0  501    0  0.00000000000E+00  0.00000000000E+00 -0.11570044864E+04  0.11570044864E+04  0.50400001928E-02 0. -1.
    10030    2    1    2    0    0  0.00000000000E+00  0.00000000000E+00 -0.61432784304E+03  0.16996811297E+04  0.15847767174E+04 0.  0.
        5    1    3    3  502    0  0.39871310251E+03 -0.61930577205E+03  0.61571049578E+01  0.73659471716E+03  0.46999998093E+01 0.  1.
       -5    1    3    3    0  502 -0.39871310251E+03  0.61930577205E+03 -0.62048494799E+03  0.96308641258E+03  0.46999998093E+01 0. -1.
</event>
<event>
 5   0  0.1057872E-03  0.1558161E+04  0.7818609E-02  0.8846671E-01
       -2   -1    0    0    0  501  0.00000000000E+00  0.00000000000E+00  0.29295015821E+03  0.29295015822E+03  0.25500000920E-02 0. -1.
        2   -1    0    0  501    0  0.00000000000E+00  0.00000000000E+00 -0.20719112232E+04  0.20719112232E+04  0.25500000920E-02 0.  1.
    10030    2    1    2    0    0  0.00000000000E+00  0.00000000000E+00 -0.17789610650E+04  0.23648613815E+04  0.15581613789E+04 0.  0.
        2    1    3    3  502    0  0.86225258230E+02  0.65983847456E+03 -0.27457665415E+03  0.71987078471E+03  0.25500000920E-02 0. -1.
       -2    1    3    3    0  502 -0.86225258230E+02 -0.65983847456E+03 -0.15043844109E+04  0.16449905968E+04  0.25500000920E-02 0.  1.
</event>
<event>
 5   0  0.1030027E-03  0.1627809E+04  0.7818609E-02  0.8803644E-01
       -2   -1    0    0    0  501  0.00000000000E+00  0.00000000000E+00  0.48823631620E+03  0.48823631621E+03  0.25500000920E-02 0.  1.
        2   -1    0    0  501    0  0.00000000000E+00  0.00000000000E+00 -0.13568025554E+04  0.13568025554E+04  0.25500000920E-02 0. -1.
    10030    2    1    2    0    0  0.00000000000E+00  0.00000000000E+00 -0.86856623918E+03  0.18450388716E+04  0.16278086883E+04 0.  0.
        1    1    3    3  502    0 -0.12042812624E+03 -0.58741044698E+02  0.47564939566E+03  0.49416170586E+03  0.50400001928E-02 0.  1.
       -1    1    3    3    0  502  0.12042812624E+03  0.58741044698E+02 -0.13442156348E+04  0.13508771657E+04  0.50400001928E-02 0. -1.
</event>
<event>
 5   0  0.1030027E-03  0.1594473E+04  0.7818609E-02  0.8823951E-01
        2   -1    0    0  501    0  0.00000000000E+00  0.00000000000E+00  0.15914778162E+04  0.15914778162E+04  0.25500000920E-02 0. -1.
       -2   -1    0    0    0  501  0.00000000000E+00  0.00000000000E+00 -0.39936858026E+03  0.39936858027E+03  0.25500000920E-02 0.  1.
    10030    2    1    2    0    0  0.00000000000E+00  0.00000000000E+00  0.11921092359E+04  0.19908463965E+04  0.15944732497E+04 0.  0.
        1    1    3    3  502    0 -0.46744875554E+01  0.42171859007E+03 -0.24867831170E+03  0.48960118748E+03  0.50400001928E-02 0.  1.
       -1    1    3    3    0  502  0.46744875554E+01 -0.42171859007E+03  0.14407875476E+04  0.15012452090E+04  0.50400001928E-02 0. -1.
</event>
<event>
 5   0  0.9844690E-04  0.1722951E+04  0.7818609E-02  0.8748382E-01
        2   -1    0    0  501    0  0.00000000000E+00  0.00000000000E+00  0.10419027246E+04  0.10419027246E+04  0.25500000920E-02 0.  1.
       -2   -1    0    0    0  501  0.00000000000E+00  0.00000000000E+00 -0.71229299029E+03  0.71229299029E+03  0.25500000920E-02 0. -1.
    10030    2    1    2    0    0  0.00000000000E+00  0.00000000000E+00  0.32960973427E+03  0.17541957149E+04  0.17229509654E+04 0.  0.
        3    1    3    3  502    0  0.61941763027E+03  0.49785485701E+03  0.50340512249E+03  0.94072014270E+03  0.10100000352E+00 0.  1.
       -3    1    3    3    0  502 -0.61941763027E+03 -0.49785485701E+03 -0.17379538821E+03  0.81347557216E+03  0.10100000352E+00 0. -1.
</event>
<event>
 5   0  0.5532881E-04  0.1557755E+04  0.7818609E-02  0.8846929E-01
       -1   -1    0    0    0  501  0.00000000000E+00  0.00000000000E+00  0.49239169726E+03  0.49239169729E+03  0.50400001928E-02 0.  1.
        1   -1    0    0  501    0  0.00000000000E+00  0.00000000000E+00 -0.12320483739E+04  0.12320483740E+04  0.50400001928E-02 0. -1.
    10030    2    1    2    0    0  0.00000000000E+00  0.00000000000E+00 -0.73965667668E+03  0.17244400712E+04  0.15577552953E+04 0.  0.
        4    1    3    3  502    0  0.15165079925E+03  0.64004667622E+03 -0.83158412046E+03  0.10602789609E+04  0.12699999809E+01 0. -1.
       -4    1    3    3    0  502 -0.15165079925E+03 -0.64004667622E+03  0.91927443783E+02  0.66416111033E+03  0.12699999809E+01 0.  1.
</event>
<event>
 5   0  0.9844690E-04  0.1656739E+04  0.7818609E-02  0.8786430E-01
       -2   -1    0    0    0  501  0.00000000000E+00  0.00000000000E+00  0.62677265052E+03  0.62677265053E+03  0.25500000920E-02 0. -1.
        2   -1    0    0  501    0  0.00000000000E+00  0.00000000000E+00 -0.10948086247E+04  0.10948086247E+04  0.25500000920E-02 0.  1.
    10030    2    1    2    0    0  0.00000000000E+00  0.00000000000E+00 -0.46803597419E+03  0.17215812752E+04  0.16567390905E+04 0.  0.
        3    1    3    3  502    0 -0.80198893862E+03  0.34770904160E+02 -0.21563547409E+02  0.80303192354E+03  0.10100000352E+00 0.  1.
       -3    1    3    3    0  502  0.80198893862E+03 -0.34770904160E+02 -0.44647242678E+03  0.91854935170E+03  0.10100000352E+00 0. -1.
</event>
<event>
 5   0  0.5281116E-04  0.1576420E+04  0.7818609E-02  0.8835167E-01
        1   -1    0    0  501    0  0.00000000000E+00  0.00000000000E+00  0.32979624734E+03  0.32979624738E+03  0.50400001928E-02 0.  1.
       -1   -1    0    0    0  501  0.00000000000E+00  0.00000000000E+00 -0.18838135694E+04  0.18838135694E+04  0.50400001928E-02 0. -1.
    10030    2    1    2    0    0  0.00000000000E+00  0.00000000000E+00 -0.15540173220E+04  0.22136098168E+04  0.15764195456E+04 0.  0.
        2    1    3    3  502    0 -0.52612672793E+03 -0.58171634218E+03 -0.88642294366E+03  0.11836168602E+04  0.25500000920E-02 0. -1.
       -2    1    3    3    0  502  0.52612672793E+03  0.58171634218E+03 -0.66759437839E+03  0.10299929566E+04  0.25500000920E-02 0.  1.
</event>
<event>
 5   0  0.1037321E-03  0.1614911E+04  0.7818609E-02  0.8811439E-01
       -2   -1    0    0    0  501  0.00000000000E+00  0.00000000000E+00  0.98563816881E+03  0.98563816881E+03  0.25500000920E-02 0. -1.
        2   -1    0    0  501    0  0.00000000000E+00  0.00000000000E+00 -0.66148473307E+03  0.66148473307E+03  0.25500000920E-02 0.  1.
    10030    2    1    2    0    0  0.00000000000E+00  0.00000000000E+00  0.32415343574E+03  0.16471229019E+04  0.16149112682E+04 0.  0.
        5    1    3    3  502    0  0.78866383000E+03  0.50286514116E+02  0.33104074319E+03  0.85681353509E+03  0.46999998093E+01 0. -1.
       -5    1    3    3    0  502 -0.78866383000E+03 -0.50286514116E+02 -0.68873074508E+01  0.79030936680E+03  0.46999998093E+01 0.  1.
</event>
<event>
 5   0  0.9844690E-04  0.1615096E+04  0.7818609E-02  0.8811327E-01
       -2   -1    0    0    0  501  0.00000000000E+00  0.00000000000E+00  0.42376934932E+03  0.42376934933E+03  0.25500000920E-02 0.  1.
        2   -1    0    0  501    0  0.00000000000E+00  0.00000000000E+00 -0.15388894235E+04  0.15388894235E+04  0.25500000920E-02 0. -1.
    10030    2    1    2    0    0  0.00000000000E+00  0.00000000000E+00 -0.11151200741E+04  0.19626587728E+04  0.16150964921E+04 0.  0.
        3    1    3    3  502    0 -0.21420808258E+03  0.67132130124E+03 -0.10368724736E+04  0.12536594150E+04  0.10100000352E+00 0. -1.
       -3    1    3    3    0  502  0.21420808258E+03 -0.67132130124E+03 -0.78247600538E+02  0.70899935778E+03  0.10100000352E+00 0.  1.
</event>
<event>
 5   0  0.5281116E-04  0.1610384E+04  0.7818609E-02  0.8814194E-01
       -1   -1    0    0    0  501  0.00000000000E+00  0.00000000000E+00  0.34934515889E+03  0.34934515892E+03  0.50400001928E-02 0. -1.
        1   -1    0    0  501    0  0.00000000000E+00  0.00000000000E+00 -0.18558548329E+04  0.18558548329E+04  0.50400001928E-02 0.  1.
    10030    2    1    2    0    0  0.00000000000E+00  0.00000000000E+00 -0.15065096740E+04  0.22051999919E+04  0.16103836829E+04 0.  0.
        2    1    3    3  502    0 -0.36480925339E+03 -0.74080716497E+02 -0.17309457190E+04  0.17705216255E+04  0.25500000920E-02 0.  1.
       -2    1    3    3    0  502  0.36480925339E+03  0.74080716497E+02  0.22443604500E+03  0.43467836640E+03  0.25500000920E-02 0. -1.
</event>
<event>
 5   0  0.5281116E-04  0.1671709E+04  0.7818609E-02  0.8777667E-01
        1   -1    0    0  501    0  0.00000000000E+00  0.00000000000E+00  0.21279608405E+04  0.21279608405E+04  0.50400001928E-02 0. -1.
       -1   -1    0    0    0  501  0.00000000000E+00  0.00000000000E+00 -0.32832012617E+03  0.32832012621E+03  0.50400001928E-02 0.  1.
    10030    2    1    2    0    0  0.00000000000E+00  0.00000000000E+00  0.17996407143E+04  0.24562809667E+04  0.16717085532E+04 0.  0.
        2    1    3    3  502    0 -0.51625535213E+03  0.13467271321E+03 -0.45579590099E+02  0.53547532840E+03  0.25500000920E-02 0.  1.
       -2    1    3    3    0  502  0.51625535213E+03 -0.13467271321E+03  0.18452203044E+04  0.19208056383E+04  0.25500000920E-02 0. -1.
</event>
<event>
 5   0  0.5425525E-04  0.1611701E+04  0.7818609E-02  0.8813391E-01
       -1   -1    0    0    0  501  0.00000000000E+00  0.00000000000E+00  0.32778630229E+03  0.32778630233E+03  0.50400001928E-02 0. -1.
        1   -1    0    0  501    0  0.00000000000E+00  0.00000000000E+00 -0.19811548269E+04  0.19811548269E+04  0.50400001928E-02 0.  1.
    10030    2    1    2    0    0  0.00000000000E+00  0.00000000000E+00 -0.16533685246E+04  0.23089411293E+04  0.16117014798E+04 0.  0.
        5    1    3    3  502    0 -0.49452292764E+03  0.52088109068E+03 -0.30323542810E+03  0.77964341301E+03  0.46999998093E+01 0.  1.
       -5    1    3    3    0  502  0.49452292764E+03 -0.52088109068E+03 -0.13501330965E+04  0.15292977163E+04  0.46999998093E+01 0. -1.
</event>
<event>
 5   0  0.1057872E-03  0.1603566E+04  0.7818609E-02  0.8818360E-01
       -2   -1    0    0    0  501  0.00000000000E+00  0.00000000000E+00  0.32729510941E+03  0.32729510942E+03  0.25500000920E-02 0. -1.
        2   -1    0    0  501    0  0.00000000000E+00  0.00000000000E+00 -0.19641477190E+04  0.19641477190E+04  0.25500000920E-02 0.  1.
    10030    2    1    2    0    0  0.00000000000E+00  0.00000000000E+00 -0.16368526096E+04  0.22914428284E+04  0.16035659545E+04 0.  0.
        2    1    3    3  502    0  0.64147005665E+03  0.17300382889E+03 -0.17707352914E+03  0.68758213554E+03  0.25500000920E-02 0.  1.
       -2    1    3    3    0  502 -0.64147005665E+03 -0.17300382889E+03 -0.14597790805E+04  0.16038606929E+04  0.25500000920E-02 0. -1.
</event>
<event>
 5   0  0.1057872E-03  0.1502022E+04  0.7818609E-02  0.8883109E-01
       -2   -1    0    0    0  501  0.00000000000E+00  0.00000000000E+00  0.14835946282E+04  0.14835946282E+04  0.25500000920E-02 0. -1.
        2   -1    0    0  501    0  0.00000000000E+00  0.00000000000E+00 -0.38016966420E+03  0.38016966421E+03  0.25500000920E-02 0.  1.
    10030    2    1    2    0    0  0.00000000000E+00  0.00000000000E+00  0.11034249640E+04  0.18637642924E+04  0.15020221991E+04 0.  0.
        2    1    3    3  502    0 -0.34942310604E+03 -0.50912890538E+03  0.21323475819E+02  0.61787008340E+03  0.25500000920E-02 0.  1.
       -2    1    3    3    0  502  0.34942310604E+03  0.50912890538E+03  0.10821014882E+04  0.12458942090E+04  0.25500000920E-02 0. -1.
</event>
<event>
 5   0  0.5623061E-04  0.1611015E+04  0.7818609E-02  0.8813810E-01
        1   -1    0    0  501    0  0.00000000000E+00  0.00000000000E+00  0.46624403086E+03  0.46624403089E+03  0.50400001928E-02 0. -1.
       -1   -1    0    0    0  501  0.00000000000E+00  0.00000000000E+00 -0.13916363834E+04  0.13916363834E+04  0.50400001928E-02 0.  1.
    10030    2    1    2    0    0  0.00000000000E+00  0.00000000000E+00 -0.92539235250E+03  0.18578804143E+04  0.16110147819E+04 0.  0.
        3    1    3    3  502    0  0.79099716524E+03  0.75682623061E+02 -0.31040886225E+03  0.85308736177E+03  0.10100000352E+00 0. -1.
       -3    1    3    3    0  502 -0.79099716524E+03 -0.75682623061E+02 -0.61498349025E+03  0.10047930525E+04  0.10100000352E+00 0.  1.
</event>
<event>
 5   0  0.1000121E-03  0.1386452E+04  0.7818609E-02  0.8963684E-01
       -2   -1    0    0    0  501  0.00000000000E+00  0.00000000000E+00  0.87466725325E+03  0.87466725325E+03  0.25500000920E-02 0.  1.
        2   -1    0    0  501    0  0.00000000000E+00  0.00000000000E+00 -0.54942273306E+03  0.54942273307E+03  0.25500000920E-02 0. -1.
    10030    2    1    2    0    0  0.00000000000E+00  0.00000000000E+00  0.32524452019E+03  0.14240899863E+04  0.13864516909E+04 0.  0.
        4    1    3    3  502    0 -0.25416831413E+03  0.37719849070E+03  0.69996873143E+03  0.83476827394E+03  0.12699999809E+01 0.  1.
       -4    1    3    3    0  502  0.25416831413E+03 -0.37719849070E+03 -0.37472421124E+03  0.58932171238E+03  0.12699999809E+01 0. -1.
</event>
<event>
 5   0  0.5288658E-04  0.1445474E+04  0.7818609E-02  0.8921544E-01
        1   -1    0    0  501    0  0.00000000000E+00  0.00000000000E+00  0.62633692960E+03  0.62633692962E+03  0.50400001928E-02 0. -1.
       -1   -1    0    0    0  501  0.00000000000E+00  0.00000000000E+00 -0.83397416059E+03  0.83397416061E+03  0.50400001928E-02 0.  1.
    10030    2    1    2    0    0  0.00000000000E+00  0.00000000000E+00 -0.20763723100E+03  0.14603110902E+04  0.14454740608E+04 0.  0.
        1    1    3    3  502    0  0.19146338366E+03 -0.40485248472E+03  0.46926502977E+03  0.64867050947E+03  0.50400001928E-02 0. -1.
       -1    1    3    3    0  502 -0.19146338366E+03  0.40485248472E+03 -0.67690226076E+03  0.81164058075E+03  0.50400001928E-02 0.  1.
</event>
<event>
 5   0  0.1057872E-03  0.1601191E+04  0.7818609E-02  0.8819817E-01
       -2   -1    0    0    0  501  0.00000000000E+00  0.00000000000E+00  0.68434418805E+03  0.68434418806E+03  0.25500000920E-02 0.  1.
        2   -1    0    0  501    0  0.00000000000E+00  0.00000000000E+00 -0.93659427128E+03  0.93659427128E+03  0.25500000920E-02 0. -1.
    10030    2    1    2    0    0  0.00000000000E+00  0.00000000000E+00 -0.25225008323E+03  0.16209384593E+04  0.16011906147E+04 0.  0.
        2    1    3    3  502    0 -0.13239900199E+03  0.38873357778E+03  0.56959875311E+03  0.70220084717E+03  0.25500000920E-02 0.  1.
       -2    1    3    3    0  502  0.13239900199E+03 -0.38873357778E+03 -0.82184883634E+03  0.91873761217E+03  0.25500000920E-02 0. -1.
</event>
<event>
 5   0  0.5623061E-04  0.1696223E+04  0.7818609E-02  0.8763522E-01
        1   -1    0    0  501    0  0.00000000000E+00  0.00000000000E+00  0.69280322405E+03  0.69280322407E+03  0.50400001928E-02 0. -1.
       -1   -1    0    0    0  501  0.00000000000E+00  0.00000000000E+00 -0.10382355706E+04  0.10382355706E+04  0.50400001928E-02 0.  1.
    10030    2    1    2    0    0  0.00000000000E+00  0.00000000000E+00 -0.34543234658E+03  0.17310387947E+04  0.16962228046E+04 0.  0.
        3    1    3    3  502    0 -0.10251969921E+03 -0.84140418243E+03 -0.20196902897E+03  0.87135686478E+03  0.10100000352E+00 0.  1.
       -3    1    3    3    0  502  0.10251969921E+03  0.84140418243E+03 -0.14346331761E+03  0.85968192993E+03  0.10100000352E+00 0. -1.
</event>
<event>
 5   0  0.1030027E-03  0.1547733E+04  0.7818609E-02  0.8853317E-01
        2   -1    0    0  501    0  0.00000000000E+00  0.00000000000E+00  0.14487534197E+04  0.14487534197E+04  0.25500000920E-02 0. -1.
       -2   -1    0    0    0  501  0.00000000000E+00  0.00000000000E+00 -0.41336876776E+03  0.41336876776E+03  0.25500000920E-02 0.  1.
    10030    2    1    2    0    0  0.00000000000E+00  0.00000000000E+00  0.10353846519E+04  0.18621221874E+04  0.15477330724E+04 0.  0.
        1    1    3    3  502    0  0.24950127544E+03  0.16433423007E+03  0.13765718945E+04  0.14086187584E+04  0.50400001928E-02 0. -1.
       -1    1    3    3    0  502 -0.24950127544E+03 -0.16433423007E+03 -0.34118724261E+03  0.45350342906E+03  0.50400001928E-02 0.  1.
</event>
<event>
 5   0  0.1037321E-03  0.1592359E+04  0.7818609E-02  0.8825256E-01
        2   -1    0    0  501    0  0.00000000000E+00  0.00000000000E+00  0.58587779658E+03  0.58587779659E+03  0.25500000920E-02 0.  1.
       -2   -1    0    0    0  501  0.00000000000E+00  0.00000000000E+00 -0.10819687075E+04  0.10819687075E+04  0.25500000920E-02 0. -1.
    10030    2    1    2    0    0  0.00000000000E+00  0.00000000000E+00 -0.49609091096E+03  0.16678465041E+04  0.15923585555E+04 0.  0.
        5    1    3    3  502    0  0.48317512994E+02  0.39756186407E+03  0.47268075093E+03  0.61954757696E+03  0.46999998093E+01 0.  1.
       -5    1    3    3    0  502 -0.48317512994E+02 -0.39756186407E+03 -0.96877166189E+03  0.10482989272E+04  0.46999998093E+01 0. -1.
</event>
<event>
 5   0  0.5288658E-04  0.1558913E+04  0.7818609E-02  0.8846195E-01
        1   -1    0    0  501    0  0.00000000000E+00  0.00000000000E+00  0.65210756655E+03  0.65210756657E+03  0.50400001928E-02 0. -1.
       -1   -1    0    0    0  501  0.00000000000E+00  0.00000000000E+00 -0.93167513242E+03  0.93167513244E+03  0.50400001928E-02 0.  1.
    10030    2    1    2    0    0  0.00000000000E+00  0.00000000000E+00 -0.27956756588E+03  0.15837826990E+04  0.15589129590E+04 0.  0.
        1    1    3    3  502    0 -0.33974725276E+03 -0.54757877212E+03  0.30571107872E+03  0.71325309050E+03  0.50400001928E-02 0. -1.
       -1    1    3    3    0  502  0.33974725276E+03  0.54757877212E+03 -0.58527864460E+03  0.87052960850E+03  0.50400001928E-02 0.  1.
</event>
<event>
 5   0  0.5281116E-04  0.1615190E+04  0.7818609E-02  0.8811270E-01
        1   -1    0    0  501    0  0.00000000000E+00  0.00000000000E+00  0.54492770800E+03  0.54492770803E+03  0.50400001928E-02 0.  1.
       -1   -1    0    0    0  501  0.00000000000E+00  0.00000000000E+00 -0.11968738265E+04  0.11968738265E+04  0.50400001928E-02 0. -1.
    10030    2    1    2    0    0  0.00000000000E+00  0.00000000000E+00 -0.65194611850E+03  0.17418015345E+04  0.16151900335E+04 0.  0.
        2    1    3    3  502    0 -0.28971412809E+03 -0.65954534044E+03 -0.71965909075E+03  0.10182551444E+04  0.25500000920E-02 0. -1.
       -2    1    3    3    0  502  0.28971412809E+03  0.65954534044E+03  0.67712972254E+02  0.72354639018E+03  0.25500000920E-02 0.  1.
</event>
<event>
 5   0  0.5532881E-04  0.1593333E+04  0.7818609E-02  0.8824654E-01
       -1   -1    0    0    0  501  0.00000000000E+00  0.00000000000E+00  0.59649195031E+03  0.59649195033E+03  0.50400001928E-02 0. -1.
        1   -1    0    0  501    0  0.00000000000E+00  0.00000000000E+00 -0.10640173206E+04  0.10640173206E+04  0.50400001928E-02 0.  1.
    10030    2    1    2    0    0  0.00000000000E+00  0.00000000000E+00 -0.46752537028E+03  0.16605092709E+04  0.15933333195E+04 0.  0.
        4    1    3    3  502    0 -0.76762787958E+03 -0.73776992508E+02 -0.25381244451E+02  0.77158371328E+03  0.12699999809E+01 0.  1.
       -4    1    3    3    0  502  0.76762787958E+03  0.73776992508E+02 -0.44214412583E+03  0.88892555765E+03  0.12699999809E+01 0. -1.
</event>
<event>
 5   0  0.1057872E-03  0.1587922E+04  0.7818609E-02  0.8828002E-01
       -2   -1    0    0    0  501  0.00000000000E+00  0.00000000000E+00  0.75127604699E+03  0.75127604700E+03  0.25500000920E-02 0. -1.
        2   -1    0    0  501    0  0.00000000000E+00  0.00000000000E+00 -0.83907154638E+03  0.83907154639E+03  0.25500000920E-02 0.  1.
    10030    2    1    2    0    0  0.00000000000E+00  0.00000000000E+00 -0.87795499391E+02  0.15903475934E+04  0.15879223590E+04 0.  0.
        2    1    3    3  502    0  0.24307790931E+03  0.33321050389E+03 -0.72335725800E+03  0.83268351287E+03  0.25500000920E-02 0.  1.
       -2    1    3    3    0  502 -0.24307790931E+03 -0.33321050389E+03  0.63556175861E+03  0.75766408052E+03  0.25500000920E-02 0. -1.
</event>
<event>
 5   0  0.1057872E-03  0.1562821E+04  0.7818609E-02  0.8843720E-01
       -2   -1    0    0    0  501  0.00000000000E+00  0.00000000000E+00  0.79340471019E+03  0.79340471019E+03  0.25500000920E-02 0. -1.
        2   -1    0    0  501    0  0.00000000000E+00  0.00000000000E+00 -0.76959774505E+03  0.76959774506E+03  0.25500000920E-02 0.  1.
    10030    2    1    2    0    0  0.00000000000E+00  0.00000000000E+00  0.23806965138E+02  0.15630024553E+04  0.15628211361E+04 0.  0.
        2    1    3    3  502    0  0.70455462466E+03  0.26383192682E+03 -0.19930333619E+03  0.77828421837E+03  0.25500000920E-02 0.  1.
       -2    1    3    3    0  502 -0.70455462466E+03 -0.26383192682E+03  0.22311030133E+03  0.78471823689E+03  0.25500000920E-02 0. -1.
</event>
<event>
 5   0  0.1000121E-03  0.1584522E+04  0.7818609E-02  0.8830113E-01
        2   -1    0    0  501    0  0.00000000000E+00  0.00000000000E+00  0.31479625518E+04  0.31479625518E+04  0.25500000920E-02 0.  1.
       -2   -1    0    0    0  501  0.00000000000E+00  0.00000000000E+00 -0.19939168241E+03  0.19939168243E+03  0.25500000920E-02 0. -1.
    10030    2    1    2    0    0  0.00000000000E+00  0.00000000000E+00  0.29485708694E+04  0.33473542342E+04  0.15845220723E+04 0.  0.
        4    1    3    3  502    0  0.31226700366E+03 -0.24610007755E+03  0.29219482793E+04  0.29488742411E+04  0.12699999809E+01 0.  1.
       -4    1    3    3    0  502 -0.31226700366E+03  0.24610007755E+03  0.26622590071E+02  0.39847999316E+03  0.12699999809E+01 0. -1.
</event>
<event>
 5   0  0.1037321E-03  0.1562483E+04  0.7818609E-02  0.8843933E-01
       -2   -1    0    0    0  501  0.00000000000E+00  0.00000000000E+00  0.45106263235E+03  0.45106263235E+03  0.25500000920E-02 0.  1.
        2   -1    0    0  501    0  0.00000000000E+00  0.00000000000E+00 -0.13531121546E+04  0.13531121546E+04  0.25500000920E-02 0. -1.
    10030    2    1    2    0    0  0.00000000000E+00  0.00000000000E+00 -0.90204952230E+03  0.18041747870E+04  0.15624830627E+04 0.  0.
        5    1    3    3  502    0 -0.26928130767E+03  0.13815653235E+03  0.38060181627E+03  0.48629156135E+03  0.46999998093E+01 0.  1.
       -5    1    3    3    0  502  0.26928130767E+03 -0.13815653235E+03 -0.12826513386E+04  0.13178832256E+04  0.46999998093E+01 0. -1.
</event>
<event>
 5   0  0.1057872E-03  0.1609258E+04  0.7818609E-02  0.8814881E-01
       -2   -1    0    0    0  501  0.00000000000E+00  0.00000000000E+00  0.92479381180E+03  0.92479381181E+03  0.25500000920E-02 0.  1.
        2   -1    0    0  501    0  0.00000000000E+00  0.00000000000E+00 -0.70007801553E+03  0.70007801553E+03  0.25500000920E-02 0. -1.
    10030    2    1    2    0    0  0.00000000000E+00  0.00000000000E+00  0.22471579627E+03  0.16248718273E+04  0.16092579862E+04 0.  0.
        2    1    3    3  502    0 -0.55754769635E+03  0.96331637931E+02 -0.46528424927E+03  0.73254941867E+03  0.25500000920E-02 0. -1.
       -2    1    3    3    0  502  0.55754769635E+03 -0.96331637931E+02  0.69000004554E+03  0.89232240867E+03  0.25500000920E-02 0.  1.
</event>
<event>
 5   0  0.1030027E-03  0.1602869E+04  0.7818609E-02  0.8818787E-01
       -2   -1    0    0    0  501  0.00000000000E+00  0.00000000000E+00  0.65359071619E+03  0.65359071620E+03  0.25500000920E-02 0. -1.
        2   -1    0    0  501    0  0.00000000000E+00  0.00000000000E+00 -0.98272139166E+03  0.98272139167E+03  0.25500000920E-02 0.  1.
    10030    2    1    2    0    0  0.00000000000E+00  0.00000000000E+00 -0.32913067547E+03  0.16363121079E+04  0.16028693998E+04 0.  0.
        1    1    3    3  502    0 -0.11415302970E+03 -0.62412885158E+02 -0.97186910250E+03  0.98053854327E+03  0.50400001928E-02 0.  1.
       -1    1    3    3    0  502  0.11415302970E+03  0.62412885158E+02  0.64273842702E+03  0.65577356460E+03  0.50400001928E-02 0. -1.
</event>
<event>
 5   0  0.1000121E-03  0.1638107E+04  0.7818609E-02  0.8797474E-01
        2   -1    0    0  501    0  0.00000000000E+00  0.00000000000E+00  0.11420263203E+04  0.11420263203E+04  0.25500000920E-02 0.  1.
       -2   -1    0    0    0  501  0.00000000000E+00  0.00000000000E+00 -0.58741939002E+03  0.58741939002E+03  0.25500000920E-02 0. -1.
    10030    2    1    2    0    0  0.00000000000E+00  0.00000000000E+00  0.55460693026E+03  0.17294457103E+04  0.16381067175E+04 0.  0.
        4    1    3    3  502    0 -0.27322442366E+03 -0.38118554550E+03  0.98623025042E+03  0.10920648907E+04  0.12699999809E+01 0.  1.
       -4    1    3    3    0  502  0.27322442366E+03  0.38118554550E+03 -0.43162332016E+03  0.63738081959E+03  0.12699999809E+01 0. -1.
</event>
<event>
 5   0  0.1000121E-03  0.1564028E+04  0.7818609E-02  0.8842957E-01
        2   -1    0    0  501    0  0.00000000000E+00  0.00000000000E+00  0.11600447906E+04  0.11600447906E+04  0.25500000920E-02 0. -1.
       -2   -1    0    0    0  501  0.00000000000E+00  0.00000000000E+00 -0.52717415529E+03  0.52717415529E+03  0.25500000920E-02 0.  1.
    10030    2    1    2    0    0  0.00000000000E+00  0.00000000000E+00  0.63287063531E+03  0.16872189459E+04  0.15640276629E+04 0.  0.
        4    1    3    3  502    0  0.54915916530E+03 -0.44611280476E+03 -0.42894941622E+02  0.70882579829E+03  0.12699999809E+01 0.  1.
       -4    1    3    3    0  502 -0.54915916530E+03  0.44611280476E+03  0.67576557693E+03  0.97839314760E+03  0.12699999809E+01 0. -1.
</event>
<event>
 5   0  0.1037321E-03  0.1590920E+04  0.7818609E-02  0.8826145E-01
       -2   -1    0    0    0  501  0.00000000000E+00  0.00000000000E+00  0.12371817400E+04  0.12371817400E+04  0.25500000920E-02 0. -1.
        2   -1    0    0  501    0  0.00000000000E+00  0.00000000000E+00 -0.51145030015E+03  0.51145030015E+03  0.25500000920E-02 0.  1.
    10030    2    1    2    0    0  0.00000000000E+00  0.00000000000E+00  0.72573143986E+03  0.17486320402E+04  0.15909204534E+04 0.  0.
        5    1    3    3  502    0  0.39075598240E+03  0.56001188220E+03  0.81126769461E+03  0.10604154414E+04  0.46999998093E+01 0. -1.
       -5    1    3    3    0  502 -0.39075598240E+03 -0.56001188220E+03 -0.85536254750E+02  0.68821659879E+03  0.46999998093E+01 0.  1.
</event>
<event>
 5   0  0.5281116E-04  0.1602950E+04  0.7818609E-02  0.8818738E-01
       -1   -1    0    0    0  501  0.00000000000E+00  0.00000000000E+00  0.50671546820E+03  0.50671546823E+03  0.50400001928E-02 0.  1.
        1   -1    0    0  501    0  0.00000000000E+00  0.00000000000E+00 -0.12676980710E+04  0.12676980710E+04  0.50400001928E-02 0. -1.
    10030    2    1    2    0    0  0.00000000000E+00  0.00000000000E+00 -0.76098260282E+03  0.17744135393E+04  0.16029500574E+04 0.  0.
        2    1    3    3  502    0  0.59962439666E+03  0.23924912391E+03 -0.90623985052E+03  0.11126815479E+04  0.25500000920E-02 0. -1.
       -2    1    3    3    0  502 -0.59962439666E+03 -0.23924912391E+03  0.14525724770E+03  0.66173199136E+03  0.25500000920E-02 0.  1.
</event>
<event>
 5   0  0.1037321E-03  0.1538209E+04  0.7818609E-02  0.8859435E-01
       -2   -1    0    0    0  501  0.00000000000E+00  0.00000000000E+00  0.43558302896E+03  0.43558302897E+03  0.25500000920E-02 0.  1.
        2   -1    0    0  501    0  0.00000000000E+00  0.00000000000E+00 -0.13579990817E+04  0.13579990817E+04  0.25500000920E-02 0. -1.
    10030    2    1    2    0    0  0.00000000000E+00  0.00000000000E+00 -0.92241605276E+03  0.17935821107E+04  0.15382085078E+04 0.  0.
        5    1    3    3  502    0  0.74270782028E+02  0.42821004133E+03  0.27865842597E+03  0.51628732013E+03  0.46999998093E+01 0.  1.
       -5    1    3    3    0  502 -0.74270782028E+02 -0.42821004133E+03 -0.12010744787E+04  0.12772947906E+04  0.46999998093E+01 0. -1.
</event>
<event>
 5   0  0.9844690E-04  0.1288774E+04  0.7818609E-02  0.9038515E-01
       -2   -1    0    0    0  501  0.00000000000E+00  0.00000000000E+00  0.21629407498E+03  0.21629407499E+03  0.25500000920E-02 0.  1.
        2   -1    0    0  501    0  0.00000000000E+00  0.00000000000E+00 -0.19197690893E+04  0.19197690893E+04  0.25500000920E-02 0. -1.
    10030    2    1    2    0    0  0.00000000000E+00  0.00000000000E+00 -0.17034750143E+04  0.21360631643E+04  0.12887741142E+04 0.  0.
        3    1    3    3  502    0  0.43238196753E+02 -0.42322540564E+03 -0.16539193113E+04  0.17077582921E+04  0.10100000352E+00 0. -1.
       -3    1    3    3    0  502 -0.43238196753E+02  0.42322540564E+03 -0.49555702989E+02  0.42830487219E+03  0.10100000352E+00 0.  1.
</event>
<event>
 5   0  0.1037321E-03  0.1142879E+04  0.7818609E-02  0.9164378E-01
        2   -1    0    0  501    0  0.00000000000E+00  0.00000000000E+00  0.17365437997E+04  0.17365437997E+04  0.25500000920E-02 0. -1.
       -2   -1    0    0    0  501  0.00000000000E+00  0.00000000000E+00 -0.18804195033E+03  0.18804195034E+03  0.25500000920E-02 0.  1.
    10030    2    1    2    0    0  0.00000000000E+00  0.00000000000E+00  0.15485018494E+04  0.19245857500E+04  0.11428789664E+04 0.  0.
        5    1    3    3  502    0  0.90279778958E+02  0.46601131894E+03  0.23853337254E+03  0.53126005654E+03  0.46999998093E+01 0.  1.
       -5    1    3    3    0  502 -0.90279778958E+02 -0.46601131894E+03  0.13099684768E+04  0.13933256935E+04  0.46999998093E+01 0. -1.
</event>
<event>
 5   0  0.5288658E-04  0.1642379E+04  0.7818609E-02  0.8794928E-01
        1   -1    0    0  501    0  0.00000000000E+00  0.00000000000E+00  0.12403721042E+04  0.12403721042E+04  0.50400001928E-02 0. -1.
       -1   -1    0    0    0  501  0.00000000000E+00  0.00000000000E+00 -0.54366934308E+03  0.54366934311E+03  0.50400001928E-02 0.  1.
    10030    2    1    2    0    0  0.00000000000E+00  0.00000000000E+00  0.69670276107E+03  0.17840414473E+04  0.16423791122E+04 0.  0.
        1    1    3    3  502    0 -0.79749342447E+02 -0.78429395053E+03  0.98571147515E+02  0.79447670173E+03  0.50400001928E-02 0.  1.
       -1    1    3    3    0  502  0.79749342447E+02  0.78429395053E+03  0.59813161355E+03  0.98956474554E+03  0.50400001928E-02 0. -1.
</event>
<event>
 5   0  0.5425525E-04  0.1351025E+04  0.7818609E-02  0.8990053E-01
       -1   -1    0    0    0  501  0.00000000000E+00  0.00000000000E+00  0.51957102438E+03  0.51957102440E+03  0.50400001928E-02 0.  1.
        1   -1    0    0  501    0  0.00000000000E+00  0.00000000000E+00 -0.87825750980E+03  0.87825750982E+03  0.50400001928E-02 0. -1.
    10030    2    1    2    0    0  0.00000000000E+00  0.00000000000E+00 -0.35868648543E+03  0.13978285342E+04  0.13510250243E+04 0.  0.
        5    1    3    3  502    0  0.59470250849E+03 -0.16285799802E+02  0.15167583407E+03  0.61397389971E+03  0.46999998093E+01 0. -1.
       -5    1    3    3    0  502 -0.59470250849E+03  0.16285799802E+02 -0.51036231950E+03  0.78385463451E+03  0.46999998093E+01 0.  1.
</event>
<event>
 5   0  0.5425525E-04  0.1529060E+04  0.7818609E-02  0.8865355E-01
        1   -1    0    0  501    0  0.00000000000E+00  0.00000000000E+00  0.12811558981E+04  0.12811558981E+04  0.50400001928E-02 0. -1.
       -1   -1    0    0    0  501  0.00000000000E+00  0.00000000000E+00 -0.45623347901E+03  0.45623347903E+03  0.50400001928E-02 0.  1.
    10030    2    1    2    0    0  0.00000000000E+00  0.00000000000E+00  0.82492241909E+03  0.17373893771E+04  0.15290601199E+04 0.  0.
        5    1    3    3  502    0 -0.14392059249E+03  0.39263361159E+03 -0.31474534895E+03  0.52341285290E+03  0.46999998093E+01 0.  1.
       -5    1    3    3    0  502  0.14392059249E+03 -0.39263361159E+03  0.11396677680E+04  0.12139765242E+04  0.46999998093E+01 0. -1.
</event>
<event>
 5   0  0.1030027E-03  0.1625493E+04  0.7818609E-02  0.8805038E-01
        2   -1    0    0  501    0  0.00000000000E+00  0.00000000000E+00  0.13221550784E+04  0.13221550784E+04  0.25500000920E-02 0. -1.
       -2   -1    0    0    0  501  0.00000000000E+00  0.00000000000E+00 -0.49960613398E+03  0.49960613399E+03  0.25500000920E-02 0.  1.
    10030    2    1    2    0    0  0.00000000000E+00  0.00000000000E+00  0.82254894443E+03  0.18217612124E+04  0.16254928942E+04 0.  0.
        1    1    3    3  502    0  0.23758872075E+03 -0.72871295616E+03  0.71426072334E+03  0.10476828497E+04  0.50400001928E-02 0.  1.
       -1    1    3    3    0  502 -0.23758872075E+03  0.72871295616E+03  0.10828822109E+03  0.77407836267E+03  0.50400001928E-02 0. -1.
</event>
<event>
 5   0  0.1030027E-03  0.1614326E+04  0.7818609E-02  0.8811795E-01
       -2   -1    0    0    0  501  0.00000000000E+00  0.00000000000E+00  0.84747689849E+03  0.84747689850E+03  0.25500000920E-02 0. -1.
        2   -1    0    0  501    0  0.00000000000E+00  0.00000000000E+00 -0.76876663623E+03  0.76876663623E+03  0.25500000920E-02 0.  1.
    10030    2    1    2    0    0  0.00000000000E+00  0.00000000000E+00  0.78710262265E+02  0.16162435347E+04  0.16143258216E+04 0.  0.
        1    1    3    3  502    0  0.29334910408E+03 -0.56882243953E+03 -0.45306172714E+03  0.78414130946E+03  0.50400001928E-02 0.  1.
       -1    1    3    3    0  502 -0.29334910408E+03  0.56882243953E+03  0.53177198940E+03  0.83210222528E+03  0.50400001928E-02 0. -1.
</event>
<event>
 5   0  0.5532881E-04  0.1553413E+04  0.7818609E-02  0.8849691E-01
       -1   -1    0    0    0  501  0.00000000000E+00  0.00000000000E+00  0.70340418994E+03  0.70340418996E+03  0.50400001928E-02 0.  1.
        1   -1    0    0  501    0  0.00000000000E+00  0.00000000000E+00 -0.85764763504E+03  0.85764763506E+03  0.50400001928E-02 0. -1.
    10030    2    1    2    0    0  0.00000000000E+00  0.00000000000E+00 -0.15424344510E+03  0.15610518250E+04  0.15534129393E+04 0.  0.
        4    1    3    3  502    0 -0.69286845794E+02 -0.49141140195E+03 -0.67754246559E+03  0.83985191465E+03  0.12699999809E+01 0. -1.
       -4    1    3    3    0  502  0.69286845794E+02  0.49141140195E+03  0.52329902049E+03  0.72119991036E+03  0.12699999809E+01 0.  1.
</event>
<event>
 5   0  0.1057872E-03  0.1591151E+04  0.7818609E-02  0.8826003E-01
        2   -1    0    0  501    0  0.00000000000E+00  0.00000000000E+00  0.27700906014E+04  0.27700906014E+04  0.25500000920E-02 0.  1.
       -2   -1    0    0    0  501  0.00000000000E+00  0.00000000000E+00 -0.22849091913E+03  0.22849091914E+03  0.25500000920E-02 0. -1.
    10030    2    1    2    0    0  0.00000000000E+00  0.00000000000E+00  0.25415996822E+04  0.29985815205E+04  0.15911512154E+04 0.  0.
        2    1    3    3  502    0 -0.10018695838E+03 -0.32385170256E+03 -0.85572760946E+02  0.34962844465E+03  0.25500000920E-02 0. -1.
       -2    1    3    3    0  502  0.10018695838E+03  0.32385170256E+03  0.26271724432E+04  0.26489530759E+04  0.25500000920E-02 0.  1.
</event>
<event>
 5   0  0.3832500E-04  0.1587632E+04  0.7818609E-02  0.8828183E-01
        3   -1    0    0  501    0  0.00000000000E+00  0.00000000000E+00  0.74642701431E+03  0.74642702115E+03  0.10100000352E+00 0.  1.
       -3   -1    0    0    0  501  0.00000000000E+00  0.00000000000E+00 -0.84421312630E+03  0.84421313234E+03  0.10100000352E+00 0. -1.
    10030    2    1    2    0    0  0.00000000000E+00  0.00000000000E+00 -0.97786111983E+02  0.15906401535E+04  0.15876315612E+04 0.  0.
        2    1    3    3  502    0 -0.48390576500E+03  0.20595264744E+03 -0.64463082983E+03  0.83194362138E+03  0.25500000920E-02 0. -1.
       -2    1    3    3    0  502  0.48390576500E+03 -0.20595264744E+03  0.54684471785E+03  0.75869653210E+03  0.25500000920E-02 0.  1.
</event>
<event>
 5   0  0.1037321E-03  0.1576089E+04  0.7818609E-02  0.8835373E-01
       -2   -1    0    0    0  501  0.00000000000E+00  0.00000000000E+00  0.72638982343E+03  0.72638982343E+03  0.25500000920E-02 0.  1.
        2   -1    0    0  501    0  0.00000000000E+00  0.00000000000E+00 -0.85493269194E+03  0.85493269195E+03  0.25500000920E-02 0. -1.
    10030    2    1    2    0    0  0.00000000000E+00  0.00000000000E+00 -0.12854286852E+03  0.15813225154E+04  0.15760893466E+04 0.  0.
        5    1    3    3  502    0 -0.47300303210E+03 -0.45180809670E+03 -0.50519607581E+03  0.82650323026E+03  0.46999998093E+01 0. -1.
       -5    1    3    3    0  502  0.47300303210E+03  0.45180809670E+03  0.37665320729E+03  0.75481928512E+03  0.46999998093E+01 0.  1.
</event>
<event>
 5   0  0.1037321E-03  0.1558281E+04  0.7818609E-02  0.8846596E-01
        2   -1    0    0  501    0  0.00000000000E+00  0.00000000000E+00  0.19828763294E+04  0.19828763294E+04  0.25500000920E-02 0. -1.
       -2   -1    0    0    0  501  0.00000000000E+00  0.00000000000E+00 -0.30615115158E+03  0.30615115159E+03  0.25500000920E-02 0.  1.
    10030    2    1    2    0    0  0.00000000000E+00  0.00000000000E+00  0.16767251778E+04  0.22890274810E+04  0.15582809396E+04 0.  0.
        5    1    3    3  502    0  0.71732495137E+03  0.30397461409E+03  0.85167497023E+03  0.11542651328E+04  0.46999998093E+01 0. -1.
       -5    1    3    3    0  502 -0.71732495137E+03 -0.30397461409E+03  0.82505020761E+03  0.11347623482E+04  0.46999998093E+01 0.  1.
</event>
<event>
 5   0  0.5288658E-04  0.1613954E+04  0.7818609E-02  0.8812021E-01
        1   -1    0    0  501    0  0.00000000000E+00  0.00000000000E+00  0.40232600100E+03  0.40232600103E+03  0.50400001928E-02 0.  1.
       -1   -1    0    0    0  501  0.00000000000E+00  0.00000000000E+00 -0.16186167965E+04  0.16186167965E+04  0.50400001928E-02 0. -1.
    10030    2    1    2    0    0  0.00000000000E+00  0.00000000000E+00 -0.12162907955E+04  0.20209427975E+04  0.16139536833E+04 0.  0.
        1    1    3    3  502    0 -0.91287219239E+02 -0.36661303057E+03 -0.15010333584E+04  0.15478499972E+04  0.50400001928E-02 0. -1.
       -1    1    3    3    0  502  0.91287219239E+02  0.36661303057E+03  0.28474256294E+03  0.47309280036E+03  0.50400001928E-02 0.  1.
</event>
<event>
 5   0  0.5532881E-04  0.1566392E+04  0.7818609E-02  0.8841465E-01
       -1   -1    0    0    0  501  0.00000000000E+00  0.00000000000E+00  0.61389151382E+03  0.61389151384E+03  0.50400001928E-02 0.  1.
        1   -1    0    0  501    0  0.00000000000E+00  0.00000000000E+00 -0.99919319548E+03  0.99919319549E+03  0.50400001928E-02 0. -1.
    10030    2    1    2    0    0  0.00000000000E+00  0.00000000000E+00 -0.38530168166E+03  0.16130847093E+04  0.15663923179E+04 0.  0.
        4    1    3    3  502    0 -0.40205305961E+03  0.88339965216E+01 -0.88474822632E+03  0.97185685115E+03  0.12699999809E+01 0. -1.
       -4    1    3    3    0  502  0.40205305961E+03 -0.88339965216E+01  0.49944654466E+03  0.64122785818E+03  0.12699999809E+01 0.  1.
</event>
<event>
 5   0  0.9844690E-04  0.1545636E+04  0.7818609E-02  0.8854660E-01
        2   -1    0    0  501    0  0.00000000000E+00  0.00000000000E+00  0.99281480846E+03  0.99281480847E+03  0.25500000920E-02 0. -1.
       -2   -1    0    0    0  501  0.00000000000E+00  0.00000000000E+00 -0.60156976029E+03  0.60156976030E+03  0.25500000920E-02 0.  1.
    10030    2    1    2    0    0  0.00000000000E+00  0.00000000000E+00  0.39124504817E+03  0.15943845688E+04  0.15456356186E+04 0.  0.
        3    1    3    3  502    0 -0.53720696995E+03  0.46635900313E+02  0.76669052851E+03  0.93732631056E+03  0.10100000352E+00 0. -1.
       -3    1    3    3    0  502  0.53720696995E+03 -0.46635900313E+02 -0.37544548034E+03  0.65705825820E+03  0.10100000352E+00 0.  1.
</event>
<event>
 5   0  0.1030027E-03  0.1343985E+04  0.7818609E-02  0.8995394E-01
       -2   -1    0    0    0  501  0.00000000000E+00  0.00000000000E+00  0.10302587260E+04  0.10302587260E+04  0.25500000920E-02 0. -1.
        2   -1    0    0  501    0  0.00000000000E+00  0.00000000000E+00 -0.43831090227E+03  0.43831090227E+03  0.25500000920E-02 0.  1.
    10030    2    1    2    0    0  0.00000000000E+00  0.00000000000E+00  0.59194782376E+03  0.14685696283E+04  0.13439845710E+04 0.  0.
        1    1    3    3  502    0  0.57411126165E+03 -0.27350529499E+03  0.53328006698E+03  0.82993765850E+03  0.50400001928E-02 0. -1.
       -1    1    3    3    0  502 -0.57411126165E+03  0.27350529499E+03  0.58667756783E+02  0.63863196980E+03  0.50400001928E-02 0.  1.
</event>
<event>
 5   0  0.1037321E-03  0.1610950E+04  0.7818609E-02  0.8813849E-01
       -2   -1    0    0    0  501  0.00000000000E+00  0.00000000000E+00  0.35463226927E+03  0.35463226927E+03  0.25500000920E-02 0.  1.
        2   -1    0    0  501    0  0.00000000000E+00  0.00000000000E+00 -0.18294714789E+04  0.18294714789E+04  0.25500000920E-02 0. -1.
    10030    2    1    2    0    0  0.00000000000E+00  0.00000000000E+00 -0.14748392096E+04  0.21841037481E+04  0.16109495611E+04 0.  0.
        5    1    3    3  502    0  0.32219817610E+03  0.15658131272E+03 -0.17155030037E+04  0.17525130578E+04  0.46999998093E+01 0. -1.
       -5    1    3    3    0  502 -0.32219817610E+03 -0.15658131272E+03  0.24066379410E+03  0.43159069031E+03  0.46999998093E+01 0.  1.
</event>
<event>
 5   0  0.3832500E-04  0.1573042E+04  0.7818609E-02  0.8837283E-01
       -4   -1    0    0    0  501  0.00000000000E+00  0.00000000000E+00  0.51158406646E+03  0.51158564283E+03  0.12699999809E+01 0. -1.
        4   -1    0    0  501    0  0.00000000000E+00  0.00000000000E+00 -0.12092112368E+04  0.12092119037E+04  0.12699999809E+01 0.  1.
    10030    2    1    2    0    0  0.00000000000E+00  0.00000000000E+00 -0.69762717031E+03  0.17207975465E+04  0.15730418073E+04 0.  0.
        2    1    3    3  502    0 -0.16459313495E+03  0.20321014871E+03  0.46263609499E+03  0.53142960117E+03  0.25500000920E-02 0. -1.
       -2    1    3    3    0  502  0.16459313495E+03 -0.20321014871E+03 -0.11602632653E+04  0.11893679453E+04  0.25500000920E-02 0.  1.
</event>
<event>
 5   0  0.9844690E-04  0.1589508E+04  0.7818609E-02  0.8827020E-01
       -2   -1    0    0    0  501  0.00000000000E+00  0.00000000000E+00  0.28899655002E+03  0.28899655003E+03  0.25500000920E-02 0. -1.
        2   -1    0    0  501    0  0.00000000000E+00  0.00000000000E+00 -0.21856100403E+04  0.21856100403E+04  0.25500000920E-02 0.  1.
    10030    2    1    2    0    0  0.00000000000E+00  0.00000000000E+00 -0.18966134903E+04  0.24746065904E+04  0.15895077997E+04 0.  0.
        3    1    3    3  502    0  0.21086987293E+03 -0.45009230737E+03 -0.19137781727E+04  0.19772698584E+04  0.10100000352E+00 0.  1.
       -3    1    3    3    0  502 -0.21086987293E+03  0.45009230737E+03  0.17164682343E+02  0.49733673199E+03  0.10100000352E+00 0. -1.
</event>
<event>
 5   0  0.1000121E-03  0.1612203E+04  0.7818609E-02  0.8813086E-01
        2   -1    0    0  501    0  0.00000000000E+00  0.00000000000E+00  0.94626257144E+03  0.94626257144E+03  0.25500000920E-02 0.  1.
       -2   -1    0    0    0  501  0.00000000000E+00  0.00000000000E+00 -0.68670153032E+03  0.68670153032E+03  0.25500000920E-02 0. -1.
    10030    2    1    2    0    0  0.00000000000E+00  0.00000000000E+00  0.25956104113E+03  0.16329641018E+04  0.16122034064E+04 0.  0.
        4    1    3    3  502    0  0.43043682276E+03 -0.61585272938E+03  0.42551274408E+03  0.86348894084E+03  0.12699999809E+01 0.  1.
       -4    1    3    3    0  502 -0.43043682276E+03  0.61585272938E+03 -0.16595170296E+03  0.76947516093E+03  0.12699999809E+01 0. -1.
</event>
<event>
 5   0  0.5425525E-04  0.1657315E+04  0.7818609E-02  0.8786091E-01
       -1   -1    0    0    0  501  0.00000000000E+00  0.00000000000E+00  0.31778339226E+03  0.31778339230E+03  0.50400001928E-02 0. -1.
        1   -1    0    0  501    0  0.00000000000E+00  0.00000000000E+00 -0.21608221788E+04  0.21608221788E+04  0.50400001928E-02 0.  1.
    10030    2    1    2    0    0  0.00000000000E+00  0.00000000000E+00 -0.18430387866E+04  0.24786055711E+04  0.16573151808E+04 0.  0.
        5    1    3    3  502    0  0.42153035773E+03 -0.64659011872E+03 -0.13723855876E+04  0.15745573712E+04  0.46999998093E+01 0.  1.
       -5    1    3    3    0  502 -0.42153035773E+03  0.64659011872E+03 -0.47065319894E+03  0.90404819992E+03  0.46999998093E+01 0. -1.
</event>
<event>
 5   0  0.9844690E-04  0.1608739E+04  0.7818609E-02  0.8815197E-01
       -2   -1    0    0    0  501  0.00000000000E+00  0.00000000000E+00  0.43689082384E+03  0.43689082384E+03  0.25500000920E-02 0.  1.
        2   -1    0    0  501    0  0.00000000000E+00  0.00000000000E+00 -0.14809430810E+04  0.14809430810E+04  0.25500000920E-02 0. -1.
    10030    2    1    2    0    0  0.00000000000E+00  0.00000000000E+00 -0.10440522572E+04  0.19178339049E+04  0.16087391867E+04 0.  0.
        3    1    3    3  502    0 -0.20078078397E+03 -0.68943613646E+03 -0.95412412233E+03  0.11941473780E+04  0.10100000352E+00 0. -1.
       -3    1    3    3    0  502  0.20078078397E+03  0.68943613646E+03 -0.89928134862E+02  0.72368652683E+03  0.10100000352E+00 0.  1.
</event>
<event>
 5   0  0.1000121E-03  0.1591662E+04  0.7818609E-02  0.8825687E-01
       -2   -1    0    0    0  501  0.00000000000E+00  0.00000000000E+00  0.81428127419E+03  0.81428127420E+03  0.25500000920E-02 0.  1.
        2   -1    0    0  501    0  0.00000000000E+00  0.00000000000E+00 -0.77779916217E+03  0.77779916217E+03  0.25500000920E-02 0. -1.
    10030    2    1    2    0    0  0.00000000000E+00  0.00000000000E+00  0.36482112029E+02  0.15920804364E+04  0.15916623924E+04 0.  0.
        4    1    3    3  502    0  0.18773517970E+03  0.10688704302E+03 -0.74790811960E+03  0.77848410769E+03  0.12699999809E+01 0. -1.
       -4    1    3    3    0  502 -0.18773517970E+03 -0.10688704302E+03  0.78439023163E+03  0.81359632868E+03  0.12699999809E+01 0.  1.
</event>
<event>
 5   0  0.1030027E-03  0.1339183E+04  0.7818609E-02  0.8999057E-01
       -2   -1    0    0    0  501  0.00000000000E+00  0.00000000000E+00  0.20627451169E+03  0.20627451171E+03  0.25500000920E-02 0.  1.
        2   -1    0    0  501    0  0.00000000000E+00  0.00000000000E+00 -0.21735747440E+04  0.21735747440E+04  0.25500000920E-02 0. -1.
    10030    2    1    2    0    0  0.00000000000E+00  0.00000000000E+00 -0.19673002323E+04  0.23798492557E+04  0.13391834362E+04 0.  0.
        1    1    3    3  502    0  0.47154822797E+03 -0.78734207757E+02 -0.18167930803E+04  0.18786415048E+04  0.50400001928E-02 0. -1.
       -1    1    3    3    0  502 -0.47154822797E+03  0.78734207757E+02 -0.15050715202E+03  0.50120775095E+03  0.50400001928E-02 0.  1.
</event>
<event>
 5   0  0.5532881E-04  0.1620733E+04  0.7818609E-02  0.8807911E-01
        1   -1    0    0  501    0  0.00000000000E+00  0.00000000000E+00  0.58063702507E+03  0.58063702509E+03  0.50400001928E-02 0.  1.
       -1   -1    0    0    0  501  0.00000000000E+00  0.00000000000E+00 -0.11309892644E+04  0.11309892644E+04  0.50400001928E-02 0. -1.
    10030    2    1    2    0    0  0.00000000000E+00  0.00000000000E+00 -0.55035223937E+03  0.17116262895E+04  0.16207334660E+04 0.  0.
        4    1    3    3  502    0  0.33182981151E+02 -0.79432595901E+03 -0.44094317386E+03  0.90911348845E+03  0.12699999809E+01 0. -1.
       -4    1    3    3    0  502 -0.33182981151E+02  0.79432595901E+03 -0.10940906550E+03  0.80251280109E+03  0.12699999809E+01 0.  1.
</event>
<event>
 5   0  0.9844690E-04  0.1452479E+04  0.7818609E-02  0.8916684E-01
       -2   -1    0    0    0  501  0.00000000000E+00  0.00000000000E+00  0.27559169835E+03  0.27559169836E+03  0.25500000920E-02 0.  1.
        2   -1    0    0  501    0  0.00000000000E+00  0.00000000000E+00 -0.19137870267E+04  0.19137870267E+04  0.25500000920E-02 0. -1.
    10030    2    1    2    0    0  0.00000000000E+00  0.00000000000E+00 -0.16381953284E+04  0.21893787251E+04  0.14524790077E+04 0.  0.
        3    1    3    3  502    0  0.18348683512E+03  0.22590066300E+03  0.18384981038E+03  0.34423726002E+03  0.10100000352E+00 0.  1.
       -3    1    3    3    0  502 -0.18348683512E+03 -0.22590066300E+03 -0.18220451388E+04  0.18451414651E+04  0.10100000352E+00 0. -1.
</event>
<event>
 5   0  0.1037321E-03  0.1531949E+04  0.7818609E-02  0.8863481E-01
       -2   -1    0    0    0  501  0.00000000000E+00  0.00000000000E+00  0.10151867929E+04  0.10151867929E+04  0.25500000920E-02 0. -1.
        2   -1    0    0  501    0  0.00000000000E+00  0.00000000000E+00 -0.57794001086E+03  0.57794001086E+03  0.25500000920E-02 0.  1.
    10030    2    1    2    0    0  0.00000000000E+00  0.00000000000E+00  0.43724678207E+03  0.15931268038E+04  0.15319491717E+04 0.  0.
        5    1    3    3  502    0  0.34710099008E+03 -0.67781241610E+03  0.30429157345E+03  0.82007574065E+03  0.46999998093E+01 0. -1.
       -5    1    3    3    0  502 -0.34710099008E+03  0.67781241610E+03  0.13295520862E+03  0.77305106314E+03  0.46999998093E+01 0.  1.
</event>
<event>
 5   0  0.5623061E-04  0.1611146E+04  0.7818609E-02  0.8813730E-01
        1   -1    0    0  501    0  0.00000000000E+00  0.00000000000E+00  0.20394724635E+04  0.20394724635E+04  0.50400001928E-02 0.  1.
       -1   -1    0    0    0  501  0.00000000000E+00  0.00000000000E+00 -0.31819410664E+03  0.31819410668E+03  0.50400001928E-02 0. -1.
    10030    2    1    2    0    0  0.00000000000E+00  0.00000000000E+00  0.17212783569E+04  0.23576665702E+04  0.16111463231E+04 0.  0.
        3    1    3    3  502    0  0.52303460671E+03  0.34024812096E+03  0.16062488963E+04  0.17231858608E+04  0.10100000352E+00 0.  1.
       -3    1    3    3    0  502 -0.52303460671E+03 -0.34024812096E+03  0.11502946054E+03  0.63448070942E+03  0.10100000352E+00 0. -1.
</event>
<event>
 5   0  0.3832500E-04  0.1599677E+04  0.7818609E-02  0.8820746E-01
        3   -1    0    0  501    0  0.00000000000E+00  0.00000000000E+00  0.89654685748E+03  0.89654686317E+03  0.10100000352E+00 0.  1.
       -3   -1    0    0    0  501  0.00000000000E+00  0.00000000000E+00 -0.71356220877E+03  0.71356221592E+03  0.10100000352E+00 0. -1.
    10030    2    1    2    0    0  0.00000000000E+00  0.00000000000E+00  0.18298464871E+03  0.16101090791E+04  0.15996774253E+04 0.  0.
        3    1    3    3  502    0 -0.15069657694E+03  0.68041416278E+02 -0.69617256903E+03  0.71553850260E+03  0.10100000352E+00 0. -1.
       -3    1    3    3    0  502  0.15069657694E+03 -0.68041416278E+02  0.87915721773E+03  0.89457057649E+03  0.10100000352E+00 0.  1.
</event>
<event>
 5   0  0.5532881E-04  0.1584277E+04  0.7818609E-02  0.8830266E-01
       -1   -1    0    0    0  501  0.00000000000E+00  0.00000000000E+00  0.84721423503E+03  0.84721423504E+03  0.50400001928E-02 0.  1.
        1   -1    0    0  501    0  0.00000000000E+00  0.00000000000E+00 -0.74064340388E+03  0.74064340390E+03  0.50400001928E-02 0. -1.
    10030    2    1    2    0    0  0.00000000000E+00  0.00000000000E+00  0.10657083115E+03  0.15878576389E+04  0.15842772925E+04 0.  0.
        4    1    3    3  502    0 -0.18308225194E+03 -0.32271942986E+03 -0.64816413501E+03  0.74685025287E+03  0.12699999809E+01 0. -1.
       -4    1    3    3    0  502  0.18308225194E+03  0.32271942986E+03  0.75473496616E+03  0.84100738608E+03  0.12699999809E+01 0.  1.
</event>
<event>
 5   0  0.1000121E-03  0.1579862E+04  0.7818609E-02  0.8833016E-01
       -2   -1    0    0    0  501  0.00000000000E+00  0.00000000000E+00  0.40204105628E+03  0.40204105629E+03  0.25500000920E-02 0.  1.
        2   -1    0    0  501    0  0.00000000000E+00  0.00000000000E+00 -0.15520583000E+04  0.15520583000E+04  0.25500000920E-02 0. -1.
    10030    2    1    2    0    0  0.00000000000E+00  0.00000000000E+00 -0.11500172437E+04  0.19540993562E+04  0.15798622197E+04 0.  0.
        4    1    3    3  502    0  0.44721889592E+03  0.19518656087E+03  0.19333856980E+03  0.52486564936E+03  0.12699999809E+01 0.  1.
       -4    1    3    3    0  502 -0.44721889592E+03 -0.19518656087E+03 -0.13433558135E+04  0.14292337069E+04  0.12699999809E+01 0. -1.
</event>
<event>
 5   0  0.5623061E-04  0.1590743E+04  0.7818609E-02  0.8826255E-01
       -1   -1    0    0    0  501  0.00000000000E+00  0.00000000000E+00  0.48144310139E+03  0.48144310142E+03  0.50400001928E-02 0.  1.
        1   -1    0    0  501    0  0.00000000000E+00  0.00000000000E+00 -0.13139989307E+04  0.13139989307E+04  0.50400001928E-02 0. -1.
    10030    2    1    2    0    0  0.00000000000E+00  0.00000000000E+00 -0.83255582934E+03  0.17954420322E+04  0.15907428711E+04 0.  0.
        3    1    3    3  502    0  0.29486048788E+03 -0.37977638284E+03 -0.11314051102E+04  0.12293292244E+04  0.10100000352E+00 0. -1.
       -3    1    3    3    0  502 -0.29486048788E+03  0.37977638284E+03  0.29884928087E+03  0.56611280780E+03  0.10100000352E+00 0.  1.
</event>
<event>
 5   0  0.1037321E-03  0.1565136E+04  0.7818609E-02  0.8842258E-01
       -2   -1    0    0    0  501  0.00000000000E+00  0.00000000000E+00  0.32159170920E+03  0.32159170921E+03  0.25500000920E-02 0. -1.
        2   -1    0    0  501    0  0.00000000000E+00  0.00000000000E+00 -0.19043161973E+04  0.19043161973E+04  0.25500000920E-02 0.  1.
    10030    2    1    2    0    0  0.00000000000E+00  0.00000000000E+00 -0.15827244881E+04  0.22259079065E+04  0.15651355222E+04 0.  0.
        5    1    3    3  502    0 -0.48850802733E+03  0.47454767265E+03 -0.13395108723E+04  0.15027132306E+04  0.46999998093E+01 0.  1.
       -5    1    3    3    0  502  0.48850802733E+03 -0.47454767265E+03 -0.24321361584E+03  0.72319467594E+03  0.46999998093E+01 0. -1.
</event>
<event>
 5   0  0.1057872E-03  0.1592517E+04  0.7818609E-02  0.8825158E-01
       -2   -1    0    0    0  501  0.00000000000E+00  0.00000000000E+00  0.29107568990E+03  0.29107568991E+03  0.25500000920E-02 0.  1.
        2   -1    0    0  501    0  0.00000000000E+00  0.00000000000E+00 -0.21782221614E+04  0.21782221614E+04  0.25500000920E-02 0. -1.
    10030    2    1    2    0    0  0.00000000000E+00  0.00000000000E+00 -0.18871464715E+04  0.24692978513E+04  0.15925168990E+04 0.  0.
        2    1    3    3  502    0 -0.69410297056E+03 -0.36628130710E+03 -0.11521028600E+04  0.13940164739E+04  0.25500000920E-02 0.  1.
       -2    1    3    3    0  502  0.69410297056E+03  0.36628130710E+03 -0.73504361153E+03  0.10752813774E+04  0.25500000920E-02 0. -1.
</event>
<event>
 5   0  0.1037321E-03  0.1601010E+04  0.7818609E-02  0.8819928E-01
        2   -1    0    0  501    0  0.00000000000E+00  0.00000000000E+00  0.12371478643E+04  0.12371478643E+04  0.25500000920E-02 0. -1.
       -2   -1    0    0    0  501  0.00000000000E+00  0.00000000000E+00 -0.51797228340E+03  0.51797228341E+03  0.25500000920E-02 0.  1.
    10030    2    1    2    0    0  0.00000000000E+00  0.00000000000E+00  0.71917558088E+03  0.17551201477E+04  0.16010100614E+04 0.  0.
        5    1    3    3  502    0  0.49501604613E+03 -0.47588821509E+03 -0.91447106143E+02  0.69274464444E+03  0.46999998093E+01 0.  1.
       -5    1    3    3    0  502 -0.49501604613E+03  0.47588821509E+03  0.81062268702E+03  0.10623755032E+04  0.46999998093E+01 0. -1.
</event>
<event>
 5   0  0.5623061E-04  0.1601306E+04  0.7818609E-02  0.8819746E-01
       -1   -1    0    0    0  501  0.00000000000E+00  0.00000000000E+00  0.11082997613E+04  0.11082997614E+04  0.50400001928E-02 0.  1.
        1   -1    0    0  501    0  0.00000000000E+00  0.00000000000E+00 -0.57840403638E+03  0.57840403640E+03  0.50400001928E-02 0. -1.
    10030    2    1    2    0    0  0.00000000000E+00  0.00000000000E+00  0.52989572496E+03  0.16867037978E+04  0.16013057865E+04 0.  0.
        3    1    3    3  502    0 -0.47242666433E+03 -0.10134956198E+02  0.94575730853E+03  0.10572353415E+04  0.10100000352E+00 0.  1.
       -3    1    3    3    0  502  0.47242666433E+03  0.10134956198E+02 -0.41586158357E+03  0.62946845624E+03  0.10100000352E+00 0. -1.
</event>
<event>
 5   0  0.5281116E-04  0.1617586E+04  0.7818609E-02  0.8809816E-01
        1   -1    0    0  501    0  0.00000000000E+00  0.00000000000E+00  0.20654917262E+04  0.20654917262E+04  0.50400001928E-02 0. -1.
       -1   -1    0    0    0  501  0.00000000000E+00  0.00000000000E+00 -0.31670248278E+03  0.31670248282E+03  0.50400001928E-02 0.  1.
    10030    2    1    2    0    0  0.00000000000E+00  0.00000000000E+00  0.17487892434E+04  0.23821942090E+04  0.16175862981E+04 0.  0.
        2    1    3    3  502    0  0.69071263290E+03 -0.29696896750E+03  0.13134222110E+04  0.15133910312E+04  0.25500000920E-02 0. -1.
       -2    1    3    3    0  502 -0.69071263290E+03  0.29696896750E+03  0.43536703238E+03  0.86880317782E+03  0.25500000920E-02 0.  1.
</event>
<event>
 5   0  0.9844690E-04  0.1582144E+04  0.7818609E-02  0.8831593E-01
        2   -1    0    0  501    0  0.00000000000E+00  0.00000000000E+00  0.10440594904E+04  0.10440594904E+04  0.25500000920E-02 0.  1.
       -2   -1    0    0    0  501  0.00000000000E+00  0.00000000000E+00 -0.59938604322E+03  0.59938604323E+03  0.25500000920E-02 0. -1.
    10030    2    1    2    0    0  0.00000000000E+00  0.00000000000E+00  0.44467344720E+03  0.16434455336E+04  0.15821437190E+04 0.  0.
        3    1    3    3  502    0 -0.24843772660E+03 -0.24223909978E+03 -0.51611863997E+03  0.62191602824E+03  0.10100000352E+00 0. -1.
       -3    1    3    3    0  502  0.24843772660E+03  0.24223909978E+03  0.96079208716E+03  0.10215295054E+04  0.10100000352E+00 0.  1.
</event>
<event>
 5   0  0.5281116E-04  0.1604623E+04  0.7818609E-02  0.8817713E-01
        1   -1    0    0  501    0  0.00000000000E+00  0.00000000000E+00  0.14041971733E+04  0.14041971733E+04  0.50400001928E-02 0. -1.
       -1   -1    0    0    0  501  0.00000000000E+00  0.00000000000E+00 -0.45841407070E+03  0.45841407073E+03  0.50400001928E-02 0.  1.
    10030    2    1    2    0    0  0.00000000000E+00  0.00000000000E+00  0.94578310260E+03  0.18626112440E+04  0.16046229991E+04 0.  0.
        2    1    3    3  502    0  0.27145715676E+03  0.25767852263E+03 -0.35086559888E+03  0.51302424647E+03  0.25500000920E-02 0.  1.
       -2    1    3    3    0  502 -0.27145715676E+03 -0.25767852263E+03  0.12966487015E+04  0.13495869976E+04  0.25500000920E-02 0. -1.
</event>
<event>
 5   0  0.1000121E-03  0.1744537E+04  0.7818609E-02  0.8736363E-01
       -2   -1    0    0    0  501  0.00000000000E+00  0.00000000000E+00  0.82510083264E+03  0.82510083265E+03  0.25500000920E-02 0. -1.
        2   -1    0    0  501    0  0.00000000000E+00  0.00000000000E+00 -0.92213300413E+03  0.92213300413E+03  0.25500000920E-02 0.  1.
    10030    2    1    2    0    0  0.00000000000E+00  0.00000000000E+00 -0.97032171488E+02  0.17472338368E+04  0.17445374281E+04 0.  0.
        4    1    3    3  502    0  0.73955654456E+03  0.46249090053E+03 -0.51583652258E+02  0.87378727489E+03  0.12699999809E+01 0. -1.
       -4    1    3    3    0  502 -0.73955654456E+03 -0.46249090053E+03 -0.45448519230E+02  0.87344656189E+03  0.12699999809E+01 0.  1.
</event>
<event>
 5   0  0.5532881E-04  0.1031409E+04  0.7818609E-02  0.9274751E-01
        1   -1    0    0  501    0  0.00000000000E+00  0.00000000000E+00  0.12559225005E+04  0.12559225006E+04  0.50400001928E-02 0. -1.
       -1   -1    0    0    0  501  0.00000000000E+00  0.00000000000E+00 -0.21175766162E+03  0.21175766168E+03  0.50400001928E-02 0.  1.
    10030    2    1    2    0    0  0.00000000000E+00  0.00000000000E+00  0.10441648389E+04  0.14676801622E+04  0.10314091563E+04 0.  0.
        4    1    3    3  502    0 -0.95320418521E+02 -0.45317094204E+03  0.84500829884E+03  0.96358213085E+03  0.12699999809E+01 0. -1.
       -4    1    3    3    0  502  0.95320418521E+02  0.45317094204E+03  0.19915654008E+03  0.50409803139E+03  0.12699999809E+01 0.  1.
</event>
<event>
 5   0  0.5288658E-04  0.1580464E+04  0.7818609E-02  0.8832640E-01
        1   -1    0    0  501    0  0.00000000000E+00  0.00000000000E+00  0.10400588962E+04  0.10400588963E+04  0.50400001928E-02 0.  1.
       -1   -1    0    0    0  501  0.00000000000E+00  0.00000000000E+00 -0.60041474006E+03  0.60041474008E+03  0.50400001928E-02 0. -1.
    10030    2    1    2    0    0  0.00000000000E+00  0.00000000000E+00  0.43964415619E+03  0.16404736363E+04  0.15804640988E+04 0.  0.
        1    1    3    3  502    0 -0.75855376123E+03 -0.13143621513E+03  0.40488190630E+03  0.86983253871E+03  0.50400001928E-02 0. -1.
       -1    1    3    3    0  502  0.75855376123E+03  0.13143621513E+03  0.34762249892E+02  0.77064109763E+03  0.50400001928E-02 0.  1.
</event>
<event>
 5   0  0.5425525E-04  0.1567993E+04  0.7818609E-02  0.8840456E-01
        1   -1    0    0  501    0  0.00000000000E+00  0.00000000000E+00  0.13860555792E+04  0.13860555792E+04  0.50400001928E-02 0. -1.
       -1   -1    0    0    0  501  0.00000000000E+00  0.00000000000E+00 -0.44345319852E+03  0.44345319855E+03  0.50400001928E-02 0.  1.
    10030    2    1    2    0    0  0.00000000000E+00  0.00000000000E+00  0.94260238069E+03  0.18295087778E+04  0.15679933418E+04 0.  0.
        5    1    3    3  502    0  0.74459108900E+03 -0.23915055083E+03  0.53541925324E+03  0.94778939777E+03  0.46999998093E+01 0.  1.
       -5    1    3    3    0  502 -0.74459108900E+03  0.23915055083E+03  0.40718312745E+03  0.88171938000E+03  0.46999998093E+01 0. -1.
</event>
<event>
 5   0  0.5623061E-04  0.1589871E+04  0.7818609E-02  0.8826795E-01
       -1   -1    0    0    0  501  0.00000000000E+00  0.00000000000E+00  0.36889678972E+03  0.36889678976E+03  0.50400001928E-02 0.  1.
        1   -1    0    0  501    0  0.00000000000E+00  0.00000000000E+00 -0.17130058474E+04  0.17130058474E+04  0.50400001928E-02 0. -1.
    10030    2    1    2    0    0  0.00000000000E+00  0.00000000000E+00 -0.13441090577E+04  0.20819026372E+04  0.15898708852E+04 0.  0.
        3    1    3    3  502    0 -0.58167756398E+03 -0.74774843648E+02 -0.13747731200E+04  0.14946374836E+04  0.10100000352E+00 0. -1.
       -3    1    3    3    0  502  0.58167756398E+03  0.74774843648E+02  0.30664062321E+02  0.58726515358E+03  0.10100000352E+00 0.  1.
</event>
<event>
 5   0  0.1057872E-03  0.1556421E+04  0.7818609E-02  0.8847777E-01
        2   -1    0    0  501    0  0.00000000000E+00  0.00000000000E+00  0.19533669561E+04  0.19533669561E+04  0.25500000920E-02 0. -1.
       -2   -1    0    0    0  501  0.00000000000E+00  0.00000000000E+00 -0.31003465704E+03  0.31003465705E+03  0.25500000920E-02 0.  1.
    10030    2    1    2    0    0  0.00000000000E+00  0.00000000000E+00  0.16433322991E+04  0.22634016131E+04  0.15564208355E+04 0.  0.
        2    1    3    3  502    0 -0.29155946102E+03  0.30274690660E+03 -0.13077321533E+03  0.44018659977E+03  0.25500000920E-02 0.  1.
       -2    1    3    3    0  502  0.29155946102E+03 -0.30274690660E+03  0.17741055144E+04  0.18232150134E+04  0.25500000920E-02 0. -1.
</event>
<event>
 5   0  0.5532881E-04  0.1589287E+04  0.7818609E-02  0.8827157E-01
       -1   -1    0    0    0  501  0.00000000000E+00  0.00000000000E+00  0.49404397295E+03  0.49404397297E+03  0.50400001928E-02 0.  1.
        1   -1    0    0  501    0  0.00000000000E+00  0.00000000000E+00 -0.12781415714E+04  0.12781415714E+04  0.50400001928E-02 0. -1.
    10030    2    1    2    0    0  0.00000000000E+00  0.00000000000E+00 -0.78409759848E+03  0.17721855444E+04  0.15892868086E+04 0.  0.
        4    1    3    3  502    0 -0.14323620509E+03  0.70577221648E+03 -0.76659943188E+03  0.10518114536E+04  0.12699999809E+01 0. -1.
       -4    1    3    3    0  502  0.14323620509E+03 -0.70577221648E+03 -0.17498166601E+02  0.72037409083E+03  0.12699999809E+01 0.  1.
</event>
<event>
 5   0  0.9844690E-04  0.1569310E+04  0.7818609E-02  0.8839627E-01
        2   -1    0    0  501    0  0.00000000000E+00  0.00000000000E+00  0.18726467178E+04  0.18726467178E+04  0.25500000920E-02 0. -1.
       -2   -1    0    0    0  501  0.00000000000E+00  0.00000000000E+00 -0.32877734052E+03  0.32877734053E+03  0.25500000920E-02 0.  1.
    10030    2    1    2    0    0  0.00000000000E+00  0.00000000000E+00  0.15438693773E+04  0.22014240583E+04  0.15693104315E+04 0.  0.
        3    1    3    3  502    0  0.63013658096E+03 -0.13651425665E+03  0.13992462487E+04  0.15406486710E+04  0.10100000352E+00 0. -1.
       -3    1    3    3    0  502 -0.63013658096E+03  0.13651425665E+03  0.14462312861E+03  0.66077538730E+03  0.10100000352E+00 0.  1.
</event>
<event>
 5   0  0.3832500E-04  0.1352142E+04  0.7818609E-02  0.8989208E-01
       -3   -1    0    0    0  501  0.00000000000E+00  0.00000000000E+00  0.76933979899E+03  0.76933980562E+03  0.10100000352E+00 0.  1.
        3   -1    0    0  501    0  0.00000000000E+00  0.00000000000E+00 -0.59410935616E+03  0.59410936474E+03  0.10100000352E+00 0. -1.
    10030    2    1    2    0    0  0.00000000000E+00  0.00000000000E+00  0.17523044284E+03  0.13634491704E+04  0.13521419793E+04 0.  0.
        3    1    3    3  502    0  0.41692897548E+02  0.12053856413E+03  0.75709811257E+03  0.76776650448E+03  0.10100000352E+00 0.  1.
       -3    1    3    3    0  502 -0.41692897548E+02 -0.12053856413E+03 -0.58186766973E+03  0.59568266588E+03  0.10100000352E+00 0. -1.
</event>
<event>
 5   0  0.1000121E-03  0.1584126E+04  0.7818609E-02  0.8830360E-01
       -2   -1    0    0    0  501  0.00000000000E+00  0.00000000000E+00  0.28811507170E+03  0.28811507171E+03  0.25500000920E-02 0. -1.
        2   -1    0    0  501    0  0.00000000000E+00  0.00000000000E+00 -0.21774756097E+04  0.21774756097E+04  0.25500000920E-02 0.  1.
    10030    2    1    2    0    0  0.00000000000E+00  0.00000000000E+00 -0.18893605380E+04  0.24655906814E+04  0.15841256786E+04 0.  0.
        4    1    3    3  502    0 -0.32535036035E+03  0.40430718872E+03 -0.18760025913E+04  0.19464594769E+04  0.12699999809E+01 0.  1.
       -4    1    3    3    0  502  0.32535036035E+03 -0.40430718872E+03 -0.13357946689E+02  0.51913120448E+03  0.12699999809E+01 0. -1.
</event>
<event>
 5   0  0.5288658E-04  0.1602269E+04  0.7818609E-02  0.8819155E-01
       -1   -1    0    0    0  501  0.00000000000E+00  0.00000000000E+00  0.38503792003E+03  0.38503792006E+03  0.50400001928E-02 0.  1.
        1   -1    0    0  501    0  0.00000000000E+00  0.00000000000E+00 -0.16668926500E+04  0.16668926500E+04  0.50400001928E-02 0. -1.
    10030    2    1    2    0    0  0.00000000000E+00  0.00000000000E+00 -0.12818547299E+04  0.20519305700E+04  0.16022694891E+04 0.  0.
        1    1    3    3  502    0  0.44791436752E+03  0.53927065593E+03 -0.14431508135E+03  0.71572827506E+03  0.50400001928E-02 0.  1.
       -1    1    3    3    0  502 -0.44791436752E+03 -0.53927065593E+03 -0.11375396486E+04  0.13362022950E+04  0.50400001928E-02 0. -1.
</event>
<event>
 5   0  0.1037321E-03  0.1458682E+04  0.7818609E-02  0.8912403E-01
        2   -1    0    0  501    0  0.00000000000E+00  0.00000000000E+00  0.47548037426E+03  0.47548037427E+03  0.25500000920E-02 0.  1.
       -2   -1    0    0    0  501  0.00000000000E+00  0.00000000000E+00 -0.11187389512E+04  0.11187389512E+04  0.25500000920E-02 0. -1.
    10030    2    1    2    0    0  0.00000000000E+00  0.00000000000E+00 -0.64325857691E+03  0.15942193254E+04  0.14586821658E+04 0.  0.
        5    1    3    3  502    0  0.30729568505E+03  0.47011985302E+03 -0.83012731895E+03  0.10022857726E+04  0.46999998093E+01 0. -1.
       -5    1    3    3    0  502 -0.30729568505E+03 -0.47011985302E+03  0.18686874204E+03  0.59193355286E+03  0.46999998093E+01 0.  1.
</event>
<event>
 5   0  0.3832500E-04  0.1566548E+04  0.7818609E-02  0.8841367E-01
       -3   -1    0    0    0  501  0.00000000000E+00  0.00000000000E+00  0.51186756659E+03  0.51186757655E+03  0.10100000352E+00 0.  1.
        3   -1    0    0  501    0  0.00000000000E+00  0.00000000000E+00 -0.11985876185E+04  0.11985876227E+04  0.10100000352E+00 0. -1.
    10030    2    1    2    0    0  0.00000000000E+00  0.00000000000E+00 -0.68672005188E+03  0.17104551993E+04  0.15665479753E+04 0.  0.
        1    1    3    3  502    0  0.33899223930E+03  0.45909209656E+03 -0.92914900842E+03  0.10904123859E+04  0.50400001928E-02 0. -1.
       -1    1    3    3    0  502 -0.33899223930E+03 -0.45909209656E+03  0.24242895655E+03  0.62004281338E+03  0.50400001928E-02 0.  1.
</event>
<event>
 5   0  0.1030027E-03  0.1575594E+04  0.7818609E-02  0.8835684E-01
        2   -1    0    0  501    0  0.00000000000E+00  0.00000000000E+00  0.14625080793E+04  0.14625080793E+04  0.25500000920E-02 0. -1.
       -2   -1    0    0    0  501  0.00000000000E+00  0.00000000000E+00 -0.42435578371E+03  0.42435578372E+03  0.25500000920E-02 0.  1.
    10030    2    1    2    0    0  0.00000000000E+00  0.00000000000E+00  0.10381522956E+04  0.18868638630E+04  0.15755935544E+04 0.  0.
        1    1    3    3  502    0  0.19627122123E+03 -0.29238511690E+03 -0.32485130234E+03  0.47910313872E+03  0.50400001928E-02 0.  1.
       -1    1    3    3    0  502 -0.19627122123E+03  0.29238511690E+03  0.13630035979E+04  0.14077607243E+04  0.50400001928E-02 0. -1.
</event>
<event>
 5   0  0.9844690E-04  0.1592670E+04  0.7818609E-02  0.8825064E-01
        2   -1    0    0  501    0  0.00000000000E+00  0.00000000000E+00  0.12114832006E+04  0.12114832006E+04  0.25500000920E-02 0. -1.
       -2   -1    0    0    0  501  0.00000000000E+00  0.00000000000E+00 -0.52344880215E+03  0.52344880215E+03  0.25500000920E-02 0.  1.
    10030    2    1    2    0    0  0.00000000000E+00  0.00000000000E+00  0.68803439843E+03  0.17349320027E+04  0.15926699974E+04 0.  0.
        3    1    3    3  502    0  0.61010547231E+03  0.91648770271E+02 -0.20446663333E+03  0.64994984328E+03  0.10100000352E+00 0.  1.
       -3    1    3    3    0  502 -0.61010547231E+03 -0.91648770271E+02  0.89250103175E+03  0.10849821594E+04  0.10100000352E+00 0. -1.
</event>
<event>
 5   0  0.5288658E-04  0.1605982E+04  0.7818609E-02  0.8816881E-01
        1   -1    0    0  501    0  0.00000000000E+00  0.00000000000E+00  0.12239630917E+04  0.12239630917E+04  0.50400001928E-02 0. -1.
       -1   -1    0    0    0  501  0.00000000000E+00  0.00000000000E+00 -0.52680896714E+03  0.52680896716E+03  0.50400001928E-02 0.  1.
    10030    2    1    2    0    0  0.00000000000E+00  0.00000000000E+00  0.69715412454E+03  0.17507720588E+04  0.16059822317E+04 0.  0.
        1    1    3    3  502    0 -0.23550821300E+03  0.29808578833E+03 -0.42264646844E+03  0.56828627725E+03  0.50400001928E-02 0.  1.
       -1    1    3    3    0  502  0.23550821300E+03 -0.29808578833E+03  0.11198005930E+04  0.11824857816E+04  0.50400001928E-02 0. -1.
</event>
<event>
 5   0  0.3832500E-04  0.1537766E+04  0.7818609E-02  0.8859720E-01
        4   -1    0    0  501    0  0.00000000000E+00  0.00000000000E+00  0.41818090869E+03  0.41818283716E+03  0.12699999809E+01 0. -1.
       -4   -1    0    0    0  501  0.00000000000E+00  0.00000000000E+00 -0.14136913294E+04  0.14136918999E+04  0.12699999809E+01 0.  1.
    10030    2    1    2    0    0  0.00000000000E+00  0.00000000000E+00 -0.99551042071E+03  0.18318747370E+04  0.15377659296E+04 0.  0.
        5    1    3    3  502    0  0.56803506638E+03  0.31945506122E+03 -0.11752126539E+02  0.65182480412E+03  0.46999998093E+01 0. -1.
       -5    1    3    3    0  502 -0.56803506638E+03 -0.31945506122E+03 -0.98375829417E+03  0.11800499329E+04  0.46999998093E+01 0.  1.
</event>
<event>
 5   0  0.1030027E-03  0.1302529E+04  0.7818609E-02  0.9027562E-01
       -2   -1    0    0    0  501  0.00000000000E+00  0.00000000000E+00  0.31359432537E+03  0.31359432538E+03  0.25500000920E-02 0. -1.
        2   -1    0    0  501    0  0.00000000000E+00  0.00000000000E+00 -0.13525287741E+04  0.13525287741E+04  0.25500000920E-02 0.  1.
    10030    2    1    2    0    0  0.00000000000E+00  0.00000000000E+00 -0.10389344487E+04  0.16661230994E+04  0.13025288457E+04 0.  0.
        1    1    3    3  502    0  0.53756807592E+03  0.18801083476E+02 -0.49805999440E+02  0.54019769954E+03  0.50400001928E-02 0. -1.
       -1    1    3    3    0  502 -0.53756807592E+03 -0.18801083476E+02 -0.98912844925E+03  0.11259253999E+04  0.50400001928E-02 0.  1.
</event>
<event>
 5   0  0.9844690E-04  0.1589730E+04  0.7818609E-02  0.8826882E-01
        2   -1    0    0  501    0  0.00000000000E+00  0.00000000000E+00  0.25668143488E+04  0.25668143488E+04  0.25500000920E-02 0.  1.
       -2   -1    0    0    0  501  0.00000000000E+00  0.00000000000E+00 -0.24614561414E+03  0.24614561415E+03  0.25500000920E-02 0. -1.
    10030    2    1    2    0    0  0.00000000000E+00  0.00000000000E+00  0.23206687347E+04  0.28129599630E+04  0.15897296554E+04 0.  0.
        3    1    3    3  502    0 -0.78328796071E+03  0.11064732785E+03  0.12977065896E+04  0.15198109302E+04  0.10100000352E+00 0. -1.
       -3    1    3    3    0  502  0.78328796071E+03 -0.11064732785E+03  0.10229621451E+04  0.12931490328E+04  0.10100000352E+00 0.  1.
</event>
<event>
 5   0  0.5425525E-04  0.1675077E+04  0.7818609E-02  0.8775708E-01
        1   -1    0    0  501    0  0.00000000000E+00  0.00000000000E+00  0.13297143790E+04  0.13297143790E+04  0.50400001928E-02 0. -1.
       -1   -1    0    0    0  501  0.00000000000E+00  0.00000000000E+00 -0.52753461045E+03  0.52753461047E+03  0.50400001928E-02 0.  1.
    10030    2    1    2    0    0  0.00000000000E+00  0.00000000000E+00  0.80217976850E+03  0.18572489894E+04  0.16750765439E+04 0.  0.
        5    1    3    3  502    0 -0.18274290440E+03 -0.79388921534E+03  0.18554269053E+03  0.83552572393E+03  0.46999998093E+01 0.  1.
       -5    1    3    3    0  502  0.18274290440E+03  0.79388921534E+03  0.61663707797E+03  0.10217232655E+04  0.46999998093E+01 0. -1.
</event>
<event>
 5   0  0.9844690E-04  0.1599260E+04  0.7818609E-02  0.8821002E-01
       -2   -1    0    0    0  501  0.00000000000E+00  0.00000000000E+00  0.32969557977E+03  0.32969557978E+03  0.25500000920E-02 0.  1.
        2   -1    0    0  501    0  0.00000000000E+00  0.00000000000E+00 -0.19393905857E+04  0.19393905857E+04  0.25500000920E-02 0. -1.
    10030    2    1    2    0    0  0.00000000000E+00  0.00000000000E+00 -0.16096950059E+04  0.22690861655E+04  0.15992604586E+04 0.  0.
        3    1    3    3  502    0  0.36916468275E+03 -0.51196661202E+03 -0.15014015703E+04  0.16286801590E+04  0.10100000352E+00 0. -1.
       -3    1    3    3    0  502 -0.36916468275E+03  0.51196661202E+03 -0.10829343569E+03  0.64040600655E+03  0.10100000352E+00 0.  1.
</event>
<event>
 5   0  0.5281116E-04  0.1580413E+04  0.7818609E-02  0.8832672E-01
       -1   -1    0    0    0  501  0.00000000000E+00  0.00000000000E+00  0.73789167750E+03  0.73789167752E+03  0.50400001928E-02 0.  1.
        1   -1    0    0  501    0  0.00000000000E+00  0.00000000000E+00 -0.84622995865E+03  0.84622995867E+03  0.50400001928E-02 0. -1.
    10030    2    1    2    0    0  0.00000000000E+00  0.00000000000E+00 -0.10833828115E+03  0.15841216362E+04  0.15804126597E+04 0.  0.
        2    1    3    3  502    0  0.73489846591E+03 -0.17020961968E+03  0.18171051131E+03  0.77592897856E+03  0.25500000920E-02 0.  1.
       -2    1    3    3    0  502 -0.73489846591E+03  0.17020961968E+03 -0.29004879246E+03  0.80819265763E+03  0.25500000920E-02 0. -1.
</event>
<event>
 5   0  0.5532881E-04  0.1614556E+04  0.7818609E-02  0.8811655E-01
        1   -1    0    0  501    0  0.00000000000E+00  0.00000000000E+00  0.14701444559E+04  0.14701444559E+04  0.50400001928E-02 0.  1.
       -1   -1    0    0    0  501  0.00000000000E+00  0.00000000000E+00 -0.44328847636E+03  0.44328847639E+03  0.50400001928E-02 0. -1.
    10030    2    1    2    0    0  0.00000000000E+00  0.00000000000E+00  0.10268559796E+04  0.19134329323E+04  0.16145564046E+04 0.  0.
        4    1    3    3  502    0  0.69710648910E+03 -0.36886961718E+03  0.30927781210E+03  0.84715797203E+03  0.12699999809E+01 0.  1.
       -4    1    3    3    0  502 -0.69710648910E+03  0.36886961718E+03  0.71757816746E+03  0.10662749603E+04  0.12699999809E+01 0. -1.
</event>
<event>
 5   0  0.9844690E-04  0.1598824E+04  0.7818609E-02  0.8821271E-01
       -2   -1    0    0    0  501  0.00000000000E+00  0.00000000000E+00  0.58263092310E+03  0.58263092310E+03  0.25500000920E-02 0.  1.
        2   -1    0    0  501    0  0.00000000000E+00  0.00000000000E+00 -0.10968514551E+04  0.10968514551E+04  0.25500000920E-02 0. -1.
    10030    2    1    2    0    0  0.00000000000E+00  0.00000000000E+00 -0.51422053201E+03  0.16794823782E+04  0.15988240376E+04 0.  0.
        3    1    3    3  502    0  0.33876385464E+03 -0.15300571863E+03  0.48632821720E+03  0.61211669164E+03  0.10100000352E+00 0.  1.
       -3    1    3    3    0  502 -0.33876385464E+03  0.15300571863E+03 -0.10005487492E+04  0.10673656866E+04  0.10100000352E+00 0. -1.
</event>
<event>
 5   0  0.5623061E-04  0.1580630E+04  0.7818609E-02  0.8832537E-01
        1   -1    0    0  501    0  0.00000000000E+00  0.00000000000E+00  0.70113609806E+03  0.70113609807E+03  0.50400001928E-02 0. -1.
       -1   -1    0    0    0  501  0.00000000000E+00  0.00000000000E+00 -0.89083695174E+03  0.89083695175E+03  0.50400001928E-02 0.  1.
    10030    2    1    2    0    0  0.00000000000E+00  0.00000000000E+00 -0.18970085368E+03  0.15919730498E+04  0.15806301837E+04 0.  0.
        3    1    3    3  502    0 -0.29813270611E+03 -0.36576715289E+03  0.54367798615E+03  0.71989893972E+03  0.10100000352E+00 0. -1.
       -3    1    3    3    0  502  0.29813270611E+03  0.36576715289E+03 -0.73337883984E+03  0.87207411010E+03  0.10100000352E+00 0.  1.
</event>
<event>
 5   0  0.5288658E-04  0.1600995E+04  0.7818609E-02  0.8819937E-01
       -1   -1    0    0    0  501  0.00000000000E+00  0.00000000000E+00  0.99894137327E+03  0.99894137328E+03  0.50400001928E-02 0. -1.
        1   -1    0    0  501    0  0.00000000000E+00  0.00000000000E+00 -0.64147515671E+03  0.64147515673E+03  0.50400001928E-02 0.  1.
    10030    2    1    2    0    0  0.00000000000E+00  0.00000000000E+00  0.35746621656E+03  0.16404165300E+04  0.16009947832E+04 0.  0.
        1    1    3    3  502    0 -0.61523554816E+03 -0.31535043652E+03 -0.23473177347E+03  0.73010936375E+03  0.50400001928E-02 0. -1.
       -1    1    3    3    0  502  0.61523554816E+03  0.31535043652E+03  0.59219799004E+03  0.91030716627E+03  0.50400001928E-02 0.  1.
</event>
<event>
 5   0  0.5532881E-04  0.1636273E+04  0.7818609E-02  0.8798569E-01
       -1   -1    0    0    0  501  0.00000000000E+00  0.00000000000E+00  0.80864605664E+03  0.80864605665E+03  0.50400001928E-02 0. -1.
        1   -1    0    0  501    0  0.00000000000E+00  0.00000000000E+00 -0.82773879528E+03  0.82773879530E+03  0.50400001928E-02 0.  1.
    10030    2    1    2    0    0  0.00000000000E+00  0.00000000000E+00 -0.19092738649E+02  0.16363848520E+04  0.16362734646E+04 0.  0.
        4    1    3    3  502    0 -0.22369718677E+03  0.77383249875E+03 -0.15269566892E+03  0.81986263953E+03  0.12699999809E+01 0.  1.
       -4    1    3    3    0  502  0.22369718677E+03 -0.77383249875E+03  0.13360293027E+03  0.81652221242E+03  0.12699999809E+01 0. -1.
</event>
<event>
 5   0  0.1057872E-03  0.1494642E+04  0.7818609E-02  0.8888024E-01
       -2   -1    0    0    0  501  0.00000000000E+00  0.00000000000E+00  0.55068695305E+03  0.55068695305E+03  0.25500000920E-02 0.  1.
        2   -1    0    0  501    0  0.00000000000E+00  0.00000000000E+00 -0.10141671853E+04  0.10141671853E+04  0.25500000920E-02 0. -1.
    10030    2    1    2    0    0  0.00000000000E+00  0.00000000000E+00 -0.46348023225E+03  0.15648541384E+04  0.14946419466E+04 0.  0.
        2    1    3    3  502    0 -0.36243265839E+03  0.58463767320E+02  0.44977060102E+03  0.58057646999E+03  0.25500000920E-02 0.  1.
       -2    1    3    3    0  502  0.36243265839E+03 -0.58463767320E+02 -0.91325083327E+03  0.98427766836E+03  0.25500000920E-02 0. -1.
</event>
<event>
 5   0  0.1057872E-03  0.1614966E+04  0.7818609E-02  0.8811406E-01
        2   -1    0    0  501    0  0.00000000000E+00  0.00000000000E+00  0.10269655165E+04  0.10269655165E+04  0.25500000920E-02 0.  1.
       -2   -1    0    0    0  501  0.00000000000E+00  0.00000000000E+00 -0.63490813625E+03  0.63490813625E+03  0.25500000920E-02 0. -1.
    10030    2    1    2    0    0  0.00000000000E+00  0.00000000000E+00  0.39205738024E+03  0.16618736527E+04  0.16149659589E+04 0.  0.
        2    1    3    3  502    0  0.46697353988E+03 -0.51323430195E+03 -0.22894974366E+03  0.73067894507E+03  0.25500000920E-02 0. -1.
       -2    1    3    3    0  502 -0.46697353988E+03  0.51323430195E+03  0.62100712390E+03  0.93119470767E+03  0.25500000920E-02 0.  1.
</event>
<event>
 5   0  0.1057872E-03  0.1587152E+04  0.7818609E-02  0.8828480E-01
       -2   -1    0    0    0  501  0.00000000000E+00  0.00000000000E+00  0.48626399997E+03  0.48626399998E+03  0.25500000920E-02 0. -1.
        2   -1    0    0  501    0  0.00000000000E+00  0.00000000000E+00 -0.12951047378E+04  0.12951047378E+04  0.25500000920E-02 0.  1.
    10030    2    1    2    0    0  0.00000000000E+00  0.00000000000E+00 -0.80884073787E+03  0.17813687378E+04  0.15871519275E+04 0.  0.
        2    1    3    3  502    0  0.75199479216E+02 -0.49114769886E+03 -0.10989130597E+04  0.12060227761E+04  0.25500000920E-02 0.  1.
       -2    1    3    3    0  502 -0.75199479216E+02  0.49114769886E+03  0.29007232180E+03  0.57534596171E+03  0.25500000920E-02 0. -1.
</event>
<event>
 5   0  0.5281116E-04  0.1566264E+04  0.7818609E-02  0.8841546E-01
       -1   -1    0    0    0  501  0.00000000000E+00  0.00000000000E+00  0.28026207322E+03  0.28026207326E+03  0.50400001928E-02 0.  1.
        1   -1    0    0  501    0  0.00000000000E+00  0.00000000000E+00 -0.21882939494E+04  0.21882939494E+04  0.50400001928E-02 0. -1.
    10030    2    1    2    0    0  0.00000000000E+00  0.00000000000E+00 -0.19080318762E+04  0.24685560227E+04  0.15662640890E+04 0.  0.
        2    1    3    3  502    0  0.56631887271E+03  0.11168418516E+03 -0.11987637633E+03  0.58954284697E+03  0.25500000920E-02 0.  1.
       -2    1    3    3    0  502 -0.56631887271E+03 -0.11168418516E+03 -0.17881554999E+04  0.18790131757E+04  0.25500000920E-02 0. -1.
</event>
<event>
 5   0  0.5532881E-04  0.1577042E+04  0.7818609E-02  0.8834777E-01
       -1   -1    0    0    0  501  0.00000000000E+00  0.00000000000E+00  0.67798891084E+03  0.67798891086E+03  0.50400001928E-02 0.  1.
        1   -1    0    0  501    0  0.00000000000E+00  0.00000000000E+00 -0.91707343031E+03  0.91707343032E+03  0.50400001928E-02 0. -1.
    10030    2    1    2    0    0  0.00000000000E+00  0.00000000000E+00 -0.23908451947E+03  0.15950623412E+04  0.15770423155E+04 0.  0.
        4    1    3    3  502    0  0.74211411423E+02  0.64222828865E+03  0.33705769785E+03  0.72909122399E+03  0.12699999809E+01 0.  1.
       -4    1    3    3    0  502 -0.74211411423E+02 -0.64222828865E+03 -0.57614221732E+03  0.86597111719E+03  0.12699999809E+01 0. -1.
</event>
<event>
 5   0  0.5623061E-04  0.1655826E+04  0.7818609E-02  0.8786967E-01
       -1   -1    0    0    0  501  0.00000000000E+00  0.00000000000E+00  0.36256345536E+03  0.36256345540E+03  0.50400001928E-02 0.  1.
        1   -1    0    0  501    0  0.00000000000E+00  0.00000000000E+00 -0.18905379003E+04  0.18905379003E+04  0.50400001928E-02 0. -1.
    10030    2    1    2    0    0  0.00000000000E+00  0.00000000000E+00 -0.15279744449E+04  0.22531013557E+04  0.16558260219E+04 0.  0.
        3    1    3    3  502    0 -0.38005889910E+03 -0.28326916462E+03 -0.16876224064E+04  0.17529277176E+04  0.10100000352E+00 0. -1.
       -3    1    3    3    0  502  0.38005889910E+03  0.28326916462E+03  0.15964796148E+03  0.50017363806E+03  0.10100000352E+00 0.  1.
</event>
<event>
 5   0  0.1037321E-03  0.1589604E+04  0.7818609E-02  0.8826961E-01
       -2   -1    0    0    0  501  0.00000000000E+00  0.00000000000E+00  0.11510584826E+04  0.11510584826E+04  0.25500000920E-02 0.  1.
        2   -1    0    0  501    0  0.00000000000E+00  0.00000000000E+00 -0.54880778269E+03  0.54880778269E+03  0.25500000920E-02 0. -1.
    10030    2    1    2    0    0  0.00000000000E+00  0.00000000000E+00  0.60225069995E+03  0.16998662653E+04  0.15896035400E+04 0.  0.
        5    1    3    3  502    0  0.55070665221E+03 -0.36924518935E+03  0.76978047397E+03  0.10159743573E+04  0.46999998093E+01 0.  1.
       -5    1    3    3    0  502 -0.55070665221E+03  0.36924518935E+03 -0.16752977402E+03  0.68389190800E+03  0.46999998093E+01 0. -1.
</event>
<event>
 5   0  0.5532881E-04  0.1741059E+04  0.7818609E-02  0.8738287E-01
       -1   -1    0    0    0  501  0.00000000000E+00  0.00000000000E+00  0.81949161215E+03  0.81949161217E+03  0.50400001928E-02 0. -1.
        1   -1    0    0  501    0  0.00000000000E+00  0.00000000000E+00 -0.92474649881E+03  0.92474649883E+03  0.50400001928E-02 0.  1.
    10030    2    1    2    0    0  0.00000000000E+00  0.00000000000E+00 -0.10525488666E+03  0.17442381110E+04  0.17410594466E+04 0.  0.
        4    1    3    3  502    0 -0.22017364502E+03  0.79985222303E+03  0.21163506307E+03  0.85617231062E+03  0.12699999809E+01 0. -1.
       -4    1    3    3    0  502  0.22017364502E+03 -0.79985222303E+03 -0.31688994973E+03  0.88806580037E+03  0.12699999809E+01 0.  1.
</event>
<event>
 5   0  0.1037321E-03  0.1610601E+04  0.7818609E-02  0.8814061E-01
       -2   -1    0    0    0  501  0.00000000000E+00  0.00000000000E+00  0.90493680818E+03  0.90493680818E+03  0.25500000920E-02 0.  1.
        2   -1    0    0  501    0  0.00000000000E+00  0.00000000000E+00 -0.71663489820E+03  0.71663489820E+03  0.25500000920E-02 0. -1.
    10030    2    1    2    0    0  0.00000000000E+00  0.00000000000E+00  0.18830190999E+03  0.16215717064E+04  0.16106014993E+04 0.  0.
        5    1    3    3  502    0  0.71051760466E+03  0.12116990617E+03  0.45572068363E+03  0.85277244572E+03  0.46999998093E+01 0. -1.
       -5    1    3    3    0  502 -0.71051760466E+03 -0.12116990617E+03 -0.26741877365E+03  0.76879926066E+03  0.46999998093E+01 0.  1.
</event>
<event>
 5   0  0.5532881E-04  0.1625100E+04  0.7818609E-02  0.8805275E-01
        1   -1    0    0  501    0  0.00000000000E+00  0.00000000000E+00  0.11611031467E+04  0.11611031468E+04  0.50400001928E-02 0. -1.
       -1   -1    0    0    0  501  0.00000000000E+00  0.00000000000E+00 -0.56862917333E+03  0.56862917336E+03  0.50400001928E-02 0.  1.
    10030    2    1    2    0    0  0.00000000000E+00  0.00000000000E+00  0.59247397341E+03  0.17297323201E+04  0.16250995324E+04 0.  0.
        4    1    3    3  502    0 -0.40638651144E+03 -0.45842407465E+03 -0.27192244351E+03  0.67025820180E+03  0.12699999809E+01 0.  1.
       -4    1    3    3    0  502  0.40638651144E+03  0.45842407465E+03  0.86439641692E+03  0.10594741183E+04  0.12699999809E+01 0. -1.
</event>
<event>
 5   0  0.5425525E-04  0.1602199E+04  0.7818609E-02  0.8819198E-01
        1   -1    0    0  501    0  0.00000000000E+00  0.00000000000E+00  0.59918497889E+03  0.59918497891E+03  0.50400001928E-02 0.  1.
       -1   -1    0    0    0  501  0.00000000000E+00  0.00000000000E+00 -0.10710561633E+04  0.10710561633E+04  0.50400001928E-02 0. -1.
    10030    2    1    2    0    0  0.00000000000E+00  0.00000000000E+00 -0.47187118440E+03  0.16702411422E+04  0.16021994440E+04 0.  0.
        5    1    3    3  502    0  0.12730027626E+03  0.61913822717E+03  0.27710380763E+03  0.69017832107E+03  0.46999998093E+01 0.  1.
       -5    1    3    3    0  502 -0.12730027626E+03 -0.61913822717E+03 -0.74897499203E+03  0.98006282113E+03  0.46999998093E+01 0. -1.
</event>
<event>
 5   0  0.5623061E-04  0.1573204E+04  0.7818609E-02  0.8837181E-01
       -1   -1    0    0    0  501  0.00000000000E+00  0.00000000000E+00  0.24576749003E+03  0.24576749008E+03  0.50400001928E-02 0.  1.
        1   -1    0    0  501    0  0.00000000000E+00  0.00000000000E+00 -0.25175938277E+04  0.25175938277E+04  0.50400001928E-02 0. -1.
    10030    2    1    2    0    0  0.00000000000E+00  0.00000000000E+00 -0.22718263376E+04  0.27633613178E+04  0.15732040122E+04 0.  0.
        3    1    3    3  502    0  0.22782617932E+02 -0.11482033282E+03  0.23038238194E+03  0.25841596046E+03  0.10100000352E+00 0.  1.
       -3    1    3    3    0  502 -0.22782617932E+02  0.11482033282E+03 -0.25022087196E+04  0.25049453573E+04  0.10100000352E+00 0. -1.
</event>
<event>
 5   0  0.5288658E-04  0.1539986E+04  0.7818609E-02  0.8858290E-01
        1   -1    0    0  501    0  0.00000000000E+00  0.00000000000E+00  0.42590006342E+03  0.42590006345E+03  0.50400001928E-02 0.  1.
       -1   -1    0    0    0  501  0.00000000000E+00  0.00000000000E+00 -0.13920852678E+04  0.13920852678E+04  0.50400001928E-02 0. -1.
    10030    2    1    2    0    0  0.00000000000E+00  0.00000000000E+00 -0.96618520440E+03  0.18179853313E+04  0.15399859790E+04 0.  0.
        1    1    3    3  502    0  0.29276677655E+03 -0.63744160575E+03 -0.85797999113E+03  0.11082300535E+04  0.50400001928E-02 0. -1.
       -1    1    3    3    0  502 -0.29276677655E+03  0.63744160575E+03 -0.10820521328E+03  0.70975527782E+03  0.50400001928E-02 0.  1.
</event>
<event>
 5   0  0.1000121E-03  0.1600908E+04  0.7818609E-02  0.8819991E-01
        2   -1    0    0  501    0  0.00000000000E+00  0.00000000000E+00  0.11172783739E+04  0.11172783739E+04  0.25500000920E-02 0.  1.
       -2   -1    0    0    0  501  0.00000000000E+00  0.00000000000E+00 -0.57347073420E+03  0.57347073421E+03  0.25500000920E-02 0. -1.
    10030    2    1    2    0    0  0.00000000000E+00  0.00000000000E+00  0.54380763972E+03  0.16907491081E+04  0.16009078042E+04 0.  0.
        4    1    3    3  502    0  0.28437176750E+03  0.31813495312E+03  0.98714489707E+03  0.10754226198E+04  0.12699999809E+01 0.  1.
       -4    1    3    3    0  502 -0.28437176750E+03 -0.31813495312E+03 -0.44333725735E+03  0.61532648830E+03  0.12699999809E+01 0. -1.
</event>
<event>
 5   0  0.1057872E-03  0.1586326E+04  0.7818609E-02  0.8828993E-01
       -2   -1    0    0    0  501  0.00000000000E+00  0.00000000000E+00  0.28657442487E+03  0.28657442488E+03  0.25500000920E-02 0. -1.
        2   -1    0    0  501    0  0.00000000000E+00  0.00000000000E+00 -0.21952673423E+04  0.21952673423E+04  0.25500000920E-02 0.  1.
    10030    2    1    2    0    0  0.00000000000E+00  0.00000000000E+00 -0.19086929174E+04  0.24818417672E+04  0.15863259136E+04 0.  0.
        2    1    3    3  502    0  0.25719320254E+03 -0.63624384164E+03 -0.33216042345E+03  0.76242056397E+03  0.25500000920E-02 0. -1.
       -2    1    3    3    0  502 -0.25719320254E+03  0.63624384164E+03 -0.15765324940E+04  0.17194212032E+04  0.25500000920E-02 0.  1.
</event>
<event>
 5   0  0.5623061E-04  0.1595492E+04  0.7818609E-02  0.8823322E-01
       -1   -1    0    0    0  501  0.00000000000E+00  0.00000000000E+00  0.48563674081E+03  0.48563674083E+03  0.50400001928E-02 0.  1.
        1   -1    0    0  501    0  0.00000000000E+00  0.00000000000E+00 -0.13104417502E+04  0.13104417502E+04  0.50400001928E-02 0. -1.
    10030    2    1    2    0    0  0.00000000000E+00  0.00000000000E+00 -0.82480500939E+03  0.17960784910E+04  0.15954919751E+04 0.  0.
        3    1    3    3  502    0  0.21516438814E+03 -0.10344640183E+03 -0.12692836757E+04  0.12915409136E+04  0.10100000352E+00 0. -1.
       -3    1    3    3    0  502 -0.21516438814E+03  0.10344640183E+03  0.44447866633E+03  0.50453757739E+03  0.10100000352E+00 0.  1.
</event>
<event>
 5   0  0.9844690E-04  0.1581994E+04  0.7818609E-02  0.8831687E-01
       -2   -1    0    0    0  501  0.00000000000E+00  0.00000000000E+00  0.72787964686E+03  0.72787964686E+03  0.25500000920E-02 0.  1.
        2   -1    0    0  501    0  0.00000000000E+00  0.00000000000E+00 -0.85958753168E+03  0.85958753168E+03  0.25500000920E-02 0. -1.
    10030    2    1    2    0    0  0.00000000000E+00  0.00000000000E+00 -0.13170788482E+03  0.15874671785E+04  0.15819940190E+04 0.  0.
        3    1    3    3  502    0 -0.55495042561E+03 -0.21911898663E+03 -0.58697050734E+03  0.83696922995E+03  0.10100000352E+00 0. -1.
       -3    1    3    3    0  502  0.55495042561E+03  0.21911898663E+03  0.45526262252E+03  0.75049794860E+03  0.10100000352E+00 0.  1.
</event>
<event>
 5   0  0.5288658E-04  0.1610792E+04  0.7818609E-02  0.8813946E-01
        1   -1    0    0  501    0  0.00000000000E+00  0.00000000000E+00  0.60723135337E+03  0.60723135339E+03  0.50400001928E-02 0.  1.
       -1   -1    0    0    0  501  0.00000000000E+00  0.00000000000E+00 -0.10682294287E+04  0.10682294287E+04  0.50400001928E-02 0. -1.
    10030    2    1    2    0    0  0.00000000000E+00  0.00000000000E+00 -0.46099807533E+03  0.16754607821E+04  0.16107916088E+04 0.  0.
        1    1    3    3  502    0  0.39559807948E+02  0.39222685736E+03 -0.96101697347E+03  0.10387302390E+04  0.50400001928E-02 0. -1.
       -1    1    3    3    0  502 -0.39559807948E+02 -0.39222685736E+03  0.50001889814E+03  0.63673054313E+03  0.50400001928E-02 0.  1.
</event>
<event>
 5   0  0.5532881E-04  0.1552000E+04  0.7818609E-02  0.8850591E-01
        1   -1    0    0  501    0  0.00000000000E+00  0.00000000000E+00  0.13890932794E+04  0.13890932794E+04  0.50400001928E-02 0.  1.
       -1   -1    0    0    0  501  0.00000000000E+00  0.00000000000E+00 -0.43350298766E+03  0.43350298769E+03  0.50400001928E-02 0. -1.
    10030    2    1    2    0    0  0.00000000000E+00  0.00000000000E+00  0.95559029169E+03  0.18225962671E+04  0.15520001118E+04 0.  0.
        4    1    3    3  502    0 -0.34843862920E+02  0.39848953415E+03  0.12586883289E+04  0.13207217442E+04  0.12699999809E+01 0.  1.
       -4    1    3    3    0  502  0.34843862920E+02 -0.39848953415E+03 -0.30309803716E+03  0.50187452281E+03  0.12699999809E+01 0. -1.
</event>
<event>
 5   0  0.5425525E-04  0.1593758E+04  0.7818609E-02  0.8824392E-01
       -1   -1    0    0    0  501  0.00000000000E+00  0.00000000000E+00  0.88268892710E+03  0.88268892712E+03  0.50400001928E-02 0. -1.
        1   -1    0    0  501    0  0.00000000000E+00  0.00000000000E+00 -0.71941065839E+03  0.71941065841E+03  0.50400001928E-02 0.  1.
    10030    2    1    2    0    0  0.00000000000E+00  0.00000000000E+00  0.16327826871E+03  0.16020995855E+04  0.15937576004E+04 0.  0.
        5    1    3    3  502    0  0.49877723102E+03 -0.20273124768E+03 -0.50890068493E+03  0.74086482039E+03  0.46999998093E+01 0.  1.
       -5    1    3    3    0  502 -0.49877723102E+03  0.20273124768E+03  0.67217895364E+03  0.86123476514E+03  0.46999998093E+01 0. -1.
</event>
<event>
 5   0  0.9844690E-04  0.1589143E+04  0.7818609E-02  0.8827245E-01
       -2   -1    0    0    0  501  0.00000000000E+00  0.00000000000E+00  0.37815221554E+03  0.37815221554E+03  0.25500000920E-02 0. -1.
        2   -1    0    0  501    0  0.00000000000E+00  0.00000000000E+00 -0.16695504718E+04  0.16695504718E+04  0.25500000920E-02 0.  1.
    10030    2    1    2    0    0  0.00000000000E+00  0.00000000000E+00 -0.12913982563E+04  0.20477026874E+04  0.15891434295E+04 0.  0.
        3    1    3    3  502    0 -0.62468264653E+03  0.39461195391E+03 -0.10222516935E+04  0.12613268958E+04  0.10100000352E+00 0.  1.
       -3    1    3    3    0  502  0.62468264653E+03 -0.39461195391E+03 -0.26914656274E+03  0.78637579152E+03  0.10100000352E+00 0. -1.
</event>
<event>
 5   0  0.5288658E-04  0.1610325E+04  0.7818609E-02  0.8814230E-01
        1   -1    0    0  501    0  0.00000000000E+00  0.00000000000E+00  0.10339345337E+04  0.10339345337E+04  0.50400001928E-02 0. -1.
       -1   -1    0    0    0  501  0.00000000000E+00  0.00000000000E+00 -0.62700907231E+03  0.62700907233E+03  0.50400001928E-02 0.  1.
    10030    2    1    2    0    0  0.00000000000E+00  0.00000000000E+00  0.40692546139E+03  0.16609436060E+04  0.16103246043E+04 0.  0.
        1    1    3    3  502    0 -0.17812581637E+03  0.27250154736E+03 -0.55609612949E+03  0.64438249901E+03  0.50400001928E-02 0.  1.
       -1    1    3    3    0  502  0.17812581637E+03 -0.27250154736E+03  0.96302159088E+03  0.10165611070E+04  0.50400001928E-02 0. -1.
</event>
<event>
 5   0  0.1030027E-03  0.1345895E+04  0.7818609E-02  0.8993941E-01
       -2   -1    0    0    0  501  0.00000000000E+00  0.00000000000E+00  0.26452169164E+03  0.26452169165E+03  0.25500000920E-02 0.  1.
        2   -1    0    0  501    0  0.00000000000E+00  0.00000000000E+00 -0.17119891085E+04  0.17119891085E+04  0.25500000920E-02 0. -1.
    10030    2    1    2    0    0  0.00000000000E+00  0.00000000000E+00 -0.14474674168E+04  0.19765108001E+04  0.13458948771E+04 0.  0.
        1    1    3    3  502    0 -0.53320959961E+03  0.46647142966E+02 -0.12473577004E+03  0.54958843275E+03  0.50400001928E-02 0.  1.
       -1    1    3    3    0  502  0.53320959961E+03 -0.46647142966E+02 -0.13227316468E+04  0.14269223674E+04  0.50400001928E-02 0. -1.
</event>
<event>
 5   0  0.5532881E-04  0.1602621E+04  0.7818609E-02  0.8818939E-01
        1   -1    0    0  501    0  0.00000000000E+00  0.00000000000E+00  0.78740728787E+03  0.78740728789E+03  0.50400001928E-02 0.  1.
       -1   -1    0    0    0  501  0.00000000000E+00  0.00000000000E+00 -0.81545948765E+03  0.81545948767E+03  0.50400001928E-02 0. -1.
    10030    2    1    2    0    0  0.00000000000E+00  0.00000000000E+00 -0.28052199778E+02  0.16028667756E+04  0.16026212822E+04 0.  0.
        4    1    3    3  502    0  0.67879010198E+03  0.26925192608E+03 -0.34399257864E+03  0.80720821930E+03  0.12699999809E+01 0.  1.
       -4    1    3    3    0  502 -0.67879010198E+03 -0.26925192608E+03  0.31594037887E+03  0.79565855626E+03  0.12699999809E+01 0. -1.
</event>
<event>
 5   0  0.5425525E-04  0.1600522E+04  0.7818609E-02  0.8820227E-01
       -1   -1    0    0    0  501  0.00000000000E+00  0.00000000000E+00  0.84858489317E+03  0.84858489318E+03  0.50400001928E-02 0. -1.
        1   -1    0    0  501    0  0.00000000000E+00  0.00000000000E+00 -0.75468926173E+03  0.75468926174E+03  0.50400001928E-02 0.  1.
    10030    2    1    2    0    0  0.00000000000E+00  0.00000000000E+00  0.93895631438E+02  0.16032741549E+04  0.16005222980E+04 0.  0.
        5    1    3    3  502    0  0.56762849786E+03  0.43231057713E+03  0.40992600175E+03  0.82289486789E+03  0.46999998093E+01 0. -1.
       -5    1    3    3    0  502 -0.56762849786E+03 -0.43231057713E+03 -0.31603037031E+03  0.78037928704E+03  0.46999998093E+01 0.  1.
</event>
<event>
 5   0  0.5281116E-04  0.1576944E+04  0.7818609E-02  0.8834839E-01
        1   -1    0    0  501    0  0.00000000000E+00  0.00000000000E+00  0.87737099587E+03  0.87737099588E+03  0.50400001928E-02 0.  1.
       -1   -1    0    0    0  501  0.00000000000E+00  0.00000000000E+00 -0.70858050970E+03  0.70858050972E+03  0.50400001928E-02 0. -1.
    10030    2    1    2    0    0  0.00000000000E+00  0.00000000000E+00  0.16879048617E+03  0.15859515056E+04  0.15769438639E+04 0.  0.
        2    1    3    3  502    0  0.55989965160E+03 -0.28500250755E+03  0.56353440250E+03  0.84396982883E+03  0.25500000920E-02 0.  1.
       -2    1    3    3    0  502 -0.55989965160E+03  0.28500250755E+03 -0.39474391633E+03  0.74198167677E+03  0.25500000920E-02 0. -1.
</event>
<event>
 5   0  0.5281116E-04  0.1577533E+04  0.7818609E-02  0.8834470E-01
        1   -1    0    0  501    0  0.00000000000E+00  0.00000000000E+00  0.61642327531E+03  0.61642327533E+03  0.50400001928E-02 0. -1.
       -1   -1    0    0    0  501  0.00000000000E+00  0.00000000000E+00 -0.10092950784E+04  0.10092950784E+04  0.50400001928E-02 0.  1.
    10030    2    1    2    0    0  0.00000000000E+00  0.00000000000E+00 -0.39287180310E+03  0.16257183537E+04  0.15775334900E+04 0.  0.
        2    1    3    3  502    0 -0.36023739395E+03  0.59370994761E+02 -0.91697520767E+03  0.98698501838E+03  0.25500000920E-02 0.  1.
       -2    1    3    3    0  502  0.36023739395E+03 -0.59370994761E+02  0.52410340457E+03  0.63873333537E+03  0.25500000920E-02 0. -1.
</event>
<event>
 5   0  0.5425525E-04  0.1590041E+04  0.7818609E-02  0.8826689E-01
       -1   -1    0    0    0  501  0.00000000000E+00  0.00000000000E+00  0.58356357023E+03  0.58356357025E+03  0.50400001928E-02 0. -1.
        1   -1    0    0  501    0  0.00000000000E+00  0.00000000000E+00 -0.10831003104E+04  0.10831003104E+04  0.50400001928E-02 0.  1.
    10030    2    1    2    0    0  0.00000000000E+00  0.00000000000E+00 -0.49953674017E+03  0.16666638807E+04  0.15900413631E+04 0.  0.
        5    1    3    3  502    0 -0.93173635995E+02  0.56350411967E+03 -0.82942501855E+03  0.10070681063E+04  0.46999998093E+01 0.  1.
       -5    1    3    3    0  502  0.93173635995E+02 -0.56350411967E+03  0.32988827839E+03  0.65959577435E+03  0.46999998093E+01 0. -1.
</event>
<event>
 5   0  0.1057872E-03  0.1534781E+04  0.7818609E-02  0.8861648E-01
       -2   -1    0    0    0  501  0.00000000000E+00  0.00000000000E+00  0.72601153176E+03  0.72601153176E+03  0.25500000920E-02 0.  1.
        2   -1    0    0  501    0  0.00000000000E+00  0.00000000000E+00 -0.81112735214E+03  0.81112735215E+03  0.25500000920E-02 0. -1.
    10030    2    1    2    0    0  0.00000000000E+00  0.00000000000E+00 -0.85115820385E+02  0.15371388839E+04  0.15347805203E+04 0.  0.
        2    1    3    3  502    0  0.63949284445E+03 -0.65196964968E+02 -0.46235120080E+03  0.79181460913E+03  0.25500000920E-02 0. -1.
       -2    1    3    3    0  502 -0.63949284445E+03  0.65196964968E+02  0.37723538041E+03  0.74532427478E+03  0.25500000920E-02 0.  1.
</event>
<event>
 5   0  0.5532881E-04  0.1523143E+04  0.7818609E-02  0.8869207E-01
        1   -1    0    0  501    0  0.00000000000E+00  0.00000000000E+00  0.91620392447E+03  0.91620392449E+03  0.50400001928E-02 0.  1.
       -1   -1    0    0    0  501  0.00000000000E+00  0.00000000000E+00 -0.63303755695E+03  0.63303755697E+03  0.50400001928E-02 0. -1.
    10030    2    1    2    0    0  0.00000000000E+00  0.00000000000E+00  0.28316636752E+03  0.15492414815E+04  0.15231434523E+04 0.  0.
        4    1    3    3  502    0 -0.19757100129E+03  0.10996634792E+02 -0.60643226057E+03  0.63790040452E+03  0.12699999809E+01 0. -1.
       -4    1    3    3    0  502  0.19757100129E+03 -0.10996634792E+02  0.88959862809E+03  0.91134107694E+03  0.12699999809E+01 0.  1.
</event>
<event>
 5   0  0.5288658E-04  0.1598760E+04  0.7818609E-02  0.8821310E-01
        1   -1    0    0  501    0  0.00000000000E+00  0.00000000000E+00  0.10524223189E+04  0.10524223189E+04  0.50400001928E-02 0.  1.
       -1   -1    0    0    0  501  0.00000000000E+00  0.00000000000E+00 -0.60717829900E+03  0.60717829902E+03  0.50400001928E-02 0. -1.
    10030    2    1    2    0    0  0.00000000000E+00  0.00000000000E+00  0.44524401988E+03  0.16596006179E+04  0.15987595109E+04 0.  0.
        1    1    3    3  502    0 -0.10143056005E+03 -0.25859176140E+03 -0.55546952738E+03  0.62105092662E+03  0.50400001928E-02 0. -1.
       -1    1    3    3    0  502  0.10143056005E+03  0.25859176140E+03  0.10007135473E+04  0.10385496913E+04  0.50400001928E-02 0.  1.
</event>
<event>
 5   0  0.5288658E-04  0.1602516E+04  0.7818609E-02  0.8819004E-01
       -1   -1    0    0    0  501  0.00000000000E+00  0.00000000000E+00  0.65088824442E+03  0.65088824443E+03  0.50400001928E-02 0. -1.
        1   -1    0    0  501    0  0.00000000000E+00  0.00000000000E+00 -0.98636619104E+03  0.98636619105E+03  0.50400001928E-02 0.  1.
    10030    2    1    2    0    0  0.00000000000E+00  0.00000000000E+00 -0.33547794662E+03  0.16372544355E+04  0.16025157203E+04 0.  0.
        1    1    3    3  502    0  0.18571501022E+03  0.77667011201E+03 -0.23479427174E+03  0.83236703322E+03  0.50400001928E-02 0. -1.
       -1    1    3    3    0  502 -0.18571501022E+03 -0.77667011201E+03 -0.10068367488E+03  0.80488740227E+03  0.50400001928E-02 0.  1.
</event>
<event>
 5   0  0.3832500E-04  0.1725188E+04  0.7818609E-02  0.8747128E-01
        3   -1    0    0  501    0  0.00000000000E+00  0.00000000000E+00  0.12879995432E+04  0.12879995471E+04  0.10100000352E+00 0. -1.
       -3   -1    0    0    0  501  0.00000000000E+00  0.00000000000E+00 -0.57769321121E+03  0.57769322004E+03  0.10100000352E+00 0.  1.
    10030    2    1    2    0    0  0.00000000000E+00  0.00000000000E+00  0.71030633195E+03  0.18656927672E+04  0.17251882263E+04 0.  0.
        5    1    3    3  502    0 -0.36545904561E+03 -0.28921953996E+03  0.11401037098E+04  0.12316926628E+04  0.46999998093E+01 0. -1.
       -5    1    3    3    0  502  0.36545904561E+03  0.28921953996E+03 -0.42979737790E+03  0.63400010438E+03  0.46999998093E+01 0.  1.
</event>
<event>
 5   0  0.1000121E-03  0.1649883E+04  0.7818609E-02  0.8790476E-01
       -2   -1    0    0    0  501  0.00000000000E+00  0.00000000000E+00  0.29155225366E+03  0.29155225367E+03  0.25500000920E-02 0.  1.
        2   -1    0    0  501    0  0.00000000000E+00  0.00000000000E+00 -0.23341559203E+04  0.23341559203E+04  0.25500000920E-02 0. -1.
    10030    2    1    2    0    0  0.00000000000E+00  0.00000000000E+00 -0.20426036667E+04  0.26257081740E+04  0.16498829279E+04 0.  0.
        4    1    3    3  502    0 -0.36570881243E+03 -0.51803604579E+03 -0.18610431311E+04  0.19661097195E+04  0.12699999809E+01 0. -1.
       -4    1    3    3    0  502  0.36570881243E+03  0.51803604579E+03 -0.18156053553E+03  0.65959845450E+03  0.12699999809E+01 0.  1.
</event>
<event>
 5   0  0.5288658E-04  0.1620088E+04  0.7818609E-02  0.8808301E-01
       -1   -1    0    0    0  501  0.00000000000E+00  0.00000000000E+00  0.52885800078E+03  0.52885800081E+03  0.50400001928E-02 0.  1.
        1   -1    0    0  501    0  0.00000000000E+00  0.00000000000E+00 -0.12407325510E+04  0.12407325510E+04  0.50400001928E-02 0. -1.
    10030    2    1    2    0    0  0.00000000000E+00  0.00000000000E+00 -0.71187455020E+03  0.17695905518E+04  0.16200880673E+04 0.  0.
        1    1    3    3  502    0 -0.80539020524E+02  0.40645270651E+01 -0.12363372060E+04  0.12389643825E+04  0.50400001928E-02 0. -1.
       -1    1    3    3    0  502  0.80539020524E+02 -0.40645270651E+01  0.52446265578E+03  0.53062616929E+03  0.50400001928E-02 0.  1.
</event>
<event>
 5   0  0.1000121E-03  0.1609870E+04  0.7818609E-02  0.8814508E-01
        2   -1    0    0  501    0  0.00000000000E+00  0.00000000000E+00  0.41194509505E+03  0.41194509505E+03  0.25500000920E-02 0. -1.
       -2   -1    0    0    0  501  0.00000000000E+00  0.00000000000E+00 -0.15728313007E+04  0.15728313007E+04  0.25500000920E-02 0.  1.
    10030    2    1    2    0    0  0.00000000000E+00  0.00000000000E+00 -0.11608862057E+04  0.19847763958E+04  0.16098697335E+04 0.  0.
        4    1    3    3  502    0 -0.34976625632E+03  0.71016948705E+03 -0.40075788865E+03  0.88729117691E+03  0.12699999809E+01 0. -1.
       -4    1    3    3    0  502  0.34976625632E+03 -0.71016948705E+03 -0.76012831703E+03  0.10974852189E+04  0.12699999809E+01 0.  1.
</event>
<event>
 5   0  0.9844690E-04  0.1600504E+04  0.7818609E-02  0.8820239E-01
       -2   -1    0    0    0  501  0.00000000000E+00  0.00000000000E+00  0.13757891465E+04  0.13757891465E+04  0.25500000920E-02 0. -1.
        2   -1    0    0  501    0  0.00000000000E+00  0.00000000000E+00 -0.46548042649E+03  0.46548042650E+03  0.25500000920E-02 0.  1.
    10030    2    1    2    0    0  0.00000000000E+00  0.00000000000E+00  0.91030872002E+03  0.18412695730E+04  0.16005035691E+04 0.  0.
        3    1    3    3  502    0  0.41987871535E+02  0.64128981455E+03 -0.93430519169E+02  0.64941887847E+03  0.10100000352E+00 0.  1.
       -3    1    3    3    0  502 -0.41987871535E+02 -0.64128981455E+03  0.10037392392E+04  0.11918506945E+04  0.10100000352E+00 0. -1.
</event>
<event>
 5   0  0.1030027E-03  0.1547996E+04  0.7818609E-02  0.8853149E-01
       -2   -1    0    0    0  501  0.00000000000E+00  0.00000000000E+00  0.39469947322E+03  0.39469947323E+03  0.25500000920E-02 0.  1.
        2   -1    0    0  501    0  0.00000000000E+00  0.00000000000E+00 -0.15177941359E+04  0.15177941359E+04  0.25500000920E-02 0. -1.
    10030    2    1    2    0    0  0.00000000000E+00  0.00000000000E+00 -0.11230946627E+04  0.19124936091E+04  0.15479955374E+04 0.  0.
        1    1    3    3  502    0 -0.23094947576E+03  0.61948338191E+03 -0.64320467610E+02  0.66425480306E+03  0.50400001928E-02 0. -1.
       -1    1    3    3    0  502  0.23094947576E+03 -0.61948338191E+03 -0.10587741951E+04  0.12482388061E+04  0.50400001928E-02 0.  1.
</event>
<event>
 5   0  0.1000121E-03  0.1583792E+04  0.7818609E-02  0.8830568E-01
       -2   -1    0    0    0  501  0.00000000000E+00  0.00000000000E+00  0.57087446926E+03  0.57087446927E+03  0.25500000920E-02 0. -1.
        2   -1    0    0  501    0  0.00000000000E+00  0.00000000000E+00 -0.10984886975E+04  0.10984886975E+04  0.25500000920E-02 0.  1.
    10030    2    1    2    0    0  0.00000000000E+00  0.00000000000E+00 -0.52761422828E+03  0.16693631668E+04  0.15837918452E+04 0.  0.
        4    1    3    3  502    0  0.42726357258E+03 -0.37753052484E+03  0.31544325712E+03  0.65160533991E+03  0.12699999809E+01 0. -1.
       -4    1    3    3    0  502 -0.42726357258E+03  0.37753052484E+03 -0.84305748540E+03  0.10177578269E+04  0.12699999809E+01 0.  1.
</event>
<event>
 5   0  0.5288658E-04  0.1473121E+04  0.7818609E-02  0.8902527E-01
       -1   -1    0    0    0  501  0.00000000000E+00  0.00000000000E+00  0.11814326181E+04  0.11814326181E+04  0.50400001928E-02 0. -1.
        1   -1    0    0  501    0  0.00000000000E+00  0.00000000000E+00 -0.45920620147E+03  0.45920620150E+03  0.50400001928E-02 0.  1.
    10030    2    1    2    0    0  0.00000000000E+00  0.00000000000E+00  0.72222641667E+03  0.16406388196E+04  0.14731207485E+04 0.  0.
        1    1    3    3  502    0 -0.50742498373E+03  0.11809540144E+03 -0.21876264916E+03  0.56505197517E+03  0.50400001928E-02 0.  1.
       -1    1    3    3    0  502  0.50742498373E+03 -0.11809540144E+03  0.94098906584E+03  0.10755868445E+04  0.50400001928E-02 0. -1.
</event>
<event>
 5   0  0.9844690E-04  0.1627790E+04  0.7818609E-02  0.8803655E-01
       -2   -1    0    0    0  501  0.00000000000E+00  0.00000000000E+00  0.41515619804E+03  0.41515619805E+03  0.25500000920E-02 0.  1.
        2   -1    0    0  501    0  0.00000000000E+00  0.00000000000E+00 -0.15956036483E+04  0.15956036483E+04  0.25500000920E-02 0. -1.
    10030    2    1    2    0    0  0.00000000000E+00  0.00000000000E+00 -0.11804474502E+04  0.20107598463E+04  0.16277895985E+04 0.  0.
        3    1    3    3  502    0  0.61599838185E+03  0.15301884359E+03 -0.12195522816E+04  0.13748369179E+04  0.10100000352E+00 0. -1.
       -3    1    3    3    0  502 -0.61599838185E+03 -0.15301884359E+03  0.39104831366E+02  0.63592292848E+03  0.10100000352E+00 0.  1.
</event>
<event>
 5   0  0.5288658E-04  0.1577235E+04  0.7818609E-02  0.8834657E-01
        1   -1    0    0  501    0  0.00000000000E+00  0.00000000000E+00  0.12497324831E+04  0.12497324831E+04  0.50400001928E-02 0.  1.
       -1   -1    0    0    0  501  0.00000000000E+00  0.00000000000E+00 -0.49764076085E+03  0.49764076087E+03  0.50400001928E-02 0. -1.
    10030    2    1    2    0    0  0.00000000000E+00  0.00000000000E+00  0.75209172221E+03  0.17473732439E+04  0.15772353328E+04 0.  0.
        1    1    3    3  502    0  0.45332512671E+03  0.22695058627E+03 -0.29319219507E+03  0.58563803018E+03  0.50400001928E-02 0. -1.
       -1    1    3    3    0  502 -0.45332512671E+03 -0.22695058627E+03  0.10452839173E+04  0.11617352138E+04  0.50400001928E-02 0.  1.
</event>
<event>
 5   0  0.1000121E-03  0.1592712E+04  0.7818609E-02  0.8825038E-01
       -2   -1    0    0    0  501  0.00000000000E+00  0.00000000000E+00  0.46698241135E+03  0.46698241135E+03  0.25500000920E-02 0.  1.
        2   -1    0    0  501    0  0.00000000000E+00  0.00000000000E+00 -0.13580451969E+04  0.13580451969E+04  0.25500000920E-02 0. -1.
    10030    2    1    2    0    0  0.00000000000E+00  0.00000000000E+00 -0.89106278552E+03  0.18250276082E+04  0.15927124295E+04 0.  0.
        4    1    3    3  502    0  0.31888076899E+03 -0.13106818117E+03 -0.12680952806E+04  0.13141274925E+04  0.12699999809E+01 0. -1.
       -4    1    3    3    0  502 -0.31888076899E+03  0.13106818117E+03  0.37703249512E+03  0.51090011570E+03  0.12699999809E+01 0.  1.
</event>
<event>
 5   0  0.1057872E-03  0.1649105E+04  0.7818609E-02  0.8790936E-01
       -2   -1    0    0    0  501  0.00000000000E+00  0.00000000000E+00  0.91902907083E+03  0.91902907083E+03  0.25500000920E-02 0. -1.
        2   -1    0    0  501    0  0.00000000000E+00  0.00000000000E+00 -0.73978841443E+03  0.73978841443E+03  0.25500000920E-02 0.  1.
    10030    2    1    2    0    0  0.00000000000E+00  0.00000000000E+00  0.17924065640E+03  0.16588174853E+04  0.16491052836E+04 0.  0.
        2    1    3    3  502    0  0.79032585515E+02  0.16773981212E+03  0.89778484686E+03  0.91673356293E+03  0.25500000920E-02 0. -1.
       -2    1    3    3    0  502 -0.79032585515E+02 -0.16773981212E+03 -0.71854419046E+03  0.74208392234E+03  0.25500000920E-02 0.  1.
</event>
<event>
 5   0  0.1030027E-03  0.1622762E+04  0.7818609E-02  0.8806685E-01
       -2   -1    0    0    0  501  0.00000000000E+00  0.00000000000E+00  0.13003675997E+04  0.13003675997E+04  0.25500000920E-02 0. -1.
        2   -1    0    0  501    0  0.00000000000E+00  0.00000000000E+00 -0.50627136789E+03  0.50627136790E+03  0.25500000920E-02 0.  1.
    10030    2    1    2    0    0  0.00000000000E+00  0.00000000000E+00  0.79409623176E+03  0.18066389676E+04  0.16227616996E+04 0.  0.
        1    1    3    3  502    0  0.75909213115E+03  0.27030363367E+03  0.50298227931E+03  0.94988214600E+03  0.50400001928E-02 0.  1.
       -1    1    3    3    0  502 -0.75909213115E+03 -0.27030363367E+03  0.29111395245E+03  0.85675682156E+03  0.50400001928E-02 0. -1.
</event>
<event>
 5   0  0.9844690E-04  0.1611242E+04  0.7818609E-02  0.8813671E-01
       -2   -1    0    0    0  501  0.00000000000E+00  0.00000000000E+00  0.55115890852E+03  0.55115890853E+03  0.25500000920E-02 0.  1.
        2   -1    0    0  501    0  0.00000000000E+00  0.00000000000E+00 -0.11775651693E+04  0.11775651693E+04  0.25500000920E-02 0. -1.
    10030    2    1    2    0    0  0.00000000000E+00  0.00000000000E+00 -0.62640626080E+03  0.17287240778E+04  0.16112424193E+04 0.  0.
        3    1    3    3  502    0 -0.26295770319E+03  0.36756838255E+03  0.40233640931E+03  0.60508500723E+03  0.10100000352E+00 0.  1.
       -3    1    3    3    0  502  0.26295770319E+03 -0.36756838255E+03 -0.10287426701E+04  0.11236390706E+04  0.10100000352E+00 0. -1.
</event>
<event>
 5   0  0.3832500E-04  0.1353960E+04  0.7818609E-02  0.8987836E-01
        3   -1    0    0  501    0  0.00000000000E+00  0.00000000000E+00  0.57585398701E+03  0.57585399587E+03  0.10100000352E+00 0.  1.
       -3   -1    0    0    0  501  0.00000000000E+00  0.00000000000E+00 -0.79586514010E+03  0.79586514651E+03  0.10100000352E+00 0. -1.
    10030    2    1    2    0    0  0.00000000000E+00  0.00000000000E+00 -0.22001115308E+03  0.13717191424E+04  0.13539603015E+04 0.  0.
        5    1    3    3  502    0  0.60948256496E+03  0.47468742630E+02 -0.40460778146E+03  0.73311105934E+03  0.46999998093E+01 0. -1.
       -5    1    3    3    0  502 -0.60948256496E+03 -0.47468742630E+02  0.18459662837E+03  0.63860808303E+03  0.46999998093E+01 0.  1.
</event>
<event>
 5   0  0.1057872E-03  0.1669119E+04  0.7818609E-02  0.8779176E-01
        2   -1    0    0  501    0  0.00000000000E+00  0.00000000000E+00  0.16616387020E+04  0.16616387020E+04  0.25500000920E-02 0. -1.
       -2   -1    0    0    0  501  0.00000000000E+00  0.00000000000E+00 -0.41915814839E+03  0.41915814840E+03  0.25500000920E-02 0.  1.
    10030    2    1    2    0    0  0.00000000000E+00  0.00000000000E+00  0.12424805537E+04  0.20807968505E+04  0.16691188114E+04 0.  0.
        2    1    3    3  502    0 -0.18517738595E+03 -0.70643809476E+03  0.11247732606E+04  0.13410668640E+04  0.25500000920E-02 0. -1.
       -2    1    3    3    0  502  0.18517738595E+03  0.70643809476E+03  0.11770729305E+03  0.73972998644E+03  0.25500000920E-02 0.  1.
</event>
<event>
 5   0  0.5281116E-04  0.1533460E+04  0.7818609E-02  0.8862502E-01
        1   -1    0    0  501    0  0.00000000000E+00  0.00000000000E+00  0.94200726365E+03  0.94200726366E+03  0.50400001928E-02 0.  1.
       -1   -1    0    0    0  501  0.00000000000E+00  0.00000000000E+00 -0.62406644052E+03  0.62406644054E+03  0.50400001928E-02 0. -1.
    10030    2    1    2    0    0  0.00000000000E+00  0.00000000000E+00  0.31794082313E+03  0.15660737042E+04  0.15334602962E+04 0.  0.
        2    1    3    3  502    0 -0.11895701996E+03 -0.10472552774E+02 -0.61451083339E+03  0.62600639878E+03  0.25500000920E-02 0. -1.
       -2    1    3    3    0  502  0.11895701996E+03  0.10472552774E+02  0.93245165652E+03  0.94006730541E+03  0.25500000920E-02 0.  1.
</event>
<event>
 5   0  0.5281116E-04  0.1599011E+04  0.7818609E-02  0.8821156E-01
       -1   -1    0    0    0  501  0.00000000000E+00  0.00000000000E+00  0.72152968371E+03  0.72152968373E+03  0.50400001928E-02 0. -1.
        1   -1    0    0  501    0  0.00000000000E+00  0.00000000000E+00 -0.88590861331E+03  0.88590861333E+03  0.50400001928E-02 0.  1.
    10030    2    1    2    0    0  0.00000000000E+00  0.00000000000E+00 -0.16437892961E+03  0.16074382971E+04  0.15990113966E+04 0.  0.
        2    1    3    3  502    0 -0.45617336065E+03 -0.49169031159E+03 -0.51963312993E+03  0.84845276074E+03  0.25500000920E-02 0.  1.
       -2    1    3    3    0  502  0.45617336065E+03  0.49169031159E+03  0.35525420032E+03  0.75898553631E+03  0.25500000920E-02 0. -1.
</event>
<event>
 5   0  0.5532881E-04  0.1610533E+04  0.7818609E-02  0.8814103E-01
       -1   -1    0    0    0  501  0.00000000000E+00  0.00000000000E+00  0.40635982558E+03  0.40635982561E+03  0.50400001928E-02 0. -1.
        1   -1    0    0  501    0  0.00000000000E+00  0.00000000000E+00 -0.15957631277E+04  0.15957631277E+04  0.50400001928E-02 0.  1.
    10030    2    1    2    0    0  0.00000000000E+00  0.00000000000E+00 -0.11894033022E+04  0.20021229534E+04  0.16105328637E+04 0.  0.
        4    1    3    3  502    0  0.62354027127E+02 -0.68641285984E+03 -0.11123656015E+04  0.13085906476E+04  0.12699999809E+01 0.  1.
       -4    1    3    3    0  502 -0.62354027127E+02  0.68641285984E+03 -0.77037700696E+02  0.69353230573E+03  0.12699999809E+01 0. -1.
</event>
<event>
 5   0  0.5425525E-04  0.1538134E+04  0.7818609E-02  0.8859483E-01
        1   -1    0    0  501    0  0.00000000000E+00  0.00000000000E+00  0.38286159335E+03  0.38286159338E+03  0.50400001928E-02 0.  1.
       -1   -1    0    0    0  501  0.00000000000E+00  0.00000000000E+00 -0.15448511790E+04  0.15448511790E+04  0.50400001928E-02 0. -1.
    10030    2    1    2    0    0  0.00000000000E+00  0.00000000000E+00 -0.11619895857E+04  0.19277127724E+04  0.15381341735E+04 0.  0.
        5    1    3    3  502    0 -0.39700816207E+03 -0.30136282674E+03  0.15301124622E+03  0.52141112911E+03  0.46999998093E+01 0.  1.
       -5    1    3    3    0  502  0.39700816207E+03  0.30136282674E+03 -0.13150008319E+04  0.14063016433E+04  0.46999998093E+01 0. -1.
</event>
<event>
 5   0  0.5425525E-04  0.1575308E+04  0.7818609E-02  0.8835862E-01
        1   -1    0    0  501    0  0.00000000000E+00  0.00000000000E+00  0.10571507331E+04  0.10571507331E+04  0.50400001928E-02 0. -1.
       -1   -1    0    0    0  501  0.00000000000E+00  0.00000000000E+00 -0.58685963521E+03  0.58685963523E+03  0.50400001928E-02 0.  1.
    10030    2    1    2    0    0  0.00000000000E+00  0.00000000000E+00  0.47029109789E+03  0.16440103683E+04  0.15753083427E+04 0.  0.
        5    1    3    3  502    0  0.41623361544E+03  0.66182811315E+03  0.33475516314E+03  0.85049984316E+03  0.46999998093E+01 0.  1.
       -5    1    3    3    0  502 -0.41623361544E+03 -0.66182811315E+03  0.13553593475E+03  0.79351052518E+03  0.46999998093E+01 0. -1.
</event>
<event>
 5   0  0.9844690E-04  0.1717642E+04  0.7818609E-02  0.8751366E-01
       -2   -1    0    0    0  501  0.00000000000E+00  0.00000000000E+00  0.42597734211E+03  0.42597734211E+03  0.25500000920E-02 0.  1.
        2   -1    0    0  501    0  0.00000000000E+00  0.00000000000E+00 -0.17314844514E+04  0.17314844514E+04  0.25500000920E-02 0. -1.
    10030    2    1    2    0    0  0.00000000000E+00  0.00000000000E+00 -0.13055071093E+04  0.21574617935E+04  0.17176415744E+04 0.  0.
        3    1    3    3  502    0 -0.33837577928E+03  0.54366194617E+03 -0.13715743532E+04  0.15136983505E+04  0.10100000352E+00 0. -1.
       -3    1    3    3    0  502  0.33837577928E+03 -0.54366194617E+03  0.66067243869E+02  0.64376344306E+03  0.10100000352E+00 0.  1.
</event>
<event>
 5   0  0.9844690E-04  0.1597575E+04  0.7818609E-02  0.8822039E-01
       -2   -1    0    0    0  501  0.00000000000E+00  0.00000000000E+00  0.29393274953E+03  0.29393274954E+03  0.25500000920E-02 0.  1.
        2   -1    0    0  501    0  0.00000000000E+00  0.00000000000E+00 -0.21707737395E+04  0.21707737395E+04  0.25500000920E-02 0. -1.
    10030    2    1    2    0    0  0.00000000000E+00  0.00000000000E+00 -0.18768409900E+04  0.24647064891E+04  0.15975750297E+04 0.  0.
        3    1    3    3  502    0  0.29985956342E+03 -0.42579167745E+02  0.20191477858E+03  0.36400320233E+03  0.10100000352E+00 0.  1.
       -3    1    3    3    0  502 -0.29985956342E+03  0.42579167745E+02 -0.20787557686E+04  0.21007032867E+04  0.10100000352E+00 0. -1.
</event>
<event>
 5   0  0.5425525E-04  0.1598373E+04  0.7818609E-02  0.8821548E-01
        1   -1    0    0  501    0  0.00000000000E+00  0.00000000000E+00  0.10376427007E+04  0.10376427007E+04  0.50400001928E-02 0. -1.
       -1   -1    0    0    0  501  0.00000000000E+00  0.00000000000E+00 -0.61552926955E+03  0.61552926957E+03  0.50400001928E-02 0.  1.
    10030    2    1    2    0    0  0.00000000000E+00  0.00000000000E+00  0.42211343111E+03  0.16531719702E+04  0.15983734903E+04 0.  0.
        5    1    3    3  502    0 -0.55577862830E+03 -0.14393223793E+03  0.78605809606E+03  0.97340422907E+03  0.46999998093E+01 0. -1.
       -5    1    3    3    0  502  0.55577862830E+03  0.14393223793E+03 -0.36394466495E+03  0.67976774117E+03  0.46999998093E+01 0.  1.
</event>
<event>
 5   0  0.1030027E-03  0.1571242E+04  0.7818609E-02  0.8838412E-01
       -2   -1    0    0    0  501  0.00000000000E+00  0.00000000000E+00  0.70327279513E+03  0.70327279514E+03  0.25500000920E-02 0. -1.
        2   -1    0    0  501    0  0.00000000000E+00  0.00000000000E+00 -0.87761186182E+03  0.87761186182E+03  0.25500000920E-02 0.  1.
    10030    2    1    2    0    0  0.00000000000E+00  0.00000000000E+00 -0.17433906669E+03  0.15808846570E+04  0.15712422437E+04 0.  0.
        1    1    3    3  502    0 -0.50407304388E+02 -0.56664968469E+03 -0.63231353288E+03  0.85056050071E+03  0.50400001928E-02 0.  1.
       -1    1    3    3    0  502  0.50407304388E+02  0.56664968469E+03  0.45797446619E+03  0.73032415625E+03  0.50400001928E-02 0. -1.
</event>
<event>
 5   0  0.5281116E-04  0.1551074E+04  0.7818609E-02  0.8851182E-01
        1   -1    0    0  501    0  0.00000000000E+00  0.00000000000E+00  0.62675324551E+03  0.62675324553E+03  0.50400001928E-02 0. -1.
       -1   -1    0    0    0  501  0.00000000000E+00  0.00000000000E+00 -0.95963978307E+03  0.95963978309E+03  0.50400001928E-02 0.  1.
    10030    2    1    2    0    0  0.00000000000E+00  0.00000000000E+00 -0.33288653757E+03  0.15863930286E+04  0.15510736263E+04 0.  0.
        2    1    3    3  502    0  0.36850106481E+03 -0.64198384153E+03  0.70170894193E+02  0.74354572284E+03  0.25500000920E-02 0. -1.
       -2    1    3    3    0  502 -0.36850106481E+03  0.64198384153E+03 -0.40305743176E+03  0.84284730578E+03  0.25500000920E-02 0.  1.
</event>
<event>
 5   0  0.9844690E-04  0.1308419E+04  0.7818609E-02  0.9022915E-01
       -2   -1    0    0    0  501  0.00000000000E+00  0.00000000000E+00  0.24799784421E+03  0.24799784422E+03  0.25500000920E-02 0. -1.
        2   -1    0    0  501    0  0.00000000000E+00  0.00000000000E+00 -0.17257812142E+04  0.17257812142E+04  0.25500000920E-02 0.  1.
    10030    2    1    2    0    0  0.00000000000E+00  0.00000000000E+00 -0.14777833700E+04  0.19737790584E+04  0.13084189248E+04 0.  0.
        3    1    3    3  502    0  0.93830885193E+02 -0.64738738302E+03 -0.75198647410E+03  0.99669369725E+03  0.10100000352E+00 0. -1.
       -3    1    3    3    0  502 -0.93830885193E+02  0.64738738302E+03 -0.72579689588E+03  0.97708536115E+03  0.10100000352E+00 0.  1.
</event>
<event>
 5   0  0.1000121E-03  0.1602328E+04  0.7818609E-02  0.8819119E-01
       -2   -1    0    0    0  501  0.00000000000E+00  0.00000000000E+00  0.28379681828E+03  0.28379681829E+03  0.25500000920E-02 0.  1.
        2   -1    0    0  501    0  0.00000000000E+00  0.00000000000E+00 -0.22617004023E+04  0.22617004023E+04  0.25500000920E-02 0. -1.
    10030    2    1    2    0    0  0.00000000000E+00  0.00000000000E+00 -0.19779035840E+04  0.25454972206E+04  0.16023275297E+04 0.  0.
        4    1    3    3  502    0  0.57676532227E+03  0.47617514397E+03 -0.53276259071E+03  0.91828023809E+03  0.12699999809E+01 0.  1.
       -4    1    3    3    0  502 -0.57676532227E+03 -0.47617514397E+03 -0.14451409933E+04  0.16272169825E+04  0.12699999809E+01 0. -1.
</event>
<event>
 5   0  0.1037321E-03  0.1634390E+04  0.7818609E-02  0.8799695E-01
        2   -1    0    0  501    0  0.00000000000E+00  0.00000000000E+00  0.13910653799E+04  0.13910653799E+04  0.25500000920E-02 0. -1.
       -2   -1    0    0    0  501  0.00000000000E+00  0.00000000000E+00 -0.48006941918E+03  0.48006941918E+03  0.25500000920E-02 0.  1.
    10030    2    1    2    0    0  0.00000000000E+00  0.00000000000E+00  0.91099596074E+03  0.18711347991E+04  0.16343903438E+04 0.  0.
        5    1    3    3  502    0 -0.79613190691E+03  0.12168488290E+03  0.29705844698E+03  0.85842823512E+03  0.46999998093E+01 0. -1.
       -5    1    3    3    0  502  0.79613190691E+03 -0.12168488290E+03  0.61393751376E+03  0.10127065640E+04  0.46999998093E+01 0.  1.
</event>
<event>
 5   0  0.5288658E-04  0.1590255E+04  0.7818609E-02  0.8826557E-01
        1   -1    0    0  501    0  0.00000000000E+00  0.00000000000E+00  0.10377455059E+04  0.10377455059E+04  0.50400001928E-02 0.  1.
       -1   -1    0    0    0  501  0.00000000000E+00  0.00000000000E+00 -0.60923200993E+03  0.60923200995E+03  0.50400001928E-02 0. -1.
    10030    2    1    2    0    0  0.00000000000E+00  0.00000000000E+00  0.42851349596E+03  0.16469775158E+04  0.15902550492E+04 0.  0.
        1    1    3    3  502    0 -0.50421012944E+03  0.42458010308E+03 -0.24627438547E+03  0.70366696066E+03  0.50400001928E-02 0. -1.
       -1    1    3    3    0  502  0.50421012944E+03 -0.42458010308E+03  0.67478788143E+03  0.94331055518E+03  0.50400001928E-02 0.  1.
</event>
<event>
 5   0  0.5623061E-04  0.1627843E+04  0.7818609E-02  0.8803623E-01
       -1   -1    0    0    0  501  0.00000000000E+00  0.00000000000E+00  0.58396822601E+03  0.58396822603E+03  0.50400001928E-02 0.  1.
        1   -1    0    0  501    0  0.00000000000E+00  0.00000000000E+00 -0.11344248147E+04  0.11344248148E+04  0.50400001928E-02 0. -1.
    10030    2    1    2    0    0  0.00000000000E+00  0.00000000000E+00 -0.55045658873E+03  0.17183930408E+04  0.16278428015E+04 0.  0.
        3    1    3    3  502    0  0.10100497151E+03  0.77742224996E+03 -0.50621670201E+03  0.93318954055E+03  0.10100000352E+00 0. -1.
       -3    1    3    3    0  502 -0.10100497151E+03 -0.77742224996E+03 -0.44239886715E+02  0.78520350023E+03  0.10100000352E+00 0.  1.
</event>
<event>
 5   0  0.5532881E-04  0.1654061E+04  0.7818609E-02  0.8788008E-01
        1   -1    0    0  501    0  0.00000000000E+00  0.00000000000E+00  0.84804721332E+03  0.84804721333E+03  0.50400001928E-02 0.  1.
       -1   -1    0    0    0  501  0.00000000000E+00  0.00000000000E+00 -0.80653421212E+03  0.80653421213E+03  0.50400001928E-02 0. -1.
    10030    2    1    2    0    0  0.00000000000E+00  0.00000000000E+00  0.41513001204E+02  0.16545814255E+04  0.16540605685E+04 0.  0.
        4    1    3    3  502    0 -0.18253285818E+03 -0.54808164451E+03  0.61277539730E+03  0.84214430700E+03  0.12699999809E+01 0.  1.
       -4    1    3    3    0  502  0.18253285818E+03  0.54808164451E+03 -0.57126239610E+03  0.81243711847E+03  0.12699999809E+01 0. -1.
</event>
<event>
 5   0  0.5425525E-04  0.1599375E+04  0.7818609E-02  0.8820932E-01
       -1   -1    0    0    0  501  0.00000000000E+00  0.00000000000E+00  0.73677500774E+03  0.73677500775E+03  0.50400001928E-02 0.  1.
        1   -1    0    0  501    0  0.00000000000E+00  0.00000000000E+00 -0.86797250678E+03  0.86797250679E+03  0.50400001928E-02 0. -1.
    10030    2    1    2    0    0  0.00000000000E+00  0.00000000000E+00 -0.13119749904E+03  0.16047475145E+04  0.15993754411E+04 0.  0.
        5    1    3    3  502    0  0.69696596023E+03  0.31771090629E+03 -0.29610194731E+03  0.82121874242E+03  0.46999998093E+01 0. -1.
       -5    1    3    3    0  502 -0.69696596023E+03 -0.31771090629E+03  0.16490444827E+03  0.78352877213E+03  0.46999998093E+01 0.  1.
</event>
<event>
 5   0  0.9844690E-04  0.1557116E+04  0.7818609E-02  0.8847335E-01
        2   -1    0    0  501    0  0.00000000000E+00  0.00000000000E+00  0.10350735133E+04  0.10350735133E+04  0.25500000920E-02 0. -1.
       -2   -1    0    0    0  501  0.00000000000E+00  0.00000000000E+00 -0.58561320978E+03  0.58561320978E+03  0.25500000920E-02 0.  1.
    10030    2    1    2    0    0  0.00000000000E+00  0.00000000000E+00  0.44946030356E+03  0.16206867231E+04  0.15571162095E+04 0.  0.
        3    1    3    3  502    0  0.35128902407E+03  0.27750366133E+03 -0.43825255871E+03  0.62648030767E+03  0.10100000352E+00 0.  1.
       -3    1    3    3    0  502 -0.35128902407E+03 -0.27750366133E+03  0.88771286226E+03  0.99420641544E+03  0.10100000352E+00 0. -1.
</event>
<event>
 5   0  0.5281116E-04  0.1644159E+04  0.7818609E-02  0.8793870E-01
       -1   -1    0    0    0  501  0.00000000000E+00  0.00000000000E+00  0.55362332369E+03  0.55362332371E+03  0.50400001928E-02 0.  1.
        1   -1    0    0  501    0  0.00000000000E+00  0.00000000000E+00 -0.12207115374E+04  0.12207115374E+04  0.50400001928E-02 0. -1.
    10030    2    1    2    0    0  0.00000000000E+00  0.00000000000E+00 -0.66708821366E+03  0.17743348611E+04  0.16441586038E+04 0.  0.
        2    1    3    3  502    0 -0.52927539769E+03  0.11513740023E+03  0.33382360375E+03  0.63626037592E+03  0.25500000920E-02 0.  1.
       -2    1    3    3    0  502  0.52927539769E+03 -0.11513740023E+03 -0.10009118174E+04  0.11380744852E+04  0.25500000920E-02 0. -1.
</event>
<event>
 5   0  0.5532881E-04  0.1635120E+04  0.7818609E-02  0.8799258E-01
       -1   -1    0    0    0  501  0.00000000000E+00  0.00000000000E+00  0.38038525566E+03  0.38038525569E+03  0.50400001928E-02 0. -1.
        1   -1    0    0  501    0  0.00000000000E+00  0.00000000000E+00 -0.17571766256E+04  0.17571766257E+04  0.50400001928E-02 0.  1.
    10030    2    1    2    0    0  0.00000000000E+00  0.00000000000E+00 -0.13767913700E+04  0.21375618813E+04  0.16351196654E+04 0.  0.
        4    1    3    3  502    0 -0.45105208540E+03  0.67481250348E+03 -0.81636625999E+03  0.11512060554E+04  0.12699999809E+01 0.  1.
       -4    1    3    3    0  502  0.45105208540E+03 -0.67481250348E+03 -0.56042510999E+03  0.98635582596E+03  0.12699999809E+01 0. -1.
</event>
<event>
 5   0  0.5623061E-04  0.1604646E+04  0.7818609E-02  0.8817699E-01
        1   -1    0    0  501    0  0.00000000000E+00  0.00000000000E+00  0.50100446787E+03  0.50100446790E+03  0.50400001928E-02 0.  1.
       -1   -1    0    0    0  501  0.00000000000E+00  0.00000000000E+00 -0.12848637950E+04  0.12848637950E+04  0.50400001928E-02 0. -1.
    10030    2    1    2    0    0  0.00000000000E+00  0.00000000000E+00 -0.78385932715E+03  0.17858682629E+04  0.16046463809E+04 0.  0.
        3    1    3    3  502    0 -0.73619714538E+03  0.29306002127E+03 -0.25180544945E+03  0.83143033834E+03  0.10100000352E+00 0. -1.
       -3    1    3    3    0  502  0.73619714538E+03 -0.29306002127E+03 -0.53205387770E+03  0.95443792460E+03  0.10100000352E+00 0.  1.
</event>
<event>
 5   0  0.5532881E-04  0.1373328E+04  0.7818609E-02  0.8973355E-01
       -1   -1    0    0    0  501  0.00000000000E+00  0.00000000000E+00  0.35250340275E+03  0.35250340279E+03  0.50400001928E-02 0.  1.
        1   -1    0    0  501    0  0.00000000000E+00  0.00000000000E+00 -0.13375967976E+04  0.13375967976E+04  0.50400001928E-02 0. -1.
    10030    2    1    2    0    0  0.00000000000E+00  0.00000000000E+00 -0.98509339488E+03  0.16901002004E+04  0.13733279619E+04 0.  0.
        4    1    3    3  502    0 -0.13168020779E+03  0.49837422951E+03 -0.10508234497E+04  0.11704478139E+04  0.12699999809E+01 0. -1.
       -4    1    3    3    0  502  0.13168020779E+03 -0.49837422951E+03  0.65730054851E+02  0.51965238648E+03  0.12699999809E+01 0.  1.
</event>
<event>
 5   0  0.1057872E-03  0.1708487E+04  0.7818609E-02  0.8756539E-01
       -2   -1    0    0    0  501  0.00000000000E+00  0.00000000000E+00  0.54043252679E+03  0.54043252680E+03  0.25500000920E-02 0. -1.
        2   -1    0    0  501    0  0.00000000000E+00  0.00000000000E+00 -0.13502737807E+04  0.13502737807E+04  0.25500000920E-02 0.  1.
    10030    2    1    2    0    0  0.00000000000E+00  0.00000000000E+00 -0.80984125392E+03  0.18907063075E+04  0.17084868992E+04 0.  0.
        2    1    3    3  502    0 -0.81284277025E+03 -0.12798770255E+03 -0.65881943745E+03  0.10541049627E+04  0.25500000920E-02 0.  1.
       -2    1    3    3    0  502  0.81284277025E+03  0.12798770255E+03 -0.15102181648E+03  0.83660134486E+03  0.25500000920E-02 0. -1.
</event>
<event>
 5   0  0.1037321E-03  0.1164218E+04  0.7818609E-02  0.9144766E-01
       -2   -1    0    0    0  501  0.00000000000E+00  0.00000000000E+00  0.77582119794E+03  0.77582119795E+03  0.25500000920E-02 0. -1.
        2   -1    0    0  501    0  0.00000000000E+00  0.00000000000E+00 -0.43676440405E+03  0.43676440406E+03  0.25500000920E-02 0.  1.
    10030    2    1    2    0    0  0.00000000000E+00  0.00000000000E+00  0.33905679389E+03  0.12125856020E+04  0.11642183355E+04 0.  0.
        5    1    3    3  502    0  0.16406358293E+03 -0.54748923050E+03  0.54638511014E+02  0.57416789674E+03  0.46999998093E+01 0.  1.
       -5    1    3    3    0  502 -0.16406358293E+03  0.54748923050E+03  0.28441828288E+03  0.63841770526E+03  0.46999998093E+01 0. -1.
</event>
<event>
 5   0  0.9844690E-04  0.1625646E+04  0.7818609E-02  0.8804946E-01
        2   -1    0    0  501    0  0.00000000000E+00  0.00000000000E+00  0.10176029845E+04  0.10176029845E+04  0.25500000920E-02 0. -1.
       -2   -1    0    0    0  501  0.00000000000E+00  0.00000000000E+00 -0.64925277205E+03  0.64925277205E+03  0.25500000920E-02 0.  1.
    10030    2    1    2    0    0  0.00000000000E+00  0.00000000000E+00  0.36835021240E+03  0.16668557565E+04  0.16256464050E+04 0.  0.
        3    1    3    3  502    0 -0.55514867817E+03  0.88684135627E+02 -0.41775538036E+03  0.70041023608E+03  0.10100000352E+00 0.  1.
       -3    1    3    3    0  502  0.55514867817E+03 -0.88684135627E+02  0.78610559276E+03  0.96644552043E+03  0.10100000352E+00 0. -1.
</event>
<event>
 5   0  0.1037321E-03  0.1563762E+04  0.7818609E-02  0.8843125E-01
        2   -1    0    0  501    0  0.00000000000E+00  0.00000000000E+00  0.12806233237E+04  0.12806233237E+04  0.25500000920E-02 0. -1.
       -2   -1    0    0    0  501  0.00000000000E+00  0.00000000000E+00 -0.47737513708E+03  0.47737513709E+03  0.25500000920E-02 0.  1.
    10030    2    1    2    0    0  0.00000000000E+00  0.00000000000E+00  0.80324818666E+03  0.17579984608E+04  0.15637617910E+04 0.  0.
        5    1    3    3  502    0 -0.15366952239E+03  0.69238294171E+03  0.77160262679E+03  0.10480463557E+04  0.46999998093E+01 0. -1.
       -5    1    3    3    0  502  0.15366952239E+03 -0.69238294171E+03  0.31645559871E+02  0.70995210510E+03  0.46999998093E+01 0.  1.
</event>
<event>
 5   0  0.5532881E-04  0.1598750E+04  0.7818609E-02  0.8821316E-01
        1   -1    0    0  501    0  0.00000000000E+00  0.00000000000E+00  0.13761925679E+04  0.13761925679E+04  0.50400001928E-02 0.  1.
       -1   -1    0    0    0  501  0.00000000000E+00  0.00000000000E+00 -0.46432510325E+03  0.46432510328E+03  0.50400001928E-02 0. -1.
    10030    2    1    2    0    0  0.00000000000E+00  0.00000000000E+00  0.91186746466E+03  0.18405176712E+04  0.15987504574E+04 0.  0.
        4    1    3    3  502    0 -0.74701599264E+03 -0.20280571539E+03  0.22616143185E+03  0.80642027356E+03  0.12699999809E+01 0.  1.
       -4    1    3    3    0  502  0.74701599264E+03  0.20280571539E+03  0.68570603281E+03  0.10340973976E+04  0.12699999809E+01 0. -1.
</event>
<event>
 5   0  0.5623061E-04  0.1616373E+04  0.7818609E-02  0.8810552E-01
       -1   -1    0    0    0  501  0.00000000000E+00  0.00000000000E+00  0.11187139566E+04  0.11187139566E+04  0.50400001928E-02 0.  1.
        1   -1    0    0  501    0  0.00000000000E+00  0.00000000000E+00 -0.58385413034E+03  0.58385413037E+03  0.50400001928E-02 0. -1.
    10030    2    1    2    0    0  0.00000000000E+00  0.00000000000E+00  0.53485982628E+03  0.17025680870E+04  0.16163734275E+04 0.  0.
        3    1    3    3  502    0  0.24852628584E+03 -0.65000484858E+03 -0.16545262988E+03  0.71529448542E+03  0.10100000352E+00 0. -1.
       -3    1    3    3    0  502 -0.24852628584E+03  0.65000484858E+03  0.70031245616E+03  0.98727360159E+03  0.10100000352E+00 0.  1.
</event>
<event>
 5   0  0.5623061E-04  0.1599994E+04  0.7818609E-02  0.8820551E-01
       -1   -1    0    0    0  501  0.00000000000E+00  0.00000000000E+00  0.59022301506E+03  0.59022301508E+03  0.50400001928E-02 0.  1.
        1   -1    0    0  501    0  0.00000000000E+00  0.00000000000E+00 -0.10843281950E+04  0.10843281950E+04  0.50400001928E-02 0. -1.
    10030    2    1    2    0    0  0.00000000000E+00  0.00000000000E+00 -0.49410517993E+03  0.16745512101E+04  0.15999943207E+04 0.  0.
        3    1    3    3  502    0 -0.28359320765E+03 -0.74796436005E+03 -0.25850100903E+03  0.84065365829E+03  0.10100000352E+00 0. -1.
       -3    1    3    3    0  502  0.28359320765E+03  0.74796436005E+03 -0.23560417090E+03  0.83389755179E+03  0.10100000352E+00 0.  1.
</event>
<event>
 5   0  0.5425525E-04  0.1607107E+04  0.7818609E-02  0.8816194E-01
        1   -1    0    0  501    0  0.00000000000E+00  0.00000000000E+00  0.12590094203E+04  0.12590094203E+04  0.50400001928E-02 0.  1.
       -1   -1    0    0    0  501  0.00000000000E+00  0.00000000000E+00 -0.51286180943E+03  0.51286180946E+03  0.50400001928E-02 0. -1.
    10030    2    1    2    0    0  0.00000000000E+00  0.00000000000E+00  0.74614761088E+03  0.17718712298E+04  0.16071065297E+04 0.  0.
        5    1    3    3  502    0  0.18350621264E+03  0.56639152591E+03  0.96802942325E+03  0.11364756684E+04  0.46999998093E+01 0.  1.
       -5    1    3    3    0  502 -0.18350621264E+03 -0.56639152591E+03 -0.22188181237E+03  0.63539556133E+03  0.46999998093E+01 0. -1.
</event>
<event>
 5   0  0.1057872E-03  0.1595803E+04  0.7818609E-02  0.8823131E-01
        2   -1    0    0  501    0  0.00000000000E+00  0.00000000000E+00  0.11006557334E+04  0.11006557334E+04  0.25500000920E-02 0.  1.
       -2   -1    0    0    0  501  0.00000000000E+00  0.00000000000E+00 -0.57842466454E+03  0.57842466454E+03  0.25500000920E-02 0. -1.
    10030    2    1    2    0    0  0.00000000000E+00  0.00000000000E+00  0.52223106887E+03  0.16790803979E+04  0.15958025233E+04 0.  0.
        2    1    3    3  502    0  0.43933723030E+03 -0.43303613948E+03 -0.27136618092E+03  0.67392663115E+03  0.25500000920E-02 0. -1.
       -2    1    3    3    0  502 -0.43933723030E+03  0.43303613948E+03  0.79359724979E+03  0.10051537668E+04  0.25500000920E-02 0.  1.
</event>
<event>
 5   0  0.9844690E-04  0.1562012E+04  0.7818609E-02  0.8844231E-01
        2   -1    0    0  501    0  0.00000000000E+00  0.00000000000E+00  0.12344282926E+04  0.12344282926E+04  0.25500000920E-02 0. -1.
       -2   -1    0    0    0  501  0.00000000000E+00  0.00000000000E+00 -0.49413185498E+03  0.49413185498E+03  0.25500000920E-02 0.  1.
    10030    2    1    2    0    0  0.00000000000E+00  0.00000000000E+00  0.74029643765E+03  0.17285601476E+04  0.15620119616E+04 0.  0.
        3    1    3    3  502    0  0.28321558362E+03 -0.68162525206E+03  0.87696023725E+02  0.74331329453E+03  0.10100000352E+00 0.  1.
       -3    1    3    3    0  502 -0.28321558362E+03  0.68162525206E+03  0.65260041392E+03  0.98524685308E+03  0.10100000352E+00 0. -1.
</event>
<event>
 5   0  0.9844690E-04  0.1590546E+04  0.7818609E-02  0.8826377E-01
       -2   -1    0    0    0  501  0.00000000000E+00  0.00000000000E+00  0.12135538791E+04  0.12135538791E+04  0.25500000920E-02 0.  1.
        2   -1    0    0  501    0  0.00000000000E+00  0.00000000000E+00 -0.52116303287E+03  0.52116303287E+03  0.25500000920E-02 0. -1.
    10030    2    1    2    0    0  0.00000000000E+00  0.00000000000E+00  0.69239084622E+03  0.17347169120E+04  0.15905463466E+04 0.  0.
        3    1    3    3  502    0 -0.78087171312E+03 -0.26959017135E+02  0.18453006423E+03  0.80283172320E+03  0.10100000352E+00 0. -1.
       -3    1    3    3    0  502  0.78087171312E+03  0.26959017135E+02  0.50786078198E+03  0.93188518877E+03  0.10100000352E+00 0.  1.
</event>
<event>
 5   0  0.5281116E-04  0.1467396E+04  0.7818609E-02  0.8906428E-01
        1   -1    0    0  501    0  0.00000000000E+00  0.00000000000E+00  0.13788485939E+04  0.13788485939E+04  0.50400001928E-02 0.  1.
       -1   -1    0    0    0  501  0.00000000000E+00  0.00000000000E+00 -0.39040766550E+03  0.39040766553E+03  0.50400001928E-02 0. -1.
    10030    2    1    2    0    0  0.00000000000E+00  0.00000000000E+00  0.98844092843E+03  0.17692562595E+04  0.14673964163E+04 0.  0.
        2    1    3    3  502    0 -0.38415251312E+03 -0.62406582910E+03  0.53738674769E+03  0.90874409433E+03  0.25500000920E-02 0.  1.
       -2    1    3    3    0  502  0.38415251312E+03  0.62406582910E+03  0.45105418074E+03  0.86051216514E+03  0.25500000920E-02 0. -1.
</event>
<event>
 5   0  0.1000121E-03  0.1548181E+04  0.7818609E-02  0.8853030E-01
        2   -1    0    0  501    0  0.00000000000E+00  0.00000000000E+00  0.17811839291E+04  0.17811839291E+04  0.25500000920E-02 0. -1.
       -2   -1    0    0    0  501  0.00000000000E+00  0.00000000000E+00 -0.33641464081E+03  0.33641464082E+03  0.25500000920E-02 0.  1.
    10030    2    1    2    0    0  0.00000000000E+00  0.00000000000E+00  0.14447692883E+04  0.21175985699E+04  0.15481813224E+04 0.  0.
        4    1    3    3  502    0  0.31915764207E+03  0.55138689691E+03  0.12098034768E+03  0.64848050703E+03  0.12699999809E+01 0.  1.
       -4    1    3    3    0  502 -0.31915764207E+03 -0.55138689691E+03  0.13237889406E+04  0.14691180629E+04  0.12699999809E+01 0. -1.
</event>
<event>
 5   0  0.9844690E-04  0.1649622E+04  0.7818609E-02  0.8790630E-01
        2   -1    0    0  501    0  0.00000000000E+00  0.00000000000E+00  0.18166462373E+04  0.18166462373E+04  0.25500000920E-02 0.  1.
       -2   -1    0    0    0  501  0.00000000000E+00  0.00000000000E+00 -0.37448861013E+03  0.37448861014E+03  0.25500000920E-02 0. -1.
    10030    2    1    2    0    0  0.00000000000E+00  0.00000000000E+00  0.14421576272E+04  0.21911348475E+04  0.16496221683E+04 0.  0.
        3    1    3    3  502    0 -0.73349176251E+03  0.34185180999E+03  0.50921960471E+03  0.95612626869E+03  0.10100000352E+00 0.  1.
       -3    1    3    3    0  502  0.73349176251E+03 -0.34185180999E+03  0.93293802247E+03  0.12350085788E+04  0.10100000352E+00 0. -1.
</event>
<event>
 5   0  0.9844690E-04  0.1616438E+04  0.7818609E-02  0.8810512E-01
       -2   -1    0    0    0  501  0.00000000000E+00  0.00000000000E+00  0.28091683246E+03  0.28091683248E+03  0.25500000920E-02 0. -1.
        2   -1    0    0  501    0  0.00000000000E+00  0.00000000000E+00 -0.23253086426E+04  0.23253086426E+04  0.25500000920E-02 0.  1.
    10030    2    1    2    0    0  0.00000000000E+00  0.00000000000E+00 -0.20443918102E+04  0.26062254751E+04  0.16164384781E+04 0.  0.
        3    1    3    3  502    0 -0.61127242037E+03 -0.26985457239E+03 -0.17553040961E+04  0.18781820844E+04  0.10100000352E+00 0.  1.
       -3    1    3    3    0  502  0.61127242037E+03  0.26985457239E+03 -0.28908771406E+03  0.72804339071E+03  0.10100000352E+00 0. -1.
</event>
<event>
 5   0  0.9844690E-04  0.1612547E+04  0.7818609E-02  0.8812877E-01
       -2   -1    0    0    0  501  0.00000000000E+00  0.00000000000E+00  0.85258488614E+03  0.85258488615E+03  0.25500000920E-02 0. -1.
        2   -1    0    0  501    0  0.00000000000E+00  0.00000000000E+00 -0.76247781700E+03  0.76247781700E+03  0.25500000920E-02 0.  1.
    10030    2    1    2    0    0  0.00000000000E+00  0.00000000000E+00  0.90107069145E+02  0.16150627031E+04  0.16125471315E+04 0.  0.
        3    1    3    3  502    0 -0.58485383876E+03 -0.30960437314E+03  0.50638926109E+03  0.83327004898E+03  0.10100000352E+00 0. -1.
       -3    1    3    3    0  502  0.58485383876E+03  0.30960437314E+03 -0.41628219194E+03  0.78179265417E+03  0.10100000352E+00 0.  1.
</event>
<event>
 5   0  0.1037321E-03  0.1598839E+04  0.7818609E-02  0.8821262E-01
       -2   -1    0    0    0  501  0.00000000000E+00  0.00000000000E+00  0.61660348251E+03  0.61660348252E+03  0.25500000920E-02 0. -1.
        2   -1    0    0  501    0  0.00000000000E+00  0.00000000000E+00 -0.10364383406E+04  0.10364383406E+04  0.25500000920E-02 0.  1.
    10030    2    1    2    0    0  0.00000000000E+00  0.00000000000E+00 -0.41983485804E+03  0.16530418231E+04  0.15988389415E+04 0.  0.
        5    1    3    3  502    0 -0.43244818522E+03 -0.64947907272E+03 -0.38963465847E+03  0.87216498204E+03  0.46999998093E+01 0.  1.
       -5    1    3    3    0  502  0.43244818522E+03  0.64947907272E+03 -0.30200199567E+02  0.78087684103E+03  0.46999998093E+01 0. -1.
</event>
<event>
 5   0  0.5623061E-04  0.1617818E+04  0.7818609E-02  0.8809676E-01
        1   -1    0    0  501    0  0.00000000000E+00  0.00000000000E+00  0.60904610756E+03  0.60904610758E+03  0.50400001928E-02 0. -1.
       -1   -1    0    0    0  501  0.00000000000E+00  0.00000000000E+00 -0.10743587211E+04  0.10743587211E+04  0.50400001928E-02 0.  1.
    10030    2    1    2    0    0  0.00000000000E+00  0.00000000000E+00 -0.46531261351E+03  0.16834048287E+04  0.16178182805E+04 0.  0.
        3    1    3    3  502    0  0.21053930449E+02 -0.25775784750E+03 -0.10301823608E+04  0.10621478629E+04  0.10100000352E+00 0.  1.
       -3    1    3    3    0  502 -0.21053930449E+02  0.25775784750E+03  0.56486974728E+03  0.62125696578E+03  0.10100000352E+00 0. -1.
</event>
<event>
 5   0  0.3832500E-04  0.1606171E+04  0.7818609E-02  0.8816766E-01
        3   -1    0    0  501    0  0.00000000000E+00  0.00000000000E+00  0.70086281824E+03  0.70086282552E+03  0.10100000352E+00 0. -1.
       -3   -1    0    0    0  501  0.00000000000E+00  0.00000000000E+00 -0.92021811336E+03  0.92021811890E+03  0.10100000352E+00 0.  1.
    10030    2    1    2    0    0  0.00000000000E+00  0.00000000000E+00 -0.21935529512E+03  0.16210809444E+04  0.16061714363E+04 0.  0.
        5    1    3    3  502    0 -0.24065900347E+03  0.14703041525E+02 -0.88281163112E+03  0.91515649013E+03  0.46999998093E+01 0.  1.
       -5    1    3    3    0  502  0.24065900347E+03 -0.14703041525E+02  0.66345633601E+03  0.70592445429E+03  0.46999998093E+01 0. -1.
</event>
<event>
 5   0  0.5281116E-04  0.1598650E+04  0.7818609E-02  0.8821378E-01
        1   -1    0    0  501    0  0.00000000000E+00  0.00000000000E+00  0.10631233895E+04  0.10631233895E+04  0.50400001928E-02 0. -1.
       -1   -1    0    0    0  501  0.00000000000E+00  0.00000000000E+00 -0.60098428202E+03  0.60098428204E+03  0.50400001928E-02 0.  1.
    10030    2    1    2    0    0  0.00000000000E+00  0.00000000000E+00  0.46213910744E+03  0.16641076715E+04  0.15986499891E+04 0.  0.
        2    1    3    3  502    0  0.12802449333E+03 -0.28707979803E+03 -0.53394782306E+03  0.61960096763E+03  0.25500000920E-02 0.  1.
       -2    1    3    3    0  502 -0.12802449333E+03  0.28707979803E+03  0.99608693050E+03  0.10445067039E+04  0.25500000920E-02 0. -1.
</event>
<event>
 5   0  0.5532881E-04  0.1374293E+04  0.7818609E-02  0.8972640E-01
        1   -1    0    0  501    0  0.00000000000E+00  0.00000000000E+00  0.17444608483E+04  0.17444608483E+04  0.50400001928E-02 0. -1.
       -1   -1    0    0    0  501  0.00000000000E+00  0.00000000000E+00 -0.27066841877E+03  0.27066841882E+03  0.50400001928E-02 0.  1.
    10030    2    1    2    0    0  0.00000000000E+00  0.00000000000E+00  0.14737924295E+04  0.20151292671E+04  0.13742932139E+04 0.  0.
        4    1    3    3  502    0 -0.23323866450E+03  0.20301261544E+03 -0.16288599201E+03  0.34949657500E+03  0.12699999809E+01 0.  1.
       -4    1    3    3    0  502  0.23323866450E+03 -0.20301261544E+03  0.16366784215E+04  0.16656326921E+04  0.12699999809E+01 0. -1.
</event>
<event>
 5   0  0.9844690E-04  0.1443213E+04  0.7818609E-02  0.8923119E-01
        2   -1    0    0  501    0  0.00000000000E+00  0.00000000000E+00  0.60595086336E+03  0.60595086337E+03  0.25500000920E-02 0. -1.
       -2   -1    0    0    0  501  0.00000000000E+00  0.00000000000E+00 -0.85933682757E+03  0.85933682757E+03  0.25500000920E-02 0.  1.
    10030    2    1    2    0    0  0.00000000000E+00  0.00000000000E+00 -0.25338596421E+03  0.14652876909E+04  0.14432129331E+04 0.  0.
        3    1    3    3  502    0 -0.97412518366E+02 -0.42373943436E+03  0.45802522351E+03  0.63153101470E+03  0.10100000352E+00 0. -1.
       -3    1    3    3    0  502  0.97412518366E+02  0.42373943436E+03 -0.71141118771E+03  0.83375667624E+03  0.10100000352E+00 0.  1.
</event>
<event>
 5   0  0.9844690E-04  0.1610734E+04  0.7818609E-02  0.8813981E-01
        2   -1    0    0  501    0  0.00000000000E+00  0.00000000000E+00  0.85255349120E+03  0.85255349120E+03  0.25500000920E-02 0.  1.
       -2   -1    0    0    0  501  0.00000000000E+00  0.00000000000E+00 -0.76079247148E+03  0.76079247148E+03  0.25500000920E-02 0. -1.
    10030    2    1    2    0    0  0.00000000000E+00  0.00000000000E+00  0.91761019718E+02  0.16133459627E+04  0.16107343389E+04 0.  0.
        3    1    3    3  502    0 -0.49271203012E+03 -0.34843090093E+03  0.58008101091E+03  0.83705628650E+03  0.10100000352E+00 0.  1.
       -3    1    3    3    0  502  0.49271203012E+03  0.34843090093E+03 -0.48831999120E+03  0.77628967618E+03  0.10100000352E+00 0. -1.
</event>
<event>
 5   0  0.1030027E-03  0.1604089E+04  0.7818609E-02  0.8818040E-01
       -2   -1    0    0    0  501  0.00000000000E+00  0.00000000000E+00  0.38472225760E+03  0.38472225761E+03  0.25500000920E-02 0.  1.
        2   -1    0    0  501    0  0.00000000000E+00  0.00000000000E+00 -0.16720508682E+04  0.16720508682E+04  0.25500000920E-02 0. -1.
    10030    2    1    2    0    0  0.00000000000E+00  0.00000000000E+00 -0.12873286106E+04  0.20567731258E+04  0.16040887567E+04 0.  0.
        1    1    3    3  502    0 -0.56316224360E+03 -0.27042960118E+03  0.12630378538E+01  0.62472832263E+03  0.50400001928E-02 0.  1.
       -1    1    3    3    0  502  0.56316224360E+03  0.27042960118E+03 -0.12885916485E+04  0.14320448032E+04  0.50400001928E-02 0. -1.
</event>
<event>
 5   0  0.5288658E-04  0.1205544E+04  0.7818609E-02  0.9108017E-01
        1   -1    0    0  501    0  0.00000000000E+00  0.00000000000E+00  0.20903936648E+04  0.20903936648E+04  0.50400001928E-02 0.  1.
       -1   -1    0    0    0  501  0.00000000000E+00  0.00000000000E+00 -0.17381138358E+03  0.17381138365E+03  0.50400001928E-02 0. -1.
    10030    2    1    2    0    0  0.00000000000E+00  0.00000000000E+00  0.19165822812E+04  0.22642050485E+04  0.12055442177E+04 0.  0.
        1    1    3    3  502    0  0.52436541626E+03 -0.24671224571E+03  0.64678712956E+03  0.86842363679E+03  0.50400001928E-02 0. -1.
       -1    1    3    3    0  502 -0.52436541626E+03  0.24671224571E+03  0.12697951517E+04  0.13957814117E+04  0.50400001928E-02 0.  1.
</event>
<event>
 5   0  0.1057872E-03  0.1579373E+04  0.7818609E-02  0.8833321E-01
        2   -1    0    0  501    0  0.00000000000E+00  0.00000000000E+00  0.64613277848E+03  0.64613277849E+03  0.25500000920E-02 0.  1.
       -2   -1    0    0    0  501  0.00000000000E+00  0.00000000000E+00 -0.96513356303E+03  0.96513356303E+03  0.25500000920E-02 0. -1.
    10030    2    1    2    0    0  0.00000000000E+00  0.00000000000E+00 -0.31900078455E+03  0.16112663415E+04  0.15793725725E+04 0.  0.
        2    1    3    3  502    0  0.76620243643E+03 -0.13819895186E+03 -0.24775652869E+02  0.77896017669E+03  0.25500000920E-02 0. -1.
       -2    1    3    3    0  502 -0.76620243643E+03  0.13819895186E+03 -0.29422513168E+03  0.83230616483E+03  0.25500000920E-02 0.  1.
</event>
<event>
 5   0  0.9844690E-04  0.1373220E+04  0.7818609E-02  0.8973435E-01
        2   -1    0    0  501    0  0.00000000000E+00  0.00000000000E+00  0.60544705467E+03  0.60544705468E+03  0.25500000920E-02 0. -1.
       -2   -1    0    0    0  501  0.00000000000E+00  0.00000000000E+00 -0.77865291871E+03  0.77865291871E+03  0.25500000920E-02 0.  1.
    10030    2    1    2    0    0  0.00000000000E+00  0.00000000000E+00 -0.17320586403E+03  0.13840999734E+04  0.13732197439E+04 0.  0.
        3    1    3    3  502    0  0.31978866580E+03  0.86391310210E+02  0.51958123869E+03  0.61619227766E+03  0.10100000352E+00 0. -1.
       -3    1    3    3    0  502 -0.31978866580E+03 -0.86391310210E+02 -0.69278710272E+03  0.76790769572E+03  0.10100000352E+00 0.  1.
</event>
<event>
 5   0  0.5288658E-04  0.1684133E+04  0.7818609E-02  0.8770466E-01
        1   -1    0    0  501    0  0.00000000000E+00  0.00000000000E+00  0.75729341996E+03  0.75729341997E+03  0.50400001928E-02 0. -1.
       -1   -1    0    0    0  501  0.00000000000E+00  0.00000000000E+00 -0.93632929392E+03  0.93632929393E+03  0.50400001928E-02 0.  1.
    10030    2    1    2    0    0  0.00000000000E+00  0.00000000000E+00 -0.17903587396E+03  0.16936227139E+04  0.16841330271E+04 0.  0.
        1    1    3    3  502    0 -0.10915146156E+03  0.51889613146E+03 -0.74735126690E+03  0.91635209007E+03  0.50400001928E-02 0.  1.
       -1    1    3    3    0  502  0.10915146156E+03 -0.51889613146E+03  0.56831539294E+03  0.77727062384E+03  0.50400001928E-02 0. -1.
</event>
<event>
 5   0  0.1000121E-03  0.1643814E+04  0.7818609E-02  0.8794074E-01
       -2   -1    0    0    0  501  0.00000000000E+00  0.00000000000E+00  0.97220796322E+03  0.97220796322E+03  0.25500000920E-02 0. -1.
        2   -1    0    0  501    0  0.00000000000E+00  0.00000000000E+00 -0.69484224328E+03  0.69484224329E+03  0.25500000920E-02 0.  1.
    10030    2    1    2    0    0  0.00000000000E+00  0.00000000000E+00  0.27736571993E+03  0.16670502065E+04  0.16438140553E+04 0.  0.
        4    1    3    3  502    0 -0.33394023785E+03  0.29541789956E+03  0.83890779962E+03  0.95002932955E+03  0.12699999809E+01 0. -1.
       -4    1    3    3    0  502  0.33394023785E+03 -0.29541789956E+03 -0.56154207969E+03  0.71702087696E+03  0.12699999809E+01 0.  1.
</event>
<event>
 5   0  0.5425525E-04  0.1607119E+04  0.7818609E-02  0.8816186E-01
        1   -1    0    0  501    0  0.00000000000E+00  0.00000000000E+00  0.48008069048E+03  0.48008069051E+03  0.50400001928E-02 0. -1.
       -1   -1    0    0    0  501  0.00000000000E+00  0.00000000000E+00 -0.13449989302E+04  0.13449989302E+04  0.50400001928E-02 0.  1.
    10030    2    1    2    0    0  0.00000000000E+00  0.00000000000E+00 -0.86491823976E+03  0.18250796208E+04  0.16071191806E+04 0.  0.
        5    1    3    3  502    0  0.23672537527E+03 -0.83933520881E+02 -0.12992608835E+04  0.13233233439E+04  0.46999998093E+01 0.  1.
       -5    1    3    3    0  502 -0.23672537527E+03  0.83933520881E+02  0.43434264371E+03  0.50175627685E+03  0.46999998093E+01 0. -1.
</event>
<event>
 5   0  0.1037321E-03  0.1609788E+04  0.7818609E-02  0.8814557E-01
       -2   -1    0    0    0  501  0.00000000000E+00  0.00000000000E+00  0.53244835558E+03  0.53244835559E+03  0.25500000920E-02 0. -1.
        2   -1    0    0  501    0  0.00000000000E+00  0.00000000000E+00 -0.12167457022E+04  0.12167457022E+04  0.25500000920E-02 0.  1.
    10030    2    1    2    0    0  0.00000000000E+00  0.00000000000E+00 -0.68429734666E+03  0.17491940578E+04  0.16097878722E+04 0.  0.
        5    1    3    3  502    0 -0.72415304030E+02  0.50870912491E+03  0.33101960502E+03  0.61124873736E+03  0.46999998093E+01 0. -1.
       -5    1    3    3    0  502  0.72415304030E+02 -0.50870912491E+03 -0.10153169517E+04  0.11379453205E+04  0.46999998093E+01 0.  1.
</event>
<event>
 5   0  0.1000121E-03  0.1150786E+04  0.7818609E-02  0.9157059E-01
       -2   -1    0    0    0  501  0.00000000000E+00  0.00000000000E+00  0.38778152960E+03  0.38778152961E+03  0.25500000920E-02 0.  1.
        2   -1    0    0  501    0  0.00000000000E+00  0.00000000000E+00 -0.85377183120E+03  0.85377183121E+03  0.25500000920E-02 0. -1.
    10030    2    1    2    0    0  0.00000000000E+00  0.00000000000E+00 -0.46599030160E+03  0.12415533608E+04  0.11507857257E+04 0.  0.
        4    1    3    3  502    0  0.14886401578E+03 -0.50651943764E+02  0.36414917846E+03  0.39665142339E+03  0.12699999809E+01 0.  1.
       -4    1    3    3    0  502 -0.14886401578E+03  0.50651943764E+02 -0.83013948007E+03  0.84490193743E+03  0.12699999809E+01 0. -1.
</event>
<event>
 5   0  0.9844690E-04  0.1622356E+04  0.7818609E-02  0.8806930E-01
        2   -1    0    0  501    0  0.00000000000E+00  0.00000000000E+00  0.61636525234E+03  0.61636525234E+03  0.25500000920E-02 0.  1.
       -2   -1    0    0    0  501  0.00000000000E+00  0.00000000000E+00 -0.10675650259E+04  0.10675650259E+04  0.25500000920E-02 0. -1.
    10030    2    1    2    0    0  0.00000000000E+00  0.00000000000E+00 -0.45119977361E+03  0.16839302783E+04  0.16223562945E+04 0.  0.
        3    1    3    3  502    0 -0.36172330979E+03  0.62001841756E+03 -0.61775317794E+03  0.94704043737E+03  0.10100000352E+00 0. -1.
       -3    1    3    3    0  502  0.36172330979E+03 -0.62001841756E+03  0.16655340433E+03  0.73688984092E+03  0.10100000352E+00 0.  1.
</event>
<event>
 5   0  0.9844690E-04  0.1658835E+04  0.7818609E-02  0.8785197E-01
       -2   -1    0    0    0  501  0.00000000000E+00  0.00000000000E+00  0.32691746193E+03  0.32691746194E+03  0.25500000920E-02 0. -1.
        2   -1    0    0  501    0  0.00000000000E+00  0.00000000000E+00 -0.21043032269E+04  0.21043032269E+04  0.25500000920E-02 0.  1.
    10030    2    1    2    0    0  0.00000000000E+00  0.00000000000E+00 -0.17773857650E+04  0.24312206889E+04  0.16588350974E+04 0.  0.
        3    1    3    3  502    0  0.37757748560E+02 -0.26300207362E+03 -0.20402422858E+04  0.20574703724E+04  0.10100000352E+00 0.  1.
       -3    1    3    3    0  502 -0.37757748560E+02  0.26300207362E+03  0.26285652083E+03  0.37375031645E+03  0.10100000352E+00 0. -1.
</event>
<event>
 5   0  0.1000121E-03  0.1609347E+04  0.7818609E-02  0.8814826E-01
       -2   -1    0    0    0  501  0.00000000000E+00  0.00000000000E+00  0.41527948997E+03  0.41527948998E+03  0.25500000920E-02 0. -1.
        2   -1    0    0  501    0  0.00000000000E+00  0.00000000000E+00 -0.15591889925E+04  0.15591889925E+04  0.25500000920E-02 0.  1.
    10030    2    1    2    0    0  0.00000000000E+00  0.00000000000E+00 -0.11439095025E+04  0.19744684825E+04  0.16093467117E+04 0.  0.
        4    1    3    3  502    0  0.16968346263E+03  0.60513762659E+02  0.39021876908E+03  0.42979843369E+03  0.12699999809E+01 0. -1.
       -4    1    3    3    0  502 -0.16968346263E+03 -0.60513762659E+02 -0.15341282716E+04  0.15446700488E+04  0.12699999809E+01 0.  1.
</event>
<event>
 5   0  0.9844690E-04  0.1429392E+04  0.7818609E-02  0.8932813E-01
        2   -1    0    0  501    0  0.00000000000E+00  0.00000000000E+00  0.19790546616E+04  0.19790546616E+04  0.25500000920E-02 0. -1.
       -2   -1    0    0    0  501  0.00000000000E+00  0.00000000000E+00 -0.25809826724E+03  0.25809826725E+03  0.25500000920E-02 0.  1.
    10030    2    1    2    0    0  0.00000000000E+00  0.00000000000E+00  0.17209563943E+04  0.22371529288E+04  0.14293922890E+04 0.  0.
        3    1    3    3  502    0 -0.63897503676E+03 -0.64278120150E+02  0.36959844367E+03  0.74096139852E+03  0.10100000352E+00 0.  1.
       -3    1    3    3    0  502  0.63897503676E+03  0.64278120150E+02  0.13513579507E+04  0.14961915303E+04  0.10100000352E+00 0. -1.
</event>
<event>
 5   0  0.3832500E-04  0.1606178E+04  0.7818609E-02  0.8816762E-01
        3   -1    0    0  501    0  0.00000000000E+00  0.00000000000E+00  0.46677934406E+03  0.46677935498E+03  0.10100000352E+00 0.  1.
       -3   -1    0    0    0  501  0.00000000000E+00  0.00000000000E+00 -0.13817063386E+04  0.13817063423E+04  0.10100000352E+00 0. -1.
    10030    2    1    2    0    0  0.00000000000E+00  0.00000000000E+00 -0.91492699451E+03  0.18484856972E+04  0.16061780622E+04 0.  0.
        5    1    3    3  502    0  0.42945798520E+03 -0.38068649753E+03  0.18904269604E+03  0.60424796349E+03  0.46999998093E+01 0.  1.
       -5    1    3    3    0  502 -0.42945798520E+03  0.38068649753E+03 -0.11039696905E+04  0.12442377338E+04  0.46999998093E+01 0. -1.
</event>
<event>
 5   0  0.5425525E-04  0.1618194E+04  0.7818609E-02  0.8809448E-01
        1   -1    0    0  501    0  0.00000000000E+00  0.00000000000E+00  0.77774178808E+03  0.77774178810E+03  0.50400001928E-02 0.  1.
       -1   -1    0    0    0  501  0.00000000000E+00  0.00000000000E+00 -0.84171642678E+03  0.84171642680E+03  0.50400001928E-02 0. -1.
    10030    2    1    2    0    0  0.00000000000E+00  0.00000000000E+00 -0.63974638704E+02  0.16194582149E+04  0.16181941031E+04 0.  0.
        5    1    3    3  502    0 -0.67376778284E+03 -0.36682542464E+02 -0.47877454928E+03  0.82737886917E+03  0.46999998093E+01 0. -1.
       -5    1    3    3    0  502  0.67376778284E+03  0.36682542464E+02  0.41479991057E+03  0.79207934573E+03  0.46999998093E+01 0.  1.
</event>
<event>
 5   0  0.1030027E-03  0.1613423E+04  0.7818609E-02  0.8812344E-01
        2   -1    0    0  501    0  0.00000000000E+00  0.00000000000E+00  0.15916563872E+04  0.15916563872E+04  0.25500000920E-02 0.  1.
       -2   -1    0    0    0  501  0.00000000000E+00  0.00000000000E+00 -0.40887175373E+03  0.40887175374E+03  0.25500000920E-02 0. -1.
    10030    2    1    2    0    0  0.00000000000E+00  0.00000000000E+00  0.11827846335E+04  0.20005281409E+04  0.16134228688E+04 0.  0.
        1    1    3    3  502    0  0.78124024877E+03 -0.19649534638E+03  0.53825462662E+03  0.96884714509E+03  0.50400001928E-02 0.  1.
       -1    1    3    3    0  502 -0.78124024877E+03  0.19649534638E+03  0.64453000684E+03  0.10316809958E+04  0.50400001928E-02 0. -1.
</event>
<event>
 5   0  0.5288658E-04  0.1595552E+04  0.7818609E-02  0.8823285E-01
        1   -1    0    0  501    0  0.00000000000E+00  0.00000000000E+00  0.14005304681E+04  0.14005304681E+04  0.50400001928E-02 0.  1.
       -1   -1    0    0    0  501  0.00000000000E+00  0.00000000000E+00 -0.45443236447E+03  0.45443236450E+03  0.50400001928E-02 0. -1.
    10030    2    1    2    0    0  0.00000000000E+00  0.00000000000E+00  0.94609810362E+03  0.18549628326E+04  0.15955517819E+04 0.  0.
        1    1    3    3  502    0 -0.56350215676E+03 -0.37530588738E+03 -0.17524417260E+02  0.67727121229E+03  0.50400001928E-02 0. -1.
       -1    1    3    3    0  502  0.56350215676E+03  0.37530588738E+03  0.96362252088E+03  0.11776916203E+04  0.50400001928E-02 0.  1.
</event>
<event>
 5   0  0.1000121E-03  0.1576411E+04  0.7818609E-02  0.8835172E-01
        2   -1    0    0  501    0  0.00000000000E+00  0.00000000000E+00  0.41121334117E+03  0.41121334118E+03  0.25500000920E-02 0.  1.
       -2   -1    0    0    0  501  0.00000000000E+00  0.00000000000E+00 -0.15108164963E+04  0.15108164963E+04  0.25500000920E-02 0. -1.
    10030    2    1    2    0    0  0.00000000000E+00  0.00000000000E+00 -0.10996031551E+04  0.19220298374E+04  0.15764109862E+04 0.  0.
        4    1    3    3  502    0  0.48174142727E+03 -0.60700171961E+03 -0.72539134167E+03  0.10614707258E+04  0.12699999809E+01 0. -1.
       -4    1    3    3    0  502 -0.48174142727E+03  0.60700171961E+03 -0.37421181341E+03  0.86055911160E+03  0.12699999809E+01 0.  1.
</event>
<event>
 5   0  0.1000121E-03  0.1559517E+04  0.7818609E-02  0.8845812E-01
        2   -1    0    0  501    0  0.00000000000E+00  0.00000000000E+00  0.10907412861E+04  0.10907412861E+04  0.25500000920E-02 0.  1.
       -2   -1    0    0    0  501  0.00000000000E+00  0.00000000000E+00 -0.55744043630E+03  0.55744043631E+03  0.25500000920E-02 0. -1.
    10030    2    1    2    0    0  0.00000000000E+00  0.00000000000E+00  0.53330084976E+03  0.16481817224E+04  0.15595169745E+04 0.  0.
        4    1    3    3  502    0 -0.38445593221E+03 -0.39014845806E+03  0.85318010683E+03  0.10138738041E+04  0.12699999809E+01 0.  1.
       -4    1    3    3    0  502  0.38445593221E+03  0.39014845806E+03 -0.31987925706E+03  0.63430791824E+03  0.12699999809E+01 0. -1.
</event>
<event>
 5   0  0.3832500E-04  0.1616970E+04  0.7818609E-02  0.8810190E-01
       -3   -1    0    0    0  501  0.00000000000E+00  0.00000000000E+00  0.55549978637E+03  0.55549979555E+03  0.10100000352E+00 0.  1.
        3   -1    0    0  501    0  0.00000000000E+00  0.00000000000E+00 -0.11766837687E+04  0.11766837731E+04  0.10100000352E+00 0. -1.
    10030    2    1    2    0    0  0.00000000000E+00  0.00000000000E+00 -0.62118398236E+03  0.17321835686E+04  0.16169695036E+04 0.  0.
        4    1    3    3  502    0 -0.56664539410E+03 -0.37916778108E+03  0.15486811775E+03  0.69917162103E+03  0.12699999809E+01 0.  1.
       -4    1    3    3    0  502  0.56664539410E+03  0.37916778108E+03 -0.77605210011E+03  0.10330119476E+04  0.12699999809E+01 0. -1.
</event>
<event>
 5   0  0.1000121E-03  0.1315878E+04  0.7818609E-02  0.9017068E-01
       -2   -1    0    0    0  501  0.00000000000E+00  0.00000000000E+00  0.34407476399E+03  0.34407476400E+03  0.25500000920E-02 0.  1.
        2   -1    0    0  501    0  0.00000000000E+00  0.00000000000E+00 -0.12581089803E+04  0.12581089804E+04  0.25500000920E-02 0. -1.
    10030    2    1    2    0    0  0.00000000000E+00  0.00000000000E+00 -0.91403421636E+03  0.16021837443E+04  0.13158777306E+04 0.  0.
        4    1    3    3  502    0  0.17292359442E+02  0.53775346162E+03 -0.91809851336E+03  0.10641354727E+04  0.12699999809E+01 0. -1.
       -4    1    3    3    0  502 -0.17292359442E+02 -0.53775346162E+03  0.40642970032E+01  0.53804827162E+03  0.12699999809E+01 0.  1.
</event>
<event>
 5   0  0.1030027E-03  0.1521376E+04  0.7818609E-02  0.8870361E-01
        2   -1    0    0  501    0  0.00000000000E+00  0.00000000000E+00  0.10132598365E+04  0.10132598365E+04  0.25500000920E-02 0.  1.
       -2   -1    0    0    0  501  0.00000000000E+00  0.00000000000E+00 -0.57107396226E+03  0.57107396226E+03  0.25500000920E-02 0. -1.
    10030    2    1    2    0    0  0.00000000000E+00  0.00000000000E+00  0.44218587422E+03  0.15843337987E+04  0.15213761003E+04 0.  0.
        1    1    3    3  502    0  0.28532715704E+03  0.55973191250E+03 -0.22553118828E+03  0.66751458211E+03  0.50400001928E-02 0. -1.
       -1    1    3    3    0  502 -0.28532715704E+03 -0.55973191250E+03  0.66771706250E+03  0.91681921664E+03  0.50400001928E-02 0.  1.
</event>
<event>
 5   0  0.5532881E-04  0.1641503E+04  0.7818609E-02  0.8795449E-01
       -1   -1    0    0    0  501  0.00000000000E+00  0.00000000000E+00  0.40883393680E+03  0.40883393683E+03  0.50400001928E-02 0. -1.
        1   -1    0    0  501    0  0.00000000000E+00  0.00000000000E+00 -0.16476928080E+04  0.16476928080E+04  0.50400001928E-02 0.  1.
    10030    2    1    2    0    0  0.00000000000E+00  0.00000000000E+00 -0.12388588712E+04  0.20565267448E+04  0.16415026498E+04 0.  0.
        4    1    3    3  502    0  0.76893570989E+03 -0.27361692815E+03 -0.72794792482E+03  0.10936352881E+04  0.12699999809E+01 0.  1.
       -4    1    3    3    0  502 -0.76893570989E+03  0.27361692815E+03 -0.51091094635E+03  0.96289145666E+03  0.12699999809E+01 0. -1.
</event>
<event>
 5   0  0.3832500E-04  0.1600905E+04  0.7818609E-02  0.8819992E-01
        3   -1    0    0  501    0  0.00000000000E+00  0.00000000000E+00  0.50484483412E+03  0.50484484422E+03  0.10100000352E+00 0.  1.
       -3   -1    0    0    0  501  0.00000000000E+00  0.00000000000E+00 -0.12691513252E+04  0.12691513292E+04  0.10100000352E+00 0. -1.
    10030    2    1    2    0    0  0.00000000000E+00  0.00000000000E+00 -0.76430649109E+03  0.17739961735E+04  0.16009053723E+04 0.  0.
        4    1    3    3  502    0  0.45646353205E+03 -0.35798799780E+03 -0.99333827568E+03  0.11503203491E+04  0.12699999809E+01 0. -1.
       -4    1    3    3    0  502 -0.45646353205E+03  0.35798799780E+03  0.22903178459E+03  0.62367582438E+03  0.12699999809E+01 0.  1.
</event>
<event>
 5   0  0.5425525E-04  0.1590247E+04  0.7818609E-02  0.8826562E-01
        1   -1    0    0  501    0  0.00000000000E+00  0.00000000000E+00  0.16941007374E+04  0.16941007374E+04  0.50400001928E-02 0.  1.
       -1   -1    0    0    0  501  0.00000000000E+00  0.00000000000E+00 -0.37319002381E+03  0.37319002384E+03  0.50400001928E-02 0. -1.
    10030    2    1    2    0    0  0.00000000000E+00  0.00000000000E+00  0.13209107136E+04  0.20672907612E+04  0.15902471437E+04 0.  0.
        5    1    3    3  502    0  0.58197316058E+03 -0.27666989219E+03  0.12659735435E+04  0.14205457021E+04  0.46999998093E+01 0.  1.
       -5    1    3    3    0  502 -0.58197316058E+03  0.27666989219E+03  0.54937170094E+02  0.64674505916E+03  0.46999998093E+01 0. -1.
</event>
<event>
 5   0  0.1000121E-03  0.1616720E+04  0.7818609E-02  0.8810341E-01
       -2   -1    0    0    0  501  0.00000000000E+00  0.00000000000E+00  0.58798706760E+03  0.58798706761E+03  0.25500000920E-02 0.  1.
        2   -1    0    0  501    0  0.00000000000E+00  0.00000000000E+00 -0.11113272897E+04  0.11113272897E+04  0.25500000920E-02 0. -1.
    10030    2    1    2    0    0  0.00000000000E+00  0.00000000000E+00 -0.52334022213E+03  0.16993143573E+04  0.16167202284E+04 0.  0.
        4    1    3    3  502    0  0.55657638376E+03  0.58570761058E+03 -0.23562974454E+03  0.84163749053E+03  0.12699999809E+01 0. -1.
       -4    1    3    3    0  502 -0.55657638376E+03 -0.58570761058E+03 -0.28771047759E+03  0.85767686681E+03  0.12699999809E+01 0.  1.
</event>
<event>
 5   0  0.1030027E-03  0.1551179E+04  0.7818609E-02  0.8851115E-01
        2   -1    0    0  501    0  0.00000000000E+00  0.00000000000E+00  0.49574715390E+03  0.49574715390E+03  0.25500000920E-02 0. -1.
       -2   -1    0    0    0  501  0.00000000000E+00  0.00000000000E+00 -0.12133992883E+04  0.12133992883E+04  0.25500000920E-02 0.  1.
    10030    2    1    2    0    0  0.00000000000E+00  0.00000000000E+00 -0.71765213436E+03  0.17091464422E+04  0.15511792207E+04 0.  0.
        1    1    3    3  502    0 -0.33302798206E+03  0.48944363412E+03  0.19327725559E+03  0.62275099789E+03  0.50400001928E-02 0. -1.
       -1    1    3    3    0  502  0.33302798206E+03 -0.48944363412E+03 -0.91092938995E+03  0.10863954443E+04  0.50400001928E-02 0.  1.
</event>
<event>
 5   0  0.1057872E-03  0.1589802E+04  0.7818609E-02  0.8826838E-01
       -2   -1    0    0    0  501  0.00000000000E+00  0.00000000000E+00  0.50819290235E+03  0.50819290235E+03  0.25500000920E-02 0. -1.
        2   -1    0    0  501    0  0.00000000000E+00  0.00000000000E+00 -0.12433619495E+04  0.12433619495E+04  0.25500000920E-02 0.  1.
    10030    2    1    2    0    0  0.00000000000E+00  0.00000000000E+00 -0.73516904718E+03  0.17515548519E+04  0.15898021484E+04 0.  0.
        2    1    3    3  502    0 -0.20692398435E+03 -0.70304624756E+02  0.47444444434E+03  0.52235792932E+03  0.25500000920E-02 0. -1.
       -2    1    3    3    0  502  0.20692398435E+03  0.70304624756E+02 -0.12096134915E+04  0.12291969226E+04  0.25500000920E-02 0.  1.
</event>
<event>
 5   0  0.1037321E-03  0.1047209E+04  0.7818609E-02  0.9258230E-01
       -2   -1    0    0    0  501  0.00000000000E+00  0.00000000000E+00  0.51197012326E+03  0.51197012327E+03  0.25500000920E-02 0. -1.
        2   -1    0    0  501    0  0.00000000000E+00  0.00000000000E+00 -0.53550371736E+03  0.53550371737E+03  0.25500000920E-02 0.  1.
    10030    2    1    2    0    0  0.00000000000E+00  0.00000000000E+00 -0.23533594100E+02  0.10474738406E+04  0.10472094426E+04 0.  0.
        5    1    3    3  502    0 -0.29150775831E+03  0.25253308524E+03  0.34242722679E+03  0.51577924341E+03  0.46999998093E+01 0. -1.
       -5    1    3    3    0  502  0.29150775831E+03 -0.25253308524E+03 -0.36596082089E+03  0.53169459722E+03  0.46999998093E+01 0.  1.
</event>
<event>
 5   0  0.1057872E-03  0.1674080E+04  0.7818609E-02  0.8776287E-01
       -2   -1    0    0    0  501  0.00000000000E+00  0.00000000000E+00  0.91406840062E+03  0.91406840062E+03  0.25500000920E-02 0.  1.
        2   -1    0    0  501    0  0.00000000000E+00  0.00000000000E+00 -0.76650232213E+03  0.76650232214E+03  0.25500000920E-02 0. -1.
    10030    2    1    2    0    0  0.00000000000E+00  0.00000000000E+00  0.14756607849E+03  0.16805707228E+04  0.16740795103E+04 0.  0.
        2    1    3    3  502    0  0.12032886353E+03  0.80164964716E+03  0.28319284310E+03  0.85867303357E+03  0.25500000920E-02 0. -1.
       -2    1    3    3    0  502 -0.12032886353E+03 -0.80164964716E+03 -0.13562676462E+03  0.82189768918E+03  0.25500000920E-02 0.  1.
</event>
<event>
 5   0  0.5623061E-04  0.1630413E+04  0.7818609E-02  0.8802079E-01
        1   -1    0    0  501    0  0.00000000000E+00  0.00000000000E+00  0.11182026069E+04  0.11182026069E+04  0.50400001928E-02 0. -1.
       -1   -1    0    0    0  501  0.00000000000E+00  0.00000000000E+00 -0.59431238781E+03  0.59431238783E+03  0.50400001928E-02 0.  1.
    10030    2    1    2    0    0  0.00000000000E+00  0.00000000000E+00  0.52389021910E+03  0.17125149948E+04  0.16304130291E+04 0.  0.
        3    1    3    3  502    0 -0.50711022647E+03  0.43420768569E+03 -0.22944279531E+03  0.70593278903E+03  0.10100000352E+00 0.  1.
       -3    1    3    3    0  502  0.50711022647E+03 -0.43420768569E+03  0.75333301441E+03  0.10065822057E+04  0.10100000352E+00 0. -1.
</event>
<event>
 5   0  0.1030027E-03  0.1608702E+04  0.7818609E-02  0.8815220E-01
       -2   -1    0    0    0  501  0.00000000000E+00  0.00000000000E+00  0.82838369284E+03  0.82838369285E+03  0.25500000920E-02 0. -1.
        2   -1    0    0  501    0  0.00000000000E+00  0.00000000000E+00 -0.78101549637E+03  0.78101549637E+03  0.25500000920E-02 0.  1.
    10030    2    1    2    0    0  0.00000000000E+00  0.00000000000E+00  0.47368196472E+02  0.16093991892E+04  0.16087019625E+04 0.  0.
        1    1    3    3  502    0 -0.70936068084E+03 -0.22578336762E+03  0.32846313811E+03  0.81366991940E+03  0.50400001928E-02 0. -1.
       -1    1    3    3    0  502  0.70936068084E+03  0.22578336762E+03 -0.28109494164E+03  0.79572926982E+03  0.50400001928E-02 0.  1.
</event>
<event>
 5   0  0.5281116E-04  0.1548971E+04  0.7818609E-02  0.8852525E-01
        1   -1    0    0  501    0  0.00000000000E+00  0.00000000000E+00  0.94515927651E+03  0.94515927653E+03  0.50400001928E-02 0.  1.
       -1   -1    0    0    0  501  0.00000000000E+00  0.00000000000E+00 -0.63463136939E+03  0.63463136941E+03  0.50400001928E-02 0. -1.
    10030    2    1    2    0    0  0.00000000000E+00  0.00000000000E+00  0.31052790713E+03  0.15797906459E+04  0.15489709177E+04 0.  0.
        2    1    3    3  502    0  0.18535368088E+03 -0.63582476817E+03 -0.25422002212E+03  0.70940604909E+03  0.25500000920E-02 0. -1.
       -2    1    3    3    0  502 -0.18535368088E+03  0.63582476817E+03  0.56474792925E+03  0.87038459685E+03  0.25500000920E-02 0.  1.
</event>
<event>
 5   0  0.5532881E-04  0.1000693E+04  0.7818609E-02  0.9307785E-01
        1   -1    0    0  501    0  0.00000000000E+00  0.00000000000E+00  0.15700854118E+04  0.15700854118E+04  0.50400001928E-02 0. -1.
       -1   -1    0    0    0  501  0.00000000000E+00  0.00000000000E+00 -0.15944788293E+03  0.15944788301E+03  0.50400001928E-02 0.  1.
    10030    2    1    2    0    0  0.00000000000E+00  0.00000000000E+00  0.14106375289E+04  0.17295332948E+04  0.10006933496E+04 0.  0.
        4    1    3    3  502    0 -0.10716097645E+03 -0.38129072264E+03  0.17689157425E+03  0.43377221209E+03  0.12699999809E+01 0.  1.
       -4    1    3    3    0  502  0.10716097645E+03  0.38129072264E+03  0.12337459546E+04  0.12957610827E+04  0.12699999809E+01 0. -1.
</event>
<event>
 5   0  0.9844690E-04  0.1591101E+04  0.7818609E-02  0.8826034E-01
        2   -1    0    0  501    0  0.00000000000E+00  0.00000000000E+00  0.94506701323E+03  0.94506701323E+03  0.25500000920E-02 0. -1.
       -2   -1    0    0    0  501  0.00000000000E+00  0.00000000000E+00 -0.66968882760E+03  0.66968882760E+03  0.25500000920E-02 0.  1.
    10030    2    1    2    0    0  0.00000000000E+00  0.00000000000E+00  0.27537818563E+03  0.16147558408E+04  0.15911012791E+04 0.  0.
        3    1    3    3  502    0  0.70755695500E+03  0.27953662526E+03  0.37379178254E+03  0.84764254041E+03  0.10100000352E+00 0. -1.
       -3    1    3    3    0  502 -0.70755695500E+03 -0.27953662526E+03 -0.98413596903E+02  0.76711330042E+03  0.10100000352E+00 0.  1.
</event>
<event>
 5   0  0.1037321E-03  0.1602687E+04  0.7818609E-02  0.8818899E-01
       -2   -1    0    0    0  501  0.00000000000E+00  0.00000000000E+00  0.37450264646E+03  0.37450264647E+03  0.25500000920E-02 0. -1.
        2   -1    0    0  501    0  0.00000000000E+00  0.00000000000E+00 -0.17146780019E+04  0.17146780019E+04  0.25500000920E-02 0.  1.
    10030    2    1    2    0    0  0.00000000000E+00  0.00000000000E+00 -0.13401753554E+04  0.20891806484E+04  0.16026870556E+04 0.  0.
        5    1    3    3  502    0 -0.46737903237E+01 -0.39967770632E+03 -0.15754351015E+04  0.16253559494E+04  0.46999998093E+01 0.  1.
       -5    1    3    3    0  502  0.46737903237E+01  0.39967770632E+03  0.23525974606E+03  0.46382469895E+03  0.46999998093E+01 0. -1.
</event>
<event>
 5   0  0.3832500E-04  0.1605107E+04  0.7818609E-02  0.8817417E-01
        3   -1    0    0  501    0  0.00000000000E+00  0.00000000000E+00  0.78574992060E+03  0.78574992709E+03  0.10100000352E+00 0.  1.
       -3   -1    0    0    0  501  0.00000000000E+00  0.00000000000E+00 -0.81971637766E+03  0.81971638388E+03  0.10100000352E+00 0. -1.
    10030    2    1    2    0    0  0.00000000000E+00  0.00000000000E+00 -0.33966457054E+02  0.16054663110E+04  0.16051069608E+04 0.  0.
        4    1    3    3  502    0  0.40404319196E+03  0.44507146319E+03  0.51487914653E+03  0.79148067364E+03  0.12699999809E+01 0.  1.
       -4    1    3    3    0  502 -0.40404319196E+03 -0.44507146319E+03 -0.54884560359E+03  0.81398563733E+03  0.12699999809E+01 0. -1.
</event>
<event>
 5   0  0.1037321E-03  0.1620042E+04  0.7818609E-02  0.8808329E-01
       -2   -1    0    0    0  501  0.00000000000E+00  0.00000000000E+00  0.63565818690E+03  0.63565818690E+03  0.25500000920E-02 0.  1.
        2   -1    0    0  501    0  0.00000000000E+00  0.00000000000E+00 -0.10322123410E+04  0.10322123410E+04  0.25500000920E-02 0. -1.
    10030    2    1    2    0    0  0.00000000000E+00  0.00000000000E+00 -0.39655415408E+03  0.16678705279E+04  0.16200422527E+04 0.  0.
        5    1    3    3  502    0  0.29386448213E+03 -0.46533899650E+03 -0.81014237125E+03  0.97941281756E+03  0.46999998093E+01 0. -1.
       -5    1    3    3    0  502 -0.29386448213E+03  0.46533899650E+03  0.41358821717E+03  0.68845771032E+03  0.46999998093E+01 0.  1.
</event>
<event>
 5   0  0.1030027E-03  0.1463582E+04  0.7818609E-02  0.8909038E-01
        2   -1    0    0  501    0  0.00000000000E+00  0.00000000000E+00  0.13637754795E+04  0.13637754795E+04  0.25500000920E-02 0.  1.
       -2   -1    0    0    0  501  0.00000000000E+00  0.00000000000E+00 -0.39267306484E+03  0.39267306485E+03  0.25500000920E-02 0. -1.
    10030    2    1    2    0    0  0.00000000000E+00  0.00000000000E+00  0.97110241466E+03  0.17564485443E+04  0.14635817672E+04 0.  0.
        1    1    3    3  502    0 -0.39626513764E+03  0.57630468349E+03  0.22713937175E+03  0.73535395677E+03  0.50400001928E-02 0. -1.
       -1    1    3    3    0  502  0.39626513764E+03 -0.57630468349E+03  0.74396304291E+03  0.10210945876E+04  0.50400001928E-02 0.  1.
</event>
<event>
 5   0  0.5532881E-04  0.1630301E+04  0.7818609E-02  0.8802146E-01
        1   -1    0    0  501    0  0.00000000000E+00  0.00000000000E+00  0.28724122280E+04  0.28724122280E+04  0.50400001928E-02 0.  1.
       -1   -1    0    0    0  501  0.00000000000E+00  0.00000000000E+00 -0.23132845635E+03  0.23132845641E+03  0.50400001928E-02 0. -1.
    10030    2    1    2    0    0  0.00000000000E+00  0.00000000000E+00  0.26410837716E+04  0.31037406844E+04  0.16303014283E+04 0.  0.
        4    1    3    3  502    0  0.57834670000E+03 -0.25918145867E+03  0.34456899966E+03  0.72138016493E+03  0.12699999809E+01 0. -1.
       -4    1    3    3    0  502 -0.57834670000E+03  0.25918145867E+03  0.22965147720E+04  0.23823605195E+04  0.12699999809E+01 0.  1.
</event>
<event>
 5   0  0.5425525E-04  0.1621883E+04  0.7818609E-02  0.8807216E-01
       -1   -1    0    0    0  501  0.00000000000E+00  0.00000000000E+00  0.57824865691E+03  0.57824865694E+03  0.50400001928E-02 0. -1.
        1   -1    0    0  501    0  0.00000000000E+00  0.00000000000E+00 -0.11372727852E+04  0.11372727852E+04  0.50400001928E-02 0.  1.
    10030    2    1    2    0    0  0.00000000000E+00  0.00000000000E+00 -0.55902412828E+03  0.17155214421E+04  0.16218834244E+04 0.  0.
        5    1    3    3  502    0  0.79349281197E+03  0.24430244817E+02 -0.45452372777E+03  0.91479046159E+03  0.46999998093E+01 0.  1.
       -5    1    3    3    0  502 -0.79349281197E+03 -0.24430244817E+02 -0.10450040052E+03  0.80073098055E+03  0.46999998093E+01 0. -1.
</event>
<event>
 5   0  0.1037321E-03  0.1596929E+04  0.7818609E-02  0.8822437E-01
       -2   -1    0    0    0  501  0.00000000000E+00  0.00000000000E+00  0.49606879118E+03  0.49606879119E+03  0.25500000920E-02 0. -1.
        2   -1    0    0  501    0  0.00000000000E+00  0.00000000000E+00 -0.12851964343E+04  0.12851964343E+04  0.25500000920E-02 0.  1.
    10030    2    1    2    0    0  0.00000000000E+00  0.00000000000E+00 -0.78912764310E+03  0.17812652255E+04  0.15969293555E+04 0.  0.
        5    1    3    3  502    0 -0.13790715736E+02 -0.26905967064E+02 -0.12845422688E+04  0.12849066290E+04  0.46999998093E+01 0.  1.
       -5    1    3    3    0  502  0.13790715736E+02  0.26905967064E+02  0.49541462572E+03  0.49635859646E+03  0.46999998093E+01 0. -1.
</event>
<event>
 5   0  0.1057872E-03  0.1632793E+04  0.7818609E-02  0.8800651E-01
       -2   -1    0    0    0  501  0.00000000000E+00  0.00000000000E+00  0.71215416258E+03  0.71215416258E+03  0.25500000920E-02 0.  1.
        2   -1    0    0  501    0  0.00000000000E+00  0.00000000000E+00 -0.93589740983E+03  0.93589740983E+03  0.25500000920E-02 0. -1.
    10030    2    1    2    0    0  0.00000000000E+00  0.00000000000E+00 -0.22374324725E+03  0.16480515724E+04  0.16327929889E+04 0.  0.
        2    1    3    3  502    0  0.62704291916E+03  0.26288654084E+02  0.41514698670E+03  0.75247653544E+03  0.25500000920E-02 0.  1.
       -2    1    3    3    0  502 -0.62704291916E+03 -0.26288654084E+02 -0.63889023396E+03  0.89557503698E+03  0.25500000920E-02 0. -1.
</event>
<event>
 5   0  0.9844690E-04  0.1565064E+04  0.7818609E-02  0.8842302E-01
       -2   -1    0    0    0  501  0.00000000000E+00  0.00000000000E+00  0.38948170114E+03  0.38948170114E+03  0.25500000920E-02 0.  1.
        2   -1    0    0  501    0  0.00000000000E+00  0.00000000000E+00 -0.15722348204E+04  0.15722348204E+04  0.25500000920E-02 0. -1.
    10030    2    1    2    0    0  0.00000000000E+00  0.00000000000E+00 -0.11827531193E+04  0.19617165216E+04  0.15650644619E+04 0.  0.
        3    1    3    3  502    0  0.37236334221E+03  0.52667808001E+03 -0.36012319426E+02  0.64601947025E+03  0.10100000352E+00 0.  1.
       -3    1    3    3    0  502 -0.37236334221E+03 -0.52667808001E+03 -0.11467407999E+04  0.13156970513E+04  0.10100000352E+00 0. -1.
</event>
<event>
 5   0  0.5288658E-04  0.1600526E+04  0.7818609E-02  0.8820225E-01
        1   -1    0    0  501    0  0.00000000000E+00  0.00000000000E+00  0.18645298707E+04  0.18645298707E+04  0.50400001928E-02 0.  1.
       -1   -1    0    0    0  501  0.00000000000E+00  0.00000000000E+00 -0.34347572034E+03  0.34347572037E+03  0.50400001928E-02 0. -1.
    10030    2    1    2    0    0  0.00000000000E+00  0.00000000000E+00  0.15210541504E+04  0.22080055911E+04  0.16005258392E+04 0.  0.
        1    1    3    3  502    0  0.81304290466E+02  0.10385167703E+03  0.18494327955E+04  0.18541297752E+04  0.50400001928E-02 0.  1.
       -1    1    3    3    0  502 -0.81304290466E+02 -0.10385167703E+03 -0.32837864509E+03  0.35387581585E+03  0.50400001928E-02 0. -1.
</event>
<event>
 5   0  0.9844690E-04  0.1585230E+04  0.7818609E-02  0.8829673E-01
        2   -1    0    0  501    0  0.00000000000E+00  0.00000000000E+00  0.13971686437E+04  0.13971686437E+04  0.25500000920E-02 0. -1.
       -2   -1    0    0    0  501  0.00000000000E+00  0.00000000000E+00 -0.44965119385E+03  0.44965119386E+03  0.25500000920E-02 0.  1.
    10030    2    1    2    0    0  0.00000000000E+00  0.00000000000E+00  0.94751744990E+03  0.18468198376E+04  0.15852300132E+04 0.  0.
        3    1    3    3  502    0  0.14815223839E+03  0.10110605232E+03  0.13732144509E+04  0.13848788604E+04  0.10100000352E+00 0. -1.
       -3    1    3    3    0  502 -0.14815223839E+03 -0.10110605232E+03 -0.42569700101E+03  0.46194097722E+03  0.10100000352E+00 0.  1.
</event>
<event>
 5   0  0.1037321E-03  0.1598300E+04  0.7818609E-02  0.8821593E-01
        2   -1    0    0  501    0  0.00000000000E+00  0.00000000000E+00  0.10714919018E+04  0.10714919018E+04  0.25500000920E-02 0. -1.
       -2   -1    0    0    0  501  0.00000000000E+00  0.00000000000E+00 -0.59602923480E+03  0.59602923480E+03  0.25500000920E-02 0.  1.
    10030    2    1    2    0    0  0.00000000000E+00  0.00000000000E+00  0.47546266702E+03  0.16675211366E+04  0.15982997195E+04 0.  0.
        5    1    3    3  502    0 -0.53853520951E+03 -0.54990008635E+03  0.46200192475E+03  0.89770716011E+03  0.46999998093E+01 0.  1.
       -5    1    3    3    0  502  0.53853520951E+03  0.54990008635E+03  0.13460742272E+02  0.76981397651E+03  0.46999998093E+01 0. -1.
</event>
<event>
 5   0  0.5288658E-04  0.1607818E+04  0.7818609E-02  0.8815759E-01
        1   -1    0    0  501    0  0.00000000000E+00  0.00000000000E+00  0.88985170276E+03  0.88985170278E+03  0.50400001928E-02 0.  1.
       -1   -1    0    0    0  501  0.00000000000E+00  0.00000000000E+00 -0.72626712329E+03  0.72626712330E+03  0.50400001928E-02 0. -1.
    10030    2    1    2    0    0  0.00000000000E+00  0.00000000000E+00  0.16358457948E+03  0.16161188261E+04  0.16078184429E+04 0.  0.
        1    1    3    3  502    0  0.11685953048E+03  0.41878767754E+03 -0.59788695285E+03  0.73926184613E+03  0.50400001928E-02 0. -1.
       -1    1    3    3    0  502 -0.11685953048E+03 -0.41878767754E+03  0.76147153233E+03  0.87685697996E+03  0.50400001928E-02 0.  1.
</event>
<event>
 5   0  0.5281116E-04  0.1612360E+04  0.7818609E-02  0.8812990E-01
        1   -1    0    0  501    0  0.00000000000E+00  0.00000000000E+00  0.12664519560E+04  0.12664519560E+04  0.50400001928E-02 0.  1.
       -1   -1    0    0    0  501  0.00000000000E+00  0.00000000000E+00 -0.51318672394E+03  0.51318672396E+03  0.50400001928E-02 0. -1.
    10030    2    1    2    0    0  0.00000000000E+00  0.00000000000E+00  0.75326523207E+03  0.17796386800E+04  0.16123601711E+04 0.  0.
        2    1    3    3  502    0 -0.35733766440E+03  0.44304035371E+03  0.10067858647E+04  0.11565434444E+04  0.25500000920E-02 0.  1.
       -2    1    3    3    0  502  0.35733766440E+03 -0.44304035371E+03 -0.25352063264E+03  0.62309523557E+03  0.25500000920E-02 0. -1.
</event>
<event>
 5   0  0.1000121E-03  0.1589749E+04  0.7818609E-02  0.8826871E-01
        2   -1    0    0  501    0  0.00000000000E+00  0.00000000000E+00  0.38441328212E+03  0.38441328212E+03  0.25500000920E-02 0.  1.
       -2   -1    0    0    0  501  0.00000000000E+00  0.00000000000E+00 -0.16436094898E+04  0.16436094898E+04  0.25500000920E-02 0. -1.
    10030    2    1    2    0    0  0.00000000000E+00  0.00000000000E+00 -0.12591962077E+04  0.20280227719E+04  0.15897488085E+04 0.  0.
        4    1    3    3  502    0  0.46928662853E+03  0.46044026480E+02  0.18671606120E+03  0.50716318133E+03  0.12699999809E+01 0.  1.
       -4    1    3    3    0  502 -0.46928662853E+03 -0.46044026480E+02 -0.14459122689E+04  0.15208595906E+04  0.12699999809E+01 0. -1.
</event>
<event>
 5   0  0.1000121E-03  0.1578582E+04  0.7818609E-02  0.8833815E-01
       -2   -1    0    0    0  501  0.00000000000E+00  0.00000000000E+00  0.62521003302E+03  0.62521003303E+03  0.25500000920E-02 0. -1.
        2   -1    0    0  501    0  0.00000000000E+00  0.00000000000E+00 -0.99643337970E+03  0.99643337970E+03  0.25500000920E-02 0.  1.
    10030    2    1    2    0    0  0.00000000000E+00  0.00000000000E+00 -0.37122334668E+03  0.16216434127E+04  0.15785818271E+04 0.  0.
        4    1    3    3  502    0 -0.34421457105E+03 -0.55167170670E+03  0.27397721708E+03  0.70561354244E+03  0.12699999809E+01 0. -1.
       -4    1    3    3    0  502  0.34421457105E+03  0.55167170670E+03 -0.64520056376E+03  0.91602987029E+03  0.12699999809E+01 0.  1.
</event>
<event>
 5   0  0.1057872E-03  0.1475189E+04  0.7818609E-02  0.8901122E-01
        2   -1    0    0  501    0  0.00000000000E+00  0.00000000000E+00  0.38263143983E+03  0.38263143984E+03  0.25500000920E-02 0. -1.
       -2   -1    0    0    0  501  0.00000000000E+00  0.00000000000E+00 -0.14218525590E+04  0.14218525590E+04  0.25500000920E-02 0.  1.
    10030    2    1    2    0    0  0.00000000000E+00  0.00000000000E+00 -0.10392211192E+04  0.18044839989E+04  0.14751887905E+04 0.  0.
        2    1    3    3  502    0  0.38335787341E+03 -0.61833502814E+03 -0.37108080200E+03  0.81670216588E+03  0.25500000920E-02 0. -1.
       -2    1    3    3    0  502 -0.38335787341E+03  0.61833502814E+03 -0.66814031720E+03  0.98778183300E+03  0.25500000920E-02 0.  1.
</event>
<event>
 5   0  0.1030027E-03  0.1597664E+04  0.7818609E-02  0.8821984E-01
       -2   -1    0    0    0  501  0.00000000000E+00  0.00000000000E+00  0.46206053892E+03  0.46206053893E+03  0.25500000920E-02 0. -1.
        2   -1    0    0  501    0  0.00000000000E+00  0.00000000000E+00 -0.13810581264E+04  0.13810581264E+04  0.25500000920E-02 0.  1.
    10030    2    1    2    0    0  0.00000000000E+00  0.00000000000E+00 -0.91899758747E+03  0.18431186653E+04  0.15976638722E+04 0.  0.
        1    1    3    3  502    0 -0.33769504447E+03  0.41029059783E+03 -0.11475869577E+04  0.12646470429E+04  0.50400001928E-02 0.  1.
       -1    1    3    3    0  502  0.33769504447E+03 -0.41029059783E+03  0.22858937020E+03  0.57847162240E+03  0.50400001928E-02 0. -1.
</event>
<event>
 5   0  0.1000121E-03  0.1699562E+04  0.7818609E-02  0.8761614E-01
        2   -1    0    0  501    0  0.00000000000E+00  0.00000000000E+00  0.18752494324E+04  0.18752494324E+04  0.25500000920E-02 0.  1.
       -2   -1    0    0    0  501  0.00000000000E+00  0.00000000000E+00 -0.38508359136E+03  0.38508359137E+03  0.25500000920E-02 0. -1.
    10030    2    1    2    0    0  0.00000000000E+00  0.00000000000E+00  0.14901658410E+04  0.22603330237E+04  0.16995620449E+04 0.  0.
        4    1    3    3  502    0  0.69973226832E+03  0.46876794056E+03  0.59486597025E+03  0.10311332430E+04  0.12699999809E+01 0. -1.
       -4    1    3    3    0  502 -0.69973226832E+03 -0.46876794056E+03  0.89529987077E+03  0.12291997807E+04  0.12699999809E+01 0.  1.
</event>
<event>
 5   0  0.9844690E-04  0.1593457E+04  0.7818609E-02  0.8824578E-01
       -2   -1    0    0    0  501  0.00000000000E+00  0.00000000000E+00  0.36050024350E+03  0.36050024351E+03  0.25500000920E-02 0. -1.
        2   -1    0    0  501    0  0.00000000000E+00  0.00000000000E+00 -0.17608203519E+04  0.17608203519E+04  0.25500000920E-02 0.  1.
    10030    2    1    2    0    0  0.00000000000E+00  0.00000000000E+00 -0.14003201084E+04  0.21213205954E+04  0.15934568279E+04 0.  0.
        3    1    3    3  502    0 -0.37052281014E+03 -0.43510075596E+03 -0.14391961486E+04  0.15485106991E+04  0.10100000352E+00 0.  1.
       -3    1    3    3    0  502  0.37052281014E+03  0.43510075596E+03  0.38876040209E+02  0.57280989636E+03  0.10100000352E+00 0. -1.
</event>
<event>
 5   0  0.5288658E-04  0.1557713E+04  0.7818609E-02  0.8846956E-01
       -1   -1    0    0    0  501  0.00000000000E+00  0.00000000000E+00  0.21759937019E+03  0.21759937025E+03  0.50400001928E-02 0.  1.
        1   -1    0    0  501    0  0.00000000000E+00  0.00000000000E+00 -0.27877718758E+04  0.27877718758E+04  0.50400001928E-02 0. -1.
    10030    2    1    2    0    0  0.00000000000E+00  0.00000000000E+00 -0.25701725056E+04  0.30053712461E+04  0.15577129447E+04 0.  0.
        1    1    3    3  502    0 -0.65963211326E+03  0.28904323716E+03 -0.18572833133E+04  0.19920245540E+04  0.50400001928E-02 0. -1.
       -1    1    3    3    0  502  0.65963211326E+03 -0.28904323716E+03 -0.71288919232E+03  0.10133466921E+04  0.50400001928E-02 0.  1.
</event>
<event>
 5   0  0.5288658E-04  0.1496320E+04  0.7818609E-02  0.8886904E-01
        1   -1    0    0  501    0  0.00000000000E+00  0.00000000000E+00  0.85956908977E+03  0.85956908979E+03  0.50400001928E-02 0.  1.
       -1   -1    0    0    0  501  0.00000000000E+00  0.00000000000E+00 -0.65119088492E+03  0.65119088493E+03  0.50400001928E-02 0. -1.
    10030    2    1    2    0    0  0.00000000000E+00  0.00000000000E+00  0.20837820485E+03  0.15107599747E+04  0.14963202281E+04 0.  0.
        1    1    3    3  502    0  0.60093910290E+02 -0.34418028691E+03 -0.56376313425E+03  0.66324974143E+03  0.50400001928E-02 0. -1.
       -1    1    3    3    0  502 -0.60093910290E+02  0.34418028691E+03  0.77214133910E+03  0.84751023329E+03  0.50400001928E-02 0.  1.
</event>
<event>
 5   0  0.5532881E-04  0.1555399E+04  0.7818609E-02  0.8848427E-01
       -1   -1    0    0    0  501  0.00000000000E+00  0.00000000000E+00  0.24956751080E+03  0.24956751085E+03  0.50400001928E-02 0. -1.
        1   -1    0    0  501    0  0.00000000000E+00  0.00000000000E+00 -0.24234585804E+04  0.24234585804E+04  0.50400001928E-02 0.  1.
    10030    2    1    2    0    0  0.00000000000E+00  0.00000000000E+00 -0.21738910696E+04  0.26730260913E+04  0.15553990170E+04 0.  0.
        4    1    3    3  502    0 -0.14409602853E+03  0.18025498524E+03 -0.23632594907E+04  0.23745004861E+04  0.12699999809E+01 0.  1.
       -4    1    3    3    0  502  0.14409602853E+03 -0.18025498524E+03  0.18936842109E+03  0.29852560518E+03  0.12699999809E+01 0. -1.
</event>
<event>
 5   0  0.5288658E-04  0.1528510E+04  0.7818609E-02  0.8865712E-01
       -1   -1    0    0    0  501  0.00000000000E+00  0.00000000000E+00  0.62301583714E+03  0.62301583716E+03  0.50400001928E-02 0. -1.
        1   -1    0    0  501    0  0.00000000000E+00  0.00000000000E+00 -0.93751398225E+03  0.93751398226E+03  0.50400001928E-02 0.  1.
    10030    2    1    2    0    0  0.00000000000E+00  0.00000000000E+00 -0.31449814511E+03  0.15605298194E+04  0.15285104625E+04 0.  0.
        1    1    3    3  502    0  0.75890854731E+03  0.84797767446E+02 -0.12572815522E+03  0.77391240692E+03  0.50400001928E-02 0. -1.
       -1    1    3    3    0  502 -0.75890854731E+03 -0.84797767446E+02 -0.18876998989E+03  0.78661741250E+03  0.50400001928E-02 0.  1.
</event>
<event>
 5   0  0.1030027E-03  0.1617209E+04  0.7818609E-02  0.8810045E-01
        2   -1    0    0  501    0  0.00000000000E+00  0.00000000000E+00  0.10379202047E+04  0.10379202047E+04  0.25500000920E-02 0.  1.
       -2   -1    0    0    0  501  0.00000000000E+00  0.00000000000E+00 -0.62995315439E+03  0.62995315440E+03  0.25500000920E-02 0. -1.
    10030    2    1    2    0    0  0.00000000000E+00  0.00000000000E+00  0.40796705034E+03  0.16678733591E+04  0.16172088387E+04 0.  0.
        1    1    3    3  502    0 -0.42534618530E+03  0.38633701303E+03 -0.38275571143E+03  0.69041842360E+03  0.50400001928E-02 0. -1.
       -1    1    3    3    0  502  0.42534618530E+03 -0.38633701303E+03  0.79072276177E+03  0.97745493553E+03  0.50400001928E-02 0.  1.
</event>
<event>
 5   0  0.1000121E-03  0.1575418E+04  0.7818609E-02  0.8835794E-01
       -2   -1    0    0    0  501  0.00000000000E+00  0.00000000000E+00  0.75194769893E+03  0.75194769894E+03  0.25500000920E-02 0. -1.
        2   -1    0    0  501    0  0.00000000000E+00  0.00000000000E+00 -0.82517119467E+03  0.82517119467E+03  0.25500000920E-02 0.  1.
    10030    2    1    2    0    0  0.00000000000E+00  0.00000000000E+00 -0.73223495738E+02  0.15771188936E+04  0.15754181427E+04 0.  0.
        4    1    3    3  502    0 -0.40197579010E+03  0.41216681640E+03 -0.57479601586E+03  0.81354661398E+03  0.12699999809E+01 0. -1.
       -4    1    3    3    0  502  0.40197579010E+03 -0.41216681640E+03  0.50157252012E+03  0.76357227963E+03  0.12699999809E+01 0.  1.
</event>
<event>
 5   0  0.1057872E-03  0.1830188E+04  0.7818609E-02  0.8690408E-01
       -2   -1    0    0    0  501  0.00000000000E+00  0.00000000000E+00  0.88924924875E+03  0.88924924875E+03  0.25500000920E-02 0.  1.
        2   -1    0    0  501    0  0.00000000000E+00  0.00000000000E+00 -0.94169006857E+03  0.94169006857E+03  0.25500000920E-02 0. -1.
    10030    2    1    2    0    0  0.00000000000E+00  0.00000000000E+00 -0.52440819820E+02  0.18309393173E+04  0.18301881718E+04 0.  0.
        2    1    3    3  502    0  0.67866504808E+03 -0.33539638143E+03 -0.54055222392E+03  0.93020088527E+03  0.25500000920E-02 0. -1.
       -2    1    3    3    0  502 -0.67866504808E+03  0.33539638143E+03  0.48811140410E+03  0.90073843206E+03  0.25500000920E-02 0.  1.
</event>
<event>
 5   0  0.5425525E-04  0.1586604E+04  0.7818609E-02  0.8828820E-01
       -1   -1    0    0    0  501  0.00000000000E+00  0.00000000000E+00  0.87557109460E+03  0.87557109461E+03  0.50400001928E-02 0.  1.
        1   -1    0    0  501    0  0.00000000000E+00  0.00000000000E+00 -0.71876310901E+03  0.71876310903E+03  0.50400001928E-02 0. -1.
    10030    2    1    2    0    0  0.00000000000E+00  0.00000000000E+00  0.15680798558E+03  0.15943342036E+04  0.15866041751E+04 0.  0.
        5    1    3    3  502    0 -0.38972957435E+03  0.46831063944E+03  0.58891669570E+03  0.84737769655E+03  0.46999998093E+01 0.  1.
       -5    1    3    3    0  502  0.38972957435E+03 -0.46831063944E+03 -0.43210871012E+03  0.74695650710E+03  0.46999998093E+01 0. -1.
</event>
<event>
 5   0  0.5623061E-04  0.1526022E+04  0.7818609E-02  0.8867330E-01
        1   -1    0    0  501    0  0.00000000000E+00  0.00000000000E+00  0.31938207247E+03  0.31938207251E+03  0.50400001928E-02 0.  1.
       -1   -1    0    0    0  501  0.00000000000E+00  0.00000000000E+00 -0.18228511326E+04  0.18228511326E+04  0.50400001928E-02 0. -1.
    10030    2    1    2    0    0  0.00000000000E+00  0.00000000000E+00 -0.15034690601E+04  0.21422332051E+04  0.15260222444E+04 0.  0.
        3    1    3    3  502    0  0.12732953135E+03  0.48348264232E+03  0.57393521283E+02  0.50325172773E+03  0.10100000352E+00 0.  1.
       -3    1    3    3    0  502 -0.12732953135E+03 -0.48348264232E+03 -0.15608625814E+04  0.16389814774E+04  0.10100000352E+00 0. -1.
</event>
<event>
 5   0  0.1030027E-03  0.1623923E+04  0.7818609E-02  0.8805984E-01
        2   -1    0    0  501    0  0.00000000000E+00  0.00000000000E+00  0.96293024704E+03  0.96293024705E+03  0.25500000920E-02 0.  1.
       -2   -1    0    0    0  501  0.00000000000E+00  0.00000000000E+00 -0.68466201352E+03  0.68466201352E+03  0.25500000920E-02 0. -1.
    10030    2    1    2    0    0  0.00000000000E+00  0.00000000000E+00  0.27826823353E+03  0.16475922606E+04  0.16239233502E+04 0.  0.
        1    1    3    3  502    0  0.60594216424E+03  0.39165689826E+03 -0.23874674631E+03  0.75997436882E+03  0.50400001928E-02 0. -1.
       -1    1    3    3    0  502 -0.60594216424E+03 -0.39165689826E+03  0.51701497984E+03  0.88761789175E+03  0.50400001928E-02 0.  1.
</event>
<event>
 5   0  0.5532881E-04  0.1504185E+04  0.7818609E-02  0.8881675E-01
        1   -1    0    0  501    0  0.00000000000E+00  0.00000000000E+00  0.10977630963E+04  0.10977630963E+04  0.50400001928E-02 0. -1.
       -1   -1    0    0    0  501  0.00000000000E+00  0.00000000000E+00 -0.51526853592E+03  0.51526853594E+03  0.50400001928E-02 0.  1.
    10030    2    1    2    0    0  0.00000000000E+00  0.00000000000E+00  0.58249456041E+03  0.16130316323E+04  0.15041845412E+04 0.  0.
        4    1    3    3  502    0 -0.17677684694E+03  0.12288553109E+03  0.10640112288E+04  0.10855746936E+04  0.12699999809E+01 0. -1.
       -4    1    3    3    0  502  0.17677684694E+03 -0.12288553109E+03 -0.48151666840E+03  0.52745693872E+03  0.12699999809E+01 0.  1.
</event>
<event>
 5   0  0.5623061E-04  0.1580493E+04  0.7818609E-02  0.8832622E-01
        1   -1    0    0  501    0  0.00000000000E+00  0.00000000000E+00  0.77848575923E+03  0.77848575925E+03  0.50400001928E-02 0.  1.
       -1   -1    0    0    0  501  0.00000000000E+00  0.00000000000E+00 -0.80218485159E+03  0.80218485160E+03  0.50400001928E-02 0. -1.
    10030    2    1    2    0    0  0.00000000000E+00  0.00000000000E+00 -0.23699092356E+02  0.15806706109E+04  0.15804929399E+04 0.  0.
        3    1    3    3  502    0 -0.26199927556E+03  0.66835439030E+03  0.31856353284E+03  0.78538140167E+03  0.10100000352E+00 0. -1.
       -3    1    3    3    0  502  0.26199927556E+03 -0.66835439030E+03 -0.34226262520E+03  0.79528920918E+03  0.10100000352E+00 0.  1.
</event>
<event>
 5   0  0.5288658E-04  0.1571249E+04  0.7818609E-02  0.8838408E-01
        1   -1    0    0  501    0  0.00000000000E+00  0.00000000000E+00  0.59882759059E+03  0.59882759061E+03  0.50400001928E-02 0.  1.
       -1   -1    0    0    0  501  0.00000000000E+00  0.00000000000E+00 -0.10306901934E+04  0.10306901934E+04  0.50400001928E-02 0. -1.
    10030    2    1    2    0    0  0.00000000000E+00  0.00000000000E+00 -0.43186260283E+03  0.16295177840E+04  0.15712488348E+04 0.  0.
        1    1    3    3  502    0  0.45604413255E+03 -0.52426754915E+03  0.16423197400E+03  0.71400620112E+03  0.50400001928E-02 0.  1.
       -1    1    3    3    0  502 -0.45604413255E+03  0.52426754915E+03 -0.59609457684E+03  0.91551158293E+03  0.50400001928E-02 0. -1.
</event>
<event>
 5   0  0.5425525E-04  0.1504060E+04  0.7818609E-02  0.8881758E-01
        1   -1    0    0  501    0  0.00000000000E+00  0.00000000000E+00  0.16578316194E+04  0.16578316194E+04  0.50400001928E-02 0. -1.
       -1   -1    0    0    0  501  0.00000000000E+00  0.00000000000E+00 -0.34113787885E+03  0.34113787889E+03  0.50400001928E-02 0.  1.
    10030    2    1    2    0    0  0.00000000000E+00  0.00000000000E+00  0.13166937406E+04  0.19989694983E+04  0.15040600549E+04 0.  0.
        5    1    3    3  502    0  0.31793172624E+03  0.29107918538E+03 -0.16063140509E+03  0.46003501281E+03  0.46999998093E+01 0.  1.
       -5    1    3    3    0  502 -0.31793172624E+03 -0.29107918538E+03  0.14773251457E+04  0.15389344855E+04  0.46999998093E+01 0. -1.
</event>
<event>
 5   0  0.5623061E-04  0.1612869E+04  0.7818609E-02  0.8812681E-01
       -1   -1    0    0    0  501  0.00000000000E+00  0.00000000000E+00  0.31394526946E+03  0.31394526950E+03  0.50400001928E-02 0. -1.
        1   -1    0    0  501    0  0.00000000000E+00  0.00000000000E+00 -0.20714962112E+04  0.20714962112E+04  0.50400001928E-02 0.  1.
    10030    2    1    2    0    0  0.00000000000E+00  0.00000000000E+00 -0.17575509418E+04  0.23854414807E+04  0.16128687935E+04 0.  0.
        3    1    3    3  502    0 -0.65683270458E+03 -0.30195514732E+03 -0.35018818044E+03  0.80326700712E+03  0.10100000352E+00 0.  1.
       -3    1    3    3    0  502  0.65683270458E+03  0.30195514732E+03 -0.14073627613E+04  0.15821744736E+04  0.10100000352E+00 0. -1.
</event>
<event>
 5   0  0.1000121E-03  0.1609235E+04  0.7818609E-02  0.8814895E-01
       -2   -1    0    0    0  501  0.00000000000E+00  0.00000000000E+00  0.44244604177E+03  0.44244604177E+03  0.25500000920E-02 0. -1.
        2   -1    0    0  501    0  0.00000000000E+00  0.00000000000E+00 -0.14632499469E+04  0.14632499469E+04  0.25500000920E-02 0.  1.
    10030    2    1    2    0    0  0.00000000000E+00  0.00000000000E+00 -0.10208039051E+04  0.19056959887E+04  0.16092347835E+04 0.  0.
        4    1    3    3  502    0  0.44935176944E+03  0.19088650735E+03 -0.12677995564E+04  0.13585551147E+04  0.12699999809E+01 0.  1.
       -4    1    3    3    0  502 -0.44935176944E+03 -0.19088650735E+03  0.24699565128E+03  0.54714087403E+03  0.12699999809E+01 0. -1.
</event>
<event>
 5   0  0.1030027E-03  0.1202871E+04  0.7818609E-02  0.9110347E-01
       -2   -1    0    0    0  501  0.00000000000E+00  0.00000000000E+00  0.22189888819E+03  0.22189888821E+03  0.25500000920E-02 0.  1.
        2   -1    0    0  501    0  0.00000000000E+00  0.00000000000E+00 -0.16301339506E+04  0.16301339506E+04  0.25500000920E-02 0. -1.
    10030    2    1    2    0    0  0.00000000000E+00  0.00000000000E+00 -0.14082350624E+04  0.18520328388E+04  0.12028714167E+04 0.  0.
        1    1    3    3  502    0 -0.21149925664E+03  0.25456677346E+03 -0.14773183732E+04  0.15139371696E+04  0.50400001928E-02 0. -1.
       -1    1    3    3    0  502  0.21149925664E+03 -0.25456677346E+03  0.69083310754E+02  0.33809566924E+03  0.50400001928E-02 0.  1.
</event>
<event>
 5   0  0.5532881E-04  0.1594892E+04  0.7818609E-02  0.8823692E-01
       -1   -1    0    0    0  501  0.00000000000E+00  0.00000000000E+00  0.66009469496E+03  0.66009469498E+03  0.50400001928E-02 0.  1.
        1   -1    0    0  501    0  0.00000000000E+00  0.00000000000E+00 -0.96337666632E+03  0.96337666633E+03  0.50400001928E-02 0. -1.
    10030    2    1    2    0    0  0.00000000000E+00  0.00000000000E+00 -0.30328197136E+03  0.16234713613E+04  0.15948916286E+04 0.  0.
        4    1    3    3  502    0 -0.65109346958E+03  0.23278848684E+02  0.31643999833E+03  0.72429310115E+03  0.12699999809E+01 0.  1.
       -4    1    3    3    0  502  0.65109346958E+03 -0.23278848684E+02 -0.61972196969E+03  0.89917826016E+03  0.12699999809E+01 0. -1.
</event>
<event>
 5   0  0.1037321E-03  0.1582291E+04  0.7818609E-02  0.8831502E-01
       -2   -1    0    0    0  501  0.00000000000E+00  0.00000000000E+00  0.68923846264E+03  0.68923846264E+03  0.25500000920E-02 0. -1.
        2   -1    0    0  501    0  0.00000000000E+00  0.00000000000E+00 -0.90811975881E+03  0.90811975881E+03  0.25500000920E-02 0.  1.
    10030    2    1    2    0    0  0.00000000000E+00  0.00000000000E+00 -0.21888129617E+03  0.15973582215E+04  0.15822908285E+04 0.  0.
        5    1    3    3  502    0  0.39899217398E+03 -0.29760408268E+03 -0.73021576301E+03  0.88374209783E+03  0.46999998093E+01 0.  1.
       -5    1    3    3    0  502 -0.39899217398E+03  0.29760408268E+03  0.51133446684E+03  0.71361612363E+03  0.46999998093E+01 0. -1.
</event>
<event>
 5   0  0.5532881E-04  0.1615741E+04  0.7818609E-02  0.8810936E-01
        1   -1    0    0  501    0  0.00000000000E+00  0.00000000000E+00  0.45641957414E+03  0.45641957417E+03  0.50400001928E-02 0. -1.
       -1   -1    0    0    0  501  0.00000000000E+00  0.00000000000E+00 -0.14299449902E+04  0.14299449902E+04  0.50400001928E-02 0.  1.
    10030    2    1    2    0    0  0.00000000000E+00  0.00000000000E+00 -0.97352541602E+03  0.18863645643E+04  0.16157411717E+04 0.  0.
        4    1    3    3  502    0 -0.88836990132E+02  0.79353155608E+03 -0.63007882579E+03  0.10171456537E+04  0.12699999809E+01 0. -1.
       -4    1    3    3    0  502  0.88836990132E+02 -0.79353155608E+03 -0.34344659023E+03  0.86921891060E+03  0.12699999809E+01 0.  1.
</event>
<event>
 5   0  0.5288658E-04  0.1601240E+04  0.7818609E-02  0.8819787E-01
        1   -1    0    0  501    0  0.00000000000E+00  0.00000000000E+00  0.27433110757E+04  0.27433110757E+04  0.50400001928E-02 0.  1.
       -1   -1    0    0    0  501  0.00000000000E+00  0.00000000000E+00 -0.23365643792E+03  0.23365643798E+03  0.50400001928E-02 0. -1.
    10030    2    1    2    0    0  0.00000000000E+00  0.00000000000E+00  0.25096546378E+04  0.29769675137E+04  0.16012398873E+04 0.  0.
        1    1    3    3  502    0  0.44478638252E+03 -0.63331818221E+03  0.16361393035E+04  0.18099388571E+04  0.50400001928E-02 0.  1.
       -1    1    3    3    0  502 -0.44478638252E+03  0.63331818221E+03  0.87351533422E+03  0.11670286565E+04  0.50400001928E-02 0. -1.
</event>
<event>
 5   0  0.5288658E-04  0.1579103E+04  0.7818609E-02  0.8833490E-01
       -1   -1    0    0    0  501  0.00000000000E+00  0.00000000000E+00  0.63097275691E+03  0.63097275693E+03  0.50400001928E-02 0.  1.
        1   -1    0    0  501    0  0.00000000000E+00  0.00000000000E+00 -0.98798511626E+03  0.98798511628E+03  0.50400001928E-02 0. -1.
    10030    2    1    2    0    0  0.00000000000E+00  0.00000000000E+00 -0.35701235936E+03  0.16189578732E+04  0.15791031538E+04 0.  0.
        1    1    3    3  502    0  0.62614994672E+03 -0.48052319141E+03 -0.19965194724E+03  0.81414199825E+03  0.50400001928E-02 0. -1.
       -1    1    3    3    0  502 -0.62614994672E+03  0.48052319141E+03 -0.15736041212E+03  0.80481587495E+03  0.50400001928E-02 0.  1.
</event>
<event>
 5   0  0.5623061E-04  0.1514582E+04  0.7818609E-02  0.8874813E-01
        1   -1    0    0  501    0  0.00000000000E+00  0.00000000000E+00  0.11736616228E+04  0.11736616228E+04  0.50400001928E-02 0. -1.
       -1   -1    0    0    0  501  0.00000000000E+00  0.00000000000E+00 -0.48863298204E+03  0.48863298206E+03  0.50400001928E-02 0.  1.
    10030    2    1    2    0    0  0.00000000000E+00  0.00000000000E+00  0.68502864080E+03  0.16622946049E+04  0.15145821585E+04 0.  0.
        3    1    3    3  502    0 -0.43574179450E+03 -0.29458260274E+03 -0.25545146014E+03  0.58472667119E+03  0.10100000352E+00 0.  1.
       -3    1    3    3    0  502  0.43574179450E+03  0.29458260274E+03  0.94048010094E+03  0.10775679337E+04  0.10100000352E+00 0. -1.
</event>
<event>
 5   0  0.1037321E-03  0.1633910E+04  0.7818609E-02  0.8799982E-01
        2   -1    0    0  501    0  0.00000000000E+00  0.00000000000E+00  0.12685123939E+04  0.12685123939E+04  0.25500000920E-02 0. -1.
       -2   -1    0    0    0  501  0.00000000000E+00  0.00000000000E+00 -0.52614030944E+03  0.52614030945E+03  0.25500000920E-02 0.  1.
    10030    2    1    2    0    0  0.00000000000E+00  0.00000000000E+00  0.74237208447E+03  0.17946527034E+04  0.16339100385E+04 0.  0.
        5    1    3    3  502    0 -0.52046882223E+03 -0.45991979338E+03  0.84359047300E+03  0.10927401280E+04  0.46999998093E+01 0. -1.
       -5    1    3    3    0  502  0.52046882223E+03  0.45991979338E+03 -0.10121838853E+03  0.70191257535E+03  0.46999998093E+01 0.  1.
</event>
<event>
 5   0  0.1030027E-03  0.1568287E+04  0.7818609E-02  0.8840271E-01
        2   -1    0    0  501    0  0.00000000000E+00  0.00000000000E+00  0.12892212972E+04  0.12892212972E+04  0.25500000920E-02 0. -1.
       -2   -1    0    0    0  501  0.00000000000E+00  0.00000000000E+00 -0.47693976901E+03  0.47693976902E+03  0.25500000920E-02 0.  1.
    10030    2    1    2    0    0  0.00000000000E+00  0.00000000000E+00  0.81228152820E+03  0.17661610662E+04  0.15682868458E+04 0.  0.
        1    1    3    3  502    0  0.26952775823E+02  0.78366747939E+03  0.41114397404E+03  0.88538157751E+03  0.50400001928E-02 0.  1.
       -1    1    3    3    0  502 -0.26952775823E+02 -0.78366747939E+03  0.40113755416E+03  0.88077948873E+03  0.50400001928E-02 0. -1.
</event>
<event>
 5   0  0.5532881E-04  0.1709646E+04  0.7818609E-02  0.8755882E-01
        1   -1    0    0  501    0  0.00000000000E+00  0.00000000000E+00  0.10151470300E+04  0.10151470300E+04  0.50400001928E-02 0. -1.
       -1   -1    0    0    0  501  0.00000000000E+00  0.00000000000E+00 -0.71981961070E+03  0.71981961072E+03  0.50400001928E-02 0.  1.
    10030    2    1    2    0    0  0.00000000000E+00  0.00000000000E+00  0.29532741931E+03  0.17349666407E+04  0.17096464429E+04 0.  0.
        4    1    3    3  502    0 -0.25752893691E+03 -0.59783240059E+03  0.70994218590E+03  0.96319481558E+03  0.12699999809E+01 0. -1.
       -4    1    3    3    0  502  0.25752893691E+03  0.59783240059E+03 -0.41461476659E+03  0.77177182516E+03  0.12699999809E+01 0.  1.
</event>
<event>
 5   0  0.5623061E-04  0.1602740E+04  0.7818609E-02  0.8818867E-01
        1   -1    0    0  501    0  0.00000000000E+00  0.00000000000E+00  0.15208837126E+04  0.15208837126E+04  0.50400001928E-02 0.  1.
       -1   -1    0    0    0  501  0.00000000000E+00  0.00000000000E+00 -0.42225026380E+03  0.42225026383E+03  0.50400001928E-02 0. -1.
    10030    2    1    2    0    0  0.00000000000E+00  0.00000000000E+00  0.10986334488E+04  0.19431339765E+04  0.16027395907E+04 0.  0.
        3    1    3    3  502    0  0.51700380106E+03 -0.50489876034E+02  0.12891200258E+04  0.13898462537E+04  0.10100000352E+00 0.  1.
       -3    1    3    3    0  502 -0.51700380106E+03  0.50489876034E+02 -0.19048657700E+03  0.55328772272E+03  0.10100000352E+00 0. -1.
</event>
<event>
 5   0  0.1037321E-03  0.1559892E+04  0.7818609E-02  0.8845574E-01
        2   -1    0    0  501    0  0.00000000000E+00  0.00000000000E+00  0.19484867512E+04  0.19484867512E+04  0.25500000920E-02 0.  1.
       -2   -1    0    0    0  501  0.00000000000E+00  0.00000000000E+00 -0.31219915292E+03  0.31219915293E+03  0.25500000920E-02 0. -1.
    10030    2    1    2    0    0  0.00000000000E+00  0.00000000000E+00  0.16362875983E+04  0.22606859041E+04  0.15598921927E+04 0.  0.
        5    1    3    3  502    0  0.65237986884E+03 -0.37200249168E+03  0.11232064565E+04  0.13511477273E+04  0.46999998093E+01 0.  1.
       -5    1    3    3    0  502 -0.65237986884E+03  0.37200249168E+03  0.51308114182E+03  0.90953817686E+03  0.46999998093E+01 0. -1.
</event>
<event>
 5   0  0.5623061E-04  0.1662748E+04  0.7818609E-02  0.8782900E-01
       -1   -1    0    0    0  501  0.00000000000E+00  0.00000000000E+00  0.10369204830E+04  0.10369204830E+04  0.50400001928E-02 0. -1.
        1   -1    0    0  501    0  0.00000000000E+00  0.00000000000E+00 -0.66657274820E+03  0.66657274822E+03  0.50400001928E-02 0.  1.
    10030    2    1    2    0    0  0.00000000000E+00  0.00000000000E+00  0.37034773480E+03  0.17034932312E+04  0.16627482504E+04 0.  0.
        3    1    3    3  502    0 -0.21054199196E+03  0.51395439140E+02 -0.63712335819E+03  0.67297518921E+03  0.10100000352E+00 0.  1.
       -3    1    3    3    0  502  0.21054199196E+03 -0.51395439140E+02  0.10074710930E+04  0.10305180420E+04  0.10100000352E+00 0. -1.
</event>
<event>
 5   0  0.5288658E-04  0.1613579E+04  0.7818609E-02  0.8812249E-01
       -1   -1    0    0    0  501  0.00000000000E+00  0.00000000000E+00  0.62018136433E+03  0.62018136436E+03  0.50400001928E-02 0.  1.
        1   -1    0    0  501    0  0.00000000000E+00  0.00000000000E+00 -0.10495466288E+04  0.10495466288E+04  0.50400001928E-02 0. -1.
    10030    2    1    2    0    0  0.00000000000E+00  0.00000000000E+00 -0.42936526450E+03  0.16697279932E+04  0.16135789540E+04 0.  0.
        1    1    3    3  502    0 -0.18749833727E+03  0.76363820291E+03 -0.40154984000E+03  0.88291630716E+03  0.50400001928E-02 0. -1.
       -1    1    3    3    0  502  0.18749833727E+03 -0.76363820291E+03 -0.27815424496E+02  0.78681168604E+03  0.50400001928E-02 0.  1.
</event>
<event>
 5   0  0.1000121E-03  0.1612546E+04  0.7818609E-02  0.8812877E-01
        2   -1    0    0  501    0  0.00000000000E+00  0.00000000000E+00  0.14872929497E+04  0.14872929497E+04  0.25500000920E-02 0. -1.
       -2   -1    0    0    0  501  0.00000000000E+00  0.00000000000E+00 -0.43708697470E+03  0.43708697471E+03  0.25500000920E-02 0.  1.
    10030    2    1    2    0    0  0.00000000000E+00  0.00000000000E+00  0.10502059750E+04  0.19243799244E+04  0.16125462795E+04 0.  0.
        4    1    3    3  502    0 -0.34398130242E+03 -0.17757852160E+03 -0.31892737254E+03  0.50157108131E+03  0.12699999809E+01 0.  1.
       -4    1    3    3    0  502  0.34398130242E+03  0.17757852160E+03  0.13691333475E+04  0.14228088431E+04  0.12699999809E+01 0. -1.
</event>
<event>
 5   0  0.1057872E-03  0.1613074E+04  0.7818609E-02  0.8812556E-01
        2   -1    0    0  501    0  0.00000000000E+00  0.00000000000E+00  0.10050544592E+04  0.10050544592E+04  0.25500000920E-02 0.  1.
       -2   -1    0    0    0  501  0.00000000000E+00  0.00000000000E+00 -0.64723044312E+03  0.64723044313E+03  0.25500000920E-02 0. -1.
    10030    2    1    2    0    0  0.00000000000E+00  0.00000000000E+00  0.35782401608E+03  0.16522849023E+04  0.16130738892E+04 0.  0.
        2    1    3    3  502    0  0.60482466661E+03 -0.49139524596E+03  0.39185896396E+03  0.87225891381E+03  0.25500000920E-02 0.  1.
       -2    1    3    3    0  502 -0.60482466661E+03  0.49139524596E+03 -0.34034947879E+02  0.78002598852E+03  0.25500000920E-02 0. -1.
</event>
<event>
 5   0  0.5281116E-04  0.1653691E+04  0.7818609E-02  0.8788226E-01
       -1   -1    0    0    0  501  0.00000000000E+00  0.00000000000E+00  0.75655353359E+03  0.75655353361E+03  0.50400001928E-02 0.  1.
        1   -1    0    0  501    0  0.00000000000E+00  0.00000000000E+00 -0.90366808792E+03  0.90366808793E+03  0.50400001928E-02 0. -1.
    10030    2    1    2    0    0  0.00000000000E+00  0.00000000000E+00 -0.14711455433E+03  0.16602216215E+04  0.16536907633E+04 0.  0.
        2    1    3    3  502    0  0.25687621816E+03 -0.68851206966E+03 -0.45405142981E+03  0.86382692853E+03  0.25500000920E-02 0. -1.
       -2    1    3    3    0  502 -0.25687621816E+03  0.68851206966E+03  0.30693687549E+03  0.79639469302E+03  0.25500000920E-02 0.  1.
</event>
<event>
 5   0  0.1057872E-03  0.1581783E+04  0.7818609E-02  0.8831818E-01
       -2   -1    0    0    0  501  0.00000000000E+00  0.00000000000E+00  0.32561489883E+03  0.32561489884E+03  0.25500000920E-02 0. -1.
        2   -1    0    0  501    0  0.00000000000E+00  0.00000000000E+00 -0.19210093164E+04  0.19210093164E+04  0.25500000920E-02 0.  1.
    10030    2    1    2    0    0  0.00000000000E+00  0.00000000000E+00 -0.15953944176E+04  0.22466242153E+04  0.15817828602E+04 0.  0.
        2    1    3    3  502    0  0.83875996870E+02  0.41571880797E+03  0.15046244884E+03  0.44999584295E+03  0.25500000920E-02 0. -1.
       -2    1    3    3    0  502 -0.83875996870E+02 -0.41571880797E+03 -0.17458568664E+04  0.17966283723E+04  0.25500000920E-02 0.  1.
</event>
<event>
 5   0  0.5281116E-04  0.1603211E+04  0.7818609E-02  0.8818578E-01
        1   -1    0    0  501    0  0.00000000000E+00  0.00000000000E+00  0.22323560434E+04  0.22323560434E+04  0.50400001928E-02 0. -1.
       -1   -1    0    0    0  501  0.00000000000E+00  0.00000000000E+00 -0.28784454888E+03  0.28784454893E+03  0.50400001928E-02 0.  1.
    10030    2    1    2    0    0  0.00000000000E+00  0.00000000000E+00  0.19445114946E+04  0.25202005924E+04  0.16032111755E+04 0.  0.
        2    1    3    3  502    0  0.20025703635E+03  0.18597112141E+03 -0.21235033166E+03  0.34609363180E+03  0.25500000920E-02 0.  1.
       -2    1    3    3    0  502 -0.20025703635E+03 -0.18597112141E+03  0.21568618262E+04  0.21741069606E+04  0.25500000920E-02 0. -1.
</event>
<event>
 5   0  0.3832500E-04  0.1648801E+04  0.7818609E-02  0.8791116E-01
       -3   -1    0    0    0  501  0.00000000000E+00  0.00000000000E+00  0.37491064360E+03  0.37491065721E+03  0.10100000352E+00 0. -1.
        3   -1    0    0  501    0  0.00000000000E+00  0.00000000000E+00 -0.18127955027E+04  0.18127955055E+04  0.10100000352E+00 0.  1.
    10030    2    1    2    0    0  0.00000000000E+00  0.00000000000E+00 -0.14378848591E+04  0.21877061627E+04  0.16488011967E+04 0.  0.
        2    1    3    3  502    0  0.11831671618E+03 -0.17550785625E+03 -0.17761273365E+04  0.17886951021E+04  0.25500000920E-02 0.  1.
       -2    1    3    3    0  502 -0.11831671618E+03  0.17550785625E+03  0.33824247741E+03  0.39901106058E+03  0.25500000920E-02 0. -1.
</event>
<event>
 5   0  0.5288658E-04  0.1621389E+04  0.7818609E-02  0.8807515E-01
       -1   -1    0    0    0  501  0.00000000000E+00  0.00000000000E+00  0.47796966019E+03  0.47796966022E+03  0.50400001928E-02 0.  1.
        1   -1    0    0  501    0  0.00000000000E+00  0.00000000000E+00 -0.13750364293E+04  0.13750364293E+04  0.50400001928E-02 0. -1.
    10030    2    1    2    0    0  0.00000000000E+00  0.00000000000E+00 -0.89706676910E+03  0.18530060895E+04  0.16213891512E+04 0.  0.
        1    1    3    3  502    0  0.18205533172E+03  0.12842020797E+02 -0.13512529715E+04  0.13635225170E+04  0.50400001928E-02 0. -1.
       -1    1    3    3    0  502 -0.18205533172E+03 -0.12842020797E+02  0.45418620240E+03  0.48948357254E+03  0.50400001928E-02 0.  1.
</event>
<event>
 5   0  0.1057872E-03  0.1599714E+04  0.7818609E-02  0.8820724E-01
        2   -1    0    0  501    0  0.00000000000E+00  0.00000000000E+00  0.63874771258E+03  0.63874771259E+03  0.25500000920E-02 0. -1.
       -2   -1    0    0    0  501  0.00000000000E+00  0.00000000000E+00 -0.10016018163E+04  0.10016018163E+04  0.25500000920E-02 0.  1.
    10030    2    1    2    0    0  0.00000000000E+00  0.00000000000E+00 -0.36285410372E+03  0.16403495289E+04  0.15997135607E+04 0.  0.
        2    1    3    3  502    0 -0.27856127299E+03 -0.58002154725E+03  0.30577326469E+03  0.71240344432E+03  0.25500000920E-02 0. -1.
       -2    1    3    3    0  502  0.27856127299E+03  0.58002154725E+03 -0.66862736840E+03  0.92794608457E+03  0.25500000920E-02 0.  1.
</event>
<event>
 5   0  0.1000121E-03  0.1586939E+04  0.7818609E-02  0.8828612E-01
       -2   -1    0    0    0  501  0.00000000000E+00  0.00000000000E+00  0.60632959877E+03  0.60632959877E+03  0.25500000920E-02 0.  1.
        2   -1    0    0  501    0  0.00000000000E+00  0.00000000000E+00 -0.10383685668E+04  0.10383685668E+04  0.25500000920E-02 0. -1.
    10030    2    1    2    0    0  0.00000000000E+00  0.00000000000E+00 -0.43203896804E+03  0.16446981656E+04  0.15869386837E+04 0.  0.
        4    1    3    3  502    0  0.39510363912E+03  0.35927452425E+03 -0.82424129788E+03  0.98212035894E+03  0.12699999809E+01 0. -1.
       -4    1    3    3    0  502 -0.39510363912E+03 -0.35927452425E+03  0.39220232984E+03  0.66257780664E+03  0.12699999809E+01 0.  1.
</event>
<event>
 5   0  0.1030027E-03  0.1565338E+04  0.7818609E-02  0.8842130E-01
       -2   -1    0    0    0  501  0.00000000000E+00  0.00000000000E+00  0.14187524694E+04  0.14187524694E+04  0.25500000920E-02 0.  1.
        2   -1    0    0  501    0  0.00000000000E+00  0.00000000000E+00 -0.43176732481E+03  0.43176732482E+03  0.25500000920E-02 0. -1.
    10030    2    1    2    0    0  0.00000000000E+00  0.00000000000E+00  0.98698514463E+03  0.18505197943E+04  0.15653382488E+04 0.  0.
        1    1    3    3  502    0  0.74523124905E+03 -0.23647861501E+03  0.53577463656E+03  0.94781127401E+03  0.50400001928E-02 0. -1.
       -1    1    3    3    0  502 -0.74523124905E+03  0.23647861501E+03  0.45121050806E+03  0.90270852025E+03  0.50400001928E-02 0.  1.
</event>
<event>
 5   0  0.1030027E-03  0.1591504E+04  0.7818609E-02  0.8825785E-01
        2   -1    0    0  501    0  0.00000000000E+00  0.00000000000E+00  0.13664297901E+04  0.13664297901E+04  0.25500000920E-02 0. -1.
       -2   -1    0    0    0  501  0.00000000000E+00  0.00000000000E+00 -0.46341283605E+03  0.46341283605E+03  0.25500000920E-02 0.  1.
    10030    2    1    2    0    0  0.00000000000E+00  0.00000000000E+00  0.90301695403E+03  0.18298426261E+04  0.15915038225E+04 0.  0.
        1    1    3    3  502    0  0.65900956418E+03 -0.13746313397E+03  0.93935157610E+03  0.11556691146E+04  0.50400001928E-02 0. -1.
       -1    1    3    3    0  502 -0.65900956418E+03  0.13746313397E+03 -0.36334622063E+02  0.67417351154E+03  0.50400001928E-02 0.  1.
</event>
<event>
 5   0  0.5281116E-04  0.1361731E+04  0.7818609E-02  0.8981995E-01
       -1   -1    0    0    0  501  0.00000000000E+00  0.00000000000E+00  0.41241857327E+03  0.41241857330E+03  0.50400001928E-02 0.  1.
        1   -1    0    0  501    0  0.00000000000E+00  0.00000000000E+00 -0.11240466908E+04  0.11240466908E+04  0.50400001928E-02 0. -1.
    10030    2    1    2    0    0  0.00000000000E+00  0.00000000000E+00 -0.71162811748E+03  0.15364652641E+04  0.13617308582E+04 0.  0.
        2    1    3    3  502    0 -0.46423140959E+03 -0.20916016353E+03 -0.86583240477E+03  0.10044523527E+04  0.25500000920E-02 0. -1.
       -2    1    3    3    0  502  0.46423140959E+03  0.20916016353E+03  0.15420428729E+03  0.53201291139E+03  0.25500000920E-02 0.  1.
</event>
<event>
 5   0  0.3832500E-04  0.1545472E+04  0.7818609E-02  0.8854765E-01
        4   -1    0    0  501    0  0.00000000000E+00  0.00000000000E+00  0.59879555151E+03  0.59879689830E+03  0.12699999809E+01 0.  1.
       -4   -1    0    0    0  501  0.00000000000E+00  0.00000000000E+00 -0.99720085606E+03  0.99720166478E+03  0.12699999809E+01 0. -1.
    10030    2    1    2    0    0  0.00000000000E+00  0.00000000000E+00 -0.39840530455E+03  0.15959985631E+04  0.15454722989E+04 0.  0.
        2    1    3    3  502    0  0.41005245198E+03  0.12837878600E+03 -0.86245941085E+03  0.96356648004E+03  0.25500000920E-02 0. -1.
       -2    1    3    3    0  502 -0.41005245198E+03 -0.12837878600E+03  0.46405410630E+03  0.63243208304E+03  0.25500000920E-02 0.  1.
</event>
<event>
 5   0  0.1030027E-03  0.1115728E+04  0.7818609E-02  0.9189997E-01
        2   -1    0    0  501    0  0.00000000000E+00  0.00000000000E+00  0.70619255179E+03  0.70619255179E+03  0.25500000920E-02 0.  1.
       -2   -1    0    0    0  501  0.00000000000E+00  0.00000000000E+00 -0.44068995757E+03  0.44068995757E+03  0.25500000920E-02 0. -1.
    10030    2    1    2    0    0  0.00000000000E+00  0.00000000000E+00  0.26550259422E+03  0.11468825094E+04  0.11157275038E+04 0.  0.
        1    1    3    3  502    0 -0.51578097395E+03  0.10058236557E+03 -0.59734451784E+02  0.52888092242E+03  0.50400001928E-02 0. -1.
       -1    1    3    3    0  502  0.51578097395E+03 -0.10058236557E+03  0.32523704601E+03  0.61800158695E+03  0.50400001928E-02 0.  1.
</event>
<event>
 5   0  0.1037321E-03  0.1595247E+04  0.7818609E-02  0.8823473E-01
       -2   -1    0    0    0  501  0.00000000000E+00  0.00000000000E+00  0.42990988913E+03  0.42990988913E+03  0.25500000920E-02 0.  1.
        2   -1    0    0  501    0  0.00000000000E+00  0.00000000000E+00 -0.14798532985E+04  0.14798532985E+04  0.25500000920E-02 0. -1.
    10030    2    1    2    0    0  0.00000000000E+00  0.00000000000E+00 -0.10499434094E+04  0.19097631877E+04  0.15952474009E+04 0.  0.
        5    1    3    3  502    0  0.53623232026E+03 -0.39078205600E+03 -0.10548757599E+04  0.12462105261E+04  0.46999998093E+01 0. -1.
       -5    1    3    3    0  502 -0.53623232026E+03  0.39078205600E+03  0.49323504774E+01  0.66355266156E+03  0.46999998093E+01 0.  1.
</event>
<event>
 5   0  0.1000121E-03  0.1634393E+04  0.7818609E-02  0.8799693E-01
        2   -1    0    0  501    0  0.00000000000E+00  0.00000000000E+00  0.58089828722E+03  0.58089828722E+03  0.25500000920E-02 0. -1.
       -2   -1    0    0    0  501  0.00000000000E+00  0.00000000000E+00 -0.11496163078E+04  0.11496163078E+04  0.25500000920E-02 0.  1.
    10030    2    1    2    0    0  0.00000000000E+00  0.00000000000E+00 -0.56871802057E+03  0.17305145950E+04  0.16343930300E+04 0.  0.
        4    1    3    3  502    0 -0.10572294580E+03 -0.91761387703E+02  0.56810681181E+03  0.58510209030E+03  0.12699999809E+01 0. -1.
       -4    1    3    3    0  502  0.10572294580E+03  0.91761387703E+02 -0.11368248324E+04  0.11454125047E+04  0.12699999809E+01 0.  1.
</event>
<event>
 5   0  0.5288658E-04  0.1428125E+04  0.7818609E-02  0.8933708E-01
        1   -1    0    0  501    0  0.00000000000E+00  0.00000000000E+00  0.75395042666E+03  0.75395042668E+03  0.50400001928E-02 0. -1.
       -1   -1    0    0    0  501  0.00000000000E+00  0.00000000000E+00 -0.67628479914E+03  0.67628479916E+03  0.50400001928E-02 0.  1.
    10030    2    1    2    0    0  0.00000000000E+00  0.00000000000E+00  0.77665627522E+02  0.14302352258E+04  0.14281249425E+04 0.  0.
        1    1    3    3  502    0  0.10709778765E+02  0.44689092812E+03  0.59648504638E+03  0.74539963213E+03  0.50400001928E-02 0. -1.
       -1    1    3    3    0  502 -0.10709778765E+02 -0.44689092812E+03 -0.51881941886E+03  0.68483559371E+03  0.50400001928E-02 0.  1.
</event>
<event>
 5   0  0.9844690E-04  0.1633210E+04  0.7818609E-02  0.8800402E-01
        2   -1    0    0  501    0  0.00000000000E+00  0.00000000000E+00  0.64844085342E+03  0.64844085343E+03  0.25500000920E-02 0.  1.
       -2   -1    0    0    0  501  0.00000000000E+00  0.00000000000E+00 -0.10283800338E+04  0.10283800339E+04  0.25500000920E-02 0. -1.
    10030    2    1    2    0    0  0.00000000000E+00  0.00000000000E+00 -0.37993918042E+03  0.16768208873E+04  0.16332098785E+04 0.  0.
        3    1    3    3  502    0  0.59647311972E+03  0.39350016402E+03  0.21583266865E+03  0.74646253268E+03  0.10100000352E+00 0.  1.
       -3    1    3    3    0  502 -0.59647311972E+03 -0.39350016402E+03 -0.59577184907E+03  0.93035835460E+03  0.10100000352E+00 0. -1.
</event>
<event>
 5   0  0.1030027E-03  0.1590607E+04  0.7818609E-02  0.8826339E-01
        2   -1    0    0  501    0  0.00000000000E+00  0.00000000000E+00  0.12416388421E+04  0.12416388421E+04  0.25500000920E-02 0.  1.
       -2   -1    0    0    0  501  0.00000000000E+00  0.00000000000E+00 -0.50941368322E+03  0.50941368323E+03  0.25500000920E-02 0. -1.
    10030    2    1    2    0    0  0.00000000000E+00  0.00000000000E+00  0.73222515889E+03  0.17510525253E+04  0.15906071995E+04 0.  0.
        1    1    3    3  502    0  0.21590641155E+03 -0.74912832278E+03  0.19310072738E+03  0.80317912914E+03  0.50400001928E-02 0. -1.
       -1    1    3    3    0  502 -0.21590641155E+03  0.74912832278E+03  0.53912443151E+03  0.94787339620E+03  0.50400001928E-02 0.  1.
</event>
<event>
 5   0  0.5532881E-04  0.1639467E+04  0.7818609E-02  0.8796662E-01
       -1   -1    0    0    0  501  0.00000000000E+00  0.00000000000E+00  0.39257802496E+03  0.39257802499E+03  0.50400001928E-02 0. -1.
        1   -1    0    0  501    0  0.00000000000E+00  0.00000000000E+00 -0.17116678831E+04  0.17116678831E+04  0.50400001928E-02 0.  1.
    10030    2    1    2    0    0  0.00000000000E+00  0.00000000000E+00 -0.13190898582E+04  0.21042459081E+04  0.16394672269E+04 0.  0.
        4    1    3    3  502    0 -0.54112101735E+03 -0.58272670738E+03 -0.40419994567E+03  0.89205469557E+03  0.12699999809E+01 0. -1.
       -4    1    3    3    0  502  0.54112101735E+03  0.58272670738E+03 -0.91488991250E+03  0.12121912126E+04  0.12699999809E+01 0.  1.
</event>
<event>
 5   0  0.9844690E-04  0.1598323E+04  0.7818609E-02  0.8821579E-01
       -2   -1    0    0    0  501  0.00000000000E+00  0.00000000000E+00  0.41456879478E+03  0.41456879479E+03  0.25500000920E-02 0. -1.
        2   -1    0    0  501    0  0.00000000000E+00  0.00000000000E+00 -0.15405385622E+04  0.15405385622E+04  0.25500000920E-02 0.  1.
    10030    2    1    2    0    0  0.00000000000E+00  0.00000000000E+00 -0.11259697674E+04  0.19551073570E+04  0.15983231401E+04 0.  0.
        3    1    3    3  502    0 -0.45444317379E+03  0.43831647730E+03 -0.11622639125E+04  0.13226856562E+04  0.10100000352E+00 0.  1.
       -3    1    3    3    0  502  0.45444317379E+03 -0.43831647730E+03  0.36294145121E+02  0.63242170080E+03  0.10100000352E+00 0. -1.
</event>
<event>
 5   0  0.1030027E-03  0.1592037E+04  0.7818609E-02  0.8825455E-01
        2   -1    0    0  501    0  0.00000000000E+00  0.00000000000E+00  0.88627430493E+03  0.88627430493E+03  0.25500000920E-02 0.  1.
       -2   -1    0    0    0  501  0.00000000000E+00  0.00000000000E+00 -0.71495391244E+03  0.71495391244E+03  0.25500000920E-02 0. -1.
    10030    2    1    2    0    0  0.00000000000E+00  0.00000000000E+00  0.17132039249E+03  0.16012282174E+04  0.15920367858E+04 0.  0.
        1    1    3    3  502    0 -0.56920179921E+03  0.26491736324E+02 -0.47338406175E+03  0.74080022291E+03  0.50400001928E-02 0. -1.
       -1    1    3    3    0  502  0.56920179921E+03 -0.26491736324E+02  0.64470445423E+03  0.86042799446E+03  0.50400001928E-02 0.  1.
</event>
<event>
 5   0  0.5281116E-04  0.1572898E+04  0.7818609E-02  0.8837373E-01
       -1   -1    0    0    0  501  0.00000000000E+00  0.00000000000E+00  0.73896470466E+03  0.73896470467E+03  0.50400001928E-02 0. -1.
        1   -1    0    0  501    0  0.00000000000E+00  0.00000000000E+00 -0.83698472704E+03  0.83698472705E+03  0.50400001928E-02 0.  1.
    10030    2    1    2    0    0  0.00000000000E+00  0.00000000000E+00 -0.98020022377E+02  0.15759494317E+04  0.15728981806E+04 0.  0.
        2    1    3    3  502    0  0.53766268668E+03  0.55549005518E+03 -0.19369167731E+03  0.79697354531E+03  0.25500000920E-02 0. -1.
       -2    1    3    3    0  502 -0.53766268668E+03 -0.55549005518E+03  0.95671654933E+02  0.77897588642E+03  0.25500000920E-02 0.  1.
</event>
<event>
 5   0  0.1037321E-03  0.1607858E+04  0.7818609E-02  0.8815735E-01
       -2   -1    0    0    0  501  0.00000000000E+00  0.00000000000E+00  0.42945985998E+03  0.42945985999E+03  0.25500000920E-02 0. -1.
        2   -1    0    0  501    0  0.00000000000E+00  0.00000000000E+00 -0.15049183202E+04  0.15049183202E+04  0.25500000920E-02 0.  1.
    10030    2    1    2    0    0  0.00000000000E+00  0.00000000000E+00 -0.10754584602E+04  0.19343781802E+04  0.16078582165E+04 0.  0.
        5    1    3    3  502    0  0.23145871752E+03 -0.65933224581E+03 -0.59533852519E+02  0.70132625637E+03  0.46999998093E+01 0.  1.
       -5    1    3    3    0  502 -0.23145871752E+03  0.65933224581E+03 -0.10159246077E+04  0.12330519238E+04  0.46999998093E+01 0. -1.
</event>
<event>
 5   0  0.5288658E-04  0.1624073E+04  0.7818609E-02  0.8805894E-01
       -1   -1    0    0    0  501  0.00000000000E+00  0.00000000000E+00  0.94902339863E+03  0.94902339865E+03  0.50400001928E-02 0. -1.
        1   -1    0    0  501    0  0.00000000000E+00  0.00000000000E+00 -0.69482280853E+03  0.69482280855E+03  0.50400001928E-02 0.  1.
    10030    2    1    2    0    0  0.00000000000E+00  0.00000000000E+00  0.25420059010E+03  0.16438462072E+04  0.16240727856E+04 0.  0.
        1    1    3    3  502    0  0.73946849123E+02 -0.69532045039E+03  0.54500050606E+03  0.88654622940E+03  0.50400001928E-02 0. -1.
       -1    1    3    3    0  502 -0.73946849123E+02  0.69532045039E+03 -0.29079991596E+03  0.75729997780E+03  0.50400001928E-02 0.  1.
</event>
<event>
 5   0  0.1030027E-03  0.1607798E+04  0.7818609E-02  0.8815772E-01
        2   -1    0    0  501    0  0.00000000000E+00  0.00000000000E+00  0.63976801399E+03  0.63976801400E+03  0.25500000920E-02 0.  1.
       -2   -1    0    0    0  501  0.00000000000E+00  0.00000000000E+00 -0.10101372406E+04  0.10101372406E+04  0.25500000920E-02 0. -1.
    10030    2    1    2    0    0  0.00000000000E+00  0.00000000000E+00 -0.37036922664E+03  0.16499052546E+04  0.16077978683E+04 0.  0.
        1    1    3    3  502    0 -0.70064452156E+03  0.15111537932E+03  0.18837498694E+03  0.74109630898E+03  0.50400001928E-02 0.  1.
       -1    1    3    3    0  502  0.70064452156E+03 -0.15111537932E+03 -0.55874421358E+03  0.90880894565E+03  0.50400001928E-02 0. -1.
</event>
<event>
 5   0  0.1057872E-03  0.1600416E+04  0.7818609E-02  0.8820292E-01
        2   -1    0    0  501    0  0.00000000000E+00  0.00000000000E+00  0.95311068710E+03  0.95311068710E+03  0.25500000920E-02 0. -1.
       -2   -1    0    0    0  501  0.00000000000E+00  0.00000000000E+00 -0.67183502092E+03  0.67183502092E+03  0.25500000920E-02 0.  1.
    10030    2    1    2    0    0  0.00000000000E+00  0.00000000000E+00  0.28127566618E+03  0.16249457080E+04  0.16004163688E+04 0.  0.
        2    1    3    3  502    0  0.78459987272E+03 -0.67396586301E+02 -0.36453575409E+01  0.78749765000E+03  0.25500000920E-02 0.  1.
       -2    1    3    3    0  502 -0.78459987272E+03  0.67396586301E+02  0.28492102372E+03  0.83744805802E+03  0.25500000920E-02 0. -1.
</event>
<event>
 5   0  0.5425525E-04  0.1579099E+04  0.7818609E-02  0.8833492E-01
        1   -1    0    0  501    0  0.00000000000E+00  0.00000000000E+00  0.94925945097E+03  0.94925945099E+03  0.50400001928E-02 0. -1.
       -1   -1    0    0    0  501  0.00000000000E+00  0.00000000000E+00 -0.65671030088E+03  0.65671030090E+03  0.50400001928E-02 0.  1.
    10030    2    1    2    0    0  0.00000000000E+00  0.00000000000E+00  0.29254915010E+03  0.16059697519E+04  0.15790990592E+04 0.  0.
        5    1    3    3  502    0  0.72681589715E+03 -0.16269882347E+03  0.41271370254E+03  0.85152037308E+03  0.46999998093E+01 0. -1.
       -5    1    3    3    0  502 -0.72681589715E+03  0.16269882347E+03 -0.12016455245E+03  0.75444937880E+03  0.46999998093E+01 0.  1.
</event>
<event>
 5   0  0.5623061E-04  0.1603419E+04  0.7818609E-02  0.8818450E-01
        1   -1    0    0  501    0  0.00000000000E+00  0.00000000000E+00  0.15160077475E+04  0.15160077475E+04  0.50400001928E-02 0. -1.
       -1   -1    0    0    0  501  0.00000000000E+00  0.00000000000E+00 -0.42396772409E+03  0.42396772412E+03  0.50400001928E-02 0.  1.
    10030    2    1    2    0    0  0.00000000000E+00  0.00000000000E+00  0.10920400234E+04  0.19399754716E+04  0.16034192894E+04 0.  0.
        3    1    3    3  502    0 -0.72426637664E+02  0.72477214123E+03  0.14075246485E+03  0.74185681981E+03  0.10100000352E+00 0. -1.
       -3    1    3    3    0  502  0.72426637664E+02 -0.72477214123E+03  0.95128755853E+03  0.11981186518E+04  0.10100000352E+00 0.  1.
</event>
<event>
 5   0  0.9844690E-04  0.1554637E+04  0.7818609E-02  0.8848911E-01
       -2   -1    0    0    0  501  0.00000000000E+00  0.00000000000E+00  0.18288915439E+04  0.18288915439E+04  0.25500000920E-02 0.  1.
        2   -1    0    0  501    0  0.00000000000E+00  0.00000000000E+00 -0.33037714661E+03  0.33037714662E+03  0.25500000920E-02 0. -1.
    10030    2    1    2    0    0  0.00000000000E+00  0.00000000000E+00  0.14985143972E+04  0.21592686905E+04  0.15546368962E+04 0.  0.
        3    1    3    3  502    0 -0.45587151620E+03 -0.20569260155E+03  0.15757480057E+04  0.16532120473E+04  0.10100000352E+00 0.  1.
       -3    1    3    3    0  502  0.45587151620E+03  0.20569260155E+03 -0.77233608482E+02  0.50605664316E+03  0.10100000352E+00 0. -1.
</event>
<event>
 5   0  0.1037321E-03  0.1629248E+04  0.7818609E-02  0.8802779E-01
       -2   -1    0    0    0  501  0.00000000000E+00  0.00000000000E+00  0.48317052715E+03  0.48317052716E+03  0.25500000920E-02 0. -1.
        2   -1    0    0  501    0  0.00000000000E+00  0.00000000000E+00 -0.13734537210E+04  0.13734537210E+04  0.25500000920E-02 0.  1.
    10030    2    1    2    0    0  0.00000000000E+00  0.00000000000E+00 -0.89028319387E+03  0.18566242482E+04  0.16292481191E+04 0.  0.
        5    1    3    3  502    0 -0.17326426064E+03  0.52118709307E+03 -0.11307108760E+04  0.12570543604E+04  0.46999998093E+01 0.  1.
       -5    1    3    3    0  502  0.17326426064E+03 -0.52118709307E+03  0.24042768211E+03  0.59956988777E+03  0.46999998093E+01 0. -1.
</event>
<event>
 5   0  0.5425525E-04  0.1459526E+04  0.7818609E-02  0.8911823E-01
       -1   -1    0    0    0  501  0.00000000000E+00  0.00000000000E+00  0.64444678486E+03  0.64444678488E+03  0.50400001928E-02 0.  1.
        1   -1    0    0  501    0  0.00000000000E+00  0.00000000000E+00 -0.82637412849E+03  0.82637412851E+03  0.50400001928E-02 0. -1.
    10030    2    1    2    0    0  0.00000000000E+00  0.00000000000E+00 -0.18192734363E+03  0.14708209134E+04  0.14595261563E+04 0.  0.
        5    1    3    3  502    0  0.91178130285E+02 -0.26335159373E+03 -0.77061936341E+03  0.81947776457E+03  0.46999998093E+01 0. -1.
       -5    1    3    3    0  502 -0.91178130285E+02  0.26335159373E+03  0.58869201978E+03  0.65134314882E+03  0.46999998093E+01 0.  1.
</event>
<event>
 5   0  0.1030027E-03  0.1735492E+04  0.7818609E-02  0.8741377E-01
        2   -1    0    0  501    0  0.00000000000E+00  0.00000000000E+00  0.11055229023E+04  0.11055229023E+04  0.25500000920E-02 0.  1.
       -2   -1    0    0    0  501  0.00000000000E+00  0.00000000000E+00 -0.68111033767E+03  0.68111033768E+03  0.25500000920E-02 0. -1.
    10030    2    1    2    0    0  0.00000000000E+00  0.00000000000E+00  0.42441256462E+03  0.17866332400E+04  0.17354919502E+04 0.  0.
        1    1    3    3  502    0 -0.66672349418E+03  0.55463816448E+03  0.24203183586E+03  0.90040164415E+03  0.50400001928E-02 0. -1.
       -1    1    3    3    0  502  0.66672349418E+03 -0.55463816448E+03  0.18238072876E+03  0.88623159582E+03  0.50400001928E-02 0.  1.
</event>
<event>
 5   0  0.5532881E-04  0.1610380E+04  0.7818609E-02  0.8814197E-01
        1   -1    0    0  501    0  0.00000000000E+00  0.00000000000E+00  0.16064649436E+04  0.16064649436E+04  0.50400001928E-02 0. -1.
       -1   -1    0    0    0  501  0.00000000000E+00  0.00000000000E+00 -0.40357605071E+03  0.40357605074E+03  0.50400001928E-02 0.  1.
    10030    2    1    2    0    0  0.00000000000E+00  0.00000000000E+00  0.12028888929E+04  0.20100409943E+04  0.16103798031E+04 0.  0.
        4    1    3    3  502    0 -0.67323448633E+03  0.42443880353E+03  0.75398894874E+03  0.10963092261E+04  0.12699999809E+01 0. -1.
       -4    1    3    3    0  502  0.67323448633E+03 -0.42443880353E+03  0.44889994415E+03  0.91373176824E+03  0.12699999809E+01 0.  1.
</event>
<event>
 5   0  0.9844690E-04  0.1604766E+04  0.7818609E-02  0.8817626E-01
        2   -1    0    0  501    0  0.00000000000E+00  0.00000000000E+00  0.88579362882E+03  0.88579362882E+03  0.25500000920E-02 0. -1.
       -2   -1    0    0    0  501  0.00000000000E+00  0.00000000000E+00 -0.72682643126E+03  0.72682643126E+03  0.25500000920E-02 0.  1.
    10030    2    1    2    0    0  0.00000000000E+00  0.00000000000E+00  0.15896719756E+03  0.16126200601E+04  0.16047656802E+04 0.  0.
        3    1    3    3  502    0 -0.69319516249E+03  0.19792920472E+03 -0.27455128161E+03  0.77141034464E+03  0.10100000352E+00 0.  1.
       -3    1    3    3    0  502  0.69319516249E+03 -0.19792920472E+03  0.43351847916E+03  0.84120971544E+03  0.10100000352E+00 0. -1.
</event>
<event>
 5   0  0.1000121E-03  0.1749674E+04  0.7818609E-02  0.8733530E-01
       -2   -1    0    0    0  501  0.00000000000E+00  0.00000000000E+00  0.77358613140E+03  0.77358613140E+03  0.25500000920E-02 0. -1.
        2   -1    0    0  501    0  0.00000000000E+00  0.00000000000E+00 -0.98934027879E+03  0.98934027880E+03  0.25500000920E-02 0.  1.
    10030    2    1    2    0    0  0.00000000000E+00  0.00000000000E+00 -0.21575414740E+03  0.17629264102E+04  0.17496741627E+04 0.  0.
        4    1    3    3  502    0 -0.71101231661E+02  0.86595837317E+03 -0.21062501888E+03  0.89403791904E+03  0.12699999809E+01 0.  1.
       -4    1    3    3    0  502  0.71101231661E+02 -0.86595837317E+03 -0.51291285123E+01  0.86888849116E+03  0.12699999809E+01 0. -1.
</event>
<event>
 5   0  0.1057872E-03  0.1483179E+04  0.7818609E-02  0.8895716E-01
       -2   -1    0    0    0  501  0.00000000000E+00  0.00000000000E+00  0.36141362235E+03  0.36141362236E+03  0.25500000920E-02 0. -1.
        2   -1    0    0  501    0  0.00000000000E+00  0.00000000000E+00 -0.15216784043E+04  0.15216784043E+04  0.25500000920E-02 0.  1.
    10030    2    1    2    0    0  0.00000000000E+00  0.00000000000E+00 -0.11602647819E+04  0.18830920267E+04  0.14831794283E+04 0.  0.
        2    1    3    3  502    0 -0.57470490600E+03  0.26375584751E+03 -0.88238181572E+02  0.63846601536E+03  0.25500000920E-02 0. -1.
       -2    1    3    3    0  502  0.57470490600E+03 -0.26375584751E+03 -0.10720266004E+04  0.12446260113E+04  0.25500000920E-02 0.  1.
</event>
<event>
 5   0  0.1057872E-03  0.1642144E+04  0.7818609E-02  0.8795068E-01
        2   -1    0    0  501    0  0.00000000000E+00  0.00000000000E+00  0.16164423914E+04  0.16164423914E+04  0.25500000920E-02 0. -1.
       -2   -1    0    0    0  501  0.00000000000E+00  0.00000000000E+00 -0.41706337359E+03  0.41706337360E+03  0.25500000920E-02 0.  1.
    10030    2    1    2    0    0  0.00000000000E+00  0.00000000000E+00  0.11993790178E+04  0.20335057650E+04  0.16421436198E+04 0.  0.
        2    1    3    3  502    0 -0.40032378111E+03  0.26861434715E+03  0.14227289400E+04  0.15021885481E+04  0.25500000920E-02 0. -1.
       -2    1    3    3    0  502  0.40032378111E+03 -0.26861434715E+03 -0.22334992223E+03  0.53131721691E+03  0.25500000920E-02 0.  1.
</event>
<event>
 5   0  0.1030027E-03  0.1650756E+04  0.7818609E-02  0.8789959E-01
        2   -1    0    0  501    0  0.00000000000E+00  0.00000000000E+00  0.57556419324E+03  0.57556419325E+03  0.25500000920E-02 0.  1.
       -2   -1    0    0    0  501  0.00000000000E+00  0.00000000000E+00 -0.11836197291E+04  0.11836197291E+04  0.25500000920E-02 0. -1.
    10030    2    1    2    0    0  0.00000000000E+00  0.00000000000E+00 -0.60805553586E+03  0.17591839224E+04  0.16507563533E+04 0.  0.
        1    1    3    3  502    0  0.80777900926E+03  0.14272028461E+03 -0.20651261422E+03  0.84588620234E+03  0.50400001928E-02 0.  1.
       -1    1    3    3    0  502 -0.80777900926E+03 -0.14272028461E+03 -0.40154292164E+03  0.91329772002E+03  0.50400001928E-02 0. -1.
</event>
<event>
 5   0  0.5425525E-04  0.1576222E+04  0.7818609E-02  0.8835290E-01
        1   -1    0    0  501    0  0.00000000000E+00  0.00000000000E+00  0.14974236475E+04  0.14974236475E+04  0.50400001928E-02 0.  1.
       -1   -1    0    0    0  501  0.00000000000E+00  0.00000000000E+00 -0.41479191241E+03  0.41479191244E+03  0.50400001928E-02 0. -1.
    10030    2    1    2    0    0  0.00000000000E+00  0.00000000000E+00  0.10826317351E+04  0.19122155600E+04  0.15762223428E+04 0.  0.
        5    1    3    3  502    0  0.26702892328E+03 -0.73327291319E+03  0.40784847760E+03  0.88054306071E+03  0.46999998093E+01 0. -1.
       -5    1    3    3    0  502 -0.26702892328E+03  0.73327291319E+03  0.67478325751E+03  0.10316724992E+04  0.46999998093E+01 0.  1.
</event>
<event>
 5   0  0.5288658E-04  0.1597110E+04  0.7818609E-02  0.8822326E-01
        1   -1    0    0  501    0  0.00000000000E+00  0.00000000000E+00  0.16694416966E+04  0.16694416966E+04  0.50400001928E-02 0.  1.
       -1   -1    0    0    0  501  0.00000000000E+00  0.00000000000E+00 -0.38197791350E+03  0.38197791353E+03  0.50400001928E-02 0. -1.
    10030    2    1    2    0    0  0.00000000000E+00  0.00000000000E+00  0.12874637831E+04  0.20514196101E+04  0.15971097095E+04 0.  0.
        1    1    3    3  502    0  0.69008155573E+03 -0.36841996112E+03  0.84982243226E+03  0.11550515087E+04  0.50400001928E-02 0.  1.
       -1    1    3    3    0  502 -0.69008155573E+03  0.36841996112E+03  0.43764135083E+03  0.89636810145E+03  0.50400001928E-02 0. -1.
</event>
<event>
 5   0  0.1030027E-03  0.1566177E+04  0.7818609E-02  0.8841601E-01
        2   -1    0    0  501    0  0.00000000000E+00  0.00000000000E+00  0.19911883140E+04  0.19911883140E+04  0.25500000920E-02 0.  1.
       -2   -1    0    0    0  501  0.00000000000E+00  0.00000000000E+00 -0.30797061654E+03  0.30797061655E+03  0.25500000920E-02 0. -1.
    10030    2    1    2    0    0  0.00000000000E+00  0.00000000000E+00  0.16832176975E+04  0.22991589306E+04  0.15661768645E+04 0.  0.
        1    1    3    3  502    0  0.25250219353E+03  0.50189068029E+02  0.19272904439E+04  0.19444085876E+04  0.50400001928E-02 0.  1.
       -1    1    3    3    0  502 -0.25250219353E+03 -0.50189068029E+02 -0.24407274641E+03  0.35475034300E+03  0.50400001928E-02 0. -1.
</event>
<event>
 5   0  0.5281116E-04  0.1571818E+04  0.7818609E-02  0.8838051E-01
        1   -1    0    0  501    0  0.00000000000E+00  0.00000000000E+00  0.10243999847E+04  0.10243999847E+04  0.50400001928E-02 0.  1.
       -1   -1    0    0    0  501  0.00000000000E+00  0.00000000000E+00 -0.60294084236E+03  0.60294084238E+03  0.50400001928E-02 0. -1.
    10030    2    1    2    0    0  0.00000000000E+00  0.00000000000E+00  0.42145914236E+03  0.16273408271E+04  0.15718175336E+04 0.  0.
        2    1    3    3  502    0 -0.29652740342E+03  0.72708392643E+03  0.24464418754E+03  0.82245383795E+03  0.25500000920E-02 0.  1.
       -2    1    3    3    0  502  0.29652740342E+03 -0.72708392643E+03  0.17681495481E+03  0.80488698915E+03  0.25500000920E-02 0. -1.
</event>
<event>
 5   0  0.5623061E-04  0.1619944E+04  0.7818609E-02  0.8808389E-01
        1   -1    0    0  501    0  0.00000000000E+00  0.00000000000E+00  0.11986458535E+04  0.11986458535E+04  0.50400001928E-02 0.  1.
       -1   -1    0    0    0  501  0.00000000000E+00  0.00000000000E+00 -0.54732953850E+03  0.54732953852E+03  0.50400001928E-02 0. -1.
    10030    2    1    2    0    0  0.00000000000E+00  0.00000000000E+00  0.65131631504E+03  0.17459753921E+04  0.16199435569E+04 0.  0.
        3    1    3    3  502    0  0.66362628651E+03 -0.40318312394E+03  0.57401519281E+03  0.96563447088E+03  0.10100000352E+00 0.  1.
       -3    1    3    3    0  502 -0.66362628651E+03  0.40318312394E+03  0.77301122232E+02  0.78034092119E+03  0.10100000352E+00 0. -1.
</event>
<event>
 5   0  0.5532881E-04  0.1691219E+04  0.7818609E-02  0.8766388E-01
       -1   -1    0    0    0  501  0.00000000000E+00  0.00000000000E+00  0.74704509735E+03  0.74704509737E+03  0.50400001928E-02 0.  1.
        1   -1    0    0  501    0  0.00000000000E+00  0.00000000000E+00 -0.95717831246E+03  0.95717831248E+03  0.50400001928E-02 0. -1.
    10030    2    1    2    0    0  0.00000000000E+00  0.00000000000E+00 -0.21013321511E+03  0.17042234098E+04  0.16912189280E+04 0.  0.
        4    1    3    3  502    0  0.17583573845E+03 -0.82271889738E+03 -0.19098158124E+03  0.86270514563E+03  0.12699999809E+01 0.  1.
       -4    1    3    3    0  502 -0.17583573845E+03  0.82271889738E+03 -0.19151633869E+02  0.84151826421E+03  0.12699999809E+01 0. -1.
</event>
<event>
 5   0  0.1030027E-03  0.1596561E+04  0.7818609E-02  0.8822663E-01
       -2   -1    0    0    0  501  0.00000000000E+00  0.00000000000E+00  0.28497728994E+03  0.28497728996E+03  0.25500000920E-02 0. -1.
        2   -1    0    0  501    0  0.00000000000E+00  0.00000000000E+00 -0.22361503619E+04  0.22361503619E+04  0.25500000920E-02 0.  1.
    10030    2    1    2    0    0  0.00000000000E+00  0.00000000000E+00 -0.19511730720E+04  0.25211276519E+04  0.15965613926E+04 0.  0.
        1    1    3    3  502    0 -0.42597610147E+03  0.36720535007E+03 -0.18701937788E+04  0.19529260555E+04  0.50400001928E-02 0.  1.
       -1    1    3    3    0  502  0.42597610147E+03 -0.36720535007E+03 -0.80979293192E+02  0.56820159635E+03  0.50400001928E-02 0. -1.
</event>
<event>
 5   0  0.5281116E-04  0.1635232E+04  0.7818609E-02  0.8799192E-01
        1   -1    0    0  501    0  0.00000000000E+00  0.00000000000E+00  0.46918124039E+03  0.46918124042E+03  0.50400001928E-02 0. -1.
       -1   -1    0    0    0  501  0.00000000000E+00  0.00000000000E+00 -0.14248130400E+04  0.14248130400E+04  0.50400001928E-02 0.  1.
    10030    2    1    2    0    0  0.00000000000E+00  0.00000000000E+00 -0.95563179956E+03  0.18939942804E+04  0.16352315426E+04 0.  0.
        2    1    3    3  502    0 -0.11147702492E+03 -0.41538638118E+03 -0.12832087796E+04  0.13533653405E+04  0.25500000920E-02 0.  1.
       -2    1    3    3    0  502  0.11147702492E+03  0.41538638118E+03  0.32757698007E+03  0.54062893988E+03  0.25500000920E-02 0. -1.
</event>
<event>
 5   0  0.5623061E-04  0.1580111E+04  0.7818609E-02  0.8832861E-01
       -1   -1    0    0    0  501  0.00000000000E+00  0.00000000000E+00  0.26674170028E+03  0.26674170033E+03  0.50400001928E-02 0.  1.
        1   -1    0    0  501    0  0.00000000000E+00  0.00000000000E+00 -0.23400443979E+04  0.23400443979E+04  0.50400001928E-02 0. -1.
    10030    2    1    2    0    0  0.00000000000E+00  0.00000000000E+00 -0.20733026977E+04  0.26067860983E+04  0.15801106563E+04 0.  0.
        3    1    3    3  502    0 -0.51520897554E+03  0.55912975577E+03 -0.68235438087E+03  0.10216035844E+04  0.10100000352E+00 0.  1.
       -3    1    3    3    0  502  0.51520897554E+03 -0.55912975577E+03 -0.13909483168E+04  0.15851825139E+04  0.10100000352E+00 0. -1.
</event>
<event>
 5   0  0.5425525E-04  0.1591886E+04  0.7818609E-02  0.8825548E-01
       -1   -1    0    0    0  501  0.00000000000E+00  0.00000000000E+00  0.55220145651E+03  0.55220145654E+03  0.50400001928E-02 0. -1.
        1   -1    0    0  501    0  0.00000000000E+00  0.00000000000E+00 -0.11472723564E+04  0.11472723564E+04  0.50400001928E-02 0.  1.
    10030    2    1    2    0    0  0.00000000000E+00  0.00000000000E+00 -0.59507089990E+03  0.16994738130E+04  0.15918862601E+04 0.  0.
        5    1    3    3  502    0 -0.68178294871E+03 -0.27639704218E+03 -0.62184249412E+03  0.96329304553E+03  0.46999998093E+01 0.  1.
       -5    1    3    3    0  502  0.68178294871E+03  0.27639704218E+03  0.26771594214E+02  0.73618076743E+03  0.46999998093E+01 0. -1.
</event>
<event>
 5   0  0.1030027E-03  0.1598203E+04  0.7818609E-02  0.8821653E-01
        2   -1    0    0  501    0  0.00000000000E+00  0.00000000000E+00  0.20929104098E+04  0.20929104098E+04  0.25500000920E-02 0. -1.
       -2   -1    0    0    0  501  0.00000000000E+00  0.00000000000E+00 -0.30510777655E+03  0.30510777656E+03  0.25500000920E-02 0.  1.
    10030    2    1    2    0    0  0.00000000000E+00  0.00000000000E+00  0.17878026333E+04  0.23980181864E+04  0.15982030430E+04 0.  0.
        1    1    3    3  502    0  0.74867596361E+03  0.27019553524E+03  0.10004426966E+04  0.12784392496E+04  0.50400001928E-02 0.  1.
       -1    1    3    3    0  502 -0.74867596361E+03 -0.27019553524E+03  0.78735993662E+03  0.11195789367E+04  0.50400001928E-02 0. -1.
</event>
<event>
 5   0  0.3832500E-04  0.1596839E+04  0.7818609E-02  0.8822492E-01
       -3   -1    0    0    0  501  0.00000000000E+00  0.00000000000E+00  0.48166998631E+03  0.48166999689E+03  0.10100000352E+00 0.  1.
        3   -1    0    0  501    0  0.00000000000E+00  0.00000000000E+00 -0.13234664395E+04  0.13234664434E+04  0.10100000352E+00 0. -1.
    10030    2    1    2    0    0  0.00000000000E+00  0.00000000000E+00 -0.84179645321E+03  0.18051364403E+04  0.15968394720E+04 0.  0.
        3    1    3    3  502    0 -0.25592193393E+03 -0.51046115392E+03 -0.10517295727E+04  0.11967463099E+04  0.10100000352E+00 0. -1.
       -3    1    3    3    0  502  0.25592193393E+03  0.51046115392E+03  0.20993311946E+03  0.60839013040E+03  0.10100000352E+00 0.  1.
</event>
<event>
 5   0  0.5425525E-04  0.1589609E+04  0.7818609E-02  0.8826957E-01
        1   -1    0    0  501    0  0.00000000000E+00  0.00000000000E+00  0.94173232060E+03  0.94173232061E+03  0.50400001928E-02 0. -1.
       -1   -1    0    0    0  501  0.00000000000E+00  0.00000000000E+00 -0.67079975708E+03  0.67079975710E+03  0.50400001928E-02 0.  1.
    10030    2    1    2    0    0  0.00000000000E+00  0.00000000000E+00  0.27093256352E+03  0.16125320777E+04  0.15896085203E+04 0.  0.
        5    1    3    3  502    0 -0.59013164706E+03 -0.19255899368E+01  0.67552766183E+03  0.89700545185E+03  0.46999998093E+01 0. -1.
       -5    1    3    3    0  502  0.59013164706E+03  0.19255899368E+01 -0.40459509831E+03  0.71552662587E+03  0.46999998093E+01 0.  1.
</event>
<event>
 5   0  0.1057872E-03  0.1626513E+04  0.7818609E-02  0.8804424E-01
        2   -1    0    0  501    0  0.00000000000E+00  0.00000000000E+00  0.13737940854E+04  0.13737940854E+04  0.25500000920E-02 0. -1.
       -2   -1    0    0    0  501  0.00000000000E+00  0.00000000000E+00 -0.48143017127E+03  0.48143017128E+03  0.25500000920E-02 0.  1.
    10030    2    1    2    0    0  0.00000000000E+00  0.00000000000E+00  0.89236391414E+03  0.18552242567E+04  0.16265127382E+04 0.  0.
        2    1    3    3  502    0  0.80157236917E+03 -0.12265331711E+03  0.37564969473E+03  0.89368607037E+03  0.25500000920E-02 0. -1.
       -2    1    3    3    0  502 -0.80157236917E+03  0.12265331711E+03  0.51671421941E+03  0.96153818633E+03  0.25500000920E-02 0.  1.
</event>
<event>
 5   0  0.5281116E-04  0.1694358E+04  0.7818609E-02  0.8764589E-01
       -1   -1    0    0    0  501  0.00000000000E+00  0.00000000000E+00  0.71557079284E+03  0.71557079286E+03  0.50400001928E-02 0. -1.
        1   -1    0    0  501    0  0.00000000000E+00  0.00000000000E+00 -0.10029924490E+04  0.10029924490E+04  0.50400001928E-02 0.  1.
    10030    2    1    2    0    0  0.00000000000E+00  0.00000000000E+00 -0.28742165617E+03  0.17185632419E+04  0.16943578158E+04 0.  0.
        2    1    3    3  502    0 -0.36295813418E+03 -0.76284449393E+03 -0.20819399249E+03  0.87006612829E+03  0.25500000920E-02 0.  1.
       -2    1    3    3    0  502  0.36295813418E+03  0.76284449393E+03 -0.79227663689E+02  0.84849711360E+03  0.25500000920E-02 0. -1.
</event>
<event>
 5   0  0.1037321E-03  0.1595710E+04  0.7818609E-02  0.8823188E-01
       -2   -1    0    0    0  501  0.00000000000E+00  0.00000000000E+00  0.55774696698E+03  0.55774696698E+03  0.25500000920E-02 0.  1.
        2   -1    0    0  501    0  0.00000000000E+00  0.00000000000E+00 -0.11413293744E+04  0.11413293744E+04  0.25500000920E-02 0. -1.
    10030    2    1    2    0    0  0.00000000000E+00  0.00000000000E+00 -0.58358240738E+03  0.16990763413E+04  0.15957104961E+04 0.  0.
        5    1    3    3  502    0 -0.21647664695E+03  0.46213094999E+03 -0.94480772868E+03  0.10738300088E+04  0.46999998093E+01 0. -1.
       -5    1    3    3    0  502  0.21647664695E+03 -0.46213094999E+03  0.36122532130E+03  0.62524633255E+03  0.46999998093E+01 0.  1.
</event>
<event>
 5   0  0.1000121E-03  0.1611168E+04  0.7818609E-02  0.8813716E-01
        2   -1    0    0  501    0  0.00000000000E+00  0.00000000000E+00  0.24428948658E+04  0.24428948658E+04  0.25500000920E-02 0. -1.
       -2   -1    0    0    0  501  0.00000000000E+00  0.00000000000E+00 -0.26565433695E+03  0.26565433696E+03  0.25500000920E-02 0.  1.
    10030    2    1    2    0    0  0.00000000000E+00  0.00000000000E+00  0.21772405288E+04  0.27085492027E+04  0.16111680431E+04 0.  0.
        4    1    3    3  502    0 -0.21799310948E+03 -0.34574679255E+03 -0.78391751343E+02  0.41618351712E+03  0.12699999809E+01 0.  1.
       -4    1    3    3    0  502  0.21799310948E+03  0.34574679255E+03  0.22556322802E+04  0.22923656856E+04  0.12699999809E+01 0. -1.
</event>
<event>
 5   0  0.1000121E-03  0.1602104E+04  0.7818609E-02  0.8819257E-01
        2   -1    0    0  501    0  0.00000000000E+00  0.00000000000E+00  0.17151839707E+04  0.17151839707E+04  0.25500000920E-02 0.  1.
       -2   -1    0    0    0  501  0.00000000000E+00  0.00000000000E+00 -0.37411961821E+03  0.37411961822E+03  0.25500000920E-02 0. -1.
    10030    2    1    2    0    0  0.00000000000E+00  0.00000000000E+00  0.13410643525E+04  0.20893035889E+04  0.16021035825E+04 0.  0.
        4    1    3    3  502    0 -0.18805662586E+03  0.51934652288E+03 -0.86066536259E+02  0.55901267152E+03  0.12699999809E+01 0. -1.
       -4    1    3    3    0  502  0.18805662586E+03 -0.51934652288E+03  0.14271308888E+04  0.15302909174E+04  0.12699999809E+01 0.  1.
</event>
<event>
 5   0  0.5425525E-04  0.1615611E+04  0.7818609E-02  0.8811015E-01
       -1   -1    0    0    0  501  0.00000000000E+00  0.00000000000E+00  0.53803355983E+03  0.53803355985E+03  0.50400001928E-02 0.  1.
        1   -1    0    0  501    0  0.00000000000E+00  0.00000000000E+00 -0.12128414358E+04  0.12128414358E+04  0.50400001928E-02 0. -1.
    10030    2    1    2    0    0  0.00000000000E+00  0.00000000000E+00 -0.67480787599E+03  0.17508749957E+04  0.16156105908E+04 0.  0.
        5    1    3    3  502    0 -0.18692618896E+03  0.54975541167E+03  0.27117684652E+03  0.64088328490E+03  0.46999998093E+01 0.  1.
       -5    1    3    3    0  502  0.18692618896E+03 -0.54975541167E+03 -0.94598472251E+03  0.11099917108E+04  0.46999998093E+01 0. -1.
</event>
<event>
 5   0  0.5425525E-04  0.1576963E+04  0.7818609E-02  0.8834827E-01
        1   -1    0    0  501    0  0.00000000000E+00  0.00000000000E+00  0.87152883656E+03  0.87152883658E+03  0.50400001928E-02 0.  1.
       -1   -1    0    0    0  501  0.00000000000E+00  0.00000000000E+00 -0.71334783215E+03  0.71334783216E+03  0.50400001928E-02 0. -1.
    10030    2    1    2    0    0  0.00000000000E+00  0.00000000000E+00  0.15818100442E+03  0.15848766687E+04  0.15769631654E+04 0.  0.
        5    1    3    3  502    0  0.11680792966E+03  0.67994353440E+03  0.46273085842E+03  0.83072813829E+03  0.46999998093E+01 0.  1.
       -5    1    3    3    0  502 -0.11680792966E+03 -0.67994353440E+03 -0.30454985400E+03  0.75414853045E+03  0.46999998093E+01 0. -1.
</event>
<event>
 5   0  0.5425525E-04  0.1634664E+04  0.7818609E-02  0.8799531E-01
       -1   -1    0    0    0  501  0.00000000000E+00  0.00000000000E+00  0.37097847221E+03  0.37097847224E+03  0.50400001928E-02 0.  1.
        1   -1    0    0  501    0  0.00000000000E+00  0.00000000000E+00 -0.18007290907E+04  0.18007290907E+04  0.50400001928E-02 0. -1.
    10030    2    1    2    0    0  0.00000000000E+00  0.00000000000E+00 -0.14297506185E+04  0.21717075629E+04  0.16346641575E+04 0.  0.
        5    1    3    3  502    0  0.53120699190E+03  0.12947329936E+03 -0.15219699978E+04  0.16172071505E+04  0.46999998093E+01 0. -1.
       -5    1    3    3    0  502 -0.53120699190E+03 -0.12947329936E+03  0.92219379287E+02  0.55450041245E+03  0.46999998093E+01 0.  1.
</event>
<event>
 5   0  0.1000121E-03  0.1478301E+04  0.7818609E-02  0.8899012E-01
        2   -1    0    0  501    0  0.00000000000E+00  0.00000000000E+00  0.27738268471E+03  0.27738268472E+03  0.25500000920E-02 0.  1.
       -2   -1    0    0    0  501  0.00000000000E+00  0.00000000000E+00 -0.19696369550E+04  0.19696369550E+04  0.25500000920E-02 0. -1.
    10030    2    1    2    0    0  0.00000000000E+00  0.00000000000E+00 -0.16922542703E+04  0.22470196397E+04  0.14783006277E+04 0.  0.
        4    1    3    3  502    0  0.39881238406E+02 -0.76024858458E+02  0.26977708336E+03  0.28311054358E+03  0.12699999809E+01 0.  1.
       -4    1    3    3    0  502 -0.39881238406E+02  0.76024858458E+02 -0.19620313537E+04  0.19639090962E+04  0.12699999809E+01 0. -1.
</event>
<event>
 5   0  0.1037321E-03  0.1746190E+04  0.7818609E-02  0.8735451E-01
       -2   -1    0    0    0  501  0.00000000000E+00  0.00000000000E+00  0.14429103942E+04  0.14429103942E+04  0.25500000920E-02 0. -1.
        2   -1    0    0  501    0  0.00000000000E+00  0.00000000000E+00 -0.52830341930E+03  0.52830341930E+03  0.25500000920E-02 0.  1.
    10030    2    1    2    0    0  0.00000000000E+00  0.00000000000E+00  0.91460697487E+03  0.19712138135E+04  0.17461895601E+04 0.  0.
        5    1    3    3  502    0 -0.53285269742E+03  0.57875621534E+02 -0.32070611049E+03  0.62462475456E+03  0.46999998093E+01 0.  1.
       -5    1    3    3    0  502  0.53285269742E+03 -0.57875621534E+02  0.12353130854E+04  0.13465890589E+04  0.46999998093E+01 0. -1.
</event>
<event>
 5   0  0.5623061E-04  0.1585617E+04  0.7818609E-02  0.8829433E-01
        1   -1    0    0  501    0  0.00000000000E+00  0.00000000000E+00  0.83158157513E+03  0.83158157515E+03  0.50400001928E-02 0. -1.
       -1   -1    0    0    0  501  0.00000000000E+00  0.00000000000E+00 -0.75584330038E+03  0.75584330039E+03  0.50400001928E-02 0.  1.
    10030    2    1    2    0    0  0.00000000000E+00  0.00000000000E+00  0.75738274757E+02  0.15874248755E+04  0.15856170563E+04 0.  0.
        3    1    3    3  502    0  0.38230884240E+03  0.63546637410E+03  0.31848817913E+03  0.80710116716E+03  0.10100000352E+00 0. -1.
       -3    1    3    3    0  502 -0.38230884240E+03 -0.63546637410E+03 -0.24274990437E+03  0.78032370838E+03  0.10100000352E+00 0.  1.
</event>
<event>
 5   0  0.1000121E-03  0.1564023E+04  0.7818609E-02  0.8842960E-01
       -2   -1    0    0    0  501  0.00000000000E+00  0.00000000000E+00  0.40365838802E+03  0.40365838803E+03  0.25500000920E-02 0. -1.
        2   -1    0    0  501    0  0.00000000000E+00  0.00000000000E+00 -0.15149987286E+04  0.15149987286E+04  0.25500000920E-02 0.  1.
    10030    2    1    2    0    0  0.00000000000E+00  0.00000000000E+00 -0.11113403406E+04  0.19186571167E+04  0.15640229470E+04 0.  0.
        4    1    3    3  502    0  0.52729604473E+03 -0.22036496686E+03 -0.12105020447E+04  0.13386256573E+04  0.12699999809E+01 0.  1.
       -4    1    3    3    0  502 -0.52729604473E+03  0.22036496686E+03  0.99161704029E+02  0.58003145936E+03  0.12699999809E+01 0. -1.
</event>
<event>
 5   0  0.1030027E-03  0.1605433E+04  0.7818609E-02  0.8817217E-01
       -2   -1    0    0    0  501  0.00000000000E+00  0.00000000000E+00  0.48996359474E+03  0.48996359474E+03  0.25500000920E-02 0.  1.
        2   -1    0    0  501    0  0.00000000000E+00  0.00000000000E+00 -0.13151049944E+04  0.13151049944E+04  0.25500000920E-02 0. -1.
    10030    2    1    2    0    0  0.00000000000E+00  0.00000000000E+00 -0.82514139963E+03  0.18050685891E+04  0.16054327398E+04 0.  0.
        1    1    3    3  502    0 -0.79424627753E+03  0.11512348942E+03 -0.43114812537E+03  0.91102649425E+03  0.50400001928E-02 0. -1.
       -1    1    3    3    0  502  0.79424627753E+03 -0.11512348942E+03 -0.39399327426E+03  0.89404209486E+03  0.50400001928E-02 0.  1.
</event>
<event>
 5   0  0.5288658E-04  0.1630924E+04  0.7818609E-02  0.8801772E-01
       -1   -1    0    0    0  501  0.00000000000E+00  0.00000000000E+00  0.55494885925E+03  0.55494885927E+03  0.50400001928E-02 0.  1.
        1   -1    0    0  501    0  0.00000000000E+00  0.00000000000E+00 -0.11982698576E+04  0.11982698576E+04  0.50400001928E-02 0. -1.
    10030    2    1    2    0    0  0.00000000000E+00  0.00000000000E+00 -0.64332099833E+03  0.17532187169E+04  0.16309242662E+04 0.  0.
        1    1    3    3  502    0  0.37998923904E+03  0.70102718318E+03 -0.13813205396E+03  0.80926596227E+03  0.50400001928E-02 0. -1.
       -1    1    3    3    0  502 -0.37998923904E+03 -0.70102718318E+03 -0.50518894437E+03  0.94395275458E+03  0.50400001928E-02 0.  1.
</event>
<event>
 5   0  0.9844690E-04  0.1612486E+04  0.7818609E-02  0.8812914E-01
       -2   -1    0    0    0  501  0.00000000000E+00  0.00000000000E+00  0.70638632863E+03  0.70638632864E+03  0.25500000920E-02 0.  1.
        2   -1    0    0  501    0  0.00000000000E+00  0.00000000000E+00 -0.92021605865E+03  0.92021605865E+03  0.25500000920E-02 0. -1.
    10030    2    1    2    0    0  0.00000000000E+00  0.00000000000E+00 -0.21382973002E+03  0.16266023873E+04  0.16124863326E+04 0.  0.
        3    1    3    3  502    0 -0.76067000153E+03 -0.13086158921E+03 -0.34194469646E+03  0.84419772115E+03  0.10100000352E+00 0. -1.
       -3    1    3    3    0  502  0.76067000153E+03  0.13086158921E+03  0.12811496644E+03  0.78240466614E+03  0.10100000352E+00 0.  1.
</event>
<event>
 5   0  0.5623061E-04  0.1627294E+04  0.7818609E-02  0.8803954E-01
       -1   -1    0    0    0  501  0.00000000000E+00  0.00000000000E+00  0.47846877329E+03  0.47846877332E+03  0.50400001928E-02 0. -1.
        1   -1    0    0  501    0  0.00000000000E+00  0.00000000000E+00 -0.13836249746E+04  0.13836249746E+04  0.50400001928E-02 0.  1.
    10030    2    1    2    0    0  0.00000000000E+00  0.00000000000E+00 -0.90515620135E+03  0.18620937480E+04  0.16272938817E+04 0.  0.
        3    1    3    3  502    0  0.15320587257E+03  0.14426231966E+03 -0.13519464422E+04  0.13682261688E+04  0.10100000352E+00 0.  1.
       -3    1    3    3    0  502 -0.15320587257E+03 -0.14426231966E+03  0.44679024083E+03  0.49386757918E+03  0.10100000352E+00 0. -1.
</event>
<event>
 5   0  0.5425525E-04  0.1569155E+04  0.7818609E-02  0.8839725E-01
        1   -1    0    0  501    0  0.00000000000E+00  0.00000000000E+00  0.59769371155E+03  0.59769371157E+03  0.50400001928E-02 0. -1.
       -1   -1    0    0    0  501  0.00000000000E+00  0.00000000000E+00 -0.10298949894E+04  0.10298949894E+04  0.50400001928E-02 0.  1.
    10030    2    1    2    0    0  0.00000000000E+00  0.00000000000E+00 -0.43220127780E+03  0.16275887009E+04  0.15691548792E+04 0.  0.
        5    1    3    3  502    0 -0.55596731379E+03  0.37008056447E+03  0.21090988905E+03  0.70040299078E+03  0.46999998093E+01 0. -1.
       -5    1    3    3    0  502  0.55596731379E+03 -0.37008056447E+03 -0.64311116685E+03  0.92718571016E+03  0.46999998093E+01 0.  1.
</event>
<event>
 5   0  0.5288658E-04  0.1598655E+04  0.7818609E-02  0.8821375E-01
       -1   -1    0    0    0  501  0.00000000000E+00  0.00000000000E+00  0.75051781666E+03  0.75051781668E+03  0.50400001928E-02 0.  1.
        1   -1    0    0  501    0  0.00000000000E+00  0.00000000000E+00 -0.85131168641E+03  0.85131168643E+03  0.50400001928E-02 0. -1.
    10030    2    1    2    0    0  0.00000000000E+00  0.00000000000E+00 -0.10079386975E+03  0.16018295031E+04  0.15986551701E+04 0.  0.
        1    1    3    3  502    0  0.32850970756E+03  0.11332280161E+03  0.67086841602E+03  0.75552969297E+03  0.50400001928E-02 0.  1.
       -1    1    3    3    0  502 -0.32850970756E+03 -0.11332280161E+03 -0.77166228577E+03  0.84629981013E+03  0.50400001928E-02 0. -1.
</event>
<event>
 5   0  0.5288658E-04  0.1620987E+04  0.7818609E-02  0.8807757E-01
        1   -1    0    0  501    0  0.00000000000E+00  0.00000000000E+00  0.82293204373E+03  0.82293204375E+03  0.50400001928E-02 0.  1.
       -1   -1    0    0    0  501  0.00000000000E+00  0.00000000000E+00 -0.79824322869E+03  0.79824322870E+03  0.50400001928E-02 0. -1.
    10030    2    1    2    0    0  0.00000000000E+00  0.00000000000E+00  0.24688815047E+02  0.16211752725E+04  0.16209872691E+04 0.  0.
        1    1    3    3  502    0  0.75318246722E+03 -0.16278877438E+03  0.26360236046E+03  0.81441403380E+03  0.50400001928E-02 0.  1.
       -1    1    3    3    0  502 -0.75318246722E+03  0.16278877438E+03 -0.23891354541E+03  0.80676123865E+03  0.50400001928E-02 0. -1.
</event>
<event>
 5   0  0.9844690E-04  0.1512705E+04  0.7818609E-02  0.8876048E-01
        2   -1    0    0  501    0  0.00000000000E+00  0.00000000000E+00  0.10849376563E+04  0.10849376563E+04  0.25500000920E-02 0. -1.
       -2   -1    0    0    0  501  0.00000000000E+00  0.00000000000E+00 -0.52728258291E+03  0.52728258292E+03  0.25500000920E-02 0.  1.
    10030    2    1    2    0    0  0.00000000000E+00  0.00000000000E+00  0.55765507337E+03  0.16122202392E+04  0.15127045048E+04 0.  0.
        3    1    3    3  502    0  0.17055528131E+03 -0.64659379511E+03 -0.97828274172E+02  0.67582765649E+03  0.10100000352E+00 0.  1.
       -3    1    3    3    0  502 -0.17055528131E+03  0.64659379511E+03  0.65548334754E+03  0.93639258271E+03  0.10100000352E+00 0. -1.
</event>
<event>
 5   0  0.5288658E-04  0.1537508E+04  0.7818609E-02  0.8859887E-01
        1   -1    0    0  501    0  0.00000000000E+00  0.00000000000E+00  0.11127487392E+04  0.11127487393E+04  0.50400001928E-02 0.  1.
       -1   -1    0    0    0  501  0.00000000000E+00  0.00000000000E+00 -0.53110158229E+03  0.53110158231E+03  0.50400001928E-02 0. -1.
    10030    2    1    2    0    0  0.00000000000E+00  0.00000000000E+00  0.58164715696E+03  0.16438503216E+04  0.15375078746E+04 0.  0.
        1    1    3    3  502    0 -0.33386903840E+03 -0.20792161811E+02  0.10308542903E+04  0.10837718472E+04  0.50400001928E-02 0.  1.
       -1    1    3    3    0  502  0.33386903840E+03  0.20792161811E+02 -0.44920713337E+03  0.56007847440E+03  0.50400001928E-02 0. -1.
</event>
<event>
 5   0  0.5281116E-04  0.1618832E+04  0.7818609E-02  0.8809062E-01
        1   -1    0    0  501    0  0.00000000000E+00  0.00000000000E+00  0.75378442617E+03  0.75378442619E+03  0.50400001928E-02 0. -1.
       -1   -1    0    0    0  501  0.00000000000E+00  0.00000000000E+00 -0.86915292056E+03  0.86915292057E+03  0.50400001928E-02 0.  1.
    10030    2    1    2    0    0  0.00000000000E+00  0.00000000000E+00 -0.11536849438E+03  0.16229373468E+04  0.16188315978E+04 0.  0.
        2    1    3    3  502    0 -0.14209286673E+03 -0.33835780308E+03 -0.78095529737E+03  0.86288328422E+03  0.25500000920E-02 0.  1.
       -2    1    3    3    0  502  0.14209286673E+03  0.33835780308E+03  0.66558680299E+03  0.76005406255E+03  0.25500000920E-02 0. -1.
</event>
<event>
 5   0  0.5425525E-04  0.1608630E+04  0.7818609E-02  0.8815264E-01
       -1   -1    0    0    0  501  0.00000000000E+00  0.00000000000E+00  0.51534660678E+03  0.51534660680E+03  0.50400001928E-02 0.  1.
        1   -1    0    0  501    0  0.00000000000E+00  0.00000000000E+00 -0.12553150563E+04  0.12553150563E+04  0.50400001928E-02 0. -1.
    10030    2    1    2    0    0  0.00000000000E+00  0.00000000000E+00 -0.73996844949E+03  0.17706616631E+04  0.16086296711E+04 0.  0.
        5    1    3    3  502    0 -0.27905315272E+03  0.75401240667E+03 -0.39447120739E+03  0.89556406523E+03  0.46999998093E+01 0.  1.
       -5    1    3    3    0  502  0.27905315272E+03 -0.75401240667E+03 -0.34549724209E+03  0.87509759785E+03  0.46999998093E+01 0. -1.
</event>
<event>
 5   0  0.1000121E-03  0.1618912E+04  0.7818609E-02  0.8809013E-01
        2   -1    0    0  501    0  0.00000000000E+00  0.00000000000E+00  0.72380282598E+03  0.72380282598E+03  0.25500000920E-02 0.  1.
       -2   -1    0    0    0  501  0.00000000000E+00  0.00000000000E+00 -0.90524546269E+03  0.90524546269E+03  0.25500000920E-02 0. -1.
    10030    2    1    2    0    0  0.00000000000E+00  0.00000000000E+00 -0.18144263671E+03  0.16290482887E+04  0.16189122572E+04 0.  0.
        4    1    3    3  502    0 -0.64840115411E+03 -0.42313695295E+03  0.14686854961E+03  0.78806149593E+03  0.12699999809E+01 0.  1.
       -4    1    3    3    0  502  0.64840115411E+03  0.42313695295E+03 -0.32831118632E+03  0.84098679274E+03  0.12699999809E+01 0. -1.
</event>
<event>
 5   0  0.9844690E-04  0.1653767E+04  0.7818609E-02  0.8788181E-01
        2   -1    0    0  501    0  0.00000000000E+00  0.00000000000E+00  0.11992324797E+04  0.11992324797E+04  0.25500000920E-02 0. -1.
       -2   -1    0    0    0  501  0.00000000000E+00  0.00000000000E+00 -0.57014504256E+03  0.57014504257E+03  0.25500000920E-02 0.  1.
    10030    2    1    2    0    0  0.00000000000E+00  0.00000000000E+00  0.62908743709E+03  0.17693775222E+04  0.16537671579E+04 0.  0.
        3    1    3    3  502    0 -0.73640654904E+01 -0.41407229469E+03  0.10802762531E+04  0.11569385844E+04  0.10100000352E+00 0. -1.
       -3    1    3    3    0  502  0.73640654904E+01  0.41407229469E+03 -0.45118881604E+03  0.61243893787E+03  0.10100000352E+00 0.  1.
</event>
<event>
 5   0  0.5532881E-04  0.1538836E+04  0.7818609E-02  0.8859030E-01
       -1   -1    0    0    0  501  0.00000000000E+00  0.00000000000E+00  0.35143295890E+03  0.35143295894E+03  0.50400001928E-02 0. -1.
        1   -1    0    0  501    0  0.00000000000E+00  0.00000000000E+00 -0.16845430483E+04  0.16845430483E+04  0.50400001928E-02 0.  1.
    10030    2    1    2    0    0  0.00000000000E+00  0.00000000000E+00 -0.13331100894E+04  0.20359760072E+04  0.15388358560E+04 0.  0.
        4    1    3    3  502    0 -0.96848518286E+02  0.12699601363E+03  0.32925909551E+03  0.36595189281E+03  0.12699999809E+01 0. -1.
       -4    1    3    3    0  502  0.96848518286E+02 -0.12699601363E+03 -0.16623691849E+04  0.16700241144E+04  0.12699999809E+01 0.  1.
</event>
<event>
 5   0  0.5281116E-04  0.1351596E+04  0.7818609E-02  0.8989621E-01
       -1   -1    0    0    0  501  0.00000000000E+00  0.00000000000E+00  0.22609727805E+03  0.22609727811E+03  0.50400001928E-02 0.  1.
        1   -1    0    0  501    0  0.00000000000E+00  0.00000000000E+00 -0.20199386419E+04  0.20199386419E+04  0.50400001928E-02 0. -1.
    10030    2    1    2    0    0  0.00000000000E+00  0.00000000000E+00 -0.17938413639E+04  0.22460359200E+04  0.13515955443E+04 0.  0.
        2    1    3    3  502    0  0.15088149427E+03  0.53946987025E+03 -0.15251247480E+04  0.16247456611E+04  0.25500000920E-02 0. -1.
       -2    1    3    3    0  502 -0.15088149427E+03 -0.53946987025E+03 -0.26871661586E+03  0.62129025895E+03  0.25500000920E-02 0.  1.
</event>
<event>
 5   0  0.5532881E-04  0.1568972E+04  0.7818609E-02  0.8839840E-01
       -1   -1    0    0    0  501  0.00000000000E+00  0.00000000000E+00  0.44499380294E+03  0.44499380296E+03  0.50400001928E-02 0. -1.
        1   -1    0    0  501    0  0.00000000000E+00  0.00000000000E+00 -0.13829811160E+04  0.13829811160E+04  0.50400001928E-02 0.  1.
    10030    2    1    2    0    0  0.00000000000E+00  0.00000000000E+00 -0.93798731308E+03  0.18279749190E+04  0.15689716712E+04 0.  0.
        4    1    3    3  502    0 -0.61787181377E+02  0.69544328645E+03 -0.88575537667E+03  0.11278400687E+04  0.12699999809E+01 0.  1.
       -4    1    3    3    0  502  0.61787181377E+02 -0.69544328645E+03 -0.52231936401E+02  0.70013485025E+03  0.12699999809E+01 0. -1.
</event>
<event>
 5   0  0.5288658E-04  0.1596574E+04  0.7818609E-02  0.8822655E-01
       -1   -1    0    0    0  501  0.00000000000E+00  0.00000000000E+00  0.75481447853E+03  0.75481447854E+03  0.50400001928E-02 0. -1.
        1   -1    0    0  501    0  0.00000000000E+00  0.00000000000E+00 -0.84426377309E+03  0.84426377311E+03  0.50400001928E-02 0.  1.
    10030    2    1    2    0    0  0.00000000000E+00  0.00000000000E+00 -0.89449294568E+02  0.15990782517E+04  0.15965744826E+04 0.  0.
        1    1    3    3  502    0  0.23065345259E+02 -0.75524074934E+03 -0.30269782361E+03  0.81396963829E+03  0.50400001928E-02 0.  1.
       -1    1    3    3    0  502 -0.23065345259E+02  0.75524074934E+03  0.21324852904E+03  0.78510861336E+03  0.50400001928E-02 0. -1.
</event>
<event>
 5   0  0.3832500E-04  0.1585294E+04  0.7818609E-02  0.8829634E-01
       -3   -1    0    0    0  501  0.00000000000E+00  0.00000000000E+00  0.37031993531E+03  0.37031994909E+03  0.10100000352E+00 0.  1.
        3   -1    0    0  501    0  0.00000000000E+00  0.00000000000E+00 -0.16966112024E+04  0.16966112054E+04  0.10100000352E+00 0. -1.
    10030    2    1    2    0    0  0.00000000000E+00  0.00000000000E+00 -0.13262912670E+04  0.20669311544E+04  0.15852936233E+04 0.  0.
        4    1    3    3  502    0 -0.63945039128E+03  0.27617470390E+03 -0.16989965043E+03  0.71696357934E+03  0.12699999809E+01 0. -1.
       -4    1    3    3    0  502  0.63945039128E+03 -0.27617470390E+03 -0.11563916166E+04  0.13499675751E+04  0.12699999809E+01 0.  1.
</event>
<event>
 5   0  0.5532881E-04  0.1617691E+04  0.7818609E-02  0.8809753E-01
        1   -1    0    0  501    0  0.00000000000E+00  0.00000000000E+00  0.15903680676E+04  0.15903680676E+04  0.50400001928E-02 0. -1.
       -1   -1    0    0    0  501  0.00000000000E+00  0.00000000000E+00 -0.41137067790E+03  0.41137067793E+03  0.50400001928E-02 0.  1.
    10030    2    1    2    0    0  0.00000000000E+00  0.00000000000E+00  0.11789973897E+04  0.20017387456E+04  0.16176906875E+04 0.  0.
        4    1    3    3  502    0 -0.34566731032E+03 -0.72705410519E+03  0.49257253805E+03  0.94378116078E+03  0.12699999809E+01 0.  1.
       -4    1    3    3    0  502  0.34566731032E+03  0.72705410519E+03  0.68642485169E+03  0.10579575848E+04  0.12699999809E+01 0. -1.
</event>
<event>
 5   0  0.1000121E-03  0.1648266E+04  0.7818609E-02  0.8791433E-01
       -2   -1    0    0    0  501  0.00000000000E+00  0.00000000000E+00  0.79616611082E+03  0.79616611083E+03  0.25500000920E-02 0. -1.
        2   -1    0    0  501    0  0.00000000000E+00  0.00000000000E+00 -0.85308183877E+03  0.85308183877E+03  0.25500000920E-02 0.  1.
    10030    2    1    2    0    0  0.00000000000E+00  0.00000000000E+00 -0.56915727943E+02  0.16492479496E+04  0.16482655730E+04 0.  0.
        4    1    3    3  502    0  0.49064075165E+03  0.57778226794E+03  0.29520446166E+03  0.81345435238E+03  0.12699999809E+01 0. -1.
       -4    1    3    3    0  502 -0.49064075165E+03 -0.57778226794E+03 -0.35212018961E+03  0.83579359722E+03  0.12699999809E+01 0.  1.
</event>
<event>
 5   0  0.3832500E-04  0.1591219E+04  0.7818609E-02  0.8825961E-01
       -3   -1    0    0    0  501  0.00000000000E+00  0.00000000000E+00  0.89556650860E+03  0.89556651430E+03  0.10100000352E+00 0. -1.
        3   -1    0    0  501    0  0.00000000000E+00  0.00000000000E+00 -0.70680873852E+03  0.70680874574E+03  0.10100000352E+00 0.  1.
    10030    2    1    2    0    0  0.00000000000E+00  0.00000000000E+00  0.18875777008E+03  0.16023752600E+04  0.15912187085E+04 0.  0.
        5    1    3    3  502    0 -0.56402984488E+03  0.37492087097E+03  0.51477063015E+03  0.85070924355E+03  0.46999998093E+01 0. -1.
       -5    1    3    3    0  502  0.56402984488E+03 -0.37492087097E+03 -0.32601286007E+03  0.75166601648E+03  0.46999998093E+01 0.  1.
</event>
<event>
 5   0  0.1000121E-03  0.1197183E+04  0.7818609E-02  0.9115326E-01
       -2   -1    0    0    0  501  0.00000000000E+00  0.00000000000E+00  0.42757848364E+03  0.42757848364E+03  0.25500000920E-02 0.  1.
        2   -1    0    0  501    0  0.00000000000E+00  0.00000000000E+00 -0.83800258443E+03  0.83800258443E+03  0.25500000920E-02 0. -1.
    10030    2    1    2    0    0  0.00000000000E+00  0.00000000000E+00 -0.41042410079E+03  0.12655810681E+04  0.11971831511E+04 0.  0.
        4    1    3    3  502    0  0.48977805165E+02  0.51694068074E+03 -0.52002417014E+03  0.73488314938E+03  0.12699999809E+01 0. -1.
       -4    1    3    3    0  502 -0.48977805165E+02 -0.51694068074E+03  0.10960006935E+03  0.53069791870E+03  0.12699999809E+01 0.  1.
</event>
<event>
 5   0  0.5288658E-04  0.1583412E+04  0.7818609E-02  0.8830804E-01
        1   -1    0    0  501    0  0.00000000000E+00  0.00000000000E+00  0.18096397133E+04  0.18096397134E+04  0.50400001928E-02 0. -1.
       -1   -1    0    0    0  501  0.00000000000E+00  0.00000000000E+00 -0.34636646091E+03  0.34636646095E+03  0.50400001928E-02 0.  1.
    10030    2    1    2    0    0  0.00000000000E+00  0.00000000000E+00  0.14632732524E+04  0.21560061743E+04  0.15834121423E+04 0.  0.
        1    1    3    3  502    0 -0.59311920058E+03  0.35120186425E+03  0.20136396133E+03  0.71810903107E+03  0.50400001928E-02 0.  1.
       -1    1    3    3    0  502  0.59311920058E+03 -0.35120186425E+03  0.12619092911E+04  0.14378971432E+04  0.50400001928E-02 0. -1.
</event>
<event>
 5   0  0.5532881E-04  0.1572906E+04  0.7818609E-02  0.8837368E-01
        1   -1    0    0  501    0  0.00000000000E+00  0.00000000000E+00  0.71790531425E+03  0.71790531427E+03  0.50400001928E-02 0.  1.
       -1   -1    0    0    0  501  0.00000000000E+00  0.00000000000E+00 -0.86154534577E+03  0.86154534578E+03  0.50400001928E-02 0. -1.
    10030    2    1    2    0    0  0.00000000000E+00  0.00000000000E+00 -0.14364003152E+03  0.15794506601E+04  0.15729055690E+04 0.  0.
        4    1    3    3  502    0 -0.12469913679E+02 -0.24558149859E+02 -0.86105986690E+03  0.86150119486E+03  0.12699999809E+01 0. -1.
       -4    1    3    3    0  502  0.12469913679E+02  0.24558149859E+02  0.71741983538E+03  0.71794946519E+03  0.12699999809E+01 0.  1.
</event>
<event>
 5   0  0.1000121E-03  0.1581223E+04  0.7818609E-02  0.8832167E-01
        2   -1    0    0  501    0  0.00000000000E+00  0.00000000000E+00  0.21415705670E+04  0.21415705670E+04  0.25500000920E-02 0.  1.
       -2   -1    0    0    0  501  0.00000000000E+00  0.00000000000E+00 -0.29187295734E+03  0.29187295736E+03  0.25500000920E-02 0. -1.
    10030    2    1    2    0    0  0.00000000000E+00  0.00000000000E+00  0.18496976097E+04  0.24334435244E+04  0.15812229884E+04 0.  0.
        4    1    3    3  502    0 -0.47713916863E+01  0.46761552820E+03 -0.56205795468E+02  0.47100716846E+03  0.12699999809E+01 0. -1.
       -4    1    3    3    0  502  0.47713916863E+01 -0.46761552820E+03  0.19059034051E+04  0.19624363559E+04  0.12699999809E+01 0.  1.
</event>
<event>
 5   0  0.1000121E-03  0.1605846E+04  0.7818609E-02  0.8816965E-01
       -2   -1    0    0    0  501  0.00000000000E+00  0.00000000000E+00  0.51165699453E+03  0.51165699454E+03  0.25500000920E-02 0.  1.
        2   -1    0    0  501    0  0.00000000000E+00  0.00000000000E+00 -0.12599944186E+04  0.12599944186E+04  0.25500000920E-02 0. -1.
    10030    2    1    2    0    0  0.00000000000E+00  0.00000000000E+00 -0.74833742402E+03  0.17716514131E+04  0.16058455185E+04 0.  0.
        4    1    3    3  502    0  0.48308209799E+03 -0.22772541473E+02 -0.10812801264E+04  0.11845063220E+04  0.12699999809E+01 0. -1.
       -4    1    3    3    0  502 -0.48308209799E+03  0.22772541473E+02  0.33294270241E+03  0.58714509113E+03  0.12699999809E+01 0.  1.
</event>
<event>
 5   0  0.1037321E-03  0.1632242E+04  0.7818609E-02  0.8800982E-01
       -2   -1    0    0    0  501  0.00000000000E+00  0.00000000000E+00  0.30177873617E+03  0.30177873618E+03  0.25500000920E-02 0.  1.
        2   -1    0    0  501    0  0.00000000000E+00  0.00000000000E+00 -0.22070915197E+04  0.22070915197E+04  0.25500000920E-02 0. -1.
    10030    2    1    2    0    0  0.00000000000E+00  0.00000000000E+00 -0.19053127835E+04  0.25088702558E+04  0.16322417584E+04 0.  0.
        5    1    3    3  502    0  0.27603566291E+02 -0.43325940069E+03  0.10954204882E+03  0.44776915438E+03  0.46999998093E+01 0.  1.
       -5    1    3    3    0  502 -0.27603566291E+02  0.43325940069E+03 -0.20148548323E+04  0.20611011015E+04  0.46999998093E+01 0. -1.
</event>
<event>
 5   0  0.1030027E-03  0.1577579E+04  0.7818609E-02  0.8834442E-01
        2   -1    0    0  501    0  0.00000000000E+00  0.00000000000E+00  0.14338671241E+04  0.14338671241E+04  0.25500000920E-02 0.  1.
       -2   -1    0    0    0  501  0.00000000000E+00  0.00000000000E+00 -0.43392356208E+03  0.43392356209E+03  0.25500000920E-02 0. -1.
    10030    2    1    2    0    0  0.00000000000E+00  0.00000000000E+00  0.99994356206E+03  0.18677906862E+04  0.15775788159E+04 0.  0.
        1    1    3    3  502    0 -0.68683028743E+03  0.30992857950E+03  0.77610919953E+03  0.10817287357E+04  0.50400001928E-02 0. -1.
       -1    1    3    3    0  502  0.68683028743E+03 -0.30992857950E+03  0.22383436253E+03  0.78606195048E+03  0.50400001928E-02 0.  1.
</event>
<event>
 5   0  0.5425525E-04  0.1571722E+04  0.7818609E-02  0.8838111E-01
        1   -1    0    0  501    0  0.00000000000E+00  0.00000000000E+00  0.29966602506E+03  0.29966602510E+03  0.50400001928E-02 0. -1.
       -1   -1    0    0    0  501  0.00000000000E+00  0.00000000000E+00 -0.20608855798E+04  0.20608855798E+04  0.50400001928E-02 0.  1.
    10030    2    1    2    0    0  0.00000000000E+00  0.00000000000E+00 -0.17612195547E+04  0.23605516049E+04  0.15717218454E+04 0.  0.
        5    1    3    3  502    0  0.36358578556E+01  0.46414587750E+03  0.71770989362E+02  0.46969966997E+03  0.46999998093E+01 0. -1.
       -5    1    3    3    0  502 -0.36358578556E+01 -0.46414587750E+03 -0.18329905441E+04  0.18908519349E+04  0.46999998093E+01 0.  1.
</event>
<event>
 5   0  0.1037321E-03  0.1621838E+04  0.7818609E-02  0.8807243E-01
        2   -1    0    0  501    0  0.00000000000E+00  0.00000000000E+00  0.16094144790E+04  0.16094144790E+04  0.25500000920E-02 0.  1.
       -2   -1    0    0    0  501  0.00000000000E+00  0.00000000000E+00 -0.40858954832E+03  0.40858954832E+03  0.25500000920E-02 0. -1.
    10030    2    1    2    0    0  0.00000000000E+00  0.00000000000E+00  0.12008249307E+04  0.20180040274E+04  0.16218383829E+04 0.  0.
        5    1    3    3  502    0 -0.33334430701E+03 -0.10562760252E+03  0.15107656652E+04  0.15507129336E+04  0.46999998093E+01 0.  1.
       -5    1    3    3    0  502  0.33334430701E+03  0.10562760252E+03 -0.30994073445E+03  0.46729109375E+03  0.46999998093E+01 0. -1.
</event>
<event>
 5   0  0.3832500E-04  0.1666582E+04  0.7818609E-02  0.8780657E-01
        4   -1    0    0  501    0  0.00000000000E+00  0.00000000000E+00  0.84704563205E+03  0.84704658413E+03  0.12699999809E+01 0.  1.
       -4   -1    0    0    0  501  0.00000000000E+00  0.00000000000E+00 -0.81975810550E+03  0.81975908926E+03  0.12699999809E+01 0. -1.
    10030    2    1    2    0    0  0.00000000000E+00  0.00000000000E+00  0.27287526558E+02  0.16668056734E+04  0.16665822943E+04 0.  0.
        5    1    3    3  502    0  0.11694709442E+03 -0.46051683999E+03 -0.67099138651E+03  0.82219457161E+03  0.46999998093E+01 0. -1.
       -5    1    3    3    0  502 -0.11694709442E+03  0.46051683999E+03  0.69827891307E+03  0.84461110178E+03  0.46999998093E+01 0.  1.
</event>
<event>
 5   0  0.1037321E-03  0.1590034E+04  0.7818609E-02  0.8826694E-01
        2   -1    0    0  501    0  0.00000000000E+00  0.00000000000E+00  0.14457287363E+04  0.14457287363E+04  0.25500000920E-02 0.  1.
       -2   -1    0    0    0  501  0.00000000000E+00  0.00000000000E+00 -0.43718584998E+03  0.43718584998E+03  0.25500000920E-02 0. -1.
    10030    2    1    2    0    0  0.00000000000E+00  0.00000000000E+00  0.10085428864E+04  0.18829145863E+04  0.15900341461E+04 0.  0.
        5    1    3    3  502    0 -0.77894527258E+03 -0.79410676903E+02  0.66736543105E+03  0.10288150960E+04  0.46999998093E+01 0. -1.
       -5    1    3    3    0  502  0.77894527258E+03  0.79410676903E+02  0.34117745531E+03  0.85409949028E+03  0.46999998093E+01 0.  1.
</event>
<event>
 5   0  0.5623061E-04  0.1327558E+04  0.7818609E-02  0.9007993E-01
       -1   -1    0    0    0  501  0.00000000000E+00  0.00000000000E+00  0.12305947154E+04  0.12305947154E+04  0.50400001928E-02 0.  1.
        1   -1    0    0  501    0  0.00000000000E+00  0.00000000000E+00 -0.35804012489E+03  0.35804012492E+03  0.50400001928E-02 0. -1.
    10030    2    1    2    0    0  0.00000000000E+00  0.00000000000E+00  0.87255459049E+03  0.15886348403E+04  0.13275575854E+04 0.  0.
        3    1    3    3  502    0 -0.13664885858E+03 -0.62679580804E+03  0.64025911728E+03  0.90635403844E+03  0.10100000352E+00 0.  1.
       -3    1    3    3    0  502  0.13664885858E+03  0.62679580804E+03  0.23229547321E+03  0.68228080188E+03  0.10100000352E+00 0. -1.
</event>
<event>
 5   0  0.5532881E-04  0.1571078E+04  0.7818609E-02  0.8838516E-01
       -1   -1    0    0    0  501  0.00000000000E+00  0.00000000000E+00  0.71677098503E+03  0.71677098505E+03  0.50400001928E-02 0.  1.
        1   -1    0    0  501    0  0.00000000000E+00  0.00000000000E+00 -0.86090459534E+03  0.86090459535E+03  0.50400001928E-02 0. -1.
    10030    2    1    2    0    0  0.00000000000E+00  0.00000000000E+00 -0.14413361030E+03  0.15776755804E+04  0.15710778909E+04 0.  0.
        4    1    3    3  502    0  0.96651275226E+00 -0.17923716770E+03 -0.84009423832E+03  0.85900339847E+03  0.12699999809E+01 0. -1.
       -4    1    3    3    0  502 -0.96651275226E+00  0.17923716770E+03  0.69596062802E+03  0.71867218193E+03  0.12699999809E+01 0.  1.
</event>
<event>
 5   0  0.5623061E-04  0.1595211E+04  0.7818609E-02  0.8823495E-01
       -1   -1    0    0    0  501  0.00000000000E+00  0.00000000000E+00  0.36130252990E+03  0.36130252994E+03  0.50400001928E-02 0. -1.
        1   -1    0    0  501    0  0.00000000000E+00  0.00000000000E+00 -0.17607817965E+04  0.17607817965E+04  0.50400001928E-02 0.  1.
    10030    2    1    2    0    0  0.00000000000E+00  0.00000000000E+00 -0.13994792666E+04  0.21220843265E+04  0.15952114816E+04 0.  0.
        3    1    3    3  502    0  0.36061407812E+03 -0.43962418939E+03 -0.14438227495E+04  0.15517525845E+04  0.10100000352E+00 0.  1.
       -3    1    3    3    0  502 -0.36061407812E+03  0.43962418939E+03  0.44343482893E+02  0.57033174198E+03  0.10100000352E+00 0. -1.
</event>
<event>
 5   0  0.5623061E-04  0.1597357E+04  0.7818609E-02  0.8822174E-01
       -1   -1    0    0    0  501  0.00000000000E+00  0.00000000000E+00  0.64866414351E+03  0.64866414353E+03  0.50400001928E-02 0. -1.
        1   -1    0    0  501    0  0.00000000000E+00  0.00000000000E+00 -0.98338578901E+03  0.98338578902E+03  0.50400001928E-02 0.  1.
    10030    2    1    2    0    0  0.00000000000E+00  0.00000000000E+00 -0.33472164550E+03  0.16320499325E+04  0.15973566923E+04 0.  0.
        3    1    3    3  502    0 -0.25306035327E+03  0.41985921699E+03 -0.81158354318E+03  0.94815039010E+03  0.10100000352E+00 0.  1.
       -3    1    3    3    0  502  0.25306035327E+03 -0.41985921699E+03  0.47686189769E+03  0.68389954244E+03  0.10100000352E+00 0. -1.
</event>
<event>
 5   0  0.1057872E-03  0.1309189E+04  0.7818609E-02  0.9022310E-01
        2   -1    0    0  501    0  0.00000000000E+00  0.00000000000E+00  0.92493735731E+03  0.92493735731E+03  0.25500000920E-02 0.  1.
       -2   -1    0    0    0  501  0.00000000000E+00  0.00000000000E+00 -0.46326795410E+03  0.46326795411E+03  0.25500000920E-02 0. -1.
    10030    2    1    2    0    0  0.00000000000E+00  0.00000000000E+00  0.46166940321E+03  0.13882053114E+04  0.13091888133E+04 0.  0.
        2    1    3    3  502    0  0.59248510378E+03 -0.12812095435E+03  0.49280955355E+03  0.78122649291E+03  0.25500000920E-02 0.  1.
       -2    1    3    3    0  502 -0.59248510378E+03  0.12812095435E+03 -0.31140150345E+02  0.60697881851E+03  0.25500000920E-02 0. -1.
</event>
<event>
 5   0  0.5425525E-04  0.1571340E+04  0.7818609E-02  0.8838351E-01
       -1   -1    0    0    0  501  0.00000000000E+00  0.00000000000E+00  0.13049102599E+04  0.13049102599E+04  0.50400001928E-02 0.  1.
        1   -1    0    0  501    0  0.00000000000E+00  0.00000000000E+00 -0.47304218130E+03  0.47304218132E+03  0.50400001928E-02 0. -1.
    10030    2    1    2    0    0  0.00000000000E+00  0.00000000000E+00  0.83186807864E+03  0.17779524413E+04  0.15713403142E+04 0.  0.
        5    1    3    3  502    0 -0.39299452628E+03 -0.35448631326E+03 -0.24106031488E+03  0.58158181659E+03  0.46999998093E+01 0. -1.
       -5    1    3    3    0  502  0.39299452628E+03  0.35448631326E+03  0.10729283935E+04  0.11963706247E+04  0.46999998093E+01 0.  1.
</event>
<event>
 5   0  0.5281116E-04  0.1603410E+04  0.7818609E-02  0.8818456E-01
        1   -1    0    0  501    0  0.00000000000E+00  0.00000000000E+00  0.64103671892E+03  0.64103671894E+03  0.50400001928E-02 0. -1.
       -1   -1    0    0    0  501  0.00000000000E+00  0.00000000000E+00 -0.10026429965E+04  0.10026429965E+04  0.50400001928E-02 0.  1.
    10030    2    1    2    0    0  0.00000000000E+00  0.00000000000E+00 -0.36160627758E+03  0.16436797154E+04  0.16034100870E+04 0.  0.
        2    1    3    3  502    0 -0.35063239392E+03  0.94931780144E+02 -0.91343831254E+03  0.98301814295E+03  0.25500000920E-02 0.  1.
       -2    1    3    3    0  502  0.35063239392E+03 -0.94931780144E+02  0.55183203496E+03  0.66066157249E+03  0.25500000920E-02 0. -1.
</event>
<event>
 5   0  0.5623061E-04  0.1543638E+04  0.7818609E-02  0.8855941E-01
       -1   -1    0    0    0  501  0.00000000000E+00  0.00000000000E+00  0.87314220352E+03  0.87314220354E+03  0.50400001928E-02 0. -1.
        1   -1    0    0  501    0  0.00000000000E+00  0.00000000000E+00 -0.68225405013E+03  0.68225405015E+03  0.50400001928E-02 0.  1.
    10030    2    1    2    0    0  0.00000000000E+00  0.00000000000E+00  0.19088815339E+03  0.15553962537E+04  0.15436383057E+04 0.  0.
        3    1    3    3  502    0 -0.68899222056E+03 -0.23883166231E+03  0.35026154317E+03  0.80897095235E+03  0.10100000352E+00 0. -1.
       -3    1    3    3    0  502  0.68899222056E+03  0.23883166231E+03 -0.15937338978E+03  0.74642530134E+03  0.10100000352E+00 0.  1.
</event>
<event>
 5   0  0.1030027E-03  0.1564131E+04  0.7818609E-02  0.8842892E-01
        2   -1    0    0  501    0  0.00000000000E+00  0.00000000000E+00  0.11374424255E+04  0.11374424255E+04  0.25500000920E-02 0.  1.
       -2   -1    0    0    0  501  0.00000000000E+00  0.00000000000E+00 -0.53772108893E+03  0.53772108894E+03  0.25500000920E-02 0. -1.
    10030    2    1    2    0    0  0.00000000000E+00  0.00000000000E+00  0.59972133655E+03  0.16751635144E+04  0.15641314262E+04 0.  0.
        1    1    3    3  502    0 -0.67199412975E+03 -0.35617662647E+03  0.10475033911E+03  0.76773076871E+03  0.50400001928E-02 0. -1.
       -1    1    3    3    0  502  0.67199412975E+03  0.35617662647E+03  0.49497099744E+03  0.90743274571E+03  0.50400001928E-02 0.  1.
</event>
<event>
 5   0  0.1057872E-03  0.1575209E+04  0.7818609E-02  0.8835924E-01
        2   -1    0    0  501    0  0.00000000000E+00  0.00000000000E+00  0.12633778669E+04  0.12633778669E+04  0.25500000920E-02 0. -1.
       -2   -1    0    0    0  501  0.00000000000E+00  0.00000000000E+00 -0.49100185401E+03  0.49100185402E+03  0.25500000920E-02 0.  1.
    10030    2    1    2    0    0  0.00000000000E+00  0.00000000000E+00  0.77237601288E+03  0.17543797209E+04  0.15752090337E+04 0.  0.
        2    1    3    3  502    0  0.44822902243E+03  0.64272941267E+03  0.47466248169E+03  0.91614126967E+03  0.25500000920E-02 0. -1.
       -2    1    3    3    0  502 -0.44822902243E+03 -0.64272941267E+03  0.29771353119E+03  0.83823845124E+03  0.25500000920E-02 0.  1.
</event>
<event>
 5   0  0.5623061E-04  0.1591363E+04  0.7818609E-02  0.8825872E-01
        1   -1    0    0  501    0  0.00000000000E+00  0.00000000000E+00  0.77241710262E+03  0.77241710264E+03  0.50400001928E-02 0. -1.
       -1   -1    0    0    0  501  0.00000000000E+00  0.00000000000E+00 -0.81964629958E+03  0.81964629959E+03  0.50400001928E-02 0.  1.
    10030    2    1    2    0    0  0.00000000000E+00  0.00000000000E+00 -0.47229196958E+02  0.15920634022E+04  0.15913627115E+04 0.  0.
        3    1    3    3  502    0 -0.77207133897E+03  0.12295023141E+03 -0.17165913829E+03  0.80042350154E+03  0.10100000352E+00 0. -1.
       -3    1    3    3    0  502  0.77207133897E+03 -0.12295023141E+03  0.12442994133E+03  0.79163990069E+03  0.10100000352E+00 0.  1.
</event>
<event>
 5   0  0.1030027E-03  0.1588443E+04  0.7818609E-02  0.8827680E-01
       -2   -1    0    0    0  501  0.00000000000E+00  0.00000000000E+00  0.31028761464E+03  0.31028761465E+03  0.25500000920E-02 0.  1.
        2   -1    0    0  501    0  0.00000000000E+00  0.00000000000E+00 -0.20329124703E+04  0.20329124703E+04  0.25500000920E-02 0. -1.
    10030    2    1    2    0    0  0.00000000000E+00  0.00000000000E+00 -0.17226248557E+04  0.23432000850E+04  0.15884427106E+04 0.  0.
        1    1    3    3  502    0 -0.69038943746E+03  0.39261397393E+03 -0.86435472310E+03  0.11738366135E+04  0.50400001928E-02 0.  1.
       -1    1    3    3    0  502  0.69038943746E+03 -0.39261397393E+03 -0.85827013259E+03  0.11693634715E+04  0.50400001928E-02 0. -1.
</event>
<event>
 5   0  0.5288658E-04  0.1595508E+04  0.7818609E-02  0.8823312E-01
       -1   -1    0    0    0  501  0.00000000000E+00  0.00000000000E+00  0.51854161553E+03  0.51854161556E+03  0.50400001928E-02 0.  1.
        1   -1    0    0  501    0  0.00000000000E+00  0.00000000000E+00 -0.12273107573E+04  0.12273107573E+04  0.50400001928E-02 0. -1.
    10030    2    1    2    0    0  0.00000000000E+00  0.00000000000E+00 -0.70876914178E+03  0.17458523729E+04  0.15955083239E+04 0.  0.
        1    1    3    3  502    0  0.68251260350E+03  0.35037862625E+03 -0.59367600726E+03  0.97007207840E+03  0.50400001928E-02 0. -1.
       -1    1    3    3    0  502 -0.68251260350E+03 -0.35037862625E+03 -0.11509313452E+03  0.77578029448E+03  0.50400001928E-02 0.  1.
</event>
<event>
 5   0  0.5623061E-04  0.1626656E+04  0.7818609E-02  0.8804338E-01
        1   -1    0    0  501    0  0.00000000000E+00  0.00000000000E+00  0.12523798312E+04  0.12523798312E+04  0.50400001928E-02 0.  1.
       -1   -1    0    0    0  501  0.00000000000E+00  0.00000000000E+00 -0.52819629205E+03  0.52819629208E+03  0.50400001928E-02 0. -1.
    10030    2    1    2    0    0  0.00000000000E+00  0.00000000000E+00  0.72418353917E+03  0.17805761233E+04  0.16266559355E+04 0.  0.
        3    1    3    3  502    0  0.51144544453E+03  0.40154901557E+03  0.89687377615E+03  0.11077908806E+04  0.10100000352E+00 0.  1.
       -3    1    3    3    0  502 -0.51144544453E+03 -0.40154901557E+03 -0.17269023698E+03  0.67278524269E+03  0.10100000352E+00 0. -1.
</event>
<event>
 5   0  0.1000121E-03  0.1612775E+04  0.7818609E-02  0.8812738E-01
       -2   -1    0    0    0  501  0.00000000000E+00  0.00000000000E+00  0.31980959960E+03  0.31980959961E+03  0.25500000920E-02 0.  1.
        2   -1    0    0  501    0  0.00000000000E+00  0.00000000000E+00 -0.20332747894E+04  0.20332747894E+04  0.25500000920E-02 0. -1.
    10030    2    1    2    0    0  0.00000000000E+00  0.00000000000E+00 -0.17134651898E+04  0.23530843890E+04  0.16127749952E+04 0.  0.
        4    1    3    3  502    0  0.43130469013E+03 -0.45307385396E+03 -0.15992038947E+04  0.17171937464E+04  0.12699999809E+01 0. -1.
       -4    1    3    3    0  502 -0.43130469013E+03  0.45307385396E+03 -0.11426129504E+03  0.63589064257E+03  0.12699999809E+01 0.  1.
</event>
<event>
 5   0  0.1037321E-03  0.1451667E+04  0.7818609E-02  0.8917246E-01
        2   -1    0    0  501    0  0.00000000000E+00  0.00000000000E+00  0.12422432737E+04  0.12422432737E+04  0.25500000920E-02 0.  1.
       -2   -1    0    0    0  501  0.00000000000E+00  0.00000000000E+00 -0.42409916593E+03  0.42409916594E+03  0.25500000920E-02 0. -1.
    10030    2    1    2    0    0  0.00000000000E+00  0.00000000000E+00  0.81814410777E+03  0.16663424396E+04  0.14516670917E+04 0.  0.
        5    1    3    3  502    0  0.53337187294E+03 -0.54330951165E+02 -0.15254006840E+03  0.55742978891E+03  0.46999998093E+01 0. -1.
       -5    1    3    3    0  502 -0.53337187294E+03  0.54330951165E+02  0.97068417617E+03  0.11089126507E+04  0.46999998093E+01 0.  1.
</event>
<event>
 5   0  0.3832500E-04  0.1328587E+04  0.7818609E-02  0.9007197E-01
       -3   -1    0    0    0  501  0.00000000000E+00  0.00000000000E+00  0.10458147105E+04  0.10458147154E+04  0.10100000352E+00 0.  1.
        3   -1    0    0  501    0  0.00000000000E+00  0.00000000000E+00 -0.42195437688E+03  0.42195438897E+03  0.10100000352E+00 0. -1.
    10030    2    1    2    0    0  0.00000000000E+00  0.00000000000E+00  0.62386033361E+03  0.14677691043E+04  0.13285873806E+04 0.  0.
        1    1    3    3  502    0  0.28001226671E+03  0.59647684432E+03  0.40498349938E+03  0.77343592502E+03  0.50400001928E-02 0. -1.
       -1    1    3    3    0  502 -0.28001226671E+03 -0.59647684432E+03  0.21887683423E+03  0.69433317932E+03  0.50400001928E-02 0.  1.
</event>
<event>
 5   0  0.1030027E-03  0.1592239E+04  0.7818609E-02  0.8825330E-01
        2   -1    0    0  501    0  0.00000000000E+00  0.00000000000E+00  0.12684447572E+04  0.12684447572E+04  0.25500000920E-02 0. -1.
       -2   -1    0    0    0  501  0.00000000000E+00  0.00000000000E+00 -0.49967163639E+03  0.49967163639E+03  0.25500000920E-02 0.  1.
    10030    2    1    2    0    0  0.00000000000E+00  0.00000000000E+00  0.76877312084E+03  0.17681163936E+04  0.15922385092E+04 0.  0.
        1    1    3    3  502    0  0.76712789183E+03 -0.54932088634E+02  0.61278281731E+03  0.98336438719E+03  0.50400001928E-02 0. -1.
       -1    1    3    3    0  502 -0.76712789183E+03  0.54932088634E+02  0.15599030354E+03  0.78475200643E+03  0.50400001928E-02 0.  1.
</event>
<event>
 5   0  0.1037321E-03  0.1658265E+04  0.7818609E-02  0.8785532E-01
       -2   -1    0    0    0  501  0.00000000000E+00  0.00000000000E+00  0.39684157715E+03  0.39684157715E+03  0.25500000920E-02 0.  1.
        2   -1    0    0  501    0  0.00000000000E+00  0.00000000000E+00 -0.17323301886E+04  0.17323301886E+04  0.25500000920E-02 0. -1.
    10030    2    1    2    0    0  0.00000000000E+00  0.00000000000E+00 -0.13354886114E+04  0.21291717657E+04  0.16582649296E+04 0.  0.
        5    1    3    3  502    0 -0.53452603284E+03 -0.51771463962E+02  0.14333832618E+03  0.55584739814E+03  0.46999998093E+01 0.  1.
       -5    1    3    3    0  502  0.53452603284E+03  0.51771463962E+02 -0.14788269376E+04  0.15733243676E+04  0.46999998093E+01 0. -1.
</event>
<event>
 5   0  0.1000121E-03  0.1910369E+04  0.7818609E-02  0.8649712E-01
        2   -1    0    0  501    0  0.00000000000E+00  0.00000000000E+00  0.10943963541E+04  0.10943963541E+04  0.25500000920E-02 0. -1.
       -2   -1    0    0    0  501  0.00000000000E+00  0.00000000000E+00 -0.83368117809E+03  0.83368117810E+03  0.25500000920E-02 0.  1.
    10030    2    1    2    0    0  0.00000000000E+00  0.00000000000E+00  0.26071517602E+03  0.19280775322E+04  0.19103692227E+04 0.  0.
        4    1    3    3  502    0  0.83203859884E+02 -0.22300813937E+03  0.10639840519E+04  0.10902839942E+04  0.12699999809E+01 0. -1.
       -4    1    3    3    0  502 -0.83203859884E+02  0.22300813937E+03 -0.80326887584E+03  0.83779353800E+03  0.12699999809E+01 0.  1.
</event>
<event>
 5   0  0.5623061E-04  0.1499061E+04  0.7818609E-02  0.8885078E-01
       -1   -1    0    0    0  501  0.00000000000E+00  0.00000000000E+00  0.44244544227E+03  0.44244544230E+03  0.50400001928E-02 0.  1.
        1   -1    0    0  501    0  0.00000000000E+00  0.00000000000E+00 -0.12697514921E+04  0.12697514921E+04  0.50400001928E-02 0. -1.
    10030    2    1    2    0    0  0.00000000000E+00  0.00000000000E+00 -0.82730604984E+03  0.17121969344E+04  0.14990607200E+04 0.  0.
        3    1    3    3  502    0 -0.69365192873E+03  0.16903048657E+03 -0.15301707846E+03  0.73016336537E+03  0.10100000352E+00 0.  1.
       -3    1    3    3    0  502  0.69365192873E+03 -0.16903048657E+03 -0.67428897138E+03  0.98203356906E+03  0.10100000352E+00 0. -1.
</event>
<event>
 5   0  0.5623061E-04  0.1592434E+04  0.7818609E-02  0.8825209E-01
       -1   -1    0    0    0  501  0.00000000000E+00  0.00000000000E+00  0.62664751763E+03  0.62664751765E+03  0.50400001928E-02 0. -1.
        1   -1    0    0  501    0  0.00000000000E+00  0.00000000000E+00 -0.10116718620E+04  0.10116718620E+04  0.50400001928E-02 0.  1.
    10030    2    1    2    0    0  0.00000000000E+00  0.00000000000E+00 -0.38502434435E+03  0.16383193796E+04  0.15924341883E+04 0.  0.
        3    1    3    3  502    0  0.20006834915E+03  0.46690834051E+03 -0.82331131199E+03  0.96740491492E+03  0.10100000352E+00 0.  1.
       -3    1    3    3    0  502 -0.20006834915E+03 -0.46690834051E+03  0.43828696764E+03  0.67091446472E+03  0.10100000352E+00 0. -1.
</event>
<event>
 5   0  0.9844690E-04  0.1615596E+04  0.7818609E-02  0.8811024E-01
        2   -1    0    0  501    0  0.00000000000E+00  0.00000000000E+00  0.15806655083E+04  0.15806655083E+04  0.25500000920E-02 0.  1.
       -2   -1    0    0    0  501  0.00000000000E+00  0.00000000000E+00 -0.41282466233E+03  0.41282466234E+03  0.25500000920E-02 0. -1.
    10030    2    1    2    0    0  0.00000000000E+00  0.00000000000E+00  0.11678408459E+04  0.19934901706E+04  0.16155961187E+04 0.  0.
        3    1    3    3  502    0 -0.58448749285E+03 -0.36741060402E+02  0.12704436439E+04  0.13989290895E+04  0.10100000352E+00 0.  1.
       -3    1    3    3    0  502  0.58448749285E+03  0.36741060402E+02 -0.10260279800E+03  0.59456108111E+03  0.10100000352E+00 0. -1.
</event>
<event>
 5   0  0.1000121E-03  0.1451529E+04  0.7818609E-02  0.8917341E-01
        2   -1    0    0  501    0  0.00000000000E+00  0.00000000000E+00  0.87924132252E+03  0.87924132253E+03  0.25500000920E-02 0. -1.
       -2   -1    0    0    0  501  0.00000000000E+00  0.00000000000E+00 -0.59907771917E+03  0.59907771917E+03  0.25500000920E-02 0.  1.
    10030    2    1    2    0    0  0.00000000000E+00  0.00000000000E+00  0.28016360336E+03  0.14783190417E+04  0.14515286922E+04 0.  0.
        4    1    3    3  502    0  0.69788549948E+02  0.48331709428E+03 -0.40673213096E+03  0.63553008944E+03  0.12699999809E+01 0.  1.
       -4    1    3    3    0  502 -0.69788549948E+02 -0.48331709428E+03  0.68689573432E+03  0.84278895226E+03  0.12699999809E+01 0. -1.
</event>
<event>
 5   0  0.5281116E-04  0.1571790E+04  0.7818609E-02  0.8838068E-01
       -1   -1    0    0    0  501  0.00000000000E+00  0.00000000000E+00  0.48614004824E+03  0.48614004826E+03  0.50400001928E-02 0. -1.
        1   -1    0    0  501    0  0.00000000000E+00  0.00000000000E+00 -0.12704797269E+04  0.12704797269E+04  0.50400001928E-02 0.  1.
    10030    2    1    2    0    0  0.00000000000E+00  0.00000000000E+00 -0.78433967869E+03  0.17566197752E+04  0.15717901587E+04 0.  0.
        2    1    3    3  502    0  0.57946320022E+03 -0.23471289363E+03 -0.92436340319E+03  0.11159370251E+04  0.25500000920E-02 0.  1.
       -2    1    3    3    0  502 -0.57946320022E+03  0.23471289363E+03  0.14002372450E+03  0.64068275010E+03  0.25500000920E-02 0. -1.
</event>
<event>
 5   0  0.5288658E-04  0.1625912E+04  0.7818609E-02  0.8804786E-01
       -1   -1    0    0    0  501  0.00000000000E+00  0.00000000000E+00  0.23649555958E+03  0.23649555963E+03  0.50400001928E-02 0. -1.
        1   -1    0    0  501    0  0.00000000000E+00  0.00000000000E+00 -0.27945434133E+04  0.27945434133E+04  0.50400001928E-02 0.  1.
    10030    2    1    2    0    0  0.00000000000E+00  0.00000000000E+00 -0.25580478537E+04  0.30310389729E+04  0.16259115700E+04 0.  0.
        1    1    3    3  502    0  0.13636216605E+03  0.71529316289E+03 -0.19528733587E+04  0.20842152731E+04  0.50400001928E-02 0. -1.
       -1    1    3    3    0  502 -0.13636216605E+03 -0.71529316289E+03 -0.60517449495E+03  0.94682369983E+03  0.50400001928E-02 0.  1.
</event>
<event>
 5   0  0.5281116E-04  0.1599936E+04  0.7818609E-02  0.8820587E-01
        1   -1    0    0  501    0  0.00000000000E+00  0.00000000000E+00  0.69403359343E+03  0.69403359345E+03  0.50400001928E-02 0. -1.
       -1   -1    0    0    0  501  0.00000000000E+00  0.00000000000E+00 -0.92207159625E+03  0.92207159627E+03  0.50400001928E-02 0.  1.
    10030    2    1    2    0    0  0.00000000000E+00  0.00000000000E+00 -0.22803800282E+03  0.16161051897E+04  0.15999358279E+04 0.  0.
        2    1    3    3  502    0 -0.64001856856E+03  0.21991335812E+03  0.31686326200E+03  0.74725362495E+03  0.25500000920E-02 0. -1.
       -2    1    3    3    0  502  0.64001856856E+03 -0.21991335812E+03 -0.54490126482E+03  0.86885156477E+03  0.25500000920E-02 0.  1.
</event>
<event>
 5   0  0.3832500E-04  0.1580107E+04  0.7818609E-02  0.8832863E-01
        3   -1    0    0  501    0  0.00000000000E+00  0.00000000000E+00  0.70281460666E+03  0.70281461392E+03  0.10100000352E+00 0. -1.
       -3   -1    0    0    0  501  0.00000000000E+00  0.00000000000E+00 -0.88812081807E+03  0.88812082381E+03  0.10100000352E+00 0.  1.
    10030    2    1    2    0    0  0.00000000000E+00  0.00000000000E+00 -0.18530621141E+03  0.15909354377E+04  0.15801066974E+04 0.  0.
        5    1    3    3  502    0 -0.68322283078E+03  0.81341091009E+02  0.29827622049E+03  0.74993373261E+03  0.46999998093E+01 0. -1.
       -5    1    3    3    0  502  0.68322283078E+03 -0.81341091009E+02 -0.48358243190E+03  0.84100170513E+03  0.46999998093E+01 0.  1.
</event>
<event>
 5   0  0.1000121E-03  0.1566423E+04  0.7818609E-02  0.8841445E-01
        2   -1    0    0  501    0  0.00000000000E+00  0.00000000000E+00  0.10615089753E+04  0.10615089753E+04  0.25500000920E-02 0. -1.
       -2   -1    0    0    0  501  0.00000000000E+00  0.00000000000E+00 -0.57787563995E+03  0.57787563995E+03  0.25500000920E-02 0.  1.
    10030    2    1    2    0    0  0.00000000000E+00  0.00000000000E+00  0.48363333534E+03  0.16393846152E+04  0.15664229038E+04 0.  0.
        4    1    3    3  502    0 -0.37283058367E+03  0.58124299729E+03  0.62858727229E+03  0.93379314508E+03  0.12699999809E+01 0. -1.
       -4    1    3    3    0  502  0.37283058367E+03 -0.58124299729E+03 -0.14495393696E+03  0.70559147016E+03  0.12699999809E+01 0.  1.
</event>
<event>
 5   0  0.1000121E-03  0.1657622E+04  0.7818609E-02  0.8785910E-01
        2   -1    0    0  501    0  0.00000000000E+00  0.00000000000E+00  0.12242113752E+04  0.12242113752E+04  0.25500000920E-02 0. -1.
       -2   -1    0    0    0  501  0.00000000000E+00  0.00000000000E+00 -0.56111826659E+03  0.56111826660E+03  0.25500000920E-02 0.  1.
    10030    2    1    2    0    0  0.00000000000E+00  0.00000000000E+00  0.66309310864E+03  0.17853296418E+04  0.16576216273E+04 0.  0.
        4    1    3    3  502    0 -0.73614930242E+03 -0.31212457202E+03  0.56650046978E+03  0.97992955822E+03  0.12699999809E+01 0.  1.
       -4    1    3    3    0  502  0.73614930242E+03  0.31212457202E+03  0.96592638863E+02  0.80540008362E+03  0.12699999809E+01 0. -1.
</event>
<event>
 5   0  0.1037321E-03  0.1587938E+04  0.7818609E-02  0.8827993E-01
       -2   -1    0    0    0  501  0.00000000000E+00  0.00000000000E+00  0.42633482677E+03  0.42633482678E+03  0.25500000920E-02 0. -1.
        2   -1    0    0  501    0  0.00000000000E+00  0.00000000000E+00 -0.14786181126E+04  0.14786181126E+04  0.25500000920E-02 0.  1.
    10030    2    1    2    0    0  0.00000000000E+00  0.00000000000E+00 -0.10522832858E+04  0.19049529393E+04  0.15879375263E+04 0.  0.
        5    1    3    3  502    0  0.74379461148E+03  0.13581205739E+03 -0.81676403631E+03  0.11130143395E+04  0.46999998093E+01 0.  1.
       -5    1    3    3    0  502 -0.74379461148E+03 -0.13581205739E+03 -0.23551924949E+03  0.79193859982E+03  0.46999998093E+01 0. -1.
</event>
<event>
 5   0  0.5623061E-04  0.1606202E+04  0.7818609E-02  0.8816747E-01
       -1   -1    0    0    0  501  0.00000000000E+00  0.00000000000E+00  0.68604423212E+03  0.68604423214E+03  0.50400001928E-02 0.  1.
        1   -1    0    0  501    0  0.00000000000E+00  0.00000000000E+00 -0.94013017990E+03  0.94013017991E+03  0.50400001928E-02 0. -1.
    10030    2    1    2    0    0  0.00000000000E+00  0.00000000000E+00 -0.25408594778E+03  0.16261744120E+04  0.16062015906E+04 0.  0.
        3    1    3    3  502    0 -0.15977062491E+03 -0.49751435664E+03 -0.74448188059E+03  0.90956059083E+03  0.10100000352E+00 0. -1.
       -3    1    3    3    0  502  0.15977062491E+03  0.49751435664E+03  0.49039593281E+03  0.71661382122E+03  0.10100000352E+00 0.  1.
</event>
<event>
 5   0  0.5281116E-04  0.1589114E+04  0.7818609E-02  0.8827264E-01
       -1   -1    0    0    0  501  0.00000000000E+00  0.00000000000E+00  0.40505775201E+03  0.40505775204E+03  0.50400001928E-02 0. -1.
        1   -1    0    0  501    0  0.00000000000E+00  0.00000000000E+00 -0.15585939446E+04  0.15585939446E+04  0.50400001928E-02 0.  1.
    10030    2    1    2    0    0  0.00000000000E+00  0.00000000000E+00 -0.11535361926E+04  0.19636516967E+04  0.15891136643E+04 0.  0.
        2    1    3    3  502    0  0.18126489639E+03  0.62365639945E+03 -0.11156382489E+02  0.64956041452E+03  0.25500000920E-02 0. -1.
       -2    1    3    3    0  502 -0.18126489639E+03 -0.62365639945E+03 -0.11423798101E+04  0.13140912822E+04  0.25500000920E-02 0.  1.
</event>
<event>
 5   0  0.1030027E-03  0.1599994E+04  0.7818609E-02  0.8820552E-01
       -2   -1    0    0    0  501  0.00000000000E+00  0.00000000000E+00  0.92275304530E+03  0.92275304530E+03  0.25500000920E-02 0.  1.
        2   -1    0    0  501    0  0.00000000000E+00  0.00000000000E+00 -0.69357125742E+03  0.69357125742E+03  0.25500000920E-02 0. -1.
    10030    2    1    2    0    0  0.00000000000E+00  0.00000000000E+00  0.22918178788E+03  0.16163243027E+04  0.15999937374E+04 0.  0.
        1    1    3    3  502    0  0.23823625981E+03 -0.36283243209E+02 -0.65603324485E+03  0.69889384573E+03  0.50400001928E-02 0. -1.
       -1    1    3    3    0  502 -0.23823625981E+03  0.36283243209E+02  0.88521503273E+03  0.91743045700E+03  0.50400001928E-02 0.  1.
</event>
<event>
 5   0  0.5532881E-04  0.1614475E+04  0.7818609E-02  0.8811704E-01
       -1   -1    0    0    0  501  0.00000000000E+00  0.00000000000E+00  0.10535321174E+04  0.10535321174E+04  0.50400001928E-02 0.  1.
        1   -1    0    0  501    0  0.00000000000E+00  0.00000000000E+00 -0.61852197210E+03  0.61852197212E+03  0.50400001928E-02 0. -1.
    10030    2    1    2    0    0  0.00000000000E+00  0.00000000000E+00  0.43501014526E+03  0.16720540895E+04  0.16144754726E+04 0.  0.
        4    1    3    3  502    0  0.69601120055E+03 -0.24325927379E+03  0.55789756436E+03  0.92458529666E+03  0.12699999809E+01 0.  1.
       -4    1    3    3    0  502 -0.69601120055E+03  0.24325927379E+03 -0.12288741910E+03  0.74746879283E+03  0.12699999809E+01 0. -1.
</event>
<event>
 5   0  0.1000121E-03  0.1579140E+04  0.7818609E-02  0.8833467E-01
        2   -1    0    0  501    0  0.00000000000E+00  0.00000000000E+00  0.14114817024E+04  0.14114817024E+04  0.25500000920E-02 0.  1.
       -2   -1    0    0    0  501  0.00000000000E+00  0.00000000000E+00 -0.44167813690E+03  0.44167813691E+03  0.25500000920E-02 0. -1.
    10030    2    1    2    0    0  0.00000000000E+00  0.00000000000E+00  0.96980356549E+03  0.18531598393E+04  0.15791397767E+04 0.  0.
        4    1    3    3  502    0 -0.72212598243E+03  0.19553608129E+03  0.18867401406E+03  0.77155673159E+03  0.12699999809E+01 0. -1.
       -4    1    3    3    0  502  0.72212598243E+03 -0.19553608129E+03  0.78112955143E+03  0.10816031077E+04  0.12699999809E+01 0.  1.
</event>
<event>
 5   0  0.3832500E-04  0.1579064E+04  0.7818609E-02  0.8833514E-01
       -3   -1    0    0    0  501  0.00000000000E+00  0.00000000000E+00  0.30171644593E+03  0.30171646284E+03  0.10100000352E+00 0. -1.
        3   -1    0    0  501    0  0.00000000000E+00  0.00000000000E+00 -0.20660493100E+04  0.20660493125E+04  0.10100000352E+00 0.  1.
    10030    2    1    2    0    0  0.00000000000E+00  0.00000000000E+00 -0.17643328641E+04  0.23677657753E+04  0.15790643785E+04 0.  0.
        4    1    3    3  502    0 -0.25658943424E+03  0.44770402996E+03  0.13864788789E+02  0.51620817649E+03  0.12699999809E+01 0. -1.
       -4    1    3    3    0  502  0.25658943424E+03 -0.44770402996E+03 -0.17781976529E+04  0.18515575988E+04  0.12699999809E+01 0.  1.
</event>
<event>
 5   0  0.1057872E-03  0.1595369E+04  0.7818609E-02  0.8823398E-01
       -2   -1    0    0    0  501  0.00000000000E+00  0.00000000000E+00  0.63243390118E+03  0.63243390118E+03  0.25500000920E-02 0.  1.
        2   -1    0    0  501    0  0.00000000000E+00  0.00000000000E+00 -0.10061138481E+04  0.10061138481E+04  0.25500000920E-02 0. -1.
    10030    2    1    2    0    0  0.00000000000E+00  0.00000000000E+00 -0.37367994689E+03  0.16385477493E+04  0.15953689303E+04 0.  0.
        2    1    3    3  502    0  0.45103579463E+03 -0.51652573975E+03 -0.60538428510E+03  0.91472523771E+03  0.25500000920E-02 0. -1.
       -2    1    3    3    0  502 -0.45103579463E+03  0.51652573975E+03  0.23170433821E+03  0.72382251154E+03  0.25500000920E-02 0.  1.
</event>
<event>
 5   0  0.5532881E-04  0.1374397E+04  0.7818609E-02  0.8972563E-01
       -1   -1    0    0    0  501  0.00000000000E+00  0.00000000000E+00  0.75791878303E+03  0.75791878304E+03  0.50400001928E-02 0. -1.
        1   -1    0    0  501    0  0.00000000000E+00  0.00000000000E+00 -0.62307660848E+03  0.62307660850E+03  0.50400001928E-02 0.  1.
    10030    2    1    2    0    0  0.00000000000E+00  0.00000000000E+00  0.13484217455E+03  0.13809953915E+04  0.13743965437E+04 0.  0.
        4    1    3    3  502    0 -0.17448721522E+03  0.59682889064E+03 -0.22654011241E+03  0.66179494438E+03  0.12699999809E+01 0.  1.
       -4    1    3    3    0  502  0.17448721522E+03 -0.59682889064E+03  0.36138228696E+03  0.71920044717E+03  0.12699999809E+01 0. -1.
</event>
<event>
 5   0  0.1000121E-03  0.1613356E+04  0.7818609E-02  0.8812385E-01
        2   -1    0    0  501    0  0.00000000000E+00  0.00000000000E+00  0.10566981540E+04  0.10566981540E+04  0.25500000920E-02 0.  1.
       -2   -1    0    0    0  501  0.00000000000E+00  0.00000000000E+00 -0.61581388134E+03  0.61581388134E+03  0.25500000920E-02 0. -1.
    10030    2    1    2    0    0  0.00000000000E+00  0.00000000000E+00  0.44088427266E+03  0.16725120353E+04  0.16133559950E+04 0.  0.
        4    1    3    3  502    0  0.60465990302E+03  0.48002413201E+03  0.46287809093E+03  0.90016359935E+03  0.12699999809E+01 0.  1.
       -4    1    3    3    0  502 -0.60465990302E+03 -0.48002413201E+03 -0.21993818271E+02  0.77234843599E+03  0.12699999809E+01 0. -1.
</event>
<event>
 5   0  0.5623061E-04  0.1636994E+04  0.7818609E-02  0.8798138E-01
        1   -1    0    0  501    0  0.00000000000E+00  0.00000000000E+00  0.12477433692E+04  0.12477433692E+04  0.50400001928E-02 0. -1.
       -1   -1    0    0    0  501  0.00000000000E+00  0.00000000000E+00 -0.53691931850E+03  0.53691931853E+03  0.50400001928E-02 0.  1.
    10030    2    1    2    0    0  0.00000000000E+00  0.00000000000E+00  0.71082405070E+03  0.17846626877E+04  0.16369942205E+04 0.  0.
        3    1    3    3  502    0  0.22716671632E+03 -0.51281306002E+03 -0.29447902128E+03  0.63348232470E+03  0.10100000352E+00 0.  1.
       -3    1    3    3    0  502 -0.22716671632E+03  0.51281306002E+03  0.10053030720E+04  0.11511803630E+04  0.10100000352E+00 0. -1.
</event>
<event>
 5   0  0.1037321E-03  0.1439456E+04  0.7818609E-02  0.8925743E-01
        2   -1    0    0  501    0  0.00000000000E+00  0.00000000000E+00  0.38211045003E+03  0.38211045004E+03  0.25500000920E-02 0. -1.
       -2   -1    0    0    0  501  0.00000000000E+00  0.00000000000E+00 -0.13556517523E+04  0.13556517523E+04  0.25500000920E-02 0.  1.
    10030    2    1    2    0    0  0.00000000000E+00  0.00000000000E+00 -0.97354130224E+03  0.17377622023E+04  0.14394564268E+04 0.  0.
        5    1    3    3  502    0  0.44218376388E+03 -0.20713445188E+03 -0.11250720623E+04  0.12264747847E+04  0.46999998093E+01 0.  1.
       -5    1    3    3    0  502 -0.44218376388E+03  0.20713445188E+03  0.15153076001E+03  0.51128741762E+03  0.46999998093E+01 0. -1.
</event>
<event>
 5   0  0.1037321E-03  0.1585633E+04  0.7818609E-02  0.8829423E-01
        2   -1    0    0  501    0  0.00000000000E+00  0.00000000000E+00  0.66273466207E+03  0.66273466207E+03  0.25500000920E-02 0. -1.
       -2   -1    0    0    0  501  0.00000000000E+00  0.00000000000E+00 -0.94843128442E+03  0.94843128442E+03  0.25500000920E-02 0.  1.
    10030    2    1    2    0    0  0.00000000000E+00  0.00000000000E+00 -0.28569662235E+03  0.16111659465E+04  0.15856333584E+04 0.  0.
        5    1    3    3  502    0  0.36870826559E+03  0.61237521701E+03 -0.49127961424E+03  0.86736782329E+03  0.46999998093E+01 0.  1.
       -5    1    3    3    0  502 -0.36870826559E+03 -0.61237521701E+03  0.20558299189E+03  0.74379812320E+03  0.46999998093E+01 0. -1.
</event>
<event>
 5   0  0.1030027E-03  0.1587797E+04  0.7818609E-02  0.8828080E-01
       -2   -1    0    0    0  501  0.00000000000E+00  0.00000000000E+00  0.11107709193E+04  0.11107709193E+04  0.25500000920E-02 0. -1.
        2   -1    0    0  501    0  0.00000000000E+00  0.00000000000E+00 -0.56742122678E+03  0.56742122679E+03  0.25500000920E-02 0.  1.
    10030    2    1    2    0    0  0.00000000000E+00  0.00000000000E+00  0.54334969255E+03  0.16781921461E+04  0.15877972134E+04 0.  0.
        1    1    3    3  502    0  0.54199640695E+03  0.15783381913E+03 -0.31831933359E+03  0.64807315773E+03  0.50400001928E-02 0.  1.
       -1    1    3    3    0  502 -0.54199640695E+03 -0.15783381913E+03  0.86166902614E+03  0.10301189884E+04  0.50400001928E-02 0. -1.
</event>
<event>
 5   0  0.5281116E-04  0.1642981E+04  0.7818609E-02  0.8794570E-01
        1   -1    0    0  501    0  0.00000000000E+00  0.00000000000E+00  0.19039193365E+04  0.19039193365E+04  0.50400001928E-02 0. -1.
       -1   -1    0    0    0  501  0.00000000000E+00  0.00000000000E+00 -0.35445115547E+03  0.35445115550E+03  0.50400001928E-02 0.  1.
    10030    2    1    2    0    0  0.00000000000E+00  0.00000000000E+00  0.15494681810E+04  0.22583704920E+04  0.16429807166E+04 0.  0.
        2    1    3    3  502    0 -0.78701558538E+03 -0.15907227693E+03  0.53606379398E+03  0.96543353585E+03  0.25500000920E-02 0.  1.
       -2    1    3    3    0  502  0.78701558538E+03  0.15907227693E+03  0.10134043870E+04  0.12929369562E+04  0.25500000920E-02 0. -1.
</event>
<event>
 5   0  0.5623061E-04  0.1600424E+04  0.7818609E-02  0.8820287E-01
        1   -1    0    0  501    0  0.00000000000E+00  0.00000000000E+00  0.55300473305E+03  0.55300473307E+03  0.50400001928E-02 0.  1.
       -1   -1    0    0    0  501  0.00000000000E+00  0.00000000000E+00 -0.11579277435E+04  0.11579277435E+04  0.50400001928E-02 0. -1.
    10030    2    1    2    0    0  0.00000000000E+00  0.00000000000E+00 -0.60492301043E+03  0.17109324766E+04  0.16004243471E+04 0.  0.
        3    1    3    3  502    0 -0.79725822881E+03  0.77174754757E+01 -0.37543357148E+03  0.88126648616E+03  0.10100000352E+00 0.  1.
       -3    1    3    3    0  502  0.79725822881E+03 -0.77174754757E+01 -0.22948943895E+03  0.82966599040E+03  0.10100000352E+00 0. -1.
</event>
<event>
 5   0  0.5288658E-04  0.1573539E+04  0.7818609E-02  0.8836971E-01
        1   -1    0    0  501    0  0.00000000000E+00  0.00000000000E+00  0.13313675361E+04  0.13313675361E+04  0.50400001928E-02 0. -1.
       -1   -1    0    0    0  501  0.00000000000E+00  0.00000000000E+00 -0.46494005916E+03  0.46494005919E+03  0.50400001928E-02 0.  1.
    10030    2    1    2    0    0  0.00000000000E+00  0.00000000000E+00  0.86642747691E+03  0.17963075953E+04  0.15735388156E+04 0.  0.
        1    1    3    3  502    0 -0.25250804435E+03  0.28539879311E+03 -0.35256036407E+03  0.51914506056E+03  0.50400001928E-02 0.  1.
       -1    1    3    3    0  502  0.25250804435E+03 -0.28539879311E+03  0.12189878410E+04  0.12771625347E+04  0.50400001928E-02 0. -1.
</event>
<event>
 5   0  0.1000121E-03  0.1567614E+04  0.7818609E-02  0.8840695E-01
       -2   -1    0    0    0  501  0.00000000000E+00  0.00000000000E+00  0.75791609341E+03  0.75791609341E+03  0.25500000920E-02 0.  1.
        2   -1    0    0  501    0  0.00000000000E+00  0.00000000000E+00 -0.81058196411E+03  0.81058196411E+03  0.25500000920E-02 0. -1.
    10030    2    1    2    0    0  0.00000000000E+00  0.00000000000E+00 -0.52665870702E+02  0.15684980575E+04  0.15676136203E+04 0.  0.
        4    1    3    3  502    0 -0.31717139314E+03 -0.24359331590E+03  0.64815131823E+03  0.76160169406E+03  0.12699999809E+01 0.  1.
       -4    1    3    3    0  502  0.31717139314E+03  0.24359331590E+03 -0.70081718893E+03  0.80689636347E+03  0.12699999809E+01 0. -1.
</event>
<event>
 5   0  0.5425525E-04  0.1584114E+04  0.7818609E-02  0.8830367E-01
        1   -1    0    0  501    0  0.00000000000E+00  0.00000000000E+00  0.13098217534E+04  0.13098217534E+04  0.50400001928E-02 0.  1.
       -1   -1    0    0    0  501  0.00000000000E+00  0.00000000000E+00 -0.47896178081E+03  0.47896178083E+03  0.50400001928E-02 0. -1.
    10030    2    1    2    0    0  0.00000000000E+00  0.00000000000E+00  0.83085997261E+03  0.17887835343E+04  0.15841143388E+04 0.  0.
        5    1    3    3  502    0  0.32186625855E+03 -0.11708030186E+03 -0.39100201869E+03  0.51981761618E+03  0.46999998093E+01 0. -1.
       -5    1    3    3    0  502 -0.32186625855E+03  0.11708030186E+03  0.12218619913E+04  0.12689659181E+04  0.46999998093E+01 0.  1.
</event>
<event>
 5   0  0.5532881E-04  0.1428815E+04  0.7818609E-02  0.8933221E-01
        1   -1    0    0  501    0  0.00000000000E+00  0.00000000000E+00  0.97023582429E+03  0.97023582430E+03  0.50400001928E-02 0.  1.
       -1   -1    0    0    0  501  0.00000000000E+00  0.00000000000E+00 -0.52603530966E+03  0.52603530968E+03  0.50400001928E-02 0. -1.
    10030    2    1    2    0    0  0.00000000000E+00  0.00000000000E+00  0.44420051463E+03  0.14962711340E+04  0.14288153167E+04 0.  0.
        4    1    3    3  502    0  0.18598585780E+03 -0.35938531129E+03  0.83864715090E+03  0.93117087470E+03  0.12699999809E+01 0.  1.
       -4    1    3    3    0  502 -0.18598585780E+03  0.35938531129E+03 -0.39444663627E+03  0.56510025928E+03  0.12699999809E+01 0. -1.
</event>
<event>
 5   0  0.5281116E-04  0.1640482E+04  0.7818609E-02  0.8796057E-01
        1   -1    0    0  501    0  0.00000000000E+00  0.00000000000E+00  0.16638554350E+04  0.16638554350E+04  0.50400001928E-02 0.  1.
       -1   -1    0    0    0  501  0.00000000000E+00  0.00000000000E+00 -0.40435910292E+03  0.40435910295E+03  0.50400001928E-02 0. -1.
    10030    2    1    2    0    0  0.00000000000E+00  0.00000000000E+00  0.12594963321E+04  0.20682145380E+04  0.16404817477E+04 0.  0.
        2    1    3    3  502    0 -0.30753400867E+03  0.58348818419E+03  0.12444904551E+04  0.14084715547E+04  0.25500000920E-02 0.  1.
       -2    1    3    3    0  502  0.30753400867E+03 -0.58348818419E+03  0.15005876956E+02  0.65974298323E+03  0.25500000920E-02 0. -1.
</event>
<event>
 5   0  0.9844690E-04  0.1596872E+04  0.7818609E-02  0.8822472E-01
        2   -1    0    0  501    0  0.00000000000E+00  0.00000000000E+00  0.89756561363E+03  0.89756561363E+03  0.25500000920E-02 0. -1.
       -2   -1    0    0    0  501  0.00000000000E+00  0.00000000000E+00 -0.71025415068E+03  0.71025415069E+03  0.25500000920E-02 0.  1.
    10030    2    1    2    0    0  0.00000000000E+00  0.00000000000E+00  0.18731146295E+03  0.16078197643E+04  0.15968715698E+04 0.  0.
        3    1    3    3  502    0 -0.75817165486E+02  0.52550394261E+03 -0.50675224399E+03  0.73396218109E+03  0.10100000352E+00 0.  1.
       -3    1    3    3    0  502  0.75817165486E+02 -0.52550394261E+03  0.69406370694E+03  0.87385758323E+03  0.10100000352E+00 0. -1.
</event>
<event>
 5   0  0.1000121E-03  0.1095012E+04  0.7818609E-02  0.9210067E-01
       -2   -1    0    0    0  501  0.00000000000E+00  0.00000000000E+00  0.17868455989E+03  0.17868455991E+03  0.25500000920E-02 0. -1.
        2   -1    0    0  501    0  0.00000000000E+00  0.00000000000E+00 -0.16776095203E+04  0.16776095203E+04  0.25500000920E-02 0.  1.
    10030    2    1    2    0    0  0.00000000000E+00  0.00000000000E+00 -0.14989249604E+04  0.18562940802E+04  0.10950121804E+04 0.  0.
        4    1    3    3  502    0  0.13908247068E+03 -0.13728036233E+03 -0.16164703105E+04  0.16282406791E+04  0.12699999809E+01 0.  1.
       -4    1    3    3    0  502 -0.13908247068E+03  0.13728036233E+03  0.11754535007E+03  0.22805340110E+03  0.12699999809E+01 0. -1.
</event>
<event>
 5   0  0.1030027E-03  0.1694399E+04  0.7818609E-02  0.8764565E-01
        2   -1    0    0  501    0  0.00000000000E+00  0.00000000000E+00  0.12237033906E+04  0.12237033906E+04  0.25500000920E-02 0. -1.
       -2   -1    0    0    0  501  0.00000000000E+00  0.00000000000E+00 -0.58653647948E+03  0.58653647949E+03  0.25500000920E-02 0.  1.
    10030    2    1    2    0    0  0.00000000000E+00  0.00000000000E+00  0.63716691107E+03  0.18102398700E+04  0.16943986292E+04 0.  0.
        1    1    3    3  502    0 -0.65237988647E+03  0.52271603437E+03  0.46551835737E+03  0.95683797476E+03  0.50400001928E-02 0. -1.
       -1    1    3    3    0  502  0.65237988647E+03 -0.52271603437E+03  0.17164855371E+03  0.85340189529E+03  0.50400001928E-02 0.  1.
</event>
<event>
 5   0  0.9844690E-04  0.1587470E+04  0.7818609E-02  0.8828283E-01
        2   -1    0    0  501    0  0.00000000000E+00  0.00000000000E+00  0.31660351467E+03  0.31660351468E+03  0.25500000920E-02 0. -1.
       -2   -1    0    0    0  501  0.00000000000E+00  0.00000000000E+00 -0.19899175742E+04  0.19899175742E+04  0.25500000920E-02 0.  1.
    10030    2    1    2    0    0  0.00000000000E+00  0.00000000000E+00 -0.16733140595E+04  0.23065210889E+04  0.15874695561E+04 0.  0.
        3    1    3    3  502    0 -0.54939537194E+03  0.37926458987E+03 -0.14604772405E+04  0.16058239891E+04  0.10100000352E+00 0.  1.
       -3    1    3    3    0  502  0.54939537194E+03 -0.37926458987E+03 -0.21283681901E+03  0.70069709973E+03  0.10100000352E+00 0. -1.
</event>
<event>
 5   0  0.5425525E-04  0.1595713E+04  0.7818609E-02  0.8823186E-01
        1   -1    0    0  501    0  0.00000000000E+00  0.00000000000E+00  0.10177204652E+04  0.10177204652E+04  0.50400001928E-02 0.  1.
       -1   -1    0    0    0  501  0.00000000000E+00  0.00000000000E+00 -0.62549094420E+03  0.62549094422E+03  0.50400001928E-02 0. -1.
    10030    2    1    2    0    0  0.00000000000E+00  0.00000000000E+00  0.39222952103E+03  0.16432114095E+04  0.15957129250E+04 0.  0.
        5    1    3    3  502    0 -0.76562997169E+03  0.12399742298E+03  0.34955194942E+01  0.77562808298E+03  0.46999998093E+01 0.  1.
       -5    1    3    3    0  502  0.76562997169E+03 -0.12399742298E+03  0.38873400154E+03  0.86758332649E+03  0.46999998093E+01 0. -1.
</event>
<event>
 5   0  0.5532881E-04  0.1009052E+04  0.7818609E-02  0.9298672E-01
       -1   -1    0    0    0  501  0.00000000000E+00  0.00000000000E+00  0.23285628979E+03  0.23285628984E+03  0.50400001928E-02 0.  1.
        1   -1    0    0  501    0  0.00000000000E+00  0.00000000000E+00 -0.10931493239E+04  0.10931493239E+04  0.50400001928E-02 0. -1.
    10030    2    1    2    0    0  0.00000000000E+00  0.00000000000E+00 -0.86029303414E+03  0.13260056138E+04  0.10090524185E+04 0.  0.
        4    1    3    3  502    0  0.45219106254E+03  0.76049210148E+02 -0.15360573152E+03  0.48358719282E+03  0.12699999809E+01 0.  1.
       -4    1    3    3    0  502 -0.45219106254E+03 -0.76049210148E+02 -0.70668730262E+03  0.84241842097E+03  0.12699999809E+01 0. -1.
</event>
<event>
 5   0  0.5425525E-04  0.1382300E+04  0.7818609E-02  0.8966731E-01
       -1   -1    0    0    0  501  0.00000000000E+00  0.00000000000E+00  0.10697619374E+04  0.10697619375E+04  0.50400001928E-02 0. -1.
        1   -1    0    0  501    0  0.00000000000E+00  0.00000000000E+00 -0.44653690126E+03  0.44653690129E+03  0.50400001928E-02 0.  1.
    10030    2    1    2    0    0  0.00000000000E+00  0.00000000000E+00  0.62322503618E+03  0.15162988387E+04  0.13822997948E+04 0.  0.
        5    1    3    3  502    0 -0.30442591169E+03 -0.58428319964E+03  0.54067091148E+03  0.85229637897E+03  0.46999998093E+01 0.  1.
       -5    1    3    3    0  502  0.30442591169E+03  0.58428319964E+03  0.82554124702E+02  0.66400245978E+03  0.46999998093E+01 0. -1.
</event>
<event>
 5   0  0.5288658E-04  0.1591291E+04  0.7818609E-02  0.8825916E-01
        1   -1    0    0  501    0  0.00000000000E+00  0.00000000000E+00  0.99654095944E+03  0.99654095945E+03  0.50400001928E-02 0.  1.
       -1   -1    0    0    0  501  0.00000000000E+00  0.00000000000E+00 -0.63524880807E+03  0.63524880809E+03  0.50400001928E-02 0. -1.
    10030    2    1    2    0    0  0.00000000000E+00  0.00000000000E+00  0.36129215137E+03  0.16317897675E+04  0.15912906167E+04 0.  0.
        1    1    3    3  502    0  0.48563841949E+03 -0.10438864420E+03 -0.45671063454E+03  0.67477868020E+03  0.50400001928E-02 0. -1.
       -1    1    3    3    0  502 -0.48563841949E+03  0.10438864420E+03  0.81800278591E+03  0.95701108735E+03  0.50400001928E-02 0.  1.
</event>
<event>
 5   0  0.1000121E-03  0.1591954E+04  0.7818609E-02  0.8825506E-01
       -2   -1    0    0    0  501  0.00000000000E+00  0.00000000000E+00  0.56332050510E+03  0.56332050511E+03  0.25500000920E-02 0.  1.
        2   -1    0    0  501    0  0.00000000000E+00  0.00000000000E+00 -0.11247229982E+04  0.11247229982E+04  0.25500000920E-02 0. -1.
    10030    2    1    2    0    0  0.00000000000E+00  0.00000000000E+00 -0.56140249313E+03  0.16880435033E+04  0.15919541796E+04 0.  0.
        4    1    3    3  502    0 -0.16389514961E+03 -0.33164727656E+03 -0.10280299847E+04  0.10925652376E+04  0.12699999809E+01 0. -1.
       -4    1    3    3    0  502  0.16389514961E+03  0.33164727656E+03  0.46662749159E+03  0.59547826570E+03  0.12699999809E+01 0.  1.
</event>
<event>
 5   0  0.1030027E-03  0.1608810E+04  0.7818609E-02  0.8815154E-01
       -2   -1    0    0    0  501  0.00000000000E+00  0.00000000000E+00  0.46263988090E+03  0.46263988090E+03  0.25500000920E-02 0.  1.
        2   -1    0    0  501    0  0.00000000000E+00  0.00000000000E+00 -0.13986415490E+04  0.13986415490E+04  0.25500000920E-02 0. -1.
    10030    2    1    2    0    0  0.00000000000E+00  0.00000000000E+00 -0.93600166809E+03  0.18612814299E+04  0.16088099448E+04 0.  0.
        1    1    3    3  502    0 -0.14281473699E+03 -0.74756940182E+03 -0.76927253348E+03  0.10821443020E+04  0.50400001928E-02 0. -1.
       -1    1    3    3    0  502  0.14281473699E+03  0.74756940182E+03 -0.16672913461E+03  0.77913712785E+03  0.50400001928E-02 0.  1.
</event>
<event>
 5   0  0.1057872E-03  0.1591309E+04  0.7818609E-02  0.8825905E-01
       -2   -1    0    0    0  501  0.00000000000E+00  0.00000000000E+00  0.12818153435E+04  0.12818153435E+04  0.25500000920E-02 0. -1.
        2   -1    0    0  501    0  0.00000000000E+00  0.00000000000E+00 -0.49388245717E+03  0.49388245718E+03  0.25500000920E-02 0.  1.
    10030    2    1    2    0    0  0.00000000000E+00  0.00000000000E+00  0.78793288637E+03  0.17756978007E+04  0.15913090354E+04 0.  0.
        2    1    3    3  502    0  0.78827228981E+03  0.26414623587E+02  0.51097446216E+03  0.93976903344E+03  0.25500000920E-02 0.  1.
       -2    1    3    3    0  502 -0.78827228981E+03 -0.26414623587E+02  0.27695842421E+03  0.83592876728E+03  0.25500000920E-02 0. -1.
</event>
<event>
 5   0  0.5623061E-04  0.1601487E+04  0.7818609E-02  0.8819635E-01
       -1   -1    0    0    0  501  0.00000000000E+00  0.00000000000E+00  0.12575038800E+04  0.12575038801E+04  0.50400001928E-02 0. -1.
        1   -1    0    0  501    0  0.00000000000E+00  0.00000000000E+00 -0.50989124300E+03  0.50989124303E+03  0.50400001928E-02 0.  1.
    10030    2    1    2    0    0  0.00000000000E+00  0.00000000000E+00  0.74761263704E+03  0.17673951231E+04  0.16014870796E+04 0.  0.
        3    1    3    3  502    0 -0.12893847387E+03  0.77324936961E+03  0.19364448154E+03  0.80748864578E+03  0.10100000352E+00 0. -1.
       -3    1    3    3    0  502  0.12893847387E+03 -0.77324936961E+03  0.55396815551E+03  0.95990647730E+03  0.10100000352E+00 0.  1.
</event>
<event>
 5   0  0.9844690E-04  0.1603963E+04  0.7818609E-02  0.8818117E-01
        2   -1    0    0  501    0  0.00000000000E+00  0.00000000000E+00  0.25573074264E+04  0.25573074264E+04  0.25500000920E-02 0.  1.
       -2   -1    0    0    0  501  0.00000000000E+00  0.00000000000E+00 -0.25150462655E+03  0.25150462657E+03  0.25500000920E-02 0. -1.
    10030    2    1    2    0    0  0.00000000000E+00  0.00000000000E+00  0.23058027998E+04  0.28088120529E+04  0.16039634027E+04 0.  0.
        3    1    3    3  502    0 -0.29893008941E+03 -0.55912821660E+03  0.20129219814E+04  0.21104119205E+04  0.10100000352E+00 0.  1.
       -3    1    3    3    0  502  0.29893008941E+03  0.55912821660E+03  0.29288081845E+03  0.69840013242E+03  0.10100000352E+00 0. -1.
</event>
<event>
 5   0  0.1037321E-03  0.1649378E+04  0.7818609E-02  0.8790775E-01
       -2   -1    0    0    0  501  0.00000000000E+00  0.00000000000E+00  0.55288810315E+03  0.55288810316E+03  0.25500000920E-02 0. -1.
        2   -1    0    0  501    0  0.00000000000E+00  0.00000000000E+00 -0.12301076692E+04  0.12301076692E+04  0.25500000920E-02 0.  1.
    10030    2    1    2    0    0  0.00000000000E+00  0.00000000000E+00 -0.67721956601E+03  0.17829957723E+04  0.16493779384E+04 0.  0.
        5    1    3    3  502    0 -0.32500914838E+02 -0.20029653357E+03  0.52546554458E+03  0.56330377183E+03  0.46999998093E+01 0. -1.
       -5    1    3    3    0  502  0.32500914838E+02  0.20029653357E+03 -0.12026851106E+04  0.12196920005E+04  0.46999998093E+01 0.  1.
</event>
<event>
 5   0  0.1030027E-03  0.1576648E+04  0.7818609E-02  0.8835024E-01
       -2   -1    0    0    0  501  0.00000000000E+00  0.00000000000E+00  0.72723156580E+03  0.72723156580E+03  0.25500000920E-02 0. -1.
        2   -1    0    0  501    0  0.00000000000E+00  0.00000000000E+00 -0.85454859982E+03  0.85454859982E+03  0.25500000920E-02 0.  1.
    10030    2    1    2    0    0  0.00000000000E+00  0.00000000000E+00 -0.12731703402E+03  0.15817801656E+04  0.15766479839E+04 0.  0.
        1    1    3    3  502    0  0.63319486579E+03 -0.41691622340E+03 -0.28046341334E+03  0.80834064703E+03  0.50400001928E-02 0. -1.
       -1    1    3    3    0  502 -0.63319486579E+03  0.41691622340E+03  0.15314637932E+03  0.77343951859E+03  0.50400001928E-02 0.  1.
</event>
<event>
 5   0  0.5623061E-04  0.1633564E+04  0.7818609E-02  0.8800189E-01
       -1   -1    0    0    0  501  0.00000000000E+00  0.00000000000E+00  0.54162239849E+03  0.54162239851E+03  0.50400001928E-02 0. -1.
        1   -1    0    0  501    0  0.00000000000E+00  0.00000000000E+00 -0.12317312506E+04  0.12317312506E+04  0.50400001928E-02 0.  1.
    10030    2    1    2    0    0  0.00000000000E+00  0.00000000000E+00 -0.69010885207E+03  0.17733536491E+04  0.16335644882E+04 0.  0.
        3    1    3    3  502    0  0.35110158799E+03  0.58852939998E+02  0.45296897455E+03  0.57612229235E+03  0.10100000352E+00 0. -1.
       -3    1    3    3    0  502 -0.35110158799E+03 -0.58852939998E+02 -0.11430778266E+04  0.11972313567E+04  0.10100000352E+00 0.  1.
</event>
<event>
 5   0  0.5532881E-04  0.1477274E+04  0.7818609E-02  0.8899708E-01
        1   -1    0    0  501    0  0.00000000000E+00  0.00000000000E+00  0.14356604159E+04  0.14356604159E+04  0.50400001928E-02 0.  1.
       -1   -1    0    0    0  501  0.00000000000E+00  0.00000000000E+00 -0.38002349004E+03  0.38002349007E+03  0.50400001928E-02 0. -1.
    10030    2    1    2    0    0  0.00000000000E+00  0.00000000000E+00  0.10556369259E+04  0.18156839060E+04  0.14772740867E+04 0.  0.
        4    1    3    3  502    0  0.33237880693E+03 -0.50594363737E+03  0.76291469233E+01  0.60540437087E+03  0.12699999809E+01 0. -1.
       -4    1    3    3    0  502 -0.33237880693E+03  0.50594363737E+03  0.10480077790E+04  0.12102795351E+04  0.12699999809E+01 0.  1.
</event>
<event>
 5   0  0.5623061E-04  0.1538789E+04  0.7818609E-02  0.8859061E-01
       -1   -1    0    0    0  501  0.00000000000E+00  0.00000000000E+00  0.47857877853E+03  0.47857877855E+03  0.50400001928E-02 0. -1.
        1   -1    0    0  501    0  0.00000000000E+00  0.00000000000E+00 -0.12369290772E+04  0.12369290772E+04  0.50400001928E-02 0.  1.
    10030    2    1    2    0    0  0.00000000000E+00  0.00000000000E+00 -0.75835029865E+03  0.17155078557E+04  0.15387891433E+04 0.  0.
        3    1    3    3  502    0 -0.50318183652E+03  0.56750500101E+03 -0.23504487114E+03  0.79404029395E+03  0.10100000352E+00 0.  1.
       -3    1    3    3    0  502  0.50318183652E+03 -0.56750500101E+03 -0.52330542750E+03  0.92146756179E+03  0.10100000352E+00 0. -1.
</event>
<event>
 5   0  0.1000121E-03  0.1589894E+04  0.7818609E-02  0.8826781E-01
        2   -1    0    0  501    0  0.00000000000E+00  0.00000000000E+00  0.23922674959E+03  0.23922674960E+03  0.25500000920E-02 0. -1.
       -2   -1    0    0    0  501  0.00000000000E+00  0.00000000000E+00 -0.26415979910E+04  0.26415979910E+04  0.25500000920E-02 0.  1.
    10030    2    1    2    0    0  0.00000000000E+00  0.00000000000E+00 -0.24023712414E+04  0.28808247406E+04  0.15898942117E+04 0.  0.
        4    1    3    3  502    0  0.26976196927E+02 -0.86792794475E+02 -0.26321506671E+04  0.26337196987E+04  0.12699999809E+01 0.  1.
       -4    1    3    3    0  502 -0.26976196927E+02  0.86792794475E+02  0.22977942565E+03  0.24710504189E+03  0.12699999809E+01 0. -1.
</event>
<event>
 5   0  0.1037321E-03  0.1580511E+04  0.7818609E-02  0.8832611E-01
       -2   -1    0    0    0  501  0.00000000000E+00  0.00000000000E+00  0.11202255982E+04  0.11202255982E+04  0.25500000920E-02 0.  1.
        2   -1    0    0  501    0  0.00000000000E+00  0.00000000000E+00 -0.55748058109E+03  0.55748058109E+03  0.25500000920E-02 0. -1.
    10030    2    1    2    0    0  0.00000000000E+00  0.00000000000E+00  0.56274501709E+03  0.16777061793E+04  0.15805113317E+04 0.  0.
        5    1    3    3  502    0 -0.43847320534E+03  0.12627504962E+02 -0.41636519469E+03  0.60481424506E+03  0.46999998093E+01 0. -1.
       -5    1    3    3    0  502  0.43847320534E+03 -0.12627504962E+02  0.97911021179E+03  0.10728919342E+04  0.46999998093E+01 0.  1.
</event>
<event>
 5   0  0.1057872E-03  0.1320893E+04  0.7818609E-02  0.9013159E-01
        2   -1    0    0  501    0  0.00000000000E+00  0.00000000000E+00  0.14964323357E+04  0.14964323357E+04  0.25500000920E-02 0. -1.
       -2   -1    0    0    0  501  0.00000000000E+00  0.00000000000E+00 -0.29148622997E+03  0.29148622998E+03  0.25500000920E-02 0.  1.
    10030    2    1    2    0    0  0.00000000000E+00  0.00000000000E+00  0.12049461058E+04  0.17879185657E+04  0.13208927587E+04 0.  0.
        2    1    3    3  502    0  0.43096484449E+03 -0.36691441197E+03  0.14179718874E+03  0.58349235268E+03  0.25500000920E-02 0.  1.
       -2    1    3    3    0  502 -0.43096484449E+03  0.36691441197E+03  0.10631489170E+04  0.12044262130E+04  0.25500000920E-02 0. -1.
</event>
<event>
 5   0  0.9844690E-04  0.1606168E+04  0.7818609E-02  0.8816767E-01
       -2   -1    0    0    0  501  0.00000000000E+00  0.00000000000E+00  0.37871470988E+03  0.37871470989E+03  0.25500000920E-02 0. -1.
        2   -1    0    0  501    0  0.00000000000E+00  0.00000000000E+00 -0.17029818881E+04  0.17029818881E+04  0.25500000920E-02 0.  1.
    10030    2    1    2    0    0  0.00000000000E+00  0.00000000000E+00 -0.13242671783E+04  0.20816965980E+04  0.16061684740E+04 0.  0.
        3    1    3    3  502    0  0.53998064108E+03 -0.47849001030E+03 -0.20498399171E+03  0.75003348576E+03  0.10100000352E+00 0. -1.
       -3    1    3    3    0  502 -0.53998064108E+03  0.47849001030E+03 -0.11192831866E+04  0.13316631123E+04  0.10100000352E+00 0.  1.
</event>
<event>
 5   0  0.1057872E-03  0.1548921E+04  0.7818609E-02  0.8852557E-01
        2   -1    0    0  501    0  0.00000000000E+00  0.00000000000E+00  0.90604107964E+03  0.90604107965E+03  0.25500000920E-02 0. -1.
       -2   -1    0    0    0  501  0.00000000000E+00  0.00000000000E+00 -0.66198858667E+03  0.66198858668E+03  0.25500000920E-02 0.  1.
    10030    2    1    2    0    0  0.00000000000E+00  0.00000000000E+00  0.24405249297E+03  0.15680296663E+04  0.15489207259E+04 0.  0.
        2    1    3    3  502    0  0.17615992942E+03  0.50120837480E+03  0.69249108953E+03  0.87280356598E+03  0.25500000920E-02 0. -1.
       -2    1    3    3    0  502 -0.17615992942E+03 -0.50120837480E+03 -0.44843859656E+03  0.69522610034E+03  0.25500000920E-02 0.  1.
</event>
<event>
 5   0  0.9844690E-04  0.1596127E+04  0.7818609E-02  0.8822931E-01
        2   -1    0    0  501    0  0.00000000000E+00  0.00000000000E+00  0.16792538538E+04  0.16792538538E+04  0.25500000920E-02 0.  1.
       -2   -1    0    0    0  501  0.00000000000E+00  0.00000000000E+00 -0.37927870783E+03  0.37927870784E+03  0.25500000920E-02 0. -1.
    10030    2    1    2    0    0  0.00000000000E+00  0.00000000000E+00  0.12999751460E+04  0.20585325617E+04  0.15961268519E+04 0.  0.
        3    1    3    3  502    0 -0.68399592015E+03  0.28638395364E+03  0.26949396254E+03  0.78898237859E+03  0.10100000352E+00 0. -1.
       -3    1    3    3    0  502  0.68399592015E+03 -0.28638395364E+03  0.10304811834E+04  0.12695501831E+04  0.10100000352E+00 0.  1.
</event>
<event>
 5   0  0.9844690E-04  0.1604759E+04  0.7818609E-02  0.8817630E-01
       -2   -1    0    0    0  501  0.00000000000E+00  0.00000000000E+00  0.39465254784E+03  0.39465254785E+03  0.25500000920E-02 0.  1.
        2   -1    0    0  501    0  0.00000000000E+00  0.00000000000E+00 -0.16313414858E+04  0.16313414858E+04  0.25500000920E-02 0. -1.
    10030    2    1    2    0    0  0.00000000000E+00  0.00000000000E+00 -0.12366889380E+04  0.20259940337E+04  0.16047592639E+04 0.  0.
        3    1    3    3  502    0  0.31330643702E+03 -0.15509017808E+03  0.29344950842E+03  0.45642799104E+03  0.10100000352E+00 0.  1.
       -3    1    3    3    0  502 -0.31330643702E+03  0.15509017808E+03 -0.15301384464E+04  0.15695660426E+04  0.10100000352E+00 0. -1.
</event>
<event>
 5   0  0.1000121E-03  0.1588811E+04  0.7818609E-02  0.8827452E-01
        2   -1    0    0  501    0  0.00000000000E+00  0.00000000000E+00  0.69402562697E+03  0.69402562697E+03  0.25500000920E-02 0. -1.
       -2   -1    0    0    0  501  0.00000000000E+00  0.00000000000E+00 -0.90930317270E+03  0.90930317271E+03  0.25500000920E-02 0.  1.
    10030    2    1    2    0    0  0.00000000000E+00  0.00000000000E+00 -0.21527754574E+03  0.16033287997E+04  0.15888105042E+04 0.  0.
        4    1    3    3  502    0  0.36565382349E+02  0.42993735453E+03  0.56546065628E+03  0.71128793235E+03  0.12699999809E+01 0. -1.
       -4    1    3    3    0  502 -0.36565382349E+02 -0.42993735453E+03 -0.78073820201E+03  0.89204086733E+03  0.12699999809E+01 0.  1.
</event>
<event>
 5   0  0.5623061E-04  0.1610650E+04  0.7818609E-02  0.8814032E-01
        1   -1    0    0  501    0  0.00000000000E+00  0.00000000000E+00  0.65279356631E+03  0.65279356633E+03  0.50400001928E-02 0.  1.
       -1   -1    0    0    0  501  0.00000000000E+00  0.00000000000E+00 -0.99349646053E+03  0.99349646054E+03  0.50400001928E-02 0. -1.
    10030    2    1    2    0    0  0.00000000000E+00  0.00000000000E+00 -0.34070289422E+03  0.16462900269E+04  0.16106496796E+04 0.  0.
        3    1    3    3  502    0 -0.40382841033E+03 -0.33342640481E+03  0.45498499767E+03  0.69373043087E+03  0.10100000352E+00 0.  1.
       -3    1    3    3    0  502  0.40382841033E+03  0.33342640481E+03 -0.79568789189E+03  0.95255959600E+03  0.10100000352E+00 0. -1.
</event>
<event>
 5   0  0.5281116E-04  0.1621985E+04  0.7818609E-02  0.8807155E-01
        1   -1    0    0  501    0  0.00000000000E+00  0.00000000000E+00  0.14447403972E+04  0.14447403972E+04  0.50400001928E-02 0. -1.
       -1   -1    0    0    0  501  0.00000000000E+00  0.00000000000E+00 -0.45524351319E+03  0.45524351322E+03  0.50400001928E-02 0.  1.
    10030    2    1    2    0    0  0.00000000000E+00  0.00000000000E+00  0.98949688397E+03  0.18999839104E+04  0.16219848262E+04 0.  0.
        2    1    3    3  502    0  0.78499362463E+03  0.64979195078E+02  0.72089554748E+03  0.10677676137E+04  0.25500000920E-02 0.  1.
       -2    1    3    3    0  502 -0.78499362463E+03 -0.64979195078E+02  0.26860133649E+03  0.83221629669E+03  0.25500000920E-02 0. -1.
</event>
<event>
 5   0  0.5281116E-04  0.1600425E+04  0.7818609E-02  0.8820287E-01
        1   -1    0    0  501    0  0.00000000000E+00  0.00000000000E+00  0.24867469157E+04  0.24867469157E+04  0.50400001928E-02 0. -1.
       -1   -1    0    0    0  501  0.00000000000E+00  0.00000000000E+00 -0.25750112470E+03  0.25750112475E+03  0.50400001928E-02 0.  1.
    10030    2    1    2    0    0  0.00000000000E+00  0.00000000000E+00  0.22292457910E+04  0.27442480405E+04  0.16004251032E+04 0.  0.
        2    1    3    3  502    0  0.30544874564E+03  0.59679737444E+03  0.36548547292E+03  0.76357427489E+03  0.25500000920E-02 0.  1.
       -2    1    3    3    0  502 -0.30544874564E+03 -0.59679737444E+03  0.18637603181E+04  0.19806737656E+04  0.25500000920E-02 0. -1.
</event>
<event>
 5   0  0.5623061E-04  0.1547985E+04  0.7818609E-02  0.8853156E-01
        1   -1    0    0  501    0  0.00000000000E+00  0.00000000000E+00  0.94713665270E+03  0.94713665271E+03  0.50400001928E-02 0. -1.
       -1   -1    0    0    0  501  0.00000000000E+00  0.00000000000E+00 -0.63250082854E+03  0.63250082856E+03  0.50400001928E-02 0.  1.
    10030    2    1    2    0    0  0.00000000000E+00  0.00000000000E+00  0.31463582416E+03  0.15796374813E+04  0.15479854232E+04 0.  0.
        3    1    3    3  502    0  0.76178156804E+03  0.10699354826E+03  0.24454037290E+03  0.80719191086E+03  0.10100000352E+00 0. -1.
       -3    1    3    3    0  502 -0.76178156804E+03 -0.10699354826E+03  0.70095451258E+02  0.77244557042E+03  0.10100000352E+00 0.  1.
</event>
<event>
 5   0  0.1030027E-03  0.1573922E+04  0.7818609E-02  0.8836731E-01
        2   -1    0    0  501    0  0.00000000000E+00  0.00000000000E+00  0.46789117951E+03  0.46789117951E+03  0.25500000920E-02 0.  1.
       -2   -1    0    0    0  501  0.00000000000E+00  0.00000000000E+00 -0.13236149429E+04  0.13236149429E+04  0.25500000920E-02 0. -1.
    10030    2    1    2    0    0  0.00000000000E+00  0.00000000000E+00 -0.85572376344E+03  0.17915061225E+04  0.15739221796E+04 0.  0.
        1    1    3    3  502    0 -0.47128015171E+03 -0.60725291834E+03 -0.61983956571E+03  0.98745236618E+03  0.50400001928E-02 0. -1.
       -1    1    3    3    0  502  0.47128015171E+03  0.60725291834E+03 -0.23588419772E+03  0.80405375628E+03  0.50400001928E-02 0.  1.
</event>
<event>
 5   0  0.5623061E-04  0.1602290E+04  0.7818609E-02  0.8819142E-01
        1   -1    0    0  501    0  0.00000000000E+00  0.00000000000E+00  0.65439991371E+03  0.65439991373E+03  0.50400001928E-02 0. -1.
       -1   -1    0    0    0  501  0.00000000000E+00  0.00000000000E+00 -0.98079720650E+03  0.98079720652E+03  0.50400001928E-02 0.  1.
    10030    2    1    2    0    0  0.00000000000E+00  0.00000000000E+00 -0.32639729279E+03  0.16351971203E+04  0.16022903699E+04 0.  0.
        3    1    3    3  502    0  0.86036816890E+02 -0.69979412941E+03 -0.55143153867E+03  0.89509268205E+03  0.10100000352E+00 0. -1.
       -3    1    3    3    0  502 -0.86036816890E+02  0.69979412941E+03  0.22503424588E+03  0.74010443820E+03  0.10100000352E+00 0.  1.
</event>
<event>
 5   0  0.9844690E-04  0.1125258E+04  0.7818609E-02  0.9180917E-01
        2   -1    0    0  501    0  0.00000000000E+00  0.00000000000E+00  0.70279426384E+03  0.70279426385E+03  0.25500000920E-02 0. -1.
       -2   -1    0    0    0  501  0.00000000000E+00  0.00000000000E+00 -0.45041838524E+03  0.45041838525E+03  0.25500000920E-02 0.  1.
    10030    2    1    2    0    0  0.00000000000E+00  0.00000000000E+00  0.25237587860E+03  0.11532126491E+04  0.11252581170E+04 0.  0.
        3    1    3    3  502    0  0.15180340030E+03 -0.50609220696E+03  0.32432440812E+03  0.61996768157E+03  0.10100000352E+00 0.  1.
       -3    1    3    3    0  502 -0.15180340030E+03  0.50609220696E+03 -0.71948529521E+02  0.53324496753E+03  0.10100000352E+00 0. -1.
</event>
<event>
 5   0  0.5288658E-04  0.1591339E+04  0.7818609E-02  0.8825887E-01
       -1   -1    0    0    0  501  0.00000000000E+00  0.00000000000E+00  0.53716236667E+03  0.53716236669E+03  0.50400001928E-02 0. -1.
        1   -1    0    0  501    0  0.00000000000E+00  0.00000000000E+00 -0.11785819454E+04  0.11785819454E+04  0.50400001928E-02 0.  1.
    10030    2    1    2    0    0  0.00000000000E+00  0.00000000000E+00 -0.64141957874E+03  0.17157443121E+04  0.15913388918E+04 0.  0.
        1    1    3    3  502    0 -0.40313575152E+03 -0.53607756201E+03 -0.78217979199E+03  0.10303896417E+04  0.50400001928E-02 0.  1.
       -1    1    3    3    0  502  0.40313575152E+03  0.53607756201E+03  0.14076021325E+03  0.68535467045E+03  0.50400001928E-02 0. -1.
</event>
<event>
 5   0  0.1000121E-03  0.1556539E+04  0.7818609E-02  0.8847702E-01
       -2   -1    0    0    0  501  0.00000000000E+00  0.00000000000E+00  0.46304049553E+03  0.46304049554E+03  0.25500000920E-02 0. -1.
        2   -1    0    0  501    0  0.00000000000E+00  0.00000000000E+00 -0.13080997732E+04  0.13080997732E+04  0.25500000920E-02 0.  1.
    10030    2    1    2    0    0  0.00000000000E+00  0.00000000000E+00 -0.84505927771E+03  0.17711402688E+04  0.15565386821E+04 0.  0.
        4    1    3    3  502    0 -0.56216719875E+03 -0.25435465703E+03  0.11717795908E+03  0.62806093486E+03  0.12699999809E+01 0. -1.
       -4    1    3    3    0  502  0.56216719875E+03  0.25435465703E+03 -0.96223723679E+03  0.11430793339E+04  0.12699999809E+01 0.  1.
</event>
<event>
 5   0  0.1000121E-03  0.1600792E+04  0.7818609E-02  0.8820062E-01
        2   -1    0    0  501    0  0.00000000000E+00  0.00000000000E+00  0.82624260384E+03  0.82624260384E+03  0.25500000920E-02 0. -1.
       -2   -1    0    0    0  501  0.00000000000E+00  0.00000000000E+00 -0.77535787312E+03  0.77535787312E+03  0.25500000920E-02 0.  1.
    10030    2    1    2    0    0  0.00000000000E+00  0.00000000000E+00  0.50884730715E+02  0.16016004770E+04  0.16007919390E+04 0.  0.
        4    1    3    3  502    0  0.18316812689E+03 -0.34308400853E+03  0.72534905440E+03  0.82303709712E+03  0.12699999809E+01 0. -1.
       -4    1    3    3    0  502 -0.18316812689E+03  0.34308400853E+03 -0.67446432368E+03  0.77856337985E+03  0.12699999809E+01 0.  1.
</event>
<event>
 5   0  0.5425525E-04  0.1221942E+04  0.7818609E-02  0.9093865E-01
       -1   -1    0    0    0  501  0.00000000000E+00  0.00000000000E+00  0.32511375137E+03  0.32511375141E+03  0.50400001928E-02 0.  1.
        1   -1    0    0  501    0  0.00000000000E+00  0.00000000000E+00 -0.11481688752E+04  0.11481688752E+04  0.50400001928E-02 0. -1.
    10030    2    1    2    0    0  0.00000000000E+00  0.00000000000E+00 -0.82305512378E+03  0.14732826266E+04  0.12219418812E+04 0.  0.
        5    1    3    3  502    0 -0.16735149804E+03 -0.22436785891E+03 -0.10662913321E+04  0.11024276643E+04  0.46999998093E+01 0. -1.
       -5    1    3    3    0  502  0.16735149804E+03  0.22436785891E+03  0.24323620834E+03  0.37085496229E+03  0.46999998093E+01 0.  1.
</event>
<event>
 5   0  0.5623061E-04  0.1569358E+04  0.7818609E-02  0.8839597E-01
       -1   -1    0    0    0  501  0.00000000000E+00  0.00000000000E+00  0.11264425478E+04  0.11264425479E+04  0.50400001928E-02 0. -1.
        1   -1    0    0  501    0  0.00000000000E+00  0.00000000000E+00 -0.54660684040E+03  0.54660684042E+03  0.50400001928E-02 0.  1.
    10030    2    1    2    0    0  0.00000000000E+00  0.00000000000E+00  0.57983570745E+03  0.16730493883E+04  0.15693580879E+04 0.  0.
        3    1    3    3  502    0 -0.62931389030E+03 -0.29775640390E+03 -0.95974365412E+02  0.70278441759E+03  0.10100000352E+00 0.  1.
       -3    1    3    3    0  502  0.62931389030E+03  0.29775640390E+03  0.67581007286E+03  0.97026497070E+03  0.10100000352E+00 0. -1.
</event>
<event>
 5   0  0.5281116E-04  0.1590269E+04  0.7818609E-02  0.8826548E-01
        1   -1    0    0  501    0  0.00000000000E+00  0.00000000000E+00  0.90404329356E+03  0.90404329357E+03  0.50400001928E-02 0.  1.
       -1   -1    0    0    0  501  0.00000000000E+00  0.00000000000E+00 -0.69934600294E+03  0.69934600295E+03  0.50400001928E-02 0. -1.
    10030    2    1    2    0    0  0.00000000000E+00  0.00000000000E+00  0.20469729062E+03  0.16033892965E+04  0.15902692399E+04 0.  0.
        2    1    3    3  502    0 -0.28975358842E+03  0.37074170281E+03  0.74859889490E+03  0.88419842663E+03  0.25500000920E-02 0.  1.
       -2    1    3    3    0  502  0.28975358842E+03 -0.37074170281E+03 -0.54390160427E+03  0.71919086990E+03  0.25500000920E-02 0. -1.
</event>
<event>
 5   0  0.1000121E-03  0.1550618E+04  0.7818609E-02  0.8851473E-01
       -2   -1    0    0    0  501  0.00000000000E+00  0.00000000000E+00  0.31637804405E+04  0.31637804405E+04  0.25500000920E-02 0.  1.
        2   -1    0    0  501    0  0.00000000000E+00  0.00000000000E+00 -0.18999546914E+03  0.18999546916E+03  0.25500000920E-02 0. -1.
    10030    2    1    2    0    0  0.00000000000E+00  0.00000000000E+00  0.29737849713E+04  0.33537759096E+04  0.15506178757E+04 0.  0.
        4    1    3    3  502    0 -0.60708211035E+03  0.27076169791E+03  0.23499857473E+04  0.24421906582E+04  0.12699999809E+01 0.  1.
       -4    1    3    3    0  502  0.60708211035E+03 -0.27076169791E+03  0.62379922400E+03  0.91158525137E+03  0.12699999809E+01 0. -1.
</event>
<event>
 5   0  0.5623061E-04  0.1475887E+04  0.7818609E-02  0.8900648E-01
        1   -1    0    0  501    0  0.00000000000E+00  0.00000000000E+00  0.10442884706E+04  0.10442884706E+04  0.50400001928E-02 0. -1.
       -1   -1    0    0    0  501  0.00000000000E+00  0.00000000000E+00 -0.52146574838E+03  0.52146574840E+03  0.50400001928E-02 0.  1.
    10030    2    1    2    0    0  0.00000000000E+00  0.00000000000E+00  0.52282272222E+03  0.15657542190E+04  0.14758870809E+04 0.  0.
        3    1    3    3  502    0  0.83832523401E+02  0.71315076711E+03  0.80907969017E+02  0.72260502231E+03  0.10100000352E+00 0.  1.
       -3    1    3    3    0  502 -0.83832523401E+02 -0.71315076711E+03  0.44191475320E+03  0.84314919671E+03  0.10100000352E+00 0. -1.
</event>
<event>
 5   0  0.1057872E-03  0.1718917E+04  0.7818609E-02  0.8750648E-01
       -2   -1    0    0    0  501  0.00000000000E+00  0.00000000000E+00  0.57461959391E+03  0.57461959392E+03  0.25500000920E-02 0. -1.
        2   -1    0    0  501    0  0.00000000000E+00  0.00000000000E+00 -0.12854925062E+04  0.12854925062E+04  0.25500000920E-02 0.  1.
    10030    2    1    2    0    0  0.00000000000E+00  0.00000000000E+00 -0.71087291229E+03  0.18601121001E+04  0.17189173126E+04 0.  0.
        2    1    3    3  502    0  0.14966722499E+03 -0.34939095084E+03 -0.11895949571E+04  0.12488436558E+04  0.25500000920E-02 0.  1.
       -2    1    3    3    0  502 -0.14966722499E+03  0.34939095084E+03  0.47872204482E+03  0.61126844428E+03  0.25500000920E-02 0. -1.
</event>
<event>
 5   0  0.1000121E-03  0.1600997E+04  0.7818609E-02  0.8819936E-01
       -2   -1    0    0    0  501  0.00000000000E+00  0.00000000000E+00  0.94611329727E+03  0.94611329727E+03  0.25500000920E-02 0.  1.
        2   -1    0    0  501    0  0.00000000000E+00  0.00000000000E+00 -0.67729492874E+03  0.67729492874E+03  0.25500000920E-02 0. -1.
    10030    2    1    2    0    0  0.00000000000E+00  0.00000000000E+00  0.26881836853E+03  0.16234082260E+04  0.16009968623E+04 0.  0.
        4    1    3    3  502    0  0.78338711337E+03 -0.16461631350E+03  0.13289656208E+03  0.81145363958E+03  0.12699999809E+01 0. -1.
       -4    1    3    3    0  502 -0.78338711337E+03  0.16461631350E+03  0.13592180645E+03  0.81195458644E+03  0.12699999809E+01 0.  1.
</event>
<event>
 5   0  0.5425525E-04  0.1592813E+04  0.7818609E-02  0.8824975E-01
        1   -1    0    0  501    0  0.00000000000E+00  0.00000000000E+00  0.12640642015E+04  0.12640642015E+04  0.50400001928E-02 0. -1.
       -1   -1    0    0    0  501  0.00000000000E+00  0.00000000000E+00 -0.50176512916E+03  0.50176512919E+03  0.50400001928E-02 0.  1.
    10030    2    1    2    0    0  0.00000000000E+00  0.00000000000E+00  0.76229907232E+03  0.17658293307E+04  0.15928130303E+04 0.  0.
        5    1    3    3  502    0  0.14322970685E+03  0.75394534529E+03  0.14521090180E+03  0.78106121950E+03  0.46999998093E+01 0.  1.
       -5    1    3    3    0  502 -0.14322970685E+03 -0.75394534529E+03  0.61708817052E+03  0.98476811118E+03  0.46999998093E+01 0. -1.
</event>
<event>
 5   0  0.3832500E-04  0.1554519E+04  0.7818609E-02  0.8848986E-01
       -4   -1    0    0    0  501  0.00000000000E+00  0.00000000000E+00  0.12920296941E+04  0.12920303182E+04  0.12699999809E+01 0.  1.
        4   -1    0    0  501    0  0.00000000000E+00  0.00000000000E+00 -0.46758239745E+03  0.46758412217E+03  0.12699999809E+01 0. -1.
    10030    2    1    2    0    0  0.00000000000E+00  0.00000000000E+00  0.82444729662E+03  0.17596144404E+04  0.15545191006E+04 0.  0.
        1    1    3    3  502    0 -0.25755468684E+03  0.33115299721E+01  0.12423163872E+04  0.12687377147E+04  0.50400001928E-02 0.  1.
       -1    1    3    3    0  502  0.25755468684E+03 -0.33115299721E+01 -0.41786909055E+03  0.49087672568E+03  0.50400001928E-02 0. -1.
</event>
<event>
 5   0  0.1057872E-03  0.1551524E+04  0.7818609E-02  0.8850895E-01
       -2   -1    0    0    0  501  0.00000000000E+00  0.00000000000E+00  0.85133748717E+03  0.85133748718E+03  0.25500000920E-02 0. -1.
        2   -1    0    0  501    0  0.00000000000E+00  0.00000000000E+00 -0.70689591355E+03  0.70689591356E+03  0.25500000920E-02 0.  1.
    10030    2    1    2    0    0  0.00000000000E+00  0.00000000000E+00  0.14444157362E+03  0.15582334007E+04  0.15515243997E+04 0.  0.
        2    1    3    3  502    0  0.29159824348E+03  0.38894756428E+03 -0.53495711166E+03  0.72283390532E+03  0.25500000920E-02 0.  1.
       -2    1    3    3    0  502 -0.29159824348E+03 -0.38894756428E+03  0.67939868528E+03  0.83539949541E+03  0.25500000920E-02 0. -1.
</event>
<event>
 5   0  0.9844690E-04  0.1287494E+04  0.7818609E-02  0.9039542E-01
       -2   -1    0    0    0  501  0.00000000000E+00  0.00000000000E+00  0.18699807025E+03  0.18699807027E+03  0.25500000920E-02 0. -1.
        2   -1    0    0  501    0  0.00000000000E+00  0.00000000000E+00 -0.22161202995E+04  0.22161202995E+04  0.25500000920E-02 0.  1.
    10030    2    1    2    0    0  0.00000000000E+00  0.00000000000E+00 -0.20291222292E+04  0.24031183698E+04  0.12874940302E+04 0.  0.
        3    1    3    3  502    0  0.50259645815E+03 -0.25906947961E+03 -0.44020396675E+03  0.71658895997E+03  0.10100000352E+00 0. -1.
       -3    1    3    3    0  502 -0.50259645815E+03  0.25906947961E+03 -0.15889182625E+04  0.16865294098E+04  0.10100000352E+00 0.  1.
</event>
<event>
 5   0  0.1037321E-03  0.1614741E+04  0.7818609E-02  0.8811543E-01
       -2   -1    0    0    0  501  0.00000000000E+00  0.00000000000E+00  0.85164160968E+03  0.85164160969E+03  0.25500000920E-02 0.  1.
        2   -1    0    0  501    0  0.00000000000E+00  0.00000000000E+00 -0.76540027597E+03  0.76540027597E+03  0.25500000920E-02 0. -1.
    10030    2    1    2    0    0  0.00000000000E+00  0.00000000000E+00  0.86241333715E+02  0.16170418857E+04  0.16147405031E+04 0.  0.
        5    1    3    3  502    0  0.66280946160E+02  0.53040971694E+03  0.64904252044E+03  0.84083643771E+03  0.46999998093E+01 0.  1.
       -5    1    3    3    0  502 -0.66280946160E+02 -0.53040971694E+03 -0.56280118673E+03  0.77620544795E+03  0.46999998093E+01 0. -1.
</event>
<event>
 5   0  0.5281116E-04  0.1584093E+04  0.7818609E-02  0.8830381E-01
       -1   -1    0    0    0  501  0.00000000000E+00  0.00000000000E+00  0.13006381054E+04  0.13006381054E+04  0.50400001928E-02 0. -1.
        1   -1    0    0  501    0  0.00000000000E+00  0.00000000000E+00 -0.48233047769E+03  0.48233047772E+03  0.50400001928E-02 0.  1.
    10030    2    1    2    0    0  0.00000000000E+00  0.00000000000E+00  0.81830762774E+03  0.17829685832E+04  0.15840926725E+04 0.  0.
        2    1    3    3  502    0  0.54330764158E+03  0.55833347894E+03  0.24832310425E+03  0.81766975682E+03  0.25500000920E-02 0.  1.
       -2    1    3    3    0  502 -0.54330764158E+03 -0.55833347894E+03  0.56998452349E+03  0.96529882634E+03  0.25500000920E-02 0. -1.
</event>
<event>
 5   0  0.1057872E-03  0.1567744E+04  0.7818609E-02  0.8840613E-01
       -2   -1    0    0    0  501  0.00000000000E+00  0.00000000000E+00  0.35149110821E+03  0.35149110821E+03  0.25500000920E-02 0. -1.
        2   -1    0    0  501    0  0.00000000000E+00  0.00000000000E+00 -0.17481390001E+04  0.17481390002E+04  0.25500000920E-02 0.  1.
    10030    2    1    2    0    0  0.00000000000E+00  0.00000000000E+00 -0.13966478919E+04  0.20996301084E+04  0.15677440027E+04 0.  0.
        2    1    3    3  502    0 -0.39929132536E+02 -0.66825960301E+03 -0.12444599612E+04  0.14130979541E+04  0.25500000920E-02 0.  1.
       -2    1    3    3    0  502  0.39929132536E+02  0.66825960301E+03 -0.15218793071E+03  0.68653215431E+03  0.25500000920E-02 0. -1.
</event>
<event>
 5   0  0.5281116E-04  0.1612429E+04  0.7818609E-02  0.8812949E-01
        1   -1    0    0  501    0  0.00000000000E+00  0.00000000000E+00  0.11489901261E+04  0.11489901261E+04  0.50400001928E-02 0.  1.
       -1   -1    0    0    0  501  0.00000000000E+00  0.00000000000E+00 -0.56569833829E+03  0.56569833831E+03  0.50400001928E-02 0. -1.
    10030    2    1    2    0    0  0.00000000000E+00  0.00000000000E+00  0.58329178777E+03  0.17146884644E+04  0.16124289814E+04 0.  0.
        2    1    3    3  502    0  0.22129528465E+02  0.15614497639E+02  0.11485062171E+04  0.11488255130E+04  0.25500000920E-02 0.  1.
       -2    1    3    3    0  502 -0.22129528465E+02 -0.15614497639E+02 -0.56521442936E+03  0.56586295136E+03  0.25500000920E-02 0. -1.
</event>
<event>
 5   0  0.1037321E-03  0.1582031E+04  0.7818609E-02  0.8831664E-01
        2   -1    0    0  501    0  0.00000000000E+00  0.00000000000E+00  0.11515737549E+04  0.11515737549E+04  0.25500000920E-02 0.  1.
       -2   -1    0    0    0  501  0.00000000000E+00  0.00000000000E+00 -0.54334799290E+03  0.54334799291E+03  0.25500000920E-02 0. -1.
    10030    2    1    2    0    0  0.00000000000E+00  0.00000000000E+00  0.60822576201E+03  0.16949217478E+04  0.15820307057E+04 0.  0.
        5    1    3    3  502    0 -0.60956388974E+03 -0.16449656074E+03  0.81461927016E+03  0.10306570232E+04  0.46999998093E+01 0.  1.
       -5    1    3    3    0  502  0.60956388974E+03  0.16449656074E+03 -0.20639350815E+03  0.66426472462E+03  0.46999998093E+01 0. -1.
</event>
<event>
 5   0  0.5532881E-04  0.1512303E+04  0.7818609E-02  0.8876313E-01
        1   -1    0    0  501    0  0.00000000000E+00  0.00000000000E+00  0.12459030774E+04  0.12459030775E+04  0.50400001928E-02 0.  1.
       -1   -1    0    0    0  501  0.00000000000E+00  0.00000000000E+00 -0.45891599265E+03  0.45891599268E+03  0.50400001928E-02 0. -1.
    10030    2    1    2    0    0  0.00000000000E+00  0.00000000000E+00  0.78698708479E+03  0.17048190701E+04  0.15123026781E+04 0.  0.
        4    1    3    3  502    0 -0.43376450297E+02  0.27510634376E+03 -0.39898983403E+03  0.48657940500E+03  0.12699999809E+01 0. -1.
       -4    1    3    3    0  502  0.43376450297E+02 -0.27510634376E+03  0.11859769188E+04  0.12182396651E+04  0.12699999809E+01 0.  1.
</event>
<event>
 5   0  0.5281116E-04  0.1616175E+04  0.7818609E-02  0.8810672E-01
        1   -1    0    0  501    0  0.00000000000E+00  0.00000000000E+00  0.14467985495E+04  0.14467985495E+04  0.50400001928E-02 0.  1.
       -1   -1    0    0    0  501  0.00000000000E+00  0.00000000000E+00 -0.45134487152E+03  0.45134487155E+03  0.50400001928E-02 0. -1.
    10030    2    1    2    0    0  0.00000000000E+00  0.00000000000E+00  0.99545367800E+03  0.18981434211E+04  0.16161746261E+04 0.  0.
        2    1    3    3  502    0  0.52947175052E+03  0.33793276976E+03 -0.99367055839E+02  0.63593451177E+03  0.25500000920E-02 0. -1.
       -2    1    3    3    0  502 -0.52947175052E+03 -0.33793276976E+03  0.10948207338E+04  0.12622089093E+04  0.25500000920E-02 0.  1.
</event>
<event>
 5   0  0.5288658E-04  0.1037186E+04  0.7818609E-02  0.9268675E-01
        1   -1    0    0  501    0  0.00000000000E+00  0.00000000000E+00  0.51432672040E+03  0.51432672042E+03  0.50400001928E-02 0. -1.
       -1   -1    0    0    0  501  0.00000000000E+00  0.00000000000E+00 -0.52289470918E+03  0.52289470921E+03  0.50400001928E-02 0.  1.
    10030    2    1    2    0    0  0.00000000000E+00  0.00000000000E+00 -0.85679887856E+01  0.10372214296E+04  0.10371860410E+04 0.  0.
        1    1    3    3  502    0 -0.45138996570E+03  0.25360608533E+03 -0.33776918853E+02  0.51885434172E+03  0.50400001928E-02 0. -1.
       -1    1    3    3    0  502  0.45138996570E+03 -0.25360608533E+03  0.25208930068E+02  0.51836708791E+03  0.50400001928E-02 0.  1.
</event>
<event>
 5   0  0.1037321E-03  0.1641440E+04  0.7818609E-02  0.8795487E-01
       -2   -1    0    0    0  501  0.00000000000E+00  0.00000000000E+00  0.42423315272E+03  0.42423315273E+03  0.25500000920E-02 0. -1.
        2   -1    0    0  501    0  0.00000000000E+00  0.00000000000E+00 -0.15877611330E+04  0.15877611330E+04  0.25500000920E-02 0.  1.
    10030    2    1    2    0    0  0.00000000000E+00  0.00000000000E+00 -0.11635279803E+04  0.20119942857E+04  0.16414395039E+04 0.  0.
        5    1    3    3  502    0  0.30479633973E+03 -0.38894150976E+02 -0.15145791895E+04  0.15454403175E+04  0.46999998093E+01 0.  1.
       -5    1    3    3    0  502 -0.30479633973E+03  0.38894150976E+02  0.35105120927E+03  0.46655396818E+03  0.46999998093E+01 0. -1.
</event>
<event>
 5   0  0.5425525E-04  0.1567761E+04  0.7818609E-02  0.8840602E-01
        1   -1    0    0  501    0  0.00000000000E+00  0.00000000000E+00  0.11149776253E+04  0.11149776253E+04  0.50400001928E-02 0. -1.
       -1   -1    0    0    0  501  0.00000000000E+00  0.00000000000E+00 -0.55110404149E+03  0.55110404151E+03  0.50400001928E-02 0.  1.
    10030    2    1    2    0    0  0.00000000000E+00  0.00000000000E+00  0.56387358384E+03  0.16660816669E+04  0.15677610475E+04 0.  0.
        5    1    3    3  502    0 -0.28600276281E+01  0.58452544354E+03  0.83696295185E+03  0.10208855208E+04  0.46999998093E+01 0. -1.
       -5    1    3    3    0  502  0.28600276281E+01 -0.58452544354E+03 -0.27308936801E+03  0.64519614601E+03  0.46999998093E+01 0.  1.
</event>
<event>
 5   0  0.5623061E-04  0.1665745E+04  0.7818609E-02  0.8781146E-01
       -1   -1    0    0    0  501  0.00000000000E+00  0.00000000000E+00  0.33292939503E+03  0.33292939507E+03  0.50400001928E-02 0. -1.
        1   -1    0    0  501    0  0.00000000000E+00  0.00000000000E+00 -0.20835549891E+04  0.20835549891E+04  0.50400001928E-02 0.  1.
    10030    2    1    2    0    0  0.00000000000E+00  0.00000000000E+00 -0.17506255941E+04  0.24164843842E+04  0.16657451211E+04 0.  0.
        3    1    3    3  502    0  0.66146765507E+03  0.38787671179E+03 -0.13469305130E+04  0.15499063260E+04  0.10100000352E+00 0.  1.
       -3    1    3    3    0  502 -0.66146765507E+03 -0.38787671179E+03 -0.40369508106E+03  0.86657805819E+03  0.10100000352E+00 0. -1.
</event>
<event>
 5   0  0.1030027E-03  0.1671509E+04  0.7818609E-02  0.8777783E-01
        2   -1    0    0  501    0  0.00000000000E+00  0.00000000000E+00  0.15869497342E+04  0.15869497342E+04  0.25500000920E-02 0. -1.
       -2   -1    0    0    0  501  0.00000000000E+00  0.00000000000E+00 -0.44014343724E+03  0.44014343725E+03  0.25500000920E-02 0.  1.
    10030    2    1    2    0    0  0.00000000000E+00  0.00000000000E+00  0.11468062970E+04  0.20270931715E+04  0.16715089120E+04 0.  0.
        1    1    3    3  502    0  0.61789168752E+03 -0.30749521679E+03  0.11449876132E+04  0.13369143878E+04  0.50400001928E-02 0. -1.
       -1    1    3    3    0  502 -0.61789168752E+03  0.30749521679E+03  0.18186838059E+01  0.69017878371E+03  0.50400001928E-02 0.  1.
</event>
<event>
 5   0  0.5288658E-04  0.1668547E+04  0.7818609E-02  0.8779509E-01
        1   -1    0    0  501    0  0.00000000000E+00  0.00000000000E+00  0.10926111432E+04  0.10926111432E+04  0.50400001928E-02 0.  1.
       -1   -1    0    0    0  501  0.00000000000E+00  0.00000000000E+00 -0.63701716925E+03  0.63701716927E+03  0.50400001928E-02 0. -1.
    10030    2    1    2    0    0  0.00000000000E+00  0.00000000000E+00  0.45559397393E+03  0.17296283125E+04  0.16685467420E+04 0.  0.
        1    1    3    3  502    0 -0.47193128656E+03  0.14586292287E+02  0.94078425582E+03  0.10526190741E+04  0.50400001928E-02 0.  1.
       -1    1    3    3    0  502  0.47193128656E+03 -0.14586292287E+02 -0.48519028189E+03  0.67700923836E+03  0.50400001928E-02 0. -1.
</event>
<event>
 5   0  0.9844690E-04  0.1610297E+04  0.7818609E-02  0.8814247E-01
        2   -1    0    0  501    0  0.00000000000E+00  0.00000000000E+00  0.41984618150E+03  0.41984618151E+03  0.25500000920E-02 0. -1.
       -2   -1    0    0    0  501  0.00000000000E+00  0.00000000000E+00 -0.15440506729E+04  0.15440506729E+04  0.25500000920E-02 0.  1.
    10030    2    1    2    0    0  0.00000000000E+00  0.00000000000E+00 -0.11242044913E+04  0.19638968544E+04  0.16102965926E+04 0.  0.
        3    1    3    3  502    0 -0.78434176605E+03  0.81505393969E+02 -0.76036911812E+03  0.10954434450E+04  0.10100000352E+00 0. -1.
       -3    1    3    3    0  502  0.78434176605E+03 -0.81505393969E+02 -0.36383537323E+03  0.86845340936E+03  0.10100000352E+00 0.  1.
</event>
<event>
 5   0  0.5288658E-04  0.1603917E+04  0.7818609E-02  0.8818145E-01
        1   -1    0    0  501    0  0.00000000000E+00  0.00000000000E+00  0.33004879536E+03  0.33004879540E+03  0.50400001928E-02 0. -1.
       -1   -1    0    0    0  501  0.00000000000E+00  0.00000000000E+00 -0.19486133070E+04  0.19486133070E+04  0.50400001928E-02 0.  1.
    10030    2    1    2    0    0  0.00000000000E+00  0.00000000000E+00 -0.16185645116E+04  0.22786621024E+04  0.16039170485E+04 0.  0.
        1    1    3    3  502    0 -0.14372732626E+03  0.10690335715E+02  0.31149893033E+03  0.34322501543E+03  0.50400001928E-02 0. -1.
       -1    1    3    3    0  502  0.14372732626E+03 -0.10690335715E+02 -0.19300634419E+04  0.19354370869E+04  0.50400001928E-02 0.  1.
</event>
<event>
 5   0  0.5532881E-04  0.1594446E+04  0.7818609E-02  0.8823967E-01
       -1   -1    0    0    0  501  0.00000000000E+00  0.00000000000E+00  0.33411895988E+03  0.33411895992E+03  0.50400001928E-02 0. -1.
        1   -1    0    0  501    0  0.00000000000E+00  0.00000000000E+00 -0.19022105980E+04  0.19022105981E+04  0.50400001928E-02 0.  1.
    10030    2    1    2    0    0  0.00000000000E+00  0.00000000000E+00 -0.15680916382E+04  0.22363295580E+04  0.15944461440E+04 0.  0.
        4    1    3    3  502    0  0.73604217902E+03 -0.29894233285E+03 -0.69060439227E+03  0.10526445968E+04  0.12699999809E+01 0. -1.
       -4    1    3    3    0  502 -0.73604217902E+03  0.29894233285E+03 -0.87748724590E+03  0.11836849612E+04  0.12699999809E+01 0.  1.
</event>
<event>
 5   0  0.1030027E-03  0.1612048E+04  0.7818609E-02  0.8813181E-01
       -2   -1    0    0    0  501  0.00000000000E+00  0.00000000000E+00  0.57939043404E+03  0.57939043404E+03  0.25500000920E-02 0.  1.
        2   -1    0    0  501    0  0.00000000000E+00  0.00000000000E+00 -0.11213069854E+04  0.11213069854E+04  0.25500000920E-02 0. -1.
    10030    2    1    2    0    0  0.00000000000E+00  0.00000000000E+00 -0.54191655134E+03  0.17006974194E+04  0.16120478168E+04 0.  0.
        1    1    3    3  502    0  0.51333499810E+03 -0.21969075941E+03 -0.88421418944E+03  0.10457588550E+04  0.50400001928E-02 0. -1.
       -1    1    3    3    0  502 -0.51333499810E+03  0.21969075941E+03  0.34229763810E+03  0.65493856439E+03  0.50400001928E-02 0.  1.
</event>
<event>
 5   0  0.5288658E-04  0.1575305E+04  0.7818609E-02  0.8835864E-01
        1   -1    0    0  501    0  0.00000000000E+00  0.00000000000E+00  0.88020185339E+03  0.88020185341E+03  0.50400001928E-02 0.  1.
       -1   -1    0    0    0  501  0.00000000000E+00  0.00000000000E+00 -0.70483466995E+03  0.70483466997E+03  0.50400001928E-02 0. -1.
    10030    2    1    2    0    0  0.00000000000E+00  0.00000000000E+00  0.17536718344E+03  0.15850365234E+04  0.15753054089E+04 0.  0.
        1    1    3    3  502    0 -0.68763337290E+03 -0.21808370337E+03  0.40585941921E+03  0.82772098281E+03  0.50400001928E-02 0.  1.
       -1    1    3    3    0  502  0.68763337290E+03  0.21808370337E+03 -0.23049223576E+03  0.75731554056E+03  0.50400001928E-02 0. -1.
</event>
<event>
 5   0  0.5288658E-04  0.1598024E+04  0.7818609E-02  0.8821763E-01
       -1   -1    0    0    0  501  0.00000000000E+00  0.00000000000E+00  0.75661981691E+03  0.75661981693E+03  0.50400001928E-02 0.  1.
        1   -1    0    0  501    0  0.00000000000E+00  0.00000000000E+00 -0.84377909452E+03  0.84377909453E+03  0.50400001928E-02 0. -1.
    10030    2    1    2    0    0  0.00000000000E+00  0.00000000000E+00 -0.87159277604E+02  0.16003989115E+04  0.15980237596E+04 0.  0.
        1    1    3    3  502    0 -0.58292694407E+03 -0.35109358124E+03 -0.46294951407E+03  0.82303874606E+03  0.50400001928E-02 0. -1.
       -1    1    3    3    0  502  0.58292694407E+03  0.35109358124E+03  0.37579023647E+03  0.77736016540E+03  0.50400001928E-02 0.  1.
</event>
<event>
 5   0  0.9844690E-04  0.1535837E+04  0.7818609E-02  0.8860965E-01
        2   -1    0    0  501    0  0.00000000000E+00  0.00000000000E+00  0.73824739965E+03  0.73824739966E+03  0.25500000920E-02 0. -1.
       -2   -1    0    0    0  501  0.00000000000E+00  0.00000000000E+00 -0.79878226933E+03  0.79878226934E+03  0.25500000920E-02 0.  1.
    10030    2    1    2    0    0  0.00000000000E+00  0.00000000000E+00 -0.60534869680E+02  0.15370296690E+04  0.15358371440E+04 0.  0.
        3    1    3    3  502    0 -0.51208950150E+01  0.32712982090E+03 -0.72554335618E+03  0.79589780448E+03  0.10100000352E+00 0.  1.
       -3    1    3    3    0  502  0.51208950150E+01 -0.32712982090E+03  0.66500848650E+03  0.74113186451E+03  0.10100000352E+00 0. -1.
</event>
<event>
 5   0  0.1037321E-03  0.1623224E+04  0.7818609E-02  0.8806406E-01
       -2   -1    0    0    0  501  0.00000000000E+00  0.00000000000E+00  0.40304557857E+03  0.40304557858E+03  0.25500000920E-02 0. -1.
        2   -1    0    0  501    0  0.00000000000E+00  0.00000000000E+00 -0.16343422850E+04  0.16343422850E+04  0.25500000920E-02 0.  1.
    10030    2    1    2    0    0  0.00000000000E+00  0.00000000000E+00 -0.12312967064E+04  0.20373878635E+04  0.16232244846E+04 0.  0.
        5    1    3    3  502    0  0.73586216330E+03 -0.97394826056E+02 -0.10275847168E+04  0.12676479463E+04  0.46999998093E+01 0. -1.
       -5    1    3    3    0  502 -0.73586216330E+03  0.97394826056E+02 -0.20371198959E+03  0.76973991726E+03  0.46999998093E+01 0.  1.
</event>
<event>
 5   0  0.1057872E-03  0.1600119E+04  0.7818609E-02  0.8820475E-01
        2   -1    0    0  501    0  0.00000000000E+00  0.00000000000E+00  0.25225189752E+04  0.25225189752E+04  0.25500000920E-02 0. -1.
       -2   -1    0    0    0  501  0.00000000000E+00  0.00000000000E+00 -0.25375248197E+03  0.25375248198E+03  0.25500000920E-02 0.  1.
    10030    2    1    2    0    0  0.00000000000E+00  0.00000000000E+00  0.22687664932E+04  0.27762714571E+04  0.16001193090E+04 0.  0.
        2    1    3    3  502    0 -0.75031580426E+03  0.25520281915E+03  0.94437323690E+03  0.12328597226E+04  0.25500000920E-02 0.  1.
       -2    1    3    3    0  502  0.75031580426E+03 -0.25520281915E+03  0.13243932563E+04  0.15434117345E+04  0.25500000920E-02 0. -1.
</event>
<event>
 5   0  0.1057872E-03  0.1573839E+04  0.7818609E-02  0.8836783E-01
        2   -1    0    0  501    0  0.00000000000E+00  0.00000000000E+00  0.19451947363E+04  0.19451947363E+04  0.25500000920E-02 0.  1.
       -2   -1    0    0    0  501  0.00000000000E+00  0.00000000000E+00 -0.31834454262E+03  0.31834454263E+03  0.25500000920E-02 0. -1.
    10030    2    1    2    0    0  0.00000000000E+00  0.00000000000E+00  0.16268501937E+04  0.22635392789E+04  0.15738387829E+04 0.  0.
        2    1    3    3  502    0 -0.68679419032E+03 -0.37666451769E+03  0.70503468448E+03  0.10538673185E+04  0.25500000920E-02 0. -1.
       -2    1    3    3    0  502  0.68679419032E+03  0.37666451769E+03  0.92181550919E+03  0.12096719604E+04  0.25500000920E-02 0.  1.
</event>
<event>
 5   0  0.9844690E-04  0.1593247E+04  0.7818609E-02  0.8824707E-01
        2   -1    0    0  501    0  0.00000000000E+00  0.00000000000E+00  0.17438564725E+04  0.17438564725E+04  0.25500000920E-02 0. -1.
       -2   -1    0    0    0  501  0.00000000000E+00  0.00000000000E+00 -0.36391119535E+03  0.36391119536E+03  0.25500000920E-02 0.  1.
    10030    2    1    2    0    0  0.00000000000E+00  0.00000000000E+00  0.13799452771E+04  0.21077676678E+04  0.15932468653E+04 0.  0.
        3    1    3    3  502    0  0.47014250662E+03 -0.17544985830E+03  0.15084774490E+04  0.15897549665E+04  0.10100000352E+00 0. -1.
       -3    1    3    3    0  502 -0.47014250662E+03  0.17544985830E+03 -0.12853217187E+03  0.51801270130E+03  0.10100000352E+00 0.  1.
</event>
<event>
 5   0  0.5281116E-04  0.1604515E+04  0.7818609E-02  0.8817779E-01
        1   -1    0    0  501    0  0.00000000000E+00  0.00000000000E+00  0.13099069512E+04  0.13099069512E+04  0.50400001928E-02 0. -1.
       -1   -1    0    0    0  501  0.00000000000E+00  0.00000000000E+00 -0.49134545760E+03  0.49134545763E+03  0.50400001928E-02 0.  1.
    10030    2    1    2    0    0  0.00000000000E+00  0.00000000000E+00  0.81856149364E+03  0.18012524089E+04  0.16045146686E+04 0.  0.
        2    1    3    3  502    0 -0.63539321595E+03 -0.34184923625E+03  0.15514169907E+02  0.72168284494E+03  0.25500000920E-02 0.  1.
       -2    1    3    3    0  502  0.63539321595E+03  0.34184923625E+03  0.80304732373E+03  0.10795695639E+04  0.25500000920E-02 0. -1.
</event>
<event>
 5   0  0.1030027E-03  0.1603640E+04  0.7818609E-02  0.8818315E-01
       -2   -1    0    0    0  501  0.00000000000E+00  0.00000000000E+00  0.29306203977E+03  0.29306203978E+03  0.25500000920E-02 0.  1.
        2   -1    0    0  501    0  0.00000000000E+00  0.00000000000E+00 -0.21937866070E+04  0.21937866070E+04  0.25500000920E-02 0. -1.
    10030    2    1    2    0    0  0.00000000000E+00  0.00000000000E+00 -0.19007245672E+04  0.24868486467E+04  0.16036403311E+04 0.  0.
        1    1    3    3  502    0  0.19724929938E+02  0.76526422014E+03 -0.13202651945E+04  0.15261450073E+04  0.50400001928E-02 0. -1.
       -1    1    3    3    0  502 -0.19724929938E+02 -0.76526422014E+03 -0.58045937272E+03  0.96070363947E+03  0.50400001928E-02 0.  1.
</event>
<event>
 5   0  0.5288658E-04  0.1533462E+04  0.7818609E-02  0.8862501E-01
       -1   -1    0    0    0  501  0.00000000000E+00  0.00000000000E+00  0.33762258549E+03  0.33762258553E+03  0.50400001928E-02 0. -1.
        1   -1    0    0  501    0  0.00000000000E+00  0.00000000000E+00 -0.17412242627E+04  0.17412242627E+04  0.50400001928E-02 0.  1.
    10030    2    1    2    0    0  0.00000000000E+00  0.00000000000E+00 -0.14036016772E+04  0.20788468483E+04  0.15334622755E+04 0.  0.
        1    1    3    3  502    0  0.99196502907E+01  0.68805839784E+03 -0.11602327592E+04  0.13489487810E+04  0.50400001928E-02 0.  1.
       -1    1    3    3    0  502 -0.99196502907E+01 -0.68805839784E+03 -0.24336891807E+03  0.72989806727E+03  0.50400001928E-02 0. -1.
</event>
<event>
 5   0  0.5623061E-04  0.1571879E+04  0.7818609E-02  0.8838012E-01
       -1   -1    0    0    0  501  0.00000000000E+00  0.00000000000E+00  0.77888914708E+03  0.77888914710E+03  0.50400001928E-02 0.  1.
        1   -1    0    0  501    0  0.00000000000E+00  0.00000000000E+00 -0.79305384668E+03  0.79305384670E+03  0.50400001928E-02 0. -1.
    10030    2    1    2    0    0  0.00000000000E+00  0.00000000000E+00 -0.14164699599E+02  0.15719429938E+04  0.15718791738E+04 0.  0.
        3    1    3    3  502    0  0.24217328195E+03 -0.71750954471E+03 -0.21740774227E+03  0.78786672848E+03  0.10100000352E+00 0.  1.
       -3    1    3    3    0  502 -0.24217328195E+03  0.71750954471E+03  0.20324304267E+03  0.78407626532E+03  0.10100000352E+00 0. -1.
</event>
<event>
 5   0  0.5532881E-04  0.1569909E+04  0.7818609E-02  0.8839250E-01
       -1   -1    0    0    0  501  0.00000000000E+00  0.00000000000E+00  0.11371624807E+04  0.11371624807E+04  0.50400001928E-02 0. -1.
        1   -1    0    0  501    0  0.00000000000E+00  0.00000000000E+00 -0.54183449064E+03  0.54183449066E+03  0.50400001928E-02 0.  1.
    10030    2    1    2    0    0  0.00000000000E+00  0.00000000000E+00  0.59532799007E+03  0.16789969714E+04  0.15699093649E+04 0.  0.
        4    1    3    3  502    0  0.14600228098E+03  0.26887088395E+03 -0.47543796545E+03  0.56537694521E+03  0.12699999809E+01 0.  1.
       -4    1    3    3    0  502 -0.14600228098E+03 -0.26887088395E+03  0.10707659555E+04  0.11136200262E+04  0.12699999809E+01 0. -1.
</event>
<event>
 5   0  0.1000121E-03  0.1588340E+04  0.7818609E-02  0.8827743E-01
        2   -1    0    0  501    0  0.00000000000E+00  0.00000000000E+00  0.94067629025E+03  0.94067629026E+03  0.25500000920E-02 0. -1.
       -2   -1    0    0    0  501  0.00000000000E+00  0.00000000000E+00 -0.67048148150E+03  0.67048148151E+03  0.25500000920E-02 0.  1.
    10030    2    1    2    0    0  0.00000000000E+00  0.00000000000E+00  0.27019480875E+03  0.16111577718E+04  0.15883400552E+04 0.  0.
        4    1    3    3  502    0 -0.21390066463E+03  0.17975188824E+03 -0.61897980058E+03  0.67911843008E+03  0.12699999809E+01 0.  1.
       -4    1    3    3    0  502  0.21390066463E+03 -0.17975188824E+03  0.88917460933E+03  0.93203934168E+03  0.12699999809E+01 0. -1.
</event>
<event>
 5   0  0.5623061E-04  0.1605060E+04  0.7818609E-02  0.8817445E-01
        1   -1    0    0  501    0  0.00000000000E+00  0.00000000000E+00  0.13619039747E+04  0.13619039747E+04  0.50400001928E-02 0. -1.
       -1   -1    0    0    0  501  0.00000000000E+00  0.00000000000E+00 -0.47290756799E+03  0.47290756802E+03  0.50400001928E-02 0.  1.
    10030    2    1    2    0    0  0.00000000000E+00  0.00000000000E+00  0.88899640669E+03  0.18348115427E+04  0.16050603684E+04 0.  0.
        3    1    3    3  502    0 -0.33942761436E+03 -0.32454057151E+03  0.11884341004E+04  0.12778549640E+04  0.10100000352E+00 0. -1.
       -3    1    3    3    0  502  0.33942761436E+03  0.32454057151E+03 -0.29943769369E+03  0.55695657869E+03  0.10100000352E+00 0.  1.
</event>
<event>
 5   0  0.1037321E-03  0.1592081E+04  0.7818609E-02  0.8825428E-01
       -2   -1    0    0    0  501  0.00000000000E+00  0.00000000000E+00  0.34236887937E+03  0.34236887938E+03  0.25500000920E-02 0. -1.
        2   -1    0    0  501    0  0.00000000000E+00  0.00000000000E+00 -0.18508713178E+04  0.18508713178E+04  0.25500000920E-02 0.  1.
    10030    2    1    2    0    0  0.00000000000E+00  0.00000000000E+00 -0.15085024384E+04  0.21932401972E+04  0.15920813283E+04 0.  0.
        5    1    3    3  502    0  0.57640056295E+03  0.40073887118E+03 -0.23727852134E+03  0.74104820257E+03  0.46999998093E+01 0. -1.
       -5    1    3    3    0  502 -0.57640056295E+03 -0.40073887118E+03 -0.12712239171E+04  0.14521919946E+04  0.46999998093E+01 0.  1.
</event>
<event>
 5   0  0.5623061E-04  0.1636371E+04  0.7818609E-02  0.8798510E-01
        1   -1    0    0  501    0  0.00000000000E+00  0.00000000000E+00  0.78358117708E+03  0.78358117709E+03  0.50400001928E-02 0. -1.
       -1   -1    0    0    0  501  0.00000000000E+00  0.00000000000E+00 -0.85431794318E+03  0.85431794319E+03  0.50400001928E-02 0.  1.
    10030    2    1    2    0    0  0.00000000000E+00  0.00000000000E+00 -0.70736766101E+02  0.16378991203E+04  0.16363709354E+04 0.  0.
        3    1    3    3  502    0 -0.62364238304E+03  0.34606523190E+03  0.36592557674E+03  0.80161867778E+03  0.10100000352E+00 0. -1.
       -3    1    3    3    0  502  0.62364238304E+03 -0.34606523190E+03 -0.43666234284E+03  0.83628044250E+03  0.10100000352E+00 0.  1.
</event>
<event>
 5   0  0.1030027E-03  0.1687615E+04  0.7818609E-02  0.8768459E-01
       -2   -1    0    0    0  501  0.00000000000E+00  0.00000000000E+00  0.67242670793E+03  0.67242670793E+03  0.25500000920E-02 0. -1.
        2   -1    0    0  501    0  0.00000000000E+00  0.00000000000E+00 -0.10588683132E+04  0.10588683132E+04  0.25500000920E-02 0.  1.
    10030    2    1    2    0    0  0.00000000000E+00  0.00000000000E+00 -0.38644160529E+03  0.17312950212E+04  0.16876152808E+04 0.  0.
        1    1    3    3  502    0  0.52778804760E+03 -0.58304227175E+03 -0.50693430278E+03  0.93567136389E+03  0.50400001928E-02 0.  1.
       -1    1    3    3    0  502 -0.52778804760E+03  0.58304227175E+03  0.12049269749E+03  0.79562365727E+03  0.50400001928E-02 0. -1.
</event>
<event>
 5   0  0.5623061E-04  0.1621202E+04  0.7818609E-02  0.8807628E-01
        1   -1    0    0  501    0  0.00000000000E+00  0.00000000000E+00  0.20235198086E+04  0.20235198086E+04  0.50400001928E-02 0.  1.
       -1   -1    0    0    0  501  0.00000000000E+00  0.00000000000E+00 -0.32471813721E+03  0.32471813725E+03  0.50400001928E-02 0. -1.
    10030    2    1    2    0    0  0.00000000000E+00  0.00000000000E+00  0.16988016714E+04  0.23482379459E+04  0.16212015087E+04 0.  0.
        3    1    3    3  502    0  0.13726865575E+03  0.10504054347E+03 -0.29771484854E+03  0.34425330916E+03  0.10100000352E+00 0. -1.
       -3    1    3    3    0  502 -0.13726865575E+03 -0.10504054347E+03  0.19965165200E+04  0.20039846367E+04  0.10100000352E+00 0.  1.
</event>
<event>
 5   0  0.1037321E-03  0.1598167E+04  0.7818609E-02  0.8821675E-01
        2   -1    0    0  501    0  0.00000000000E+00  0.00000000000E+00  0.49779950279E+03  0.49779950280E+03  0.25500000920E-02 0.  1.
       -2   -1    0    0    0  501  0.00000000000E+00  0.00000000000E+00 -0.12827146074E+04  0.12827146074E+04  0.25500000920E-02 0. -1.
    10030    2    1    2    0    0  0.00000000000E+00  0.00000000000E+00 -0.78491510459E+03  0.17805141102E+04  0.15981673176E+04 0.  0.
        5    1    3    3  502    0 -0.29908763538E+03 -0.30870075011E+03 -0.11429351496E+04  0.12210947600E+04  0.46999998093E+01 0. -1.
       -5    1    3    3    0  502  0.29908763538E+03  0.30870075011E+03  0.35802004498E+03  0.55941935019E+03  0.46999998093E+01 0.  1.
</event>
<event>
 5   0  0.9844690E-04  0.1523606E+04  0.7818609E-02  0.8868905E-01
       -2   -1    0    0    0  501  0.00000000000E+00  0.00000000000E+00  0.22086088033E+03  0.22086088034E+03  0.25500000920E-02 0. -1.
        2   -1    0    0  501    0  0.00000000000E+00  0.00000000000E+00 -0.26276444076E+04  0.26276444076E+04  0.25500000920E-02 0.  1.
    10030    2    1    2    0    0  0.00000000000E+00  0.00000000000E+00 -0.24067835272E+04  0.28485052879E+04  0.15236060607E+04 0.  0.
        3    1    3    3  502    0  0.70930474156E+03  0.17767126216E+03 -0.16029031751E+04  0.17618112534E+04  0.10100000352E+00 0.  1.
       -3    1    3    3    0  502 -0.70930474156E+03 -0.17767126216E+03 -0.80388035213E+03  0.10866940345E+04  0.10100000352E+00 0. -1.
</event>
<event>
 5   0  0.9844690E-04  0.1601960E+04  0.7818609E-02  0.8819345E-01
       -2   -1    0    0    0  501  0.00000000000E+00  0.00000000000E+00  0.53481616324E+03  0.53481616324E+03  0.25500000920E-02 0. -1.
        2   -1    0    0  501    0  0.00000000000E+00  0.00000000000E+00 -0.11996066611E+04  0.11996066611E+04  0.25500000920E-02 0.  1.
    10030    2    1    2    0    0  0.00000000000E+00  0.00000000000E+00 -0.66479049790E+03  0.17344228244E+04  0.16019600893E+04 0.  0.
        3    1    3    3  502    0  0.21928669218E+03 -0.76308635949E+03 -0.44688188743E+03  0.91109323174E+03  0.10100000352E+00 0.  1.
       -3    1    3    3    0  502 -0.21928669218E+03  0.76308635949E+03 -0.21790861047E+03  0.82332959264E+03  0.10100000352E+00 0. -1.
</event>
<event>
 5   0  0.5532881E-04  0.1598454E+04  0.7818609E-02  0.8821498E-01
       -1   -1    0    0    0  501  0.00000000000E+00  0.00000000000E+00  0.54027701115E+03  0.54027701117E+03  0.50400001928E-02 0.  1.
        1   -1    0    0  501    0  0.00000000000E+00  0.00000000000E+00 -0.11822890798E+04  0.11822890798E+04  0.50400001928E-02 0. -1.
    10030    2    1    2    0    0  0.00000000000E+00  0.00000000000E+00 -0.64201206864E+03  0.17225660910E+04  0.15984537658E+04 0.  0.
        4    1    3    3  502    0  0.79471636023E+03  0.84632779457E+02 -0.31559663205E+03  0.85926692456E+03  0.12699999809E+01 0. -1.
       -4    1    3    3    0  502 -0.79471636023E+03 -0.84632779457E+02 -0.32641543659E+03  0.86329916641E+03  0.12699999809E+01 0.  1.
</event>
<event>
 5   0  0.5532881E-04  0.1575432E+04  0.7818609E-02  0.8835785E-01
        1   -1    0    0  501    0  0.00000000000E+00  0.00000000000E+00  0.12670657249E+04  0.12670657249E+04  0.50400001928E-02 0.  1.
       -1   -1    0    0    0  501  0.00000000000E+00  0.00000000000E+00 -0.48971164675E+03  0.48971164677E+03  0.50400001928E-02 0. -1.
    10030    2    1    2    0    0  0.00000000000E+00  0.00000000000E+00  0.77735407812E+03  0.17567773716E+04  0.15754324393E+04 0.  0.
        4    1    3    3  502    0 -0.18572699488E+02 -0.40664596602E+03 -0.36333031007E+03  0.54563395602E+03  0.12699999809E+01 0. -1.
       -4    1    3    3    0  502  0.18572699488E+02  0.40664596602E+03  0.11406843882E+04  0.12111434156E+04  0.12699999809E+01 0.  1.
</event>
<event>
 5   0  0.5288658E-04  0.1608252E+04  0.7818609E-02  0.8815494E-01
       -1   -1    0    0    0  501  0.00000000000E+00  0.00000000000E+00  0.66461001853E+03  0.66461001855E+03  0.50400001928E-02 0.  1.
        1   -1    0    0  501    0  0.00000000000E+00  0.00000000000E+00 -0.97292973536E+03  0.97292973537E+03  0.50400001928E-02 0. -1.
    10030    2    1    2    0    0  0.00000000000E+00  0.00000000000E+00 -0.30831971683E+03  0.16375397539E+04  0.16082522805E+04 0.  0.
        1    1    3    3  502    0 -0.27585971773E+03  0.54513025347E+02 -0.92123728531E+03  0.96319696307E+03  0.50400001928E-02 0. -1.
       -1    1    3    3    0  502  0.27585971773E+03 -0.54513025347E+02  0.61291756848E+03  0.67434279085E+03  0.50400001928E-02 0.  1.
</event>
<event>
 5   0  0.5425525E-04  0.1597112E+04  0.7818609E-02  0.8822324E-01
       -1   -1    0    0    0  501  0.00000000000E+00  0.00000000000E+00  0.94554612132E+03  0.94554612133E+03  0.50400001928E-02 0.  1.
        1   -1    0    0  501    0  0.00000000000E+00  0.00000000000E+00 -0.67441596729E+03  0.67441596731E+03  0.50400001928E-02 0. -1.
    10030    2    1    2    0    0  0.00000000000E+00  0.00000000000E+00  0.27113015402E+03  0.16199620886E+04  0.15971116455E+04 0.  0.
        5    1    3    3  502    0 -0.34205232220E+03  0.40251114423E+03 -0.47188080954E+03  0.70831391400E+03  0.46999998093E+01 0. -1.
       -5    1    3    3    0  502  0.34205232220E+03 -0.40251114423E+03  0.74301096356E+03  0.91164817464E+03  0.46999998093E+01 0.  1.
</event>
<event>
 5   0  0.5623061E-04  0.1617343E+04  0.7818609E-02  0.8809964E-01
        1   -1    0    0  501    0  0.00000000000E+00  0.00000000000E+00  0.12331090851E+04  0.12331090851E+04  0.50400001928E-02 0.  1.
       -1   -1    0    0    0  501  0.00000000000E+00  0.00000000000E+00 -0.53032610960E+03  0.53032610963E+03  0.50400001928E-02 0. -1.
    10030    2    1    2    0    0  0.00000000000E+00  0.00000000000E+00  0.70278297547E+03  0.17634351947E+04  0.16173434315E+04 0.  0.
        3    1    3    3  502    0  0.30417165535E+03  0.41145970255E+03 -0.33137553932E+03  0.60961400984E+03  0.10100000352E+00 0. -1.
       -3    1    3    3    0  502 -0.30417165535E+03 -0.41145970255E+03  0.10341585148E+04  0.11538211849E+04  0.10100000352E+00 0.  1.
</event>
<event>
 5   0  0.5281116E-04  0.1562268E+04  0.7818609E-02  0.8844070E-01
        1   -1    0    0  501    0  0.00000000000E+00  0.00000000000E+00  0.12339108130E+04  0.12339108130E+04  0.50400001928E-02 0.  1.
       -1   -1    0    0    0  501  0.00000000000E+00  0.00000000000E+00 -0.49450103513E+03  0.49450103516E+03  0.50400001928E-02 0. -1.
    10030    2    1    2    0    0  0.00000000000E+00  0.00000000000E+00  0.73940977790E+03  0.17284118482E+04  0.15622678059E+04 0.  0.
        2    1    3    3  502    0 -0.56835168802E+03 -0.13561109282E+03  0.94325447255E+03  0.11095688396E+04  0.25500000920E-02 0.  1.
       -2    1    3    3    0  502  0.56835168802E+03  0.13561109282E+03 -0.20384469465E+03  0.61884300862E+03  0.25500000920E-02 0. -1.
</event>
<event>
 5   0  0.5281116E-04  0.1608959E+04  0.7818609E-02  0.8815063E-01
        1   -1    0    0  501    0  0.00000000000E+00  0.00000000000E+00  0.20458194520E+04  0.20458194520E+04  0.50400001928E-02 0. -1.
       -1   -1    0    0    0  501  0.00000000000E+00  0.00000000000E+00 -0.31634638174E+03  0.31634638178E+03  0.50400001928E-02 0.  1.
    10030    2    1    2    0    0  0.00000000000E+00  0.00000000000E+00  0.17294730703E+04  0.23621658338E+04  0.16089593922E+04 0.  0.
        2    1    3    3  502    0 -0.55284309342E+03  0.57010487213E+03  0.67596567134E+03  0.10428732617E+04  0.25500000920E-02 0.  1.
       -2    1    3    3    0  502  0.55284309342E+03 -0.57010487213E+03  0.10535073989E+04  0.13192925721E+04  0.25500000920E-02 0. -1.
</event>
<event>
 5   0  0.1057872E-03  0.1193472E+04  0.7818609E-02  0.9118589E-01
        2   -1    0    0  501    0  0.00000000000E+00  0.00000000000E+00  0.10306709079E+04  0.10306709080E+04  0.25500000920E-02 0.  1.
       -2   -1    0    0    0  501  0.00000000000E+00  0.00000000000E+00 -0.34549734442E+03  0.34549734443E+03  0.25500000920E-02 0. -1.
    10030    2    1    2    0    0  0.00000000000E+00  0.00000000000E+00  0.68517356353E+03  0.13761682524E+04  0.11934723485E+04 0.  0.
        2    1    3    3  502    0  0.57660374040E+03  0.34364400962E+02  0.16985074597E+03  0.60208144084E+03  0.25500000920E-02 0.  1.
       -2    1    3    3    0  502 -0.57660374040E+03 -0.34364400962E+02  0.51532281756E+03  0.77408681154E+03  0.25500000920E-02 0. -1.
</event>
<event>
 5   0  0.5425525E-04  0.1604040E+04  0.7818609E-02  0.8818070E-01
       -1   -1    0    0    0  501  0.00000000000E+00  0.00000000000E+00  0.63812102200E+03  0.63812102202E+03  0.50400001928E-02 0.  1.
        1   -1    0    0  501    0  0.00000000000E+00  0.00000000000E+00 -0.10080153816E+04  0.10080153817E+04  0.50400001928E-02 0. -1.
    10030    2    1    2    0    0  0.00000000000E+00  0.00000000000E+00 -0.36989435965E+03  0.16461364037E+04  0.16040396573E+04 0.  0.
        5    1    3    3  502    0 -0.52893589573E+03 -0.10201294788E+03  0.42481280187E+03  0.68605235220E+03  0.46999998093E+01 0.  1.
       -5    1    3    3    0  502  0.52893589573E+03  0.10201294788E+03 -0.79470716152E+03  0.96008405148E+03  0.46999998093E+01 0. -1.
</event>
<event>
 5   0  0.5288658E-04  0.1550874E+04  0.7818609E-02  0.8851310E-01
       -1   -1    0    0    0  501  0.00000000000E+00  0.00000000000E+00  0.46254997908E+03  0.46254997911E+03  0.50400001928E-02 0.  1.
        1   -1    0    0  501    0  0.00000000000E+00  0.00000000000E+00 -0.12999723655E+04  0.12999723655E+04  0.50400001928E-02 0. -1.
    10030    2    1    2    0    0  0.00000000000E+00  0.00000000000E+00 -0.83742238637E+03  0.17625223446E+04  0.15508735480E+04 0.  0.
        1    1    3    3  502    0 -0.49327135900E+03 -0.29314692164E+03  0.17405436079E+03  0.59962210751E+03  0.50400001928E-02 0.  1.
       -1    1    3    3    0  502  0.49327135900E+03  0.29314692164E+03 -0.10114767472E+04  0.11629002371E+04  0.50400001928E-02 0. -1.
</event>
<event>
 5   0  0.1057872E-03  0.1487689E+04  0.7818609E-02  0.8892681E-01
        2   -1    0    0  501    0  0.00000000000E+00  0.00000000000E+00  0.18263757989E+04  0.18263757989E+04  0.25500000920E-02 0. -1.
       -2   -1    0    0    0  501  0.00000000000E+00  0.00000000000E+00 -0.30295233008E+03  0.30295233010E+03  0.25500000920E-02 0.  1.
    10030    2    1    2    0    0  0.00000000000E+00  0.00000000000E+00  0.15234234688E+04  0.21293281290E+04  0.14876892201E+04 0.  0.
        2    1    3    3  502    0 -0.61881619181E+03  0.41225649062E+03  0.79090148367E+03  0.10855478111E+04  0.25500000920E-02 0.  1.
       -2    1    3    3    0  502  0.61881619181E+03 -0.41225649062E+03  0.73252198514E+03  0.10437803179E+04  0.25500000920E-02 0. -1.
</event>
<event>
 5   0  0.5281116E-04  0.1608548E+04  0.7818609E-02  0.8815314E-01
       -1   -1    0    0    0  501  0.00000000000E+00  0.00000000000E+00  0.40983547832E+03  0.40983547835E+03  0.50400001928E-02 0. -1.
        1   -1    0    0  501    0  0.00000000000E+00  0.00000000000E+00 -0.15783327704E+04  0.15783327704E+04  0.50400001928E-02 0.  1.
    10030    2    1    2    0    0  0.00000000000E+00  0.00000000000E+00 -0.11684972921E+04  0.19881682487E+04  0.16085481229E+04 0.  0.
        2    1    3    3  502    0  0.70742799856E+03 -0.25387129424E+03 -0.23041574378E+03  0.78612748469E+03  0.25500000920E-02 0. -1.
       -2    1    3    3    0  502 -0.70742799856E+03  0.25387129424E+03 -0.93808154829E+03  0.12020407640E+04  0.25500000920E-02 0.  1.
</event>
<event>
 5   0  0.5425525E-04  0.1603424E+04  0.7818609E-02  0.8818447E-01
       -1   -1    0    0    0  501  0.00000000000E+00  0.00000000000E+00  0.50967162466E+03  0.50967162469E+03  0.50400001928E-02 0.  1.
        1   -1    0    0  501    0  0.00000000000E+00  0.00000000000E+00 -0.12610904141E+04  0.12610904141E+04  0.50400001928E-02 0. -1.
    10030    2    1    2    0    0  0.00000000000E+00  0.00000000000E+00 -0.75141878943E+03  0.17707620388E+04  0.16034238370E+04 0.  0.
        5    1    3    3  502    0 -0.28067882986E+03  0.56815533076E+03  0.16659788901E+03  0.65525417360E+03  0.46999998093E+01 0.  1.
       -5    1    3    3    0  502  0.28067882986E+03 -0.56815533076E+03 -0.91801667843E+03  0.11155078652E+04  0.46999998093E+01 0. -1.
</event>
<event>
 5   0  0.1030027E-03  0.1418972E+04  0.7818609E-02  0.8940199E-01
       -2   -1    0    0    0  501  0.00000000000E+00  0.00000000000E+00  0.23503432077E+03  0.23503432078E+03  0.25500000920E-02 0.  1.
        2   -1    0    0  501    0  0.00000000000E+00  0.00000000000E+00 -0.21416901084E+04  0.21416901084E+04  0.25500000920E-02 0. -1.
    10030    2    1    2    0    0  0.00000000000E+00  0.00000000000E+00 -0.19066557876E+04  0.23767244292E+04  0.14189724168E+04 0.  0.
        1    1    3    3  502    0 -0.14403272394E+02  0.47113014342E+03 -0.65124892141E+02  0.47582803396E+03  0.50400001928E-02 0.  1.
       -1    1    3    3    0  502  0.14403272394E+02 -0.47113014342E+03 -0.18415308955E+04  0.19008963952E+04  0.50400001928E-02 0. -1.
</event>
<event>
 5   0  0.1057872E-03  0.1579440E+04  0.7818609E-02  0.8833279E-01
       -2   -1    0    0    0  501  0.00000000000E+00  0.00000000000E+00  0.46413158231E+03  0.46413158232E+03  0.25500000920E-02 0. -1.
        2   -1    0    0  501    0  0.00000000000E+00  0.00000000000E+00 -0.13437084972E+04  0.13437084972E+04  0.25500000920E-02 0.  1.
    10030    2    1    2    0    0  0.00000000000E+00  0.00000000000E+00 -0.87957691486E+03  0.18078400795E+04  0.15794398386E+04 0.  0.
        2    1    3    3  502    0 -0.56319303922E+03 -0.55357011561E+03 -0.44618994357E+03  0.90703458483E+03  0.25500000920E-02 0. -1.
       -2    1    3    3    0  502  0.56319303922E+03  0.55357011561E+03 -0.43338697129E+03  0.90080549466E+03  0.25500000920E-02 0.  1.
</event>
<event>
 5   0  0.1000121E-03  0.1606257E+04  0.7818609E-02  0.8816714E-01
        2   -1    0    0  501    0  0.00000000000E+00  0.00000000000E+00  0.59263702039E+03  0.59263702040E+03  0.25500000920E-02 0.  1.
       -2   -1    0    0    0  501  0.00000000000E+00  0.00000000000E+00 -0.10883813656E+04  0.10883813656E+04  0.25500000920E-02 0. -1.
    10030    2    1    2    0    0  0.00000000000E+00  0.00000000000E+00 -0.49574434517E+03  0.16810183860E+04  0.16062566290E+04 0.  0.
        4    1    3    3  502    0  0.77430531458E+03  0.16997413089E+03 -0.38260248557E+03  0.88024212591E+03  0.12699999809E+01 0. -1.
       -4    1    3    3    0  502 -0.77430531458E+03 -0.16997413089E+03 -0.11314185959E+03  0.80077626004E+03  0.12699999809E+01 0.  1.
</event>
<event>
 5   0  0.1037321E-03  0.1178384E+04  0.7818609E-02  0.9131990E-01
        2   -1    0    0  501    0  0.00000000000E+00  0.00000000000E+00  0.20558216750E+04  0.20558216750E+04  0.25500000920E-02 0. -1.
       -2   -1    0    0    0  501  0.00000000000E+00  0.00000000000E+00 -0.16886062902E+03  0.16886062904E+03  0.25500000920E-02 0.  1.
    10030    2    1    2    0    0  0.00000000000E+00  0.00000000000E+00  0.18869610460E+04  0.22246823040E+04  0.11783842179E+04 0.  0.
        5    1    3    3  502    0  0.52292704775E+03 -0.26084367736E+03  0.80178505249E+03  0.99215597648E+03  0.46999998093E+01 0.  1.
       -5    1    3    3    0  502 -0.52292704775E+03  0.26084367736E+03  0.10851759935E+04  0.12325263276E+04  0.46999998093E+01 0. -1.
</event>
<event>
 5   0  0.1000121E-03  0.1639756E+04  0.7818609E-02  0.8796490E-01
        2   -1    0    0  501    0  0.00000000000E+00  0.00000000000E+00  0.10633172197E+04  0.10633172197E+04  0.25500000920E-02 0. -1.
       -2   -1    0    0    0  501  0.00000000000E+00  0.00000000000E+00 -0.63217279584E+03  0.63217279584E+03  0.25500000920E-02 0.  1.
    10030    2    1    2    0    0  0.00000000000E+00  0.00000000000E+00  0.43114442385E+03  0.16954900155E+04  0.16397563473E+04 0.  0.
        4    1    3    3  502    0  0.17388233207E+03 -0.60236509549E+03  0.76184713469E+03  0.98665669977E+03  0.12699999809E+01 0. -1.
       -4    1    3    3    0  502 -0.17388233207E+03  0.60236509549E+03 -0.33070271084E+03  0.70883331576E+03  0.12699999809E+01 0.  1.
</event>
<event>
 5   0  0.1030027E-03  0.1606061E+04  0.7818609E-02  0.8816833E-01
       -2   -1    0    0    0  501  0.00000000000E+00  0.00000000000E+00  0.28641599391E+03  0.28641599392E+03  0.25500000920E-02 0.  1.
        2   -1    0    0  501    0  0.00000000000E+00  0.00000000000E+00 -0.22514719765E+04  0.22514719765E+04  0.25500000920E-02 0. -1.
    10030    2    1    2    0    0  0.00000000000E+00  0.00000000000E+00 -0.19650559826E+04  0.25378879704E+04  0.16060605019E+04 0.  0.
        1    1    3    3  502    0  0.20329106026E+03 -0.39490970291E+03 -0.20396966002E+04  0.20874968621E+04  0.50400001928E-02 0. -1.
       -1    1    3    3    0  502 -0.20329106026E+03  0.39490970291E+03  0.74640617563E+02  0.45039110831E+03  0.50400001928E-02 0.  1.
</event>
<event>
 5   0  0.5281116E-04  0.1465460E+04  0.7818609E-02  0.8907752E-01
        1   -1    0    0  501    0  0.00000000000E+00  0.00000000000E+00  0.13500487613E+04  0.13500487613E+04  0.50400001928E-02 0. -1.
       -1   -1    0    0    0  501  0.00000000000E+00  0.00000000000E+00 -0.39768440653E+03  0.39768440656E+03  0.50400001928E-02 0.  1.
    10030    2    1    2    0    0  0.00000000000E+00  0.00000000000E+00  0.95236435477E+03  0.17477331679E+04  0.14654601195E+04 0.  0.
        2    1    3    3  502    0  0.48668408159E+02 -0.12545000684E+03 -0.38282279096E+03  0.40578270966E+03  0.25500000920E-02 0.  1.
       -2    1    3    3    0  502 -0.48668408159E+02  0.12545000684E+03  0.13351871457E+04  0.13419504582E+04  0.25500000920E-02 0. -1.
</event>
<event>
 5   0  0.1057872E-03  0.1600114E+04  0.7818609E-02  0.8820478E-01
       -2   -1    0    0    0  501  0.00000000000E+00  0.00000000000E+00  0.69588505147E+03  0.69588505148E+03  0.25500000920E-02 0.  1.
        2   -1    0    0  501    0  0.00000000000E+00  0.00000000000E+00 -0.91982271466E+03  0.91982271466E+03  0.25500000920E-02 0. -1.
    10030    2    1    2    0    0  0.00000000000E+00  0.00000000000E+00 -0.22393766319E+03  0.16157077661E+04  0.16001135924E+04 0.  0.
        2    1    3    3  502    0  0.42998210474E+03  0.16001804446E+03  0.54985801979E+03  0.71612444929E+03  0.25500000920E-02 0.  1.
       -2    1    3    3    0  502 -0.42998210474E+03 -0.16001804446E+03 -0.77379568297E+03  0.89958331684E+03  0.25500000920E-02 0. -1.
</event>
<event>
 5   0  0.9844690E-04  0.1576666E+04  0.7818609E-02  0.8835013E-01
       -2   -1    0    0    0  501  0.00000000000E+00  0.00000000000E+00  0.90143314922E+03  0.90143314922E+03  0.25500000920E-02 0. -1.
        2   -1    0    0  501    0  0.00000000000E+00  0.00000000000E+00 -0.68942329516E+03  0.68942329517E+03  0.25500000920E-02 0.  1.
    10030    2    1    2    0    0  0.00000000000E+00  0.00000000000E+00  0.21200985406E+03  0.15908564444E+04  0.15766661183E+04 0.  0.
        3    1    3    3  502    0 -0.15084336041E+03 -0.76980387580E+03  0.27087980946E+02  0.78491113859E+03  0.10100000352E+00 0.  1.
       -3    1    3    3    0  502  0.15084336041E+03  0.76980387580E+03  0.18492187311E+03  0.80594530580E+03  0.10100000352E+00 0. -1.
</event>
<event>
 5   0  0.1037321E-03  0.1472660E+04  0.7818609E-02  0.8902840E-01
       -2   -1    0    0    0  501  0.00000000000E+00  0.00000000000E+00  0.34351222166E+03  0.34351222166E+03  0.25500000920E-02 0. -1.
        2   -1    0    0  501    0  0.00000000000E+00  0.00000000000E+00 -0.15783483917E+04  0.15783483917E+04  0.25500000920E-02 0.  1.
    10030    2    1    2    0    0  0.00000000000E+00  0.00000000000E+00 -0.12348361700E+04  0.19218606133E+04  0.14726601272E+04 0.  0.
        5    1    3    3  502    0  0.84970180932E+02  0.28950685606E+03  0.25911467605E+03  0.39773943317E+03  0.46999998093E+01 0. -1.
       -5    1    3    3    0  502 -0.84970180932E+02 -0.28950685606E+03 -0.14939508461E+04  0.15241211802E+04  0.46999998093E+01 0.  1.
</event>
<event>
 5   0  0.1030027E-03  0.1642528E+04  0.7818609E-02  0.8794839E-01
        2   -1    0    0  501    0  0.00000000000E+00  0.00000000000E+00  0.14254022592E+04  0.14254022592E+04  0.25500000920E-02 0. -1.
       -2   -1    0    0    0  501  0.00000000000E+00  0.00000000000E+00 -0.47318181316E+03  0.47318181316E+03  0.25500000920E-02 0.  1.
    10030    2    1    2    0    0  0.00000000000E+00  0.00000000000E+00  0.95222044602E+03  0.18985840723E+04  0.16425278390E+04 0.  0.
        1    1    3    3  502    0 -0.47119823238E+03  0.15304146887E+03 -0.28099871601E+03  0.56956978836E+03  0.50400001928E-02 0.  1.
       -1    1    3    3    0  502  0.47119823238E+03 -0.15304146887E+03  0.12332191620E+04  0.13290142840E+04  0.50400001928E-02 0. -1.
</event>
<event>
 5   0  0.5288658E-04  0.1595509E+04  0.7818609E-02  0.8823312E-01
       -1   -1    0    0    0  501  0.00000000000E+00  0.00000000000E+00  0.84119130013E+03  0.84119130015E+03  0.50400001928E-02 0. -1.
        1   -1    0    0  501    0  0.00000000000E+00  0.00000000000E+00 -0.75656061277E+03  0.75656061278E+03  0.50400001928E-02 0.  1.
    10030    2    1    2    0    0  0.00000000000E+00  0.00000000000E+00  0.84630687364E+02  0.15977519129E+04  0.15955089539E+04 0.  0.
        1    1    3    3  502    0 -0.20725443252E+03  0.68767221715E+02 -0.72605000104E+03  0.75817671727E+03  0.50400001928E-02 0.  1.
       -1    1    3    3    0  502  0.20725443252E+03 -0.68767221715E+02  0.81068068840E+03  0.83957519565E+03  0.50400001928E-02 0. -1.
</event>
<event>
 5   0  0.1057872E-03  0.1581130E+04  0.7818609E-02  0.8832225E-01
       -2   -1    0    0    0  501  0.00000000000E+00  0.00000000000E+00  0.42401671319E+03  0.42401671320E+03  0.25500000920E-02 0.  1.
        2   -1    0    0  501    0  0.00000000000E+00  0.00000000000E+00 -0.14739817080E+04  0.14739817080E+04  0.25500000920E-02 0. -1.
    10030    2    1    2    0    0  0.00000000000E+00  0.00000000000E+00 -0.10499649948E+04  0.18979984212E+04  0.15811298228E+04 0.  0.
        2    1    3    3  502    0  0.80349257755E+02 -0.39202806618E+03 -0.13434192833E+04  0.14017551065E+04  0.25500000920E-02 0. -1.
       -2    1    3    3    0  502 -0.80349257755E+02  0.39202806618E+03  0.29345428851E+03  0.49624331466E+03  0.25500000920E-02 0.  1.
</event>
<event>
 5   0  0.5623061E-04  0.1594172E+04  0.7818609E-02  0.8824136E-01
       -1   -1    0    0    0  501  0.00000000000E+00  0.00000000000E+00  0.38351218668E+03  0.38351218671E+03  0.50400001928E-02 0. -1.
        1   -1    0    0  501    0  0.00000000000E+00  0.00000000000E+00 -0.16566517698E+04  0.16566517698E+04  0.50400001928E-02 0.  1.
    10030    2    1    2    0    0  0.00000000000E+00  0.00000000000E+00 -0.12731395831E+04  0.20401639565E+04  0.15941720645E+04 0.  0.
        3    1    3    3  502    0 -0.74523429386E+03 -0.28259115537E+03 -0.62289254472E+03  0.10115468582E+04  0.10100000352E+00 0. -1.
       -3    1    3    3    0  502  0.74523429386E+03  0.28259115537E+03 -0.65024703840E+03  0.10286170983E+04  0.10100000352E+00 0.  1.
</event>
<event>
 5   0  0.1037321E-03  0.1601885E+04  0.7818609E-02  0.8819391E-01
        2   -1    0    0  501    0  0.00000000000E+00  0.00000000000E+00  0.92033379688E+03  0.92033379688E+03  0.25500000920E-02 0. -1.
       -2   -1    0    0    0  501  0.00000000000E+00  0.00000000000E+00 -0.69703935465E+03  0.69703935465E+03  0.25500000920E-02 0.  1.
    10030    2    1    2    0    0  0.00000000000E+00  0.00000000000E+00  0.22329444223E+03  0.16173731515E+04  0.16018849844E+04 0.  0.
        5    1    3    3  502    0  0.40672970271E+03 -0.41893290018E+03 -0.44188053591E+03  0.73226656617E+03  0.46999998093E+01 0.  1.
       -5    1    3    3    0  502 -0.40672970271E+03  0.41893290018E+03  0.66517497813E+03  0.88510658536E+03  0.46999998093E+01 0. -1.
</event>
<event>
 5   0  0.5281116E-04  0.1610077E+04  0.7818609E-02  0.8814381E-01
        1   -1    0    0  501    0  0.00000000000E+00  0.00000000000E+00  0.70997236996E+03  0.70997236998E+03  0.50400001928E-02 0.  1.
       -1   -1    0    0    0  501  0.00000000000E+00  0.00000000000E+00 -0.91283466158E+03  0.91283466159E+03  0.50400001928E-02 0. -1.
    10030    2    1    2    0    0  0.00000000000E+00  0.00000000000E+00 -0.20286229162E+03  0.16228070316E+04  0.16100774989E+04 0.  0.
        2    1    3    3  502    0 -0.68950179279E+03 -0.39286114626E+03 -0.23790769026E+03  0.82846404364E+03  0.25500000920E-02 0.  1.
       -2    1    3    3    0  502  0.68950179279E+03  0.39286114626E+03  0.35045398638E+02  0.79434298793E+03  0.25500000920E-02 0. -1.
</event>
<event>
 5   0  0.1000121E-03  0.1632812E+04  0.7818609E-02  0.8800640E-01
       -2   -1    0    0    0  501  0.00000000000E+00  0.00000000000E+00  0.12185084389E+04  0.12185084389E+04  0.25500000920E-02 0. -1.
        2   -1    0    0  501    0  0.00000000000E+00  0.00000000000E+00 -0.54699593161E+03  0.54699593162E+03  0.25500000920E-02 0.  1.
    10030    2    1    2    0    0  0.00000000000E+00  0.00000000000E+00  0.67151250728E+03  0.17655043705E+04  0.16328124923E+04 0.  0.
        4    1    3    3  502    0 -0.58928570657E+02  0.62251948385E+03 -0.23179447088E+03  0.66688332851E+03  0.12699999809E+01 0.  1.
       -4    1    3    3    0  502  0.58928570657E+02 -0.62251948385E+03  0.90330697817E+03  0.10986210420E+04  0.12699999809E+01 0. -1.
</event>
<event>
 5   0  0.5288658E-04  0.1501337E+04  0.7818609E-02  0.8883564E-01
        1   -1    0    0  501    0  0.00000000000E+00  0.00000000000E+00  0.67270414773E+03  0.67270414775E+03  0.50400001928E-02 0. -1.
       -1   -1    0    0    0  501  0.00000000000E+00  0.00000000000E+00 -0.83766921174E+03  0.83766921176E+03  0.50400001928E-02 0.  1.
    10030    2    1    2    0    0  0.00000000000E+00  0.00000000000E+00 -0.16496506401E+03  0.15103733595E+04  0.15013374746E+04 0.  0.
        1    1    3    3  502    0  0.10366736502E+03  0.37690644698E+03 -0.72719693232E+03  0.82560327684E+03  0.50400001928E-02 0.  1.
       -1    1    3    3    0  502 -0.10366736502E+03 -0.37690644698E+03  0.56223186830E+03  0.68477008266E+03  0.50400001928E-02 0. -1.
</event>
<event>
 5   0  0.1030027E-03  0.1521661E+04  0.7818609E-02  0.8870175E-01
       -2   -1    0    0    0  501  0.00000000000E+00  0.00000000000E+00  0.34714016227E+03  0.34714016228E+03  0.25500000920E-02 0.  1.
        2   -1    0    0  501    0  0.00000000000E+00  0.00000000000E+00 -0.16675191589E+04  0.16675191589E+04  0.25500000920E-02 0. -1.
    10030    2    1    2    0    0  0.00000000000E+00  0.00000000000E+00 -0.13203789966E+04  0.20146593212E+04  0.15216607656E+04 0.  0.
        1    1    3    3  502    0  0.17243596172E+03 -0.58848668049E+03 -0.12564427295E+04  0.13981055276E+04  0.50400001928E-02 0. -1.
       -1    1    3    3    0  502 -0.17243596172E+03  0.58848668049E+03 -0.63936267160E+02  0.61655379351E+03  0.50400001928E-02 0.  1.
</event>
<event>
 5   0  0.5532881E-04  0.1613434E+04  0.7818609E-02  0.8812337E-01
        1   -1    0    0  501    0  0.00000000000E+00  0.00000000000E+00  0.94204457823E+03  0.94204457824E+03  0.50400001928E-02 0. -1.
       -1   -1    0    0    0  501  0.00000000000E+00  0.00000000000E+00 -0.69082988268E+03  0.69082988270E+03  0.50400001928E-02 0.  1.
    10030    2    1    2    0    0  0.00000000000E+00  0.00000000000E+00  0.25121469554E+03  0.16328744609E+04  0.16134342819E+04 0.  0.
        4    1    3    3  502    0 -0.57187840309E+03 -0.11067415327E+03 -0.43923679411E+03  0.72953701093E+03  0.12699999809E+01 0.  1.
       -4    1    3    3    0  502  0.57187840309E+03  0.11067415327E+03  0.69045148965E+03  0.90333745001E+03  0.12699999809E+01 0. -1.
</event>
<event>
 5   0  0.3832500E-04  0.1600461E+04  0.7818609E-02  0.8820265E-01
        3   -1    0    0  501    0  0.00000000000E+00  0.00000000000E+00  0.60248600238E+03  0.60248601085E+03  0.10100000352E+00 0. -1.
       -3   -1    0    0    0  501  0.00000000000E+00  0.00000000000E+00 -0.10628779737E+04  0.10628779785E+04  0.10100000352E+00 0.  1.
    10030    2    1    2    0    0  0.00000000000E+00  0.00000000000E+00 -0.46039197130E+03  0.16653639893E+04  0.16004613240E+04 0.  0.
        3    1    3    3  502    0  0.55141474495E+03  0.18834292407E+03  0.34053336238E+03  0.67490314793E+03  0.10100000352E+00 0.  1.
       -3    1    3    3    0  502 -0.55141474495E+03 -0.18834292407E+03 -0.80092533368E+03  0.99046084139E+03  0.10100000352E+00 0. -1.
</event>
<event>
 5   0  0.9844690E-04  0.1588132E+04  0.7818609E-02  0.8827872E-01
        2   -1    0    0  501    0  0.00000000000E+00  0.00000000000E+00  0.79584421230E+03  0.79584421231E+03  0.25500000920E-02 0. -1.
       -2   -1    0    0    0  501  0.00000000000E+00  0.00000000000E+00 -0.79229174562E+03  0.79229174562E+03  0.25500000920E-02 0.  1.
    10030    2    1    2    0    0  0.00000000000E+00  0.00000000000E+00  0.35524666857E+01  0.15881359579E+04  0.15881319847E+04 0.  0.
        3    1    3    3  502    0  0.21520299319E+03 -0.74903013218E+03  0.15403403715E+03  0.79440856112E+03  0.10100000352E+00 0. -1.
       -3    1    3    3    0  502 -0.21520299319E+03  0.74903013218E+03 -0.15048157047E+03  0.79372739680E+03  0.10100000352E+00 0.  1.
</event>
<event>
 5   0  0.5623061E-04  0.1578951E+04  0.7818609E-02  0.8833585E-01
       -1   -1    0    0    0  501  0.00000000000E+00  0.00000000000E+00  0.10420308643E+04  0.10420308643E+04  0.50400001928E-02 0.  1.
        1   -1    0    0  501    0  0.00000000000E+00  0.00000000000E+00 -0.59813161501E+03  0.59813161503E+03  0.50400001928E-02 0. -1.
    10030    2    1    2    0    0  0.00000000000E+00  0.00000000000E+00  0.44389924931E+03  0.16401624794E+04  0.15789510490E+04 0.  0.
        3    1    3    3  502    0 -0.26976465753E+03  0.87162661207E+02 -0.54343308098E+03  0.61293541557E+03  0.10100000352E+00 0. -1.
       -3    1    3    3    0  502  0.26976465753E+03 -0.87162661207E+02  0.98733233029E+03  0.10272270638E+04  0.10100000352E+00 0.  1.
</event>
<event>
 5   0  0.1030027E-03  0.1637068E+04  0.7818609E-02  0.8798094E-01
       -2   -1    0    0    0  501  0.00000000000E+00  0.00000000000E+00  0.93629098657E+03  0.93629098657E+03  0.25500000920E-02 0.  1.
        2   -1    0    0  501    0  0.00000000000E+00  0.00000000000E+00 -0.71558689289E+03  0.71558689289E+03  0.25500000920E-02 0. -1.
    10030    2    1    2    0    0  0.00000000000E+00  0.00000000000E+00  0.22070409368E+03  0.16518778795E+04  0.16370675709E+04 0.  0.
        1    1    3    3  502    0  0.70799267505E+03 -0.24983889515E+03  0.43937630421E+03  0.86989921151E+03  0.50400001928E-02 0.  1.
       -1    1    3    3    0  502 -0.70799267505E+03  0.24983889515E+03 -0.21867221052E+03  0.78197866796E+03  0.50400001928E-02 0. -1.
</event>
<event>
 5   0  0.5532881E-04  0.1601095E+04  0.7818609E-02  0.8819875E-01
       -1   -1    0    0    0  501  0.00000000000E+00  0.00000000000E+00  0.68811367232E+03  0.68811367234E+03  0.50400001928E-02 0.  1.
        1   -1    0    0  501    0  0.00000000000E+00  0.00000000000E+00 -0.93135260620E+03  0.93135260621E+03  0.50400001928E-02 0. -1.
    10030    2    1    2    0    0  0.00000000000E+00  0.00000000000E+00 -0.24323893387E+03  0.16194662785E+04  0.16010952028E+04 0.  0.
        4    1    3    3  502    0  0.22997969653E+03 -0.22626283255E+03 -0.86268512141E+03  0.92103895781E+03  0.12699999809E+01 0. -1.
       -4    1    3    3    0  502 -0.22997969653E+03  0.22626283255E+03  0.61944618753E+03  0.69842732074E+03  0.12699999809E+01 0.  1.
</event>
<event>
 5   0  0.9844690E-04  0.1585511E+04  0.7818609E-02  0.8829499E-01
       -2   -1    0    0    0  501  0.00000000000E+00  0.00000000000E+00  0.70967882182E+03  0.70967882183E+03  0.25500000920E-02 0.  1.
        2   -1    0    0  501    0  0.00000000000E+00  0.00000000000E+00 -0.88555782787E+03  0.88555782788E+03  0.25500000920E-02 0. -1.
    10030    2    1    2    0    0  0.00000000000E+00  0.00000000000E+00 -0.17587900605E+03  0.15952366497E+04  0.15855114455E+04 0.  0.
        3    1    3    3  502    0 -0.51775921101E+03  0.48884101609E+03  0.26265371392E+03  0.75896450723E+03  0.10100000352E+00 0. -1.
       -3    1    3    3    0  502  0.51775921101E+03 -0.48884101609E+03 -0.43853271997E+03  0.83627214248E+03  0.10100000352E+00 0.  1.
</event>
<event>
 5   0  0.5532881E-04  0.1573750E+04  0.7818609E-02  0.8836838E-01
        1   -1    0    0  501    0  0.00000000000E+00  0.00000000000E+00  0.82527096197E+03  0.82527096198E+03  0.50400001928E-02 0.  1.
       -1   -1    0    0    0  501  0.00000000000E+00  0.00000000000E+00 -0.75026573121E+03  0.75026573123E+03  0.50400001928E-02 0. -1.
    10030    2    1    2    0    0  0.00000000000E+00  0.00000000000E+00  0.75005230756E+02  0.15755366932E+04  0.15737503255E+04 0.  0.
        4    1    3    3  502    0 -0.25009391691E+03  0.65695286447E+03  0.39150953036E+03  0.80462125169E+03  0.12699999809E+01 0.  1.
       -4    1    3    3    0  502  0.25009391691E+03 -0.65695286447E+03 -0.31650429960E+03  0.77091544152E+03  0.12699999809E+01 0. -1.
</event>
<event>
 5   0  0.5425525E-04  0.1595995E+04  0.7818609E-02  0.8823012E-01
        1   -1    0    0  501    0  0.00000000000E+00  0.00000000000E+00  0.85437269492E+03  0.85437269494E+03  0.50400001928E-02 0. -1.
       -1   -1    0    0    0  501  0.00000000000E+00  0.00000000000E+00 -0.74534221673E+03  0.74534221675E+03  0.50400001928E-02 0.  1.
    10030    2    1    2    0    0  0.00000000000E+00  0.00000000000E+00  0.10903047819E+03  0.15997149117E+04  0.15959950355E+04 0.  0.
        5    1    3    3  502    0  0.45634193742E+03 -0.45431095078E+03  0.52692207691E+03  0.83205490743E+03  0.46999998093E+01 0. -1.
       -5    1    3    3    0  502 -0.45634193742E+03  0.45431095078E+03 -0.41789159872E+03  0.76766000425E+03  0.46999998093E+01 0.  1.
</event>
<event>
 5   0  0.5532881E-04  0.1691659E+04  0.7818609E-02  0.8766136E-01
        1   -1    0    0  501    0  0.00000000000E+00  0.00000000000E+00  0.83558747153E+03  0.83558747154E+03  0.50400001928E-02 0. -1.
       -1   -1    0    0    0  501  0.00000000000E+00  0.00000000000E+00 -0.85619704464E+03  0.85619704465E+03  0.50400001928E-02 0.  1.
    10030    2    1    2    0    0  0.00000000000E+00  0.00000000000E+00 -0.20609573110E+02  0.16917845162E+04  0.16916589771E+04 0.  0.
        4    1    3    3  502    0 -0.47449694650E+03  0.63330472122E+03 -0.30899681667E+03  0.84953096928E+03  0.12699999809E+01 0.  1.
       -4    1    3    3    0  502  0.47449694650E+03 -0.63330472122E+03  0.28838724356E+03  0.84225354692E+03  0.12699999809E+01 0. -1.
</event>
<event>
 5   0  0.5623061E-04  0.1580247E+04  0.7818609E-02  0.8832776E-01
        1   -1    0    0  501    0  0.00000000000E+00  0.00000000000E+00  0.76644146700E+03  0.76644146702E+03  0.50400001928E-02 0.  1.
       -1   -1    0    0    0  501  0.00000000000E+00  0.00000000000E+00 -0.81453729525E+03  0.81453729527E+03  0.50400001928E-02 0. -1.
    10030    2    1    2    0    0  0.00000000000E+00  0.00000000000E+00 -0.48095828251E+02  0.15809787623E+04  0.15802470181E+04 0.  0.
        3    1    3    3  502    0  0.58462966187E+03  0.20194102587E+03  0.46783321460E+03  0.77552559362E+03  0.10100000352E+00 0.  1.
       -3    1    3    3    0  502 -0.58462966187E+03 -0.20194102587E+03 -0.51592904285E+03  0.80545316867E+03  0.10100000352E+00 0. -1.
</event>
<event>
 5   0  0.1057872E-03  0.1553300E+04  0.7818609E-02  0.8849762E-01
       -2   -1    0    0    0  501  0.00000000000E+00  0.00000000000E+00  0.74290671670E+03  0.74290671670E+03  0.25500000920E-02 0. -1.
        2   -1    0    0  501    0  0.00000000000E+00  0.00000000000E+00 -0.81192619981E+03  0.81192619981E+03  0.25500000920E-02 0.  1.
    10030    2    1    2    0    0  0.00000000000E+00  0.00000000000E+00 -0.69019483108E+02  0.15548329165E+04  0.15533002637E+04 0.  0.
        2    1    3    3  502    0 -0.10361857624E+03  0.53984127187E+03  0.51468453150E+03  0.75303756555E+03  0.25500000920E-02 0. -1.
       -2    1    3    3    0  502  0.10361857624E+03 -0.53984127187E+03 -0.58370401461E+03  0.80179535097E+03  0.25500000920E-02 0.  1.
</event>
<event>
 5   0  0.1000121E-03  0.1591807E+04  0.7818609E-02  0.8825597E-01
       -2   -1    0    0    0  501  0.00000000000E+00  0.00000000000E+00  0.90121712208E+03  0.90121712208E+03  0.25500000920E-02 0. -1.
        2   -1    0    0  501    0  0.00000000000E+00  0.00000000000E+00 -0.70289672312E+03  0.70289672313E+03  0.25500000920E-02 0.  1.
    10030    2    1    2    0    0  0.00000000000E+00  0.00000000000E+00  0.19832039895E+03  0.16041138452E+04  0.15918072269E+04 0.  0.
        4    1    3    3  502    0 -0.30764531022E+03 -0.58014616334E+03  0.55235446706E+03  0.85808640469E+03  0.12699999809E+01 0. -1.
       -4    1    3    3    0  502  0.30764531022E+03  0.58014616334E+03 -0.35403406810E+03  0.74602744052E+03  0.12699999809E+01 0.  1.
</event>
<event>
 5   0  0.9844690E-04  0.1591542E+04  0.7818609E-02  0.8825761E-01
       -2   -1    0    0    0  501  0.00000000000E+00  0.00000000000E+00  0.36594590967E+03  0.36594590968E+03  0.25500000920E-02 0.  1.
        2   -1    0    0  501    0  0.00000000000E+00  0.00000000000E+00 -0.17304500475E+04  0.17304500475E+04  0.25500000920E-02 0. -1.
    10030    2    1    2    0    0  0.00000000000E+00  0.00000000000E+00 -0.13645041378E+04  0.20963959572E+04  0.15915415380E+04 0.  0.
        3    1    3    3  502    0 -0.13801395710E+03 -0.46830066225E+02  0.34821630054E+03  0.37748577406E+03  0.10100000352E+00 0.  1.
       -3    1    3    3    0  502  0.13801395710E+03  0.46830066225E+02 -0.17127204384E+04  0.17189101831E+04  0.10100000352E+00 0. -1.
</event>
<event>
 5   0  0.1037321E-03  0.1552768E+04  0.7818609E-02  0.8850101E-01
        2   -1    0    0  501    0  0.00000000000E+00  0.00000000000E+00  0.16893542260E+04  0.16893542260E+04  0.25500000920E-02 0. -1.
       -2   -1    0    0    0  501  0.00000000000E+00  0.00000000000E+00 -0.35680642760E+03  0.35680642761E+03  0.25500000920E-02 0.  1.
    10030    2    1    2    0    0  0.00000000000E+00  0.00000000000E+00  0.13325477984E+04  0.20461606536E+04  0.15527684262E+04 0.  0.
        5    1    3    3  502    0 -0.19502361602E+03 -0.39433067152E+03  0.15092420772E+04  0.15720574502E+04  0.46999998093E+01 0. -1.
       -5    1    3    3    0  502  0.19502361602E+03  0.39433067152E+03 -0.17669427878E+03  0.47410320338E+03  0.46999998093E+01 0.  1.
</event>
<event>
 5   0  0.5281116E-04  0.1569680E+04  0.7818609E-02  0.8839394E-01
       -1   -1    0    0    0  501  0.00000000000E+00  0.00000000000E+00  0.34688116500E+03  0.34688116504E+03  0.50400001928E-02 0. -1.
        1   -1    0    0  501    0  0.00000000000E+00  0.00000000000E+00 -0.17757483406E+04  0.17757483406E+04  0.50400001928E-02 0.  1.
    10030    2    1    2    0    0  0.00000000000E+00  0.00000000000E+00 -0.14288671756E+04  0.21226295057E+04  0.15696797803E+04 0.  0.
        2    1    3    3  502    0 -0.43875747459E+03  0.41305385301E+03 -0.34453227753E+02  0.60357984717E+03  0.25500000920E-02 0. -1.
       -2    1    3    3    0  502  0.43875747459E+03 -0.41305385301E+03 -0.13944139479E+04  0.15190496585E+04  0.25500000920E-02 0.  1.
</event>
<event>
 5   0  0.5288658E-04  0.1602155E+04  0.7818609E-02  0.8819225E-01
       -1   -1    0    0    0  501  0.00000000000E+00  0.00000000000E+00  0.64615583903E+03  0.64615583904E+03  0.50400001928E-02 0.  1.
        1   -1    0    0  501    0  0.00000000000E+00  0.00000000000E+00 -0.99314327158E+03  0.99314327160E+03  0.50400001928E-02 0. -1.
    10030    2    1    2    0    0  0.00000000000E+00  0.00000000000E+00 -0.34698743256E+03  0.16392991106E+04  0.16021552034E+04 0.  0.
        1    1    3    3  502    0 -0.13454018185E+02 -0.46301291724E+03  0.49523598325E+03  0.67810076779E+03  0.50400001928E-02 0.  1.
       -1    1    3    3    0  502  0.13454018185E+02  0.46301291724E+03 -0.84222341581E+03  0.96119834285E+03  0.50400001928E-02 0. -1.
</event>
<event>
 5   0  0.9844690E-04  0.1618324E+04  0.7818609E-02  0.8809369E-01
        2   -1    0    0  501    0  0.00000000000E+00  0.00000000000E+00  0.37912463770E+03  0.37912463771E+03  0.25500000920E-02 0. -1.
       -2   -1    0    0    0  501  0.00000000000E+00  0.00000000000E+00 -0.17269871541E+04  0.17269871541E+04  0.25500000920E-02 0.  1.
    10030    2    1    2    0    0  0.00000000000E+00  0.00000000000E+00 -0.13478625164E+04  0.21061117918E+04  0.16183242928E+04 0.  0.
        3    1    3    3  502    0 -0.65880055887E+03  0.91346383307E+02 -0.74176463650E+02  0.66922678971E+03  0.10100000352E+00 0.  1.
       -3    1    3    3    0  502  0.65880055887E+03 -0.91346383307E+02 -0.12736860528E+04  0.14368850021E+04  0.10100000352E+00 0. -1.
</event>
<event>
 5   0  0.1030027E-03  0.1603091E+04  0.7818609E-02  0.8818651E-01
       -2   -1    0    0    0  501  0.00000000000E+00  0.00000000000E+00  0.13156153293E+04  0.13156153293E+04  0.25500000920E-02 0. -1.
        2   -1    0    0  501    0  0.00000000000E+00  0.00000000000E+00 -0.48834592779E+03  0.48834592780E+03  0.25500000920E-02 0.  1.
    10030    2    1    2    0    0  0.00000000000E+00  0.00000000000E+00  0.82726940154E+03  0.18039612571E+04  0.16030912496E+04 0.  0.
        1    1    3    3  502    0 -0.10912551848E+03  0.34998230823E+03 -0.38847681852E+03  0.53414439378E+03  0.50400001928E-02 0.  1.
       -1    1    3    3    0  502  0.10912551848E+03 -0.34998230823E+03  0.12157462201E+04  0.12698168634E+04  0.50400001928E-02 0. -1.
</event>
<event>
 5   0  0.3832500E-04  0.1550988E+04  0.7818609E-02  0.8851237E-01
       -3   -1    0    0    0  501  0.00000000000E+00  0.00000000000E+00  0.50304732245E+03  0.50304733259E+03  0.10100000352E+00 0. -1.
        3   -1    0    0  501    0  0.00000000000E+00  0.00000000000E+00 -0.11954955085E+04  0.11954955128E+04  0.10100000352E+00 0.  1.
    10030    2    1    2    0    0  0.00000000000E+00  0.00000000000E+00 -0.69244818607E+03  0.16985428454E+04  0.15509878488E+04 0.  0.
        1    1    3    3  502    0 -0.28266716579E+03 -0.16200480935E+03  0.42446277666E+03  0.53508404355E+03  0.50400001928E-02 0. -1.
       -1    1    3    3    0  502  0.28266716579E+03  0.16200480935E+03 -0.11169109627E+04  0.11634588018E+04  0.50400001928E-02 0.  1.
</event>
<event>
 5   0  0.9844690E-04  0.1283160E+04  0.7818609E-02  0.9043027E-01
        2   -1    0    0  501    0  0.00000000000E+00  0.00000000000E+00  0.62197329527E+03  0.62197329527E+03  0.25500000920E-02 0.  1.
       -2   -1    0    0    0  501  0.00000000000E+00  0.00000000000E+00 -0.66180525546E+03  0.66180525547E+03  0.25500000920E-02 0. -1.
    10030    2    1    2    0    0  0.00000000000E+00  0.00000000000E+00 -0.39831960198E+02  0.12837785507E+04  0.12831604663E+04 0.  0.
        3    1    3    3  502    0  0.37353444031E+03  0.11902292678E+03  0.48819748645E+03  0.62612397429E+03  0.10100000352E+00 0.  1.
       -3    1    3    3    0  502 -0.37353444031E+03 -0.11902292678E+03 -0.52802944665E+03  0.65765457645E+03  0.10100000352E+00 0. -1.
</event>
<event>
 5   0  0.5623061E-04  0.1532540E+04  0.7818609E-02  0.8863098E-01
       -1   -1    0    0    0  501  0.00000000000E+00  0.00000000000E+00  0.67131458401E+03  0.67131458403E+03  0.50400001928E-02 0.  1.
        1   -1    0    0  501    0  0.00000000000E+00  0.00000000000E+00 -0.87465688483E+03  0.87465688484E+03  0.50400001928E-02 0. -1.
    10030    2    1    2    0    0  0.00000000000E+00  0.00000000000E+00 -0.20334230082E+03  0.15459714689E+04  0.15325402739E+04 0.  0.
        3    1    3    3  502    0 -0.64460125793E+03  0.19203720304E+03 -0.47201374381E+03  0.82169705709E+03  0.10100000352E+00 0. -1.
       -3    1    3    3    0  502  0.64460125793E+03 -0.19203720304E+03  0.26867144299E+03  0.72427441178E+03  0.10100000352E+00 0.  1.
</event>
<event>
 5   0  0.3832500E-04  0.1583050E+04  0.7818609E-02  0.8831029E-01
        3   -1    0    0  501    0  0.00000000000E+00  0.00000000000E+00  0.24496016588E+03  0.24496018670E+03  0.10100000352E+00 0.  1.
       -3   -1    0    0    0  501  0.00000000000E+00  0.00000000000E+00 -0.25576074819E+04  0.25576074839E+04  0.10100000352E+00 0. -1.
    10030    2    1    2    0    0  0.00000000000E+00  0.00000000000E+00 -0.23126473160E+04  0.28025676706E+04  0.15830502013E+04 0.  0.
        5    1    3    3  502    0 -0.36385709338E+03 -0.57751152288E+03 -0.18657460921E+04  0.19866912477E+04  0.46999998093E+01 0. -1.
       -5    1    3    3    0  502  0.36385709338E+03  0.57751152288E+03 -0.44690122387E+03  0.81587642285E+03  0.46999998093E+01 0.  1.
</event>
<event>
 5   0  0.1057872E-03  0.1549234E+04  0.7818609E-02  0.8852357E-01
       -2   -1    0    0    0  501  0.00000000000E+00  0.00000000000E+00  0.27718024411E+03  0.27718024412E+03  0.25500000920E-02 0.  1.
        2   -1    0    0  501    0  0.00000000000E+00  0.00000000000E+00 -0.21647712151E+04  0.21647712151E+04  0.25500000920E-02 0. -1.
    10030    2    1    2    0    0  0.00000000000E+00  0.00000000000E+00 -0.18875909710E+04  0.24419514592E+04  0.15492344095E+04 0.  0.
        2    1    3    3  502    0 -0.45165085898E+03  0.31444384102E+03 -0.84542211825E+02  0.55678614671E+03  0.25500000920E-02 0.  1.
       -2    1    3    3    0  502  0.45165085898E+03 -0.31444384102E+03 -0.18030487592E+04  0.18851653125E+04  0.25500000920E-02 0. -1.
</event>
<event>
 5   0  0.5288658E-04  0.1621499E+04  0.7818609E-02  0.8807448E-01
       -1   -1    0    0    0  501  0.00000000000E+00  0.00000000000E+00  0.41180103556E+03  0.41180103559E+03  0.50400001928E-02 0.  1.
        1   -1    0    0  501    0  0.00000000000E+00  0.00000000000E+00 -0.15961951930E+04  0.15961951930E+04  0.50400001928E-02 0. -1.
    10030    2    1    2    0    0  0.00000000000E+00  0.00000000000E+00 -0.11843941574E+04  0.20079962286E+04  0.16214991008E+04 0.  0.
        1    1    3    3  502    0  0.13168603614E+03  0.68998797861E+03 -0.10935259168E+04  0.12997013325E+04  0.50400001928E-02 0. -1.
       -1    1    3    3    0  502 -0.13168603614E+03 -0.68998797861E+03 -0.90868240594E+02  0.70829489615E+03  0.50400001928E-02 0.  1.
</event>
<event>
 5   0  0.9844690E-04  0.1589911E+04  0.7818609E-02  0.8826770E-01
       -2   -1    0    0    0  501  0.00000000000E+00  0.00000000000E+00  0.11002612907E+04  0.11002612907E+04  0.25500000920E-02 0.  1.
        2   -1    0    0  501    0  0.00000000000E+00  0.00000000000E+00 -0.57436767919E+03  0.57436767920E+03  0.25500000920E-02 0. -1.
    10030    2    1    2    0    0  0.00000000000E+00  0.00000000000E+00  0.52589361154E+03  0.16746289699E+04  0.15899113486E+04 0.  0.
        3    1    3    3  502    0  0.28252311994E+03  0.73734024549E+03  0.16604140990E+03  0.80688271200E+03  0.10100000352E+00 0. -1.
       -3    1    3    3    0  502 -0.28252311994E+03 -0.73734024549E+03  0.35985220163E+03  0.86774625793E+03  0.10100000352E+00 0.  1.
</event>
<event>
 5   0  0.1057872E-03  0.1345178E+04  0.7818609E-02  0.8994487E-01
        2   -1    0    0  501    0  0.00000000000E+00  0.00000000000E+00  0.60890284113E+03  0.60890284114E+03  0.25500000920E-02 0.  1.
       -2   -1    0    0    0  501  0.00000000000E+00  0.00000000000E+00 -0.74293565642E+03  0.74293565643E+03  0.25500000920E-02 0. -1.
    10030    2    1    2    0    0  0.00000000000E+00  0.00000000000E+00 -0.13403281529E+03  0.13518384976E+04  0.13451775080E+04 0.  0.
        2    1    3    3  502    0 -0.40889822280E+03  0.12882695302E+03  0.45379831630E+03  0.62428122855E+03  0.25500000920E-02 0.  1.
       -2    1    3    3    0  502  0.40889822280E+03 -0.12882695302E+03 -0.58783113159E+03  0.72755726902E+03  0.25500000920E-02 0. -1.
</event>
<event>
 5   0  0.5288658E-04  0.1616738E+04  0.7818609E-02  0.8810331E-01
       -1   -1    0    0    0  501  0.00000000000E+00  0.00000000000E+00  0.83838439742E+03  0.83838439743E+03  0.50400001928E-02 0.  1.
        1   -1    0    0  501    0  0.00000000000E+00  0.00000000000E+00 -0.77942797916E+03  0.77942797917E+03  0.50400001928E-02 0. -1.
    10030    2    1    2    0    0  0.00000000000E+00  0.00000000000E+00  0.58956418264E+02  0.16178123766E+04  0.16167377730E+04 0.  0.
        1    1    3    3  502    0  0.12759967219E+03  0.39989284473E+02  0.82724046977E+03  0.83797828974E+03  0.50400001928E-02 0.  1.
       -1    1    3    3    0  502 -0.12759967219E+03 -0.39989284473E+02 -0.76828405151E+03  0.77983408687E+03  0.50400001928E-02 0. -1.
</event>
<event>
 5   0  0.1037321E-03  0.1618912E+04  0.7818609E-02  0.8809013E-01
        2   -1    0    0  501    0  0.00000000000E+00  0.00000000000E+00  0.83162222509E+03  0.83162222510E+03  0.25500000920E-02 0.  1.
       -2   -1    0    0    0  501  0.00000000000E+00  0.00000000000E+00 -0.78788052873E+03  0.78788052873E+03  0.25500000920E-02 0. -1.
    10030    2    1    2    0    0  0.00000000000E+00  0.00000000000E+00  0.43741696364E+02  0.16195027538E+04  0.16189119289E+04 0.  0.
        5    1    3    3  502    0 -0.11800582429E+02 -0.65968760989E+03 -0.44720311735E+03  0.79708199989E+03  0.46999998093E+01 0. -1.
       -5    1    3    3    0  502  0.11800582429E+02  0.65968760989E+03  0.49094481371E+03  0.82242075393E+03  0.46999998093E+01 0.  1.
</event>
<event>
 5   0  0.1057872E-03  0.1525524E+04  0.7818609E-02  0.8867655E-01
        2   -1    0    0  501    0  0.00000000000E+00  0.00000000000E+00  0.21578489147E+04  0.21578489147E+04  0.25500000920E-02 0. -1.
       -2   -1    0    0    0  501  0.00000000000E+00  0.00000000000E+00 -0.26962320446E+03  0.26962320447E+03  0.25500000920E-02 0.  1.
    10030    2    1    2    0    0  0.00000000000E+00  0.00000000000E+00  0.18882257103E+04  0.24274721192E+04  0.15255243546E+04 0.  0.
        2    1    3    3  502    0 -0.22713908782E+03 -0.72011712941E+03  0.11158286842E+04  0.13473063860E+04  0.25500000920E-02 0. -1.
       -2    1    3    3    0  502  0.22713908782E+03  0.72011712941E+03  0.77239702613E+03  0.10801657332E+04  0.25500000920E-02 0.  1.
</event>
<event>
 5   0  0.1037321E-03  0.1562054E+04  0.7818609E-02  0.8844205E-01
        2   -1    0    0  501    0  0.00000000000E+00  0.00000000000E+00  0.90531889696E+03  0.90531889696E+03  0.25500000920E-02 0. -1.
       -2   -1    0    0    0  501  0.00000000000E+00  0.00000000000E+00 -0.67379934800E+03  0.67379934801E+03  0.25500000920E-02 0.  1.
    10030    2    1    2    0    0  0.00000000000E+00  0.00000000000E+00  0.23151954896E+03  0.15791182450E+04  0.15620541380E+04 0.  0.
        5    1    3    3  502    0 -0.49823944197E+02 -0.13036824518E+03  0.89259620238E+03  0.90345358224E+03  0.46999998093E+01 0. -1.
       -5    1    3    3    0  502  0.49823944197E+02  0.13036824518E+03 -0.66107665342E+03  0.67566466273E+03  0.46999998093E+01 0.  1.
</event>
<event>
 5   0  0.5288658E-04  0.1566263E+04  0.7818609E-02  0.8841546E-01
       -1   -1    0    0    0  501  0.00000000000E+00  0.00000000000E+00  0.84407789305E+03  0.84407789306E+03  0.50400001928E-02 0.  1.
        1   -1    0    0  501    0  0.00000000000E+00  0.00000000000E+00 -0.72658575293E+03  0.72658575294E+03  0.50400001928E-02 0. -1.
    10030    2    1    2    0    0  0.00000000000E+00  0.00000000000E+00  0.11749214012E+03  0.15706636460E+04  0.15662630322E+04 0.  0.
        1    1    3    3  502    0  0.67997871013E+03 -0.20258825497E+03  0.39116184266E+03  0.81019789833E+03  0.50400001928E-02 0.  1.
       -1    1    3    3    0  502 -0.67997871013E+03  0.20258825497E+03 -0.27366970253E+03  0.76046574768E+03  0.50400001928E-02 0. -1.
</event>
<event>
 5   0  0.1000121E-03  0.1546974E+04  0.7818609E-02  0.8853803E-01
       -2   -1    0    0    0  501  0.00000000000E+00  0.00000000000E+00  0.92012296987E+03  0.92012296988E+03  0.25500000920E-02 0.  1.
        2   -1    0    0  501    0  0.00000000000E+00  0.00000000000E+00 -0.65021994125E+03  0.65021994126E+03  0.25500000920E-02 0. -1.
    10030    2    1    2    0    0  0.00000000000E+00  0.00000000000E+00  0.26990302862E+03  0.15703429111E+04  0.15469742124E+04 0.  0.
        4    1    3    3  502    0  0.69709030600E+03  0.26515248210E+03  0.34308528678E+03  0.82094449288E+03  0.12699999809E+01 0.  1.
       -4    1    3    3    0  502 -0.69709030600E+03 -0.26515248210E+03 -0.73182258158E+02  0.74939841826E+03  0.12699999809E+01 0. -1.
</event>
<event>
 5   0  0.9844690E-04  0.1761977E+04  0.7818609E-02  0.8726785E-01
       -2   -1    0    0    0  501  0.00000000000E+00  0.00000000000E+00  0.57912541090E+03  0.57912541090E+03  0.25500000920E-02 0.  1.
        2   -1    0    0  501    0  0.00000000000E+00  0.00000000000E+00 -0.13401939773E+04  0.13401939773E+04  0.25500000920E-02 0. -1.
    10030    2    1    2    0    0  0.00000000000E+00  0.00000000000E+00 -0.76106856643E+03  0.19193193882E+04  0.17619766035E+04 0.  0.
        3    1    3    3  502    0 -0.73428813797E+02 -0.33484866634E+02  0.57509040181E+03  0.58072541484E+03  0.10100000352E+00 0.  1.
       -3    1    3    3    0  502  0.73428813797E+02  0.33484866634E+02 -0.13361589682E+04  0.13385939734E+04  0.10100000352E+00 0. -1.
</event>
<event>
 5   0  0.1037321E-03  0.1610173E+04  0.7818609E-02  0.8814322E-01
        2   -1    0    0  501    0  0.00000000000E+00  0.00000000000E+00  0.73975795482E+03  0.73975795483E+03  0.25500000920E-02 0.  1.
       -2   -1    0    0    0  501  0.00000000000E+00  0.00000000000E+00 -0.87618471052E+03  0.87618471052E+03  0.25500000920E-02 0. -1.
    10030    2    1    2    0    0  0.00000000000E+00  0.00000000000E+00 -0.13642675569E+03  0.16159426653E+04  0.16101734186E+04 0.  0.
        5    1    3    3  502    0 -0.16593926386E+03  0.55007549987E+03  0.49774303644E+03  0.76019018355E+03  0.46999998093E+01 0.  1.
       -5    1    3    3    0  502  0.16593926386E+03 -0.55007549987E+03 -0.63416979213E+03  0.85575248179E+03  0.46999998093E+01 0. -1.
</event>
<event>
 5   0  0.9844690E-04  0.1618080E+04  0.7818609E-02  0.8809517E-01
        2   -1    0    0  501    0  0.00000000000E+00  0.00000000000E+00  0.13809730827E+04  0.13809730827E+04  0.25500000920E-02 0. -1.
       -2   -1    0    0    0  501  0.00000000000E+00  0.00000000000E+00 -0.47397434068E+03  0.47397434068E+03  0.25500000920E-02 0.  1.
    10030    2    1    2    0    0  0.00000000000E+00  0.00000000000E+00  0.90699874201E+03  0.18549474234E+04  0.16180801048E+04 0.  0.
        3    1    3    3  502    0 -0.23882221140E+03  0.72634958779E+02 -0.42872331606E+03  0.49610037072E+03  0.10100000352E+00 0.  1.
       -3    1    3    3    0  502  0.23882221140E+03 -0.72634958779E+02  0.13357220581E+04  0.13588470527E+04  0.10100000352E+00 0. -1.
</event>
<event>
 5   0  0.5623061E-04  0.1581745E+04  0.7818609E-02  0.8831842E-01
       -1   -1    0    0    0  501  0.00000000000E+00  0.00000000000E+00  0.80830011572E+03  0.80830011574E+03  0.50400001928E-02 0.  1.
        1   -1    0    0  501    0  0.00000000000E+00  0.00000000000E+00 -0.77382040218E+03  0.77382040220E+03  0.50400001928E-02 0. -1.
    10030    2    1    2    0    0  0.00000000000E+00  0.00000000000E+00  0.34479713537E+02  0.15821205179E+04  0.15817447590E+04 0.  0.
        3    1    3    3  502    0  0.63891633033E+03 -0.82115101806E+02 -0.44169606296E+03  0.78105850571E+03  0.10100000352E+00 0. -1.
       -3    1    3    3    0  502 -0.63891633033E+03  0.82115101806E+02  0.47617577650E+03  0.80106201222E+03  0.10100000352E+00 0.  1.
</event>
<event>
 5   0  0.5623061E-04  0.1543064E+04  0.7818609E-02  0.8856310E-01
       -1   -1    0    0    0  501  0.00000000000E+00  0.00000000000E+00  0.67656947323E+03  0.67656947325E+03  0.50400001928E-02 0. -1.
        1   -1    0    0  501    0  0.00000000000E+00  0.00000000000E+00 -0.87982344034E+03  0.87982344036E+03  0.50400001928E-02 0.  1.
    10030    2    1    2    0    0  0.00000000000E+00  0.00000000000E+00 -0.20325396711E+03  0.15563929136E+04  0.15430640707E+04 0.  0.
        3    1    3    3  502    0 -0.16182601013E+03  0.73762340950E+03 -0.26106108428E+03  0.79901742892E+03  0.10100000352E+00 0. -1.
       -3    1    3    3    0  502  0.16182601013E+03 -0.73762340950E+03  0.57807117167E+02  0.75737548468E+03  0.10100000352E+00 0.  1.
</event>
<event>
 5   0  0.1000121E-03  0.1601406E+04  0.7818609E-02  0.8819684E-01
        2   -1    0    0  501    0  0.00000000000E+00  0.00000000000E+00  0.81555067411E+03  0.81555067411E+03  0.25500000920E-02 0.  1.
       -2   -1    0    0    0  501  0.00000000000E+00  0.00000000000E+00 -0.78612609081E+03  0.78612609081E+03  0.25500000920E-02 0. -1.
    10030    2    1    2    0    0  0.00000000000E+00  0.00000000000E+00  0.29424583298E+02  0.16016767649E+04  0.16014064610E+04 0.  0.
        4    1    3    3  502    0 -0.41705283688E+03 -0.24747563053E+03  0.65195937585E+03  0.81254532004E+03  0.12699999809E+01 0.  1.
       -4    1    3    3    0  502  0.41705283688E+03  0.24747563053E+03 -0.62253479256E+03  0.78913144488E+03  0.12699999809E+01 0. -1.
</event>
<event>
 5   0  0.5425525E-04  0.1607102E+04  0.7818609E-02  0.8816197E-01
       -1   -1    0    0    0  501  0.00000000000E+00  0.00000000000E+00  0.25632491658E+03  0.25632491663E+03  0.50400001928E-02 0.  1.
        1   -1    0    0  501    0  0.00000000000E+00  0.00000000000E+00 -0.25190449923E+04  0.25190449923E+04  0.50400001928E-02 0. -1.
    10030    2    1    2    0    0  0.00000000000E+00  0.00000000000E+00 -0.22627200757E+04  0.27753699089E+04  0.16071017362E+04 0.  0.
        5    1    3    3  502    0 -0.23278460313E+03  0.68903179582E+03 -0.17213535092E+04  0.18686983386E+04  0.46999998093E+01 0. -1.
       -5    1    3    3    0  502  0.23278460313E+03 -0.68903179582E+03 -0.54136656654E+03  0.90667157034E+03  0.46999998093E+01 0.  1.
</event>
<event>
 5   0  0.3832500E-04  0.1570088E+04  0.7818609E-02  0.8839138E-01
       -3   -1    0    0    0  501  0.00000000000E+00  0.00000000000E+00  0.95647107353E+03  0.95647107886E+03  0.10100000352E+00 0.  1.
        3   -1    0    0  501    0  0.00000000000E+00  0.00000000000E+00 -0.64434127576E+03  0.64434128368E+03  0.10100000352E+00 0. -1.
    10030    2    1    2    0    0  0.00000000000E+00  0.00000000000E+00  0.31212979777E+03  0.16008123625E+04  0.15700876439E+04 0.  0.
        4    1    3    3  502    0 -0.27746420123E+03 -0.30401376774E+03 -0.52550859167E+03  0.66751153306E+03  0.12699999809E+01 0.  1.
       -4    1    3    3    0  502  0.27746420123E+03  0.30401376774E+03  0.83763838944E+03  0.93330082948E+03  0.12699999809E+01 0. -1.
</event>
<event>
 5   0  0.5623061E-04  0.1583374E+04  0.7818609E-02  0.8830827E-01
       -1   -1    0    0    0  501  0.00000000000E+00  0.00000000000E+00  0.34828861502E+03  0.34828861506E+03  0.50400001928E-02 0. -1.
        1   -1    0    0  501    0  0.00000000000E+00  0.00000000000E+00 -0.17995663702E+04  0.17995663703E+04  0.50400001928E-02 0.  1.
    10030    2    1    2    0    0  0.00000000000E+00  0.00000000000E+00 -0.14512777552E+04  0.21478549853E+04  0.15833742183E+04 0.  0.
        3    1    3    3  502    0 -0.34713463490E+03 -0.43761730091E+03  0.35404064703E+02  0.55970064750E+03  0.10100000352E+00 0. -1.
       -3    1    3    3    0  502  0.34713463490E+03  0.43761730091E+03 -0.14866818199E+04  0.15881543378E+04  0.10100000352E+00 0.  1.
</event>
<event>
 5   0  0.5425525E-04  0.1608559E+04  0.7818609E-02  0.8815307E-01
        1   -1    0    0  501    0  0.00000000000E+00  0.00000000000E+00  0.10048913225E+04  0.10048913225E+04  0.50400001928E-02 0. -1.
       -1   -1    0    0    0  501  0.00000000000E+00  0.00000000000E+00 -0.64371711081E+03  0.64371711083E+03  0.50400001928E-02 0.  1.
    10030    2    1    2    0    0  0.00000000000E+00  0.00000000000E+00  0.36117421170E+03  0.16486084334E+04  0.16085592794E+04 0.  0.
        5    1    3    3  502    0  0.12522482510E+03 -0.63714771653E+03  0.66696030290E+03  0.93085799408E+03  0.46999998093E+01 0. -1.
       -5    1    3    3    0  502 -0.12522482510E+03  0.63714771653E+03 -0.30578609120E+03  0.71775043927E+03  0.46999998093E+01 0.  1.
</event>
<event>
 5   0  0.5623061E-04  0.1583300E+04  0.7818609E-02  0.8830874E-01
       -1   -1    0    0    0  501  0.00000000000E+00  0.00000000000E+00  0.56393841933E+03  0.56393841936E+03  0.50400001928E-02 0.  1.
        1   -1    0    0  501    0  0.00000000000E+00  0.00000000000E+00 -0.11113083727E+04  0.11113083727E+04  0.50400001928E-02 0. -1.
    10030    2    1    2    0    0  0.00000000000E+00  0.00000000000E+00 -0.54736995338E+03  0.16752467921E+04  0.15832997027E+04 0.  0.
        3    1    3    3  502    0  0.36935726660E+03  0.60962257817E+03 -0.63813701437E+03  0.95670441492E+03  0.10100000352E+00 0. -1.
       -3    1    3    3    0  502 -0.36935726660E+03 -0.60962257817E+03  0.90767060992E+02  0.71854237716E+03  0.10100000352E+00 0.  1.
</event>
<event>
 5   0  0.1030027E-03  0.1601673E+04  0.7818609E-02  0.8819521E-01
        2   -1    0    0  501    0  0.00000000000E+00  0.00000000000E+00  0.11783731390E+04  0.11783731390E+04  0.25500000920E-02 0. -1.
       -2   -1    0    0    0  501  0.00000000000E+00  0.00000000000E+00 -0.54425819864E+03  0.54425819865E+03  0.25500000920E-02 0.  1.
    10030    2    1    2    0    0  0.00000000000E+00  0.00000000000E+00  0.63411494034E+03  0.17226313376E+04  0.16016731776E+04 0.  0.
        1    1    3    3  502    0  0.63884129506E+03 -0.27686090277E+03  0.74262789965E+03  0.10179716878E+04  0.50400001928E-02 0. -1.
       -1    1    3    3    0  502 -0.63884129506E+03  0.27686090277E+03 -0.10851295932E+03  0.70465964985E+03  0.50400001928E-02 0.  1.
</event>
<event>
 5   0  0.5281116E-04  0.1597659E+04  0.7818609E-02  0.8821988E-01
       -1   -1    0    0    0  501  0.00000000000E+00  0.00000000000E+00  0.73661493060E+03  0.73661493062E+03  0.50400001928E-02 0. -1.
        1   -1    0    0  501    0  0.00000000000E+00  0.00000000000E+00 -0.86629847125E+03  0.86629847126E+03  0.50400001928E-02 0.  1.
    10030    2    1    2    0    0  0.00000000000E+00  0.00000000000E+00 -0.12968354065E+03  0.16029134019E+04  0.15976587725E+04 0.  0.
        2    1    3    3  502    0  0.15854712230E+03  0.60139341227E+03 -0.56780600635E+03  0.84214896970E+03  0.25500000920E-02 0.  1.
       -2    1    3    3    0  502 -0.15854712230E+03 -0.60139341227E+03  0.43812246570E+03  0.76076443218E+03  0.25500000920E-02 0. -1.
</event>
<event>
 5   0  0.5623061E-04  0.1549523E+04  0.7818609E-02  0.8852173E-01
        1   -1    0    0  501    0  0.00000000000E+00  0.00000000000E+00  0.11092336868E+04  0.11092336868E+04  0.50400001928E-02 0.  1.
       -1   -1    0    0    0  501  0.00000000000E+00  0.00000000000E+00 -0.54114400696E+03  0.54114400699E+03  0.50400001928E-02 0. -1.
    10030    2    1    2    0    0  0.00000000000E+00  0.00000000000E+00  0.56808967983E+03  0.16503776938E+04  0.15495227161E+04 0.  0.
        3    1    3    3  502    0  0.74700260937E+03  0.20259931249E+03  0.32087550617E+03  0.83786662452E+03  0.10100000352E+00 0.  1.
       -3    1    3    3    0  502 -0.74700260937E+03 -0.20259931249E+03  0.24721417366E+03  0.81251106927E+03  0.10100000352E+00 0. -1.
</event>
<event>
 5   0  0.5281116E-04  0.1598321E+04  0.7818609E-02  0.8821580E-01
       -1   -1    0    0    0  501  0.00000000000E+00  0.00000000000E+00  0.64479298503E+03  0.64479298505E+03  0.50400001928E-02 0.  1.
        1   -1    0    0  501    0  0.00000000000E+00  0.00000000000E+00 -0.99048474998E+03  0.99048474999E+03  0.50400001928E-02 0. -1.
    10030    2    1    2    0    0  0.00000000000E+00  0.00000000000E+00 -0.34569176495E+03  0.16352777350E+04  0.15983211424E+04 0.  0.
        2    1    3    3  502    0 -0.71148472708E+03  0.30034868160E+03  0.37424437687E+02  0.77318848669E+03  0.25500000920E-02 0.  1.
       -2    1    3    3    0  502  0.71148472708E+03 -0.30034868160E+03 -0.38311620264E+03  0.86208924836E+03  0.25500000920E-02 0. -1.
</event>
<event>
 5   0  0.5623061E-04  0.1619806E+04  0.7818609E-02  0.8808472E-01
        1   -1    0    0  501    0  0.00000000000E+00  0.00000000000E+00  0.33997886367E+03  0.33997886370E+03  0.50400001928E-02 0. -1.
       -1   -1    0    0    0  501  0.00000000000E+00  0.00000000000E+00 -0.19293631105E+04  0.19293631106E+04  0.50400001928E-02 0.  1.
    10030    2    1    2    0    0  0.00000000000E+00  0.00000000000E+00 -0.15893842469E+04  0.22693419743E+04  0.16198057636E+04 0.  0.
        3    1    3    3  502    0 -0.15028537696E+03  0.68025408379E+03 -0.13733754533E+04  0.15399647590E+04  0.10100000352E+00 0.  1.
       -3    1    3    3    0  502  0.15028537696E+03 -0.68025408379E+03 -0.21600879360E+03  0.72937721527E+03  0.10100000352E+00 0. -1.
</event>
<event>
 5   0  0.1037321E-03  0.1341948E+04  0.7818609E-02  0.8996946E-01
        2   -1    0    0  501    0  0.00000000000E+00  0.00000000000E+00  0.64264898815E+03  0.64264898815E+03  0.25500000920E-02 0.  1.
       -2   -1    0    0    0  501  0.00000000000E+00  0.00000000000E+00 -0.70054723609E+03  0.70054723609E+03  0.25500000920E-02 0. -1.
    10030    2    1    2    0    0  0.00000000000E+00  0.00000000000E+00 -0.57898247941E+02  0.13431962242E+04  0.13419477969E+04 0.  0.
        5    1    3    3  502    0 -0.38495262583E+03 -0.51000713297E+03  0.17590706135E+03  0.66276782062E+03  0.46999998093E+01 0.  1.
       -5    1    3    3    0  502  0.38495262583E+03  0.51000713297E+03 -0.23380530929E+03  0.68042840363E+03  0.46999998093E+01 0. -1.
</event>
<event>
 5   0  0.1030027E-03  0.1755085E+04  0.7818609E-02  0.8730556E-01
        2   -1    0    0  501    0  0.00000000000E+00  0.00000000000E+00  0.21138520677E+04  0.21138520677E+04  0.25500000920E-02 0. -1.
       -2   -1    0    0    0  501  0.00000000000E+00  0.00000000000E+00 -0.36430210389E+03  0.36430210390E+03  0.25500000920E-02 0.  1.
    10030    2    1    2    0    0  0.00000000000E+00  0.00000000000E+00  0.17495499638E+04  0.24781541716E+04  0.17550849046E+04 0.  0.
        1    1    3    3  502    0  0.84706996196E+03  0.22396214245E+03  0.94386413175E+03  0.12878532762E+04  0.50400001928E-02 0.  1.
       -1    1    3    3    0  502 -0.84706996196E+03 -0.22396214245E+03  0.80568583208E+03  0.11903008955E+04  0.50400001928E-02 0. -1.
</event>
<event>
 5   0  0.5288658E-04  0.1590797E+04  0.7818609E-02  0.8826222E-01
       -1   -1    0    0    0  501  0.00000000000E+00  0.00000000000E+00  0.89882514417E+03  0.89882514419E+03  0.50400001928E-02 0. -1.
        1   -1    0    0  501    0  0.00000000000E+00  0.00000000000E+00 -0.70387310848E+03  0.70387310850E+03  0.50400001928E-02 0.  1.
    10030    2    1    2    0    0  0.00000000000E+00  0.00000000000E+00  0.19495203569E+03  0.16026982527E+04  0.15907970936E+04 0.  0.
        1    1    3    3  502    0 -0.55041386166E+03  0.49007067886E+03  0.39893716920E+03  0.83801882698E+03  0.50400001928E-02 0.  1.
       -1    1    3    3    0  502  0.55041386166E+03 -0.49007067886E+03 -0.20398513351E+03  0.76467942571E+03  0.50400001928E-02 0. -1.
</event>
<event>
 5   0  0.1057872E-03  0.1591832E+04  0.7818609E-02  0.8825582E-01
        2   -1    0    0  501    0  0.00000000000E+00  0.00000000000E+00  0.11743214615E+04  0.11743214615E+04  0.25500000920E-02 0. -1.
       -2   -1    0    0    0  501  0.00000000000E+00  0.00000000000E+00 -0.53944521924E+03  0.53944521925E+03  0.25500000920E-02 0.  1.
    10030    2    1    2    0    0  0.00000000000E+00  0.00000000000E+00  0.63487624223E+03  0.17137666807E+04  0.15918317728E+04 0.  0.
        2    1    3    3  502    0 -0.18515545160E+03  0.10533773293E+03 -0.50818417958E+03  0.55102607889E+03  0.25500000920E-02 0.  1.
       -2    1    3    3    0  502  0.18515545160E+03 -0.10533773293E+03  0.11430604218E+04  0.11627406018E+04  0.25500000920E-02 0. -1.
</event>
<event>
 5   0  0.1037321E-03  0.1909553E+04  0.7818609E-02  0.8650116E-01
       -2   -1    0    0    0  501  0.00000000000E+00  0.00000000000E+00  0.56912132315E+03  0.56912132316E+03  0.25500000920E-02 0.  1.
        2   -1    0    0  501    0  0.00000000000E+00  0.00000000000E+00 -0.16017640333E+04  0.16017640333E+04  0.25500000920E-02 0. -1.
    10030    2    1    2    0    0  0.00000000000E+00  0.00000000000E+00 -0.10326427101E+04  0.21708853564E+04  0.19095528964E+04 0.  0.
        5    1    3    3  502    0  0.72328769862E+03 -0.37170506538E+03 -0.10850515910E+04  0.13559752194E+04  0.46999998093E+01 0. -1.
       -5    1    3    3    0  502 -0.72328769862E+03  0.37170506538E+03  0.52408880861E+02  0.81491013701E+03  0.46999998093E+01 0.  1.
</event>
<event>
 5   0  0.5281116E-04  0.1583712E+04  0.7818609E-02  0.8830617E-01
        1   -1    0    0  501    0  0.00000000000E+00  0.00000000000E+00  0.10029812744E+04  0.10029812744E+04  0.50400001928E-02 0. -1.
       -1   -1    0    0    0  501  0.00000000000E+00  0.00000000000E+00 -0.62517205150E+03  0.62517205152E+03  0.50400001928E-02 0.  1.
    10030    2    1    2    0    0  0.00000000000E+00  0.00000000000E+00  0.37780922293E+03  0.16281533260E+04  0.15837119195E+04 0.  0.
        2    1    3    3  502    0 -0.42258053650E+03  0.48095951862E+03  0.66796308320E+03  0.92524107610E+03  0.25500000920E-02 0. -1.
       -2    1    3    3    0  502  0.42258053650E+03 -0.48095951862E+03 -0.29015386027E+03  0.70291224987E+03  0.25500000920E-02 0.  1.
</event>
<event>
 5   0  0.1057872E-03  0.1615914E+04  0.7818609E-02  0.8810831E-01
       -2   -1    0    0    0  501  0.00000000000E+00  0.00000000000E+00  0.50866248092E+03  0.50866248092E+03  0.25500000920E-02 0. -1.
        2   -1    0    0  501    0  0.00000000000E+00  0.00000000000E+00 -0.12833552730E+04  0.12833552730E+04  0.25500000920E-02 0.  1.
    10030    2    1    2    0    0  0.00000000000E+00  0.00000000000E+00 -0.77469279207E+03  0.17920177539E+04  0.16159142020E+04 0.  0.
        2    1    3    3  502    0 -0.67014912848E+02  0.23961791833E+03 -0.12398107004E+04  0.12645308688E+04  0.25500000920E-02 0.  1.
       -2    1    3    3    0  502  0.67014912848E+02 -0.23961791833E+03  0.46511790832E+03  0.52748688512E+03  0.25500000920E-02 0. -1.
</event>
<event>
 5   0  0.9844690E-04  0.1572435E+04  0.7818609E-02  0.8837664E-01
        2   -1    0    0  501    0  0.00000000000E+00  0.00000000000E+00  0.56607966743E+03  0.56607966744E+03  0.25500000920E-02 0. -1.
       -2   -1    0    0    0  501  0.00000000000E+00  0.00000000000E+00 -0.10919625435E+04  0.10919625435E+04  0.25500000920E-02 0.  1.
    10030    2    1    2    0    0  0.00000000000E+00  0.00000000000E+00 -0.52588287607E+03  0.16580422109E+04  0.15724347916E+04 0.  0.
        3    1    3    3  502    0 -0.25961652284E+03 -0.31424195791E+03  0.44596168320E+03  0.60417760644E+03  0.10100000352E+00 0. -1.
       -3    1    3    3    0  502  0.25961652284E+03  0.31424195791E+03 -0.97184455927E+03  0.10538646045E+04  0.10100000352E+00 0.  1.
</event>
<event>
 5   0  0.5425525E-04  0.1561238E+04  0.7818609E-02  0.8844721E-01
       -1   -1    0    0    0  501  0.00000000000E+00  0.00000000000E+00  0.66087056863E+03  0.66087056865E+03  0.50400001928E-02 0. -1.
        1   -1    0    0  501    0  0.00000000000E+00  0.00000000000E+00 -0.92206540900E+03  0.92206540902E+03  0.50400001928E-02 0.  1.
    10030    2    1    2    0    0  0.00000000000E+00  0.00000000000E+00 -0.26119484037E+03  0.15829359777E+04  0.15612378309E+04 0.  0.
        5    1    3    3  502    0 -0.40248292903E+02 -0.41869479391E+03 -0.79732195902E+03  0.90148191988E+03  0.46999998093E+01 0.  1.
       -5    1    3    3    0  502  0.40248292903E+02  0.41869479391E+03  0.53612711865E+03  0.68145405779E+03  0.46999998093E+01 0. -1.
</event>
<event>
 5   0  0.5425525E-04  0.1587139E+04  0.7818609E-02  0.8828488E-01
        1   -1    0    0  501    0  0.00000000000E+00  0.00000000000E+00  0.59587983248E+03  0.59587983250E+03  0.50400001928E-02 0.  1.
       -1   -1    0    0    0  501  0.00000000000E+00  0.00000000000E+00 -0.10568448682E+04  0.10568448683E+04  0.50400001928E-02 0. -1.
    10030    2    1    2    0    0  0.00000000000E+00  0.00000000000E+00 -0.46096503577E+03  0.16527247008E+04  0.15871389896E+04 0.  0.
        5    1    3    3  502    0  0.34657763564E+03  0.70883302035E+03 -0.14230669512E+03  0.80176904014E+03  0.46999998093E+01 0. -1.
       -5    1    3    3    0  502 -0.34657763564E+03 -0.70883302035E+03 -0.31865834065E+03  0.85095566061E+03  0.46999998093E+01 0.  1.
</event>
<event>
 5   0  0.1030027E-03  0.1540633E+04  0.7818609E-02  0.8857873E-01
       -2   -1    0    0    0  501  0.00000000000E+00  0.00000000000E+00  0.68685256949E+03  0.68685256949E+03  0.25500000920E-02 0. -1.
        2   -1    0    0  501    0  0.00000000000E+00  0.00000000000E+00 -0.86392246494E+03  0.86392246495E+03  0.25500000920E-02 0.  1.
    10030    2    1    2    0    0  0.00000000000E+00  0.00000000000E+00 -0.17706989545E+03  0.15507750344E+04  0.15406328114E+04 0.  0.
        1    1    3    3  502    0 -0.45237153413E+03 -0.33937951512E+03  0.43794644135E+03  0.71527305674E+03  0.50400001928E-02 0. -1.
       -1    1    3    3    0  502  0.45237153413E+03  0.33937951512E+03 -0.61501633681E+03  0.83550197770E+03  0.50400001928E-02 0.  1.
</event>
<event>
 5   0  0.5532881E-04  0.1605177E+04  0.7818609E-02  0.8817374E-01
        1   -1    0    0  501    0  0.00000000000E+00  0.00000000000E+00  0.72026983089E+03  0.72026983091E+03  0.50400001928E-02 0.  1.
       -1   -1    0    0    0  501  0.00000000000E+00  0.00000000000E+00 -0.89431515636E+03  0.89431515638E+03  0.50400001928E-02 0. -1.
    10030    2    1    2    0    0  0.00000000000E+00  0.00000000000E+00 -0.17404532547E+03  0.16145849873E+04  0.16051769080E+04 0.  0.
        4    1    3    3  502    0  0.43077418109E+03 -0.19697381293E+03 -0.73872559124E+03  0.87754326966E+03  0.12699999809E+01 0. -1.
       -4    1    3    3    0  502 -0.43077418109E+03  0.19697381293E+03  0.56468026577E+03  0.73704171762E+03  0.12699999809E+01 0.  1.
</event>
<event>
 5   0  0.5281116E-04  0.1557188E+04  0.7818609E-02  0.8847290E-01
       -1   -1    0    0    0  501  0.00000000000E+00  0.00000000000E+00  0.45906147675E+03  0.45906147678E+03  0.50400001928E-02 0.  1.
        1   -1    0    0  501    0  0.00000000000E+00  0.00000000000E+00 -0.13205388894E+04  0.13205388894E+04  0.50400001928E-02 0. -1.
    10030    2    1    2    0    0  0.00000000000E+00  0.00000000000E+00 -0.86147741269E+03  0.17796003662E+04  0.15571878920E+04 0.  0.
        2    1    3    3  502    0  0.69365056884E+02  0.30726540554E+02  0.45482730996E+03  0.46111117239E+03  0.25500000920E-02 0.  1.
       -2    1    3    3    0  502 -0.69365056884E+02 -0.30726540554E+02 -0.13163047226E+04  0.13184891938E+04  0.25500000920E-02 0. -1.
</event>
<event>
 5   0  0.1000121E-03  0.1632319E+04  0.7818609E-02  0.8800935E-01
        2   -1    0    0  501    0  0.00000000000E+00  0.00000000000E+00  0.14816758253E+04  0.14816758253E+04  0.25500000920E-02 0.  1.
       -2   -1    0    0    0  501  0.00000000000E+00  0.00000000000E+00 -0.44956977623E+03  0.44956977623E+03  0.25500000920E-02 0. -1.
    10030    2    1    2    0    0  0.00000000000E+00  0.00000000000E+00  0.10321060491E+04  0.19312456016E+04  0.16323194163E+04 0.  0.
        4    1    3    3  502    0  0.45293470194E+03  0.46954919025E+03 -0.64149697117E+02  0.65554792566E+03  0.12699999809E+01 0. -1.
       -4    1    3    3    0  502 -0.45293470194E+03 -0.46954919025E+03  0.10962557462E+04  0.12756976759E+04  0.12699999809E+01 0.  1.
</event>
<event>
 5   0  0.1057872E-03  0.1608005E+04  0.7818609E-02  0.8815645E-01
       -2   -1    0    0    0  501  0.00000000000E+00  0.00000000000E+00  0.71944975139E+03  0.71944975140E+03  0.25500000920E-02 0. -1.
        2   -1    0    0  501    0  0.00000000000E+00  0.00000000000E+00 -0.89849248185E+03  0.89849248185E+03  0.25500000920E-02 0.  1.
    10030    2    1    2    0    0  0.00000000000E+00  0.00000000000E+00 -0.17904273045E+03  0.16179422332E+04  0.16080052148E+04 0.  0.
        2    1    3    3  502    0 -0.72834689474E+03 -0.33761916175E+03 -0.45154712468E+02  0.80406146875E+03  0.25500000920E-02 0. -1.
       -2    1    3    3    0  502  0.72834689474E+03  0.33761916175E+03 -0.13388801799E+03  0.81388076450E+03  0.25500000920E-02 0.  1.
</event>
<event>
 5   0  0.9844690E-04  0.1594629E+04  0.7818609E-02  0.8823855E-01
       -2   -1    0    0    0  501  0.00000000000E+00  0.00000000000E+00  0.13524885125E+04  0.13524885125E+04  0.25500000920E-02 0.  1.
        2   -1    0    0  501    0  0.00000000000E+00  0.00000000000E+00 -0.47003001700E+03  0.47003001701E+03  0.25500000920E-02 0. -1.
    10030    2    1    2    0    0  0.00000000000E+00  0.00000000000E+00  0.88245849545E+03  0.18225185295E+04  0.15946287324E+04 0.  0.
        3    1    3    3  502    0 -0.44479855074E+03 -0.66123306612E+03  0.41242268206E+03  0.89731120430E+03  0.10100000352E+00 0. -1.
       -3    1    3    3    0  502  0.44479855074E+03  0.66123306612E+03  0.47003581339E+03  0.92520732517E+03  0.10100000352E+00 0.  1.
</event>
<event>
 5   0  0.3832500E-04  0.1709019E+04  0.7818609E-02  0.8756237E-01
        4   -1    0    0  501    0  0.00000000000E+00  0.00000000000E+00  0.79710280831E+03  0.79710382003E+03  0.12699999809E+01 0.  1.
       -4   -1    0    0    0  501  0.00000000000E+00  0.00000000000E+00 -0.91604850947E+03  0.91604938983E+03  0.12699999809E+01 0. -1.
    10030    2    1    2    0    0  0.00000000000E+00  0.00000000000E+00 -0.11894570117E+03  0.17131532099E+04  0.17090189702E+04 0.  0.
        4    1    3    3  502    0 -0.66875154654E+03  0.35142459442E+03 -0.45975947233E+03  0.88436884944E+03  0.12699999809E+01 0. -1.
       -4    1    3    3    0  502  0.66875154654E+03 -0.35142459442E+03  0.34081377117E+03  0.82878436042E+03  0.12699999809E+01 0.  1.
</event>
<event>
 5   0  0.1000121E-03  0.1525265E+04  0.7818609E-02  0.8867824E-01
       -2   -1    0    0    0  501  0.00000000000E+00  0.00000000000E+00  0.43679517230E+03  0.43679517231E+03  0.25500000920E-02 0.  1.
        2   -1    0    0  501    0  0.00000000000E+00  0.00000000000E+00 -0.13315353145E+04  0.13315353145E+04  0.25500000920E-02 0. -1.
    10030    2    1    2    0    0  0.00000000000E+00  0.00000000000E+00 -0.89474014215E+03  0.17683304868E+04  0.15252648257E+04 0.  0.
        4    1    3    3  502    0  0.72971821179E+03 -0.80190006408E+02 -0.20783537424E+03  0.76296543921E+03  0.12699999809E+01 0.  1.
       -4    1    3    3    0  502 -0.72971821179E+03  0.80190006408E+02 -0.68690476792E+03  0.10053650476E+04  0.12699999809E+01 0. -1.
</event>
<event>
 5   0  0.9844690E-04  0.1622501E+04  0.7818609E-02  0.8806843E-01
        2   -1    0    0  501    0  0.00000000000E+00  0.00000000000E+00  0.10670845148E+04  0.10670845148E+04  0.25500000920E-02 0. -1.
       -2   -1    0    0    0  501  0.00000000000E+00  0.00000000000E+00 -0.61675246281E+03  0.61675246282E+03  0.25500000920E-02 0.  1.
    10030    2    1    2    0    0  0.00000000000E+00  0.00000000000E+00  0.45033205200E+03  0.16838369776E+04  0.16225005424E+04 0.  0.
        3    1    3    3  502    0  0.38681359815E+03 -0.65698823909E+03 -0.62567138046E+02  0.76496598812E+03  0.10100000352E+00 0. -1.
       -3    1    3    3    0  502 -0.38681359815E+03  0.65698823909E+03  0.51289919005E+03  0.91887098952E+03  0.10100000352E+00 0.  1.
</event>
<event>
 5   0  0.5623061E-04  0.1599676E+04  0.7818609E-02  0.8820747E-01
        1   -1    0    0  501    0  0.00000000000E+00  0.00000000000E+00  0.12151060569E+04  0.12151060569E+04  0.50400001928E-02 0. -1.
       -1   -1    0    0    0  501  0.00000000000E+00  0.00000000000E+00 -0.52648993016E+03  0.52648993019E+03  0.50400001928E-02 0.  1.
    10030    2    1    2    0    0  0.00000000000E+00  0.00000000000E+00  0.68861612673E+03  0.17415959871E+04  0.15996763461E+04 0.  0.
        3    1    3    3  502    0  0.10740500207E+02  0.16525248516E+03 -0.50762127625E+03  0.53395047757E+03  0.10100000352E+00 0.  1.
       -3    1    3    3    0  502 -0.10740500207E+02 -0.16525248516E+03  0.11962374030E+04  0.12076455095E+04  0.10100000352E+00 0. -1.
</event>
<event>
 5   0  0.9844690E-04  0.1603691E+04  0.7818609E-02  0.8818284E-01
       -2   -1    0    0    0  501  0.00000000000E+00  0.00000000000E+00  0.91398439456E+03  0.91398439456E+03  0.25500000920E-02 0. -1.
        2   -1    0    0  501    0  0.00000000000E+00  0.00000000000E+00 -0.70346477538E+03  0.70346477538E+03  0.25500000920E-02 0.  1.
    10030    2    1    2    0    0  0.00000000000E+00  0.00000000000E+00  0.21051961918E+03  0.16174491699E+04  0.16036905273E+04 0.  0.
        3    1    3    3  502    0  0.58653125791E+03  0.26565408930E+03  0.58723497785E+03  0.87145621869E+03  0.10100000352E+00 0. -1.
       -3    1    3    3    0  502 -0.58653125791E+03 -0.26565408930E+03 -0.37671535867E+03  0.74599295126E+03  0.10100000352E+00 0.  1.
</event>
<event>
 5   0  0.5281116E-04  0.1615499E+04  0.7818609E-02  0.8811082E-01
        1   -1    0    0  501    0  0.00000000000E+00  0.00000000000E+00  0.90288982688E+03  0.90288982689E+03  0.50400001928E-02 0.  1.
       -1   -1    0    0    0  501  0.00000000000E+00  0.00000000000E+00 -0.72263455592E+03  0.72263455594E+03  0.50400001928E-02 0. -1.
    10030    2    1    2    0    0  0.00000000000E+00  0.00000000000E+00  0.18025527095E+03  0.16255243828E+04  0.16154991664E+04 0.  0.
        2    1    3    3  502    0 -0.51897319171E+03  0.60638279147E+03 -0.34845072880E+02  0.79890390074E+03  0.25500000920E-02 0. -1.
       -2    1    3    3    0  502  0.51897319171E+03 -0.60638279147E+03  0.21510034383E+03  0.82662048210E+03  0.25500000920E-02 0.  1.
</event>
<event>
 5   0  0.5288658E-04  0.1590373E+04  0.7818609E-02  0.8826484E-01
       -1   -1    0    0    0  501  0.00000000000E+00  0.00000000000E+00  0.32130612907E+03  0.32130612911E+03  0.50400001928E-02 0. -1.
        1   -1    0    0  501    0  0.00000000000E+00  0.00000000000E+00 -0.19679728184E+04  0.19679728184E+04  0.50400001928E-02 0.  1.
    10030    2    1    2    0    0  0.00000000000E+00  0.00000000000E+00 -0.16466666893E+04  0.22892789475E+04  0.15903731995E+04 0.  0.
        1    1    3    3  502    0 -0.71388113298E+03 -0.32554810267E+03 -0.63723675013E+03  0.10107811410E+04  0.50400001928E-02 0.  1.
       -1    1    3    3    0  502  0.71388113298E+03  0.32554810267E+03 -0.10094299392E+04  0.12784978066E+04  0.50400001928E-02 0. -1.
</event>
<event>
 5   0  0.1000121E-03  0.1619175E+04  0.7818609E-02  0.8808854E-01
       -2   -1    0    0    0  501  0.00000000000E+00  0.00000000000E+00  0.88704511012E+03  0.88704511012E+03  0.25500000920E-02 0. -1.
        2   -1    0    0  501    0  0.00000000000E+00  0.00000000000E+00 -0.73889326234E+03  0.73889326235E+03  0.25500000920E-02 0.  1.
    10030    2    1    2    0    0  0.00000000000E+00  0.00000000000E+00  0.14815184777E+03  0.16259383725E+04  0.16191746728E+04 0.  0.
        4    1    3    3  502    0 -0.30831451360E+03 -0.66836688572E+02  0.82278085290E+03  0.88118949553E+03  0.12699999809E+01 0. -1.
       -4    1    3    3    0  502  0.30831451360E+03  0.66836688572E+02 -0.67462900513E+03  0.74474887694E+03  0.12699999809E+01 0.  1.
</event>
<event>
 5   0  0.1000121E-03  0.1546730E+04  0.7818609E-02  0.8853959E-01
        2   -1    0    0  501    0  0.00000000000E+00  0.00000000000E+00  0.84697060575E+03  0.84697060575E+03  0.25500000920E-02 0.  1.
       -2   -1    0    0    0  501  0.00000000000E+00  0.00000000000E+00 -0.70615629133E+03  0.70615629134E+03  0.25500000920E-02 0. -1.
    10030    2    1    2    0    0  0.00000000000E+00  0.00000000000E+00  0.14081431442E+03  0.15531268971E+04  0.15467302568E+04 0.  0.
        4    1    3    3  502    0 -0.60839071812E+03 -0.22832316635E+03  0.49145172826E+03  0.81473747201E+03  0.12699999809E+01 0.  1.
       -4    1    3    3    0  502  0.60839071812E+03  0.22832316635E+03 -0.35063741384E+03  0.73838942508E+03  0.12699999809E+01 0. -1.
</event>
<event>
 5   0  0.1000121E-03  0.1597386E+04  0.7818609E-02  0.8822155E-01
        2   -1    0    0  501    0  0.00000000000E+00  0.00000000000E+00  0.40973971145E+03  0.40973971146E+03  0.25500000920E-02 0.  1.
       -2   -1    0    0    0  501  0.00000000000E+00  0.00000000000E+00 -0.15568685248E+04  0.15568685248E+04  0.25500000920E-02 0. -1.
    10030    2    1    2    0    0  0.00000000000E+00  0.00000000000E+00 -0.11471288134E+04  0.19666082363E+04  0.15973864406E+04 0.  0.
        4    1    3    3  502    0  0.14729429477E+03  0.28064104855E+02  0.39225470636E+03  0.41993877031E+03  0.12699999809E+01 0.  1.
       -4    1    3    3    0  502 -0.14729429477E+03 -0.28064104855E+02 -0.15393835197E+04  0.15466694660E+04  0.12699999809E+01 0. -1.
</event>
<event>
 5   0  0.3832500E-04  0.1608896E+04  0.7818609E-02  0.8815102E-01
       -3   -1    0    0    0  501  0.00000000000E+00  0.00000000000E+00  0.46747056103E+03  0.46747057194E+03  0.10100000352E+00 0. -1.
        3   -1    0    0  501    0  0.00000000000E+00  0.00000000000E+00 -0.13843356842E+04  0.13843356879E+04  0.10100000352E+00 0.  1.
    10030    2    1    2    0    0  0.00000000000E+00  0.00000000000E+00 -0.91686512318E+03  0.18518062598E+04  0.16088955124E+04 0.  0.
        1    1    3    3  502    0 -0.13110370863E+03  0.38068748696E+03 -0.12600179477E+04  0.13227835702E+04  0.50400001928E-02 0.  1.
       -1    1    3    3    0  502  0.13110370863E+03 -0.38068748696E+03  0.34315282450E+03  0.52902268961E+03  0.50400001928E-02 0. -1.
</event>
<event>
 5   0  0.5288658E-04  0.1598786E+04  0.7818609E-02  0.8821294E-01
       -1   -1    0    0    0  501  0.00000000000E+00  0.00000000000E+00  0.45199029996E+03  0.45199029999E+03  0.50400001928E-02 0.  1.
        1   -1    0    0  501    0  0.00000000000E+00  0.00000000000E+00 -0.14138120113E+04  0.14138120113E+04  0.50400001928E-02 0. -1.
    10030    2    1    2    0    0  0.00000000000E+00  0.00000000000E+00 -0.96182171133E+03  0.18658023113E+04  0.15987861835E+04 0.  0.
        1    1    3    3  502    0  0.50271691581E+03 -0.48058102853E+03 -0.20944013558E+02  0.69578809573E+03  0.50400001928E-02 0.  1.
       -1    1    3    3    0  502 -0.50271691581E+03  0.48058102853E+03 -0.94087769777E+03  0.11700142156E+04  0.50400001928E-02 0. -1.
</event>
<event>
 5   0  0.3832500E-04  0.1556968E+04  0.7818609E-02  0.8847429E-01
       -3   -1    0    0    0  501  0.00000000000E+00  0.00000000000E+00  0.23070334074E+04  0.23070334096E+04  0.10100000352E+00 0.  1.
        3   -1    0    0  501    0  0.00000000000E+00  0.00000000000E+00 -0.26269132331E+03  0.26269134272E+03  0.10100000352E+00 0. -1.
    10030    2    1    2    0    0  0.00000000000E+00  0.00000000000E+00  0.20443420841E+04  0.25697247523E+04  0.15569684473E+04 0.  0.
        1    1    3    3  502    0  0.53375024124E+03 -0.10577307846E+03  0.19410534103E+04  0.20158783708E+04  0.50400001928E-02 0.  1.
       -1    1    3    3    0  502 -0.53375024124E+03  0.10577307846E+03  0.10328867374E+03  0.55384638150E+03  0.50400001928E-02 0. -1.
</event>
<event>
 5   0  0.9844690E-04  0.1626262E+04  0.7818609E-02  0.8804575E-01
       -2   -1    0    0    0  501  0.00000000000E+00  0.00000000000E+00  0.17801052852E+04  0.17801052852E+04  0.25500000920E-02 0. -1.
        2   -1    0    0  501    0  0.00000000000E+00  0.00000000000E+00 -0.37142870052E+03  0.37142870053E+03  0.25500000920E-02 0.  1.
    10030    2    1    2    0    0  0.00000000000E+00  0.00000000000E+00  0.14086765847E+04  0.21515339857E+04  0.16262622087E+04 0.  0.
        3    1    3    3  502    0  0.14423464202E+03 -0.47730969190E+03 -0.14542515594E+03  0.51940028891E+03  0.10100000352E+00 0.  1.
       -3    1    3    3    0  502 -0.14423464202E+03  0.47730969190E+03  0.15541017406E+04  0.16321336968E+04  0.10100000352E+00 0. -1.
</event>
<event>
 5   0  0.1030027E-03  0.1618643E+04  0.7818609E-02  0.8809176E-01
       -2   -1    0    0    0  501  0.00000000000E+00  0.00000000000E+00  0.87743879230E+03  0.87743879231E+03  0.25500000920E-02 0. -1.
        2   -1    0    0  501    0  0.00000000000E+00  0.00000000000E+00 -0.74649194896E+03  0.74649194896E+03  0.25500000920E-02 0.  1.
    10030    2    1    2    0    0  0.00000000000E+00  0.00000000000E+00  0.13094684335E+03  0.16239307413E+04  0.16186426340E+04 0.  0.
        1    1    3    3  502    0 -0.41203261758E+03  0.32408392144E+01 -0.63337936544E+03  0.75561286488E+03  0.50400001928E-02 0.  1.
       -1    1    3    3    0  502  0.41203261758E+03 -0.32408392144E+01  0.76432620878E+03  0.86831787638E+03  0.50400001928E-02 0. -1.
</event>
<event>
 5   0  0.3832500E-04  0.1536198E+04  0.7818609E-02  0.8860732E-01
       -4   -1    0    0    0  501  0.00000000000E+00  0.00000000000E+00  0.10690467967E+04  0.10690475511E+04  0.12699999809E+01 0. -1.
        4   -1    0    0  501    0  0.00000000000E+00  0.00000000000E+00 -0.55186941644E+03  0.55187087775E+03  0.12699999809E+01 0.  1.
    10030    2    1    2    0    0  0.00000000000E+00  0.00000000000E+00  0.51717738025E+03  0.16209184288E+04  0.15361979398E+04 0.  0.
        1    1    3    3  502    0 -0.29579986847E+02  0.54462048091E+03 -0.31206047178E+03  0.62838537691E+03  0.50400001928E-02 0.  1.
       -1    1    3    3    0  502  0.29579986847E+02 -0.54462048091E+03  0.82923785203E+03  0.99253305189E+03  0.50400001928E-02 0. -1.
</event>
<event>
 5   0  0.5288658E-04  0.1562148E+04  0.7818609E-02  0.8844145E-01
        1   -1    0    0  501    0  0.00000000000E+00  0.00000000000E+00  0.78456860312E+03  0.78456860313E+03  0.50400001928E-02 0. -1.
       -1   -1    0    0    0  501  0.00000000000E+00  0.00000000000E+00 -0.77759483678E+03  0.77759483680E+03  0.50400001928E-02 0.  1.
    10030    2    1    2    0    0  0.00000000000E+00  0.00000000000E+00  0.69737663362E+01  0.15621634399E+04  0.15621478738E+04 0.  0.
        1    1    3    3  502    0 -0.14693440714E+03  0.22162393173E+03 -0.73093830498E+03  0.77780311958E+03  0.50400001928E-02 0.  1.
       -1    1    3    3    0  502  0.14693440714E+03 -0.22162393173E+03  0.73791207132E+03  0.78436032035E+03  0.50400001928E-02 0. -1.
</event>
<event>
 5   0  0.5281116E-04  0.1629205E+04  0.7818609E-02  0.8802804E-01
        1   -1    0    0  501    0  0.00000000000E+00  0.00000000000E+00  0.14158956706E+04  0.14158956706E+04  0.50400001928E-02 0.  1.
       -1   -1    0    0    0  501  0.00000000000E+00  0.00000000000E+00 -0.46866280605E+03  0.46866280607E+03  0.50400001928E-02 0. -1.
    10030    2    1    2    0    0  0.00000000000E+00  0.00000000000E+00  0.94723286452E+03  0.18845584766E+04  0.16292054973E+04 0.  0.
        2    1    3    3  502    0 -0.12225818261E+03 -0.14840327790E+03  0.13892704107E+04  0.14025130552E+04  0.25500000920E-02 0.  1.
       -2    1    3    3    0  502  0.12225818261E+03  0.14840327790E+03 -0.44203754615E+03  0.48204542143E+03  0.25500000920E-02 0. -1.
</event>
<event>
 5   0  0.9844690E-04  0.1604609E+04  0.7818609E-02  0.8817722E-01
        2   -1    0    0  501    0  0.00000000000E+00  0.00000000000E+00  0.16501261492E+04  0.16501261492E+04  0.25500000920E-02 0.  1.
       -2   -1    0    0    0  501  0.00000000000E+00  0.00000000000E+00 -0.39008676984E+03  0.39008676985E+03  0.25500000920E-02 0. -1.
    10030    2    1    2    0    0  0.00000000000E+00  0.00000000000E+00  0.12600393794E+04  0.20402129191E+04  0.16046088363E+04 0.  0.
        3    1    3    3  502    0  0.43539153852E+03 -0.66823499027E+03  0.74078057886E+03  0.10885125954E+04  0.10100000352E+00 0.  1.
       -3    1    3    3    0  502 -0.43539153852E+03  0.66823499027E+03  0.51925880053E+03  0.95170032372E+03  0.10100000352E+00 0. -1.
</event>
<event>
 5   0  0.5281116E-04  0.1623819E+04  0.7818609E-02  0.8806047E-01
       -1   -1    0    0    0  501  0.00000000000E+00  0.00000000000E+00  0.37873418001E+03  0.37873418004E+03  0.50400001928E-02 0.  1.
        1   -1    0    0  501    0  0.00000000000E+00  0.00000000000E+00 -0.17405272534E+04  0.17405272534E+04  0.50400001928E-02 0. -1.
    10030    2    1    2    0    0  0.00000000000E+00  0.00000000000E+00 -0.13617930734E+04  0.21192614335E+04  0.16238191551E+04 0.  0.
        2    1    3    3  502    0  0.31492085372E+03 -0.64141993767E+02  0.29218283799E+03  0.43435026222E+03  0.25500000920E-02 0.  1.
       -2    1    3    3    0  502 -0.31492085372E+03  0.64141993767E+02 -0.16539759114E+04  0.16849111713E+04  0.25500000920E-02 0. -1.
</event>
<event>
 5   0  0.1000121E-03  0.1588783E+04  0.7818609E-02  0.8827469E-01
        2   -1    0    0  501    0  0.00000000000E+00  0.00000000000E+00  0.11639218978E+04  0.11639218978E+04  0.25500000920E-02 0.  1.
       -2   -1    0    0    0  501  0.00000000000E+00  0.00000000000E+00 -0.54218212140E+03  0.54218212141E+03  0.25500000920E-02 0. -1.
    10030    2    1    2    0    0  0.00000000000E+00  0.00000000000E+00  0.62173977641E+03  0.17061040192E+04  0.15887827337E+04 0.  0.
        4    1    3    3  502    0  0.14781550107E+03 -0.62953573867E+03  0.80634291304E+03  0.10336126813E+04  0.12699999809E+01 0.  1.
       -4    1    3    3    0  502 -0.14781550107E+03  0.62953573867E+03 -0.18460313664E+03  0.67249133792E+03  0.12699999809E+01 0. -1.
</event>
<event>
 5   0  0.5623061E-04  0.1560048E+04  0.7818609E-02  0.8845475E-01
        1   -1    0    0  501    0  0.00000000000E+00  0.00000000000E+00  0.58608722514E+03  0.58608722516E+03  0.50400001928E-02 0. -1.
       -1   -1    0    0    0  501  0.00000000000E+00  0.00000000000E+00 -0.10381349795E+04  0.10381349795E+04  0.50400001928E-02 0.  1.
    10030    2    1    2    0    0  0.00000000000E+00  0.00000000000E+00 -0.45204775434E+03  0.16242222047E+04  0.15600482678E+04 0.  0.
        3    1    3    3  502    0 -0.40994413975E+03  0.20258342506E+02  0.46456637037E+03  0.61990847779E+03  0.10100000352E+00 0. -1.
       -3    1    3    3    0  502  0.40994413975E+03 -0.20258342506E+02 -0.91661412471E+03  0.10043137269E+04  0.10100000352E+00 0.  1.
</event>
<event>
 5   0  0.5288658E-04  0.1575345E+04  0.7818609E-02  0.8835839E-01
        1   -1    0    0  501    0  0.00000000000E+00  0.00000000000E+00  0.18350750872E+04  0.18350750872E+04  0.50400001928E-02 0. -1.
       -1   -1    0    0    0  501  0.00000000000E+00  0.00000000000E+00 -0.33809408294E+03  0.33809408298E+03  0.50400001928E-02 0.  1.
    10030    2    1    2    0    0  0.00000000000E+00  0.00000000000E+00  0.14969810042E+04  0.21731691702E+04  0.15753450781E+04 0.  0.
        1    1    3    3  502    0  0.33312960773E+03  0.36801361442E+03  0.15921447105E+04  0.16677332326E+04  0.50400001928E-02 0. -1.
       -1    1    3    3    0  502 -0.33312960773E+03 -0.36801361442E+03 -0.95163706283E+02  0.50543593754E+03  0.50400001928E-02 0.  1.
</event>
<event>
 5   0  0.1000121E-03  0.1587901E+04  0.7818609E-02  0.8828015E-01
       -2   -1    0    0    0  501  0.00000000000E+00  0.00000000000E+00  0.12711286214E+04  0.12711286214E+04  0.25500000920E-02 0.  1.
        2   -1    0    0  501    0  0.00000000000E+00  0.00000000000E+00 -0.49590396600E+03  0.49590396601E+03  0.25500000920E-02 0. -1.
    10030    2    1    2    0    0  0.00000000000E+00  0.00000000000E+00  0.77522465535E+03  0.17670325874E+04  0.15879014134E+04 0.  0.
        4    1    3    3  502    0  0.20012346214E+03  0.63211278042E+03 -0.98394171683E+02  0.67029768998E+03  0.12699999809E+01 0. -1.
       -4    1    3    3    0  502 -0.20012346214E+03 -0.63211278042E+03  0.87361882704E+03  0.10967348974E+04  0.12699999809E+01 0.  1.
</event>
<event>
 5   0  0.1037321E-03  0.1576883E+04  0.7818609E-02  0.8834877E-01
        2   -1    0    0  501    0  0.00000000000E+00  0.00000000000E+00  0.11670495337E+04  0.11670495337E+04  0.25500000920E-02 0. -1.
       -2   -1    0    0    0  501  0.00000000000E+00  0.00000000000E+00 -0.53265958350E+03  0.53265958351E+03  0.25500000920E-02 0.  1.
    10030    2    1    2    0    0  0.00000000000E+00  0.00000000000E+00  0.63438995020E+03  0.16997091172E+04  0.15768831517E+04 0.  0.
        5    1    3    3  502    0  0.30581773688E+03  0.35028638747E+03 -0.36910377318E+03  0.59370424187E+03  0.46999998093E+01 0.  1.
       -5    1    3    3    0  502 -0.30581773688E+03 -0.35028638747E+03  0.10034937234E+04  0.11060048754E+04  0.46999998093E+01 0. -1.
</event>
<event>
 5   0  0.5281116E-04  0.1346664E+04  0.7818609E-02  0.8993357E-01
        1   -1    0    0  501    0  0.00000000000E+00  0.00000000000E+00  0.53666205648E+03  0.53666205650E+03  0.50400001928E-02 0. -1.
       -1   -1    0    0    0  501  0.00000000000E+00  0.00000000000E+00 -0.84480697357E+03  0.84480697358E+03  0.50400001928E-02 0.  1.
    10030    2    1    2    0    0  0.00000000000E+00  0.00000000000E+00 -0.30814491709E+03  0.13814690301E+04  0.13466638003E+04 0.  0.
        2    1    3    3  502    0  0.53462275736E+03 -0.25068079583E+03 -0.48603057535E+03  0.76477975540E+03  0.25500000920E-02 0. -1.
       -2    1    3    3    0  502 -0.53462275736E+03  0.25068079583E+03  0.17788565826E+03  0.61668927468E+03  0.25500000920E-02 0.  1.
</event>
<event>
 5   0  0.5281116E-04  0.1580462E+04  0.7818609E-02  0.8832642E-01
        1   -1    0    0  501    0  0.00000000000E+00  0.00000000000E+00  0.76804114977E+03  0.76804114978E+03  0.50400001928E-02 0. -1.
       -1   -1    0    0    0  501  0.00000000000E+00  0.00000000000E+00 -0.81306181335E+03  0.81306181337E+03  0.50400001928E-02 0.  1.
    10030    2    1    2    0    0  0.00000000000E+00  0.00000000000E+00 -0.45020663586E+02  0.15811029632E+04  0.15804618692E+04 0.  0.
        2    1    3    3  502    0 -0.42000955778E+02  0.55976287241E+03 -0.57894308444E+03  0.80639546666E+03  0.25500000920E-02 0.  1.
       -2    1    3    3    0  502  0.42000955778E+02 -0.55976287241E+03  0.53392242086E+03  0.77470749649E+03  0.25500000920E-02 0. -1.
</event>
<event>
 5   0  0.5288658E-04  0.1599123E+04  0.7818609E-02  0.8821087E-01
       -1   -1    0    0    0  501  0.00000000000E+00  0.00000000000E+00  0.52639645445E+03  0.52639645447E+03  0.50400001928E-02 0. -1.
        1   -1    0    0  501    0  0.00000000000E+00  0.00000000000E+00 -0.12144809943E+04  0.12144809943E+04  0.50400001928E-02 0.  1.
    10030    2    1    2    0    0  0.00000000000E+00  0.00000000000E+00 -0.68808453987E+03  0.17408774488E+04  0.15991228714E+04 0.  0.
        1    1    3    3  502    0 -0.12295611939E+03 -0.30674411765E+03  0.44856944260E+03  0.55715770287E+03  0.50400001928E-02 0. -1.
       -1    1    3    3    0  502  0.12295611939E+03  0.30674411765E+03 -0.11366539825E+04  0.11837197459E+04  0.50400001928E-02 0.  1.
</event>
<event>
 5   0  0.5425525E-04  0.1682256E+04  0.7818609E-02  0.8771549E-01
        1   -1    0    0  501    0  0.00000000000E+00  0.00000000000E+00  0.61453757984E+03  0.61453757986E+03  0.50400001928E-02 0.  1.
       -1   -1    0    0    0  501  0.00000000000E+00  0.00000000000E+00 -0.11512668149E+04  0.11512668149E+04  0.50400001928E-02 0. -1.
    10030    2    1    2    0    0  0.00000000000E+00  0.00000000000E+00 -0.53672923507E+03  0.17658043948E+04  0.16822564872E+04 0.  0.
        5    1    3    3  502    0  0.53529592045E+03 -0.53779536752E+03  0.11257680067E+03  0.76711225112E+03  0.46999998093E+01 0.  1.
       -5    1    3    3    0  502 -0.53529592045E+03  0.53779536752E+03 -0.64930603574E+03  0.99869214366E+03  0.46999998093E+01 0. -1.
</event>
<event>
 5   0  0.5623061E-04  0.1645762E+04  0.7818609E-02  0.8792917E-01
        1   -1    0    0  501    0  0.00000000000E+00  0.00000000000E+00  0.84374075959E+03  0.84374075961E+03  0.50400001928E-02 0.  1.
       -1   -1    0    0    0  501  0.00000000000E+00  0.00000000000E+00 -0.80253733907E+03  0.80253733909E+03  0.50400001928E-02 0. -1.
    10030    2    1    2    0    0  0.00000000000E+00  0.00000000000E+00  0.41203420522E+02  0.16462780987E+04  0.16457623937E+04 0.  0.
        3    1    3    3  502    0  0.47645573135E+03 -0.37905731441E+03 -0.53314102760E+03  0.80927985089E+03  0.10100000352E+00 0. -1.
       -3    1    3    3    0  502 -0.47645573135E+03  0.37905731441E+03  0.57434444812E+03  0.83699824781E+03  0.10100000352E+00 0.  1.
</event>
<event>
 5   0  0.1030027E-03  0.1545935E+04  0.7818609E-02  0.8854469E-01
       -2   -1    0    0    0  501  0.00000000000E+00  0.00000000000E+00  0.93852919810E+03  0.93852919810E+03  0.25500000920E-02 0. -1.
        2   -1    0    0  501    0  0.00000000000E+00  0.00000000000E+00 -0.63661158535E+03  0.63661158535E+03  0.25500000920E-02 0.  1.
    10030    2    1    2    0    0  0.00000000000E+00  0.00000000000E+00  0.30191761275E+03  0.15751407835E+04  0.15459347473E+04 0.  0.
        1    1    3    3  502    0  0.28035001099E+03  0.27901431549E+03 -0.52569102727E+03  0.65787245959E+03  0.50400001928E-02 0.  1.
       -1    1    3    3    0  502 -0.28035001099E+03 -0.27901431549E+03  0.82760864002E+03  0.91726832387E+03  0.50400001928E-02 0. -1.
</event>
<event>
 5   0  0.5623061E-04  0.1548281E+04  0.7818609E-02  0.8852966E-01
        1   -1    0    0  501    0  0.00000000000E+00  0.00000000000E+00  0.81858885551E+03  0.81858885553E+03  0.50400001928E-02 0. -1.
       -1   -1    0    0    0  501  0.00000000000E+00  0.00000000000E+00 -0.73210567442E+03  0.73210567444E+03  0.50400001928E-02 0.  1.
    10030    2    1    2    0    0  0.00000000000E+00  0.00000000000E+00  0.86483181093E+02  0.15506945300E+04  0.15482810419E+04 0.  0.
        3    1    3    3  502    0 -0.27823998128E+03 -0.16902720998E+03 -0.66021060944E+03  0.73611530613E+03  0.10100000352E+00 0.  1.
       -3    1    3    3    0  502  0.27823998128E+03  0.16902720998E+03  0.74669379053E+03  0.81457922384E+03  0.10100000352E+00 0. -1.
</event>
<event>
 5   0  0.5288658E-04  0.1573487E+04  0.7818609E-02  0.8837004E-01
       -1   -1    0    0    0  501  0.00000000000E+00  0.00000000000E+00  0.65208154210E+03  0.65208154212E+03  0.50400001928E-02 0.  1.
        1   -1    0    0  501    0  0.00000000000E+00  0.00000000000E+00 -0.94921445013E+03  0.94921445014E+03  0.50400001928E-02 0. -1.
    10030    2    1    2    0    0  0.00000000000E+00  0.00000000000E+00 -0.29713290803E+03  0.16012959923E+04  0.15734868572E+04 0.  0.
        1    1    3    3  502    0 -0.10037279242E+03 -0.13059752340E+03 -0.93147088381E+03  0.94592199360E+03  0.50400001928E-02 0. -1.
       -1    1    3    3    0  502  0.10037279242E+03  0.13059752340E+03  0.63433797578E+03  0.65537399865E+03  0.50400001928E-02 0.  1.
</event>
<event>
 5   0  0.5288658E-04  0.1589215E+04  0.7818609E-02  0.8827201E-01
        1   -1    0    0  501    0  0.00000000000E+00  0.00000000000E+00  0.27377545402E+03  0.27377545407E+03  0.50400001928E-02 0. -1.
       -1   -1    0    0    0  501  0.00000000000E+00  0.00000000000E+00 -0.23062726480E+04  0.23062726480E+04  0.50400001928E-02 0.  1.
    10030    2    1    2    0    0  0.00000000000E+00  0.00000000000E+00 -0.20324971940E+04  0.25800481021E+04  0.15892147009E+04 0.  0.
        1    1    3    3  502    0  0.54409924813E+03  0.52118163124E+03 -0.60641698331E+03  0.96716898328E+03  0.50400001928E-02 0. -1.
       -1    1    3    3    0  502 -0.54409924813E+03 -0.52118163124E+03 -0.14260802107E+04  0.16128791188E+04  0.50400001928E-02 0.  1.
</event>
<event>
 5   0  0.5281116E-04  0.1608044E+04  0.7818609E-02  0.8815622E-01
        1   -1    0    0  501    0  0.00000000000E+00  0.00000000000E+00  0.10512713216E+04  0.10512713216E+04  0.50400001928E-02 0.  1.
       -1   -1    0    0    0  501  0.00000000000E+00  0.00000000000E+00 -0.61492328731E+03  0.61492328733E+03  0.50400001928E-02 0. -1.
    10030    2    1    2    0    0  0.00000000000E+00  0.00000000000E+00  0.43634803428E+03  0.16661946089E+04  0.16080438016E+04 0.  0.
        2    1    3    3  502    0 -0.72917382177E+03 -0.98392782739E+02 -0.11770186548E+03  0.74513712241E+03  0.25500000920E-02 0. -1.
       -2    1    3    3    0  502  0.72917382177E+03  0.98392782739E+02  0.55404989976E+03  0.92105748652E+03  0.25500000920E-02 0.  1.
</event>
<event>
 5   0  0.5623061E-04  0.1599708E+04  0.7818609E-02  0.8820727E-01
        1   -1    0    0  501    0  0.00000000000E+00  0.00000000000E+00  0.13239183918E+04  0.13239183919E+04  0.50400001928E-02 0. -1.
       -1   -1    0    0    0  501  0.00000000000E+00  0.00000000000E+00 -0.48323713370E+03  0.48323713373E+03  0.50400001928E-02 0.  1.
    10030    2    1    2    0    0  0.00000000000E+00  0.00000000000E+00  0.84068125814E+03  0.18071555256E+04  0.15997081346E+04 0.  0.
        3    1    3    3  502    0  0.21774617318E+03  0.36534265341E+02  0.12888115205E+04  0.13075868209E+04  0.10100000352E+00 0. -1.
       -3    1    3    3    0  502 -0.21774617318E+03 -0.36534265341E+02 -0.44813026238E+03  0.49956870472E+03  0.10100000352E+00 0.  1.
</event>
<event>
 5   0  0.1030027E-03  0.1619290E+04  0.7818609E-02  0.8808784E-01
        2   -1    0    0  501    0  0.00000000000E+00  0.00000000000E+00  0.13612053721E+04  0.13612053721E+04  0.25500000920E-02 0.  1.
       -2   -1    0    0    0  501  0.00000000000E+00  0.00000000000E+00 -0.48157697574E+03  0.48157697575E+03  0.25500000920E-02 0. -1.
    10030    2    1    2    0    0  0.00000000000E+00  0.00000000000E+00  0.87962839635E+03  0.18427823478E+04  0.16192901735E+04 0.  0.
        1    1    3    3  502    0  0.13299888209E+03 -0.20650964848E+02  0.13483850498E+04  0.13550857565E+04  0.50400001928E-02 0.  1.
       -1    1    3    3    0  502 -0.13299888209E+03  0.20650964848E+02 -0.46875665346E+03  0.48769659131E+03  0.50400001928E-02 0. -1.
</event>
<event>
 5   0  0.9844690E-04  0.1594414E+04  0.7818609E-02  0.8823987E-01
        2   -1    0    0  501    0  0.00000000000E+00  0.00000000000E+00  0.70277787824E+03  0.70277787825E+03  0.25500000920E-02 0.  1.
       -2   -1    0    0    0  501  0.00000000000E+00  0.00000000000E+00 -0.90432388979E+03  0.90432388979E+03  0.25500000920E-02 0. -1.
    10030    2    1    2    0    0  0.00000000000E+00  0.00000000000E+00 -0.20154601155E+03  0.16071017680E+04  0.15944137788E+04 0.  0.
        3    1    3    3  502    0  0.14952074988E+03  0.57130469045E+03  0.43901949720E+03  0.73585571486E+03  0.10100000352E+00 0.  1.
       -3    1    3    3    0  502 -0.14952074988E+03 -0.57130469045E+03 -0.64056550875E+03  0.87124605318E+03  0.10100000352E+00 0. -1.
</event>
<event>
 5   0  0.5623061E-04  0.1544630E+04  0.7818609E-02  0.8855305E-01
       -1   -1    0    0    0  501  0.00000000000E+00  0.00000000000E+00  0.27684771377E+03  0.27684771382E+03  0.50400001928E-02 0.  1.
        1   -1    0    0  501    0  0.00000000000E+00  0.00000000000E+00 -0.21545067574E+04  0.21545067574E+04  0.50400001928E-02 0. -1.
    10030    2    1    2    0    0  0.00000000000E+00  0.00000000000E+00 -0.18776590436E+04  0.24313544712E+04  0.15446297552E+04 0.  0.
        3    1    3    3  502    0 -0.33614201319E+02 -0.11282823199E+03  0.26264039499E+03  0.28781958193E+03  0.10100000352E+00 0.  1.
       -3    1    3    3    0  502  0.33614201319E+02  0.11282823199E+03 -0.21402994386E+04  0.21435348893E+04  0.10100000352E+00 0. -1.
</event>
<event>
 5   0  0.1037321E-03  0.1595625E+04  0.7818609E-02  0.8823240E-01
       -2   -1    0    0    0  501  0.00000000000E+00  0.00000000000E+00  0.31436290298E+03  0.31436290300E+03  0.25500000920E-02 0. -1.
        2   -1    0    0  501    0  0.00000000000E+00  0.00000000000E+00 -0.20247453837E+04  0.20247453837E+04  0.25500000920E-02 0.  1.
    10030    2    1    2    0    0  0.00000000000E+00  0.00000000000E+00 -0.17103824807E+04  0.23391082867E+04  0.15956250645E+04 0.  0.
        5    1    3    3  502    0  0.32397222617E+03  0.59493943803E+03 -0.23745015533E+03  0.71785486313E+03  0.46999998093E+01 0. -1.
       -5    1    3    3    0  502 -0.32397222617E+03 -0.59493943803E+03 -0.14729323254E+04  0.16212534235E+04  0.46999998093E+01 0.  1.
</event>
<event>
 5   0  0.5532881E-04  0.1584512E+04  0.7818609E-02  0.8830120E-01
       -1   -1    0    0    0  501  0.00000000000E+00  0.00000000000E+00  0.57864423506E+03  0.57864423508E+03  0.50400001928E-02 0.  1.
        1   -1    0    0  501    0  0.00000000000E+00  0.00000000000E+00 -0.10847239765E+04  0.10847239765E+04  0.50400001928E-02 0. -1.
    10030    2    1    2    0    0  0.00000000000E+00  0.00000000000E+00 -0.50607974148E+03  0.16633682116E+04  0.15845116291E+04 0.  0.
        4    1    3    3  502    0  0.71992431593E+03  0.13079809511E+03  0.65834561089E+02  0.73466656701E+03  0.12699999809E+01 0.  1.
       -4    1    3    3    0  502 -0.71992431593E+03 -0.13079809511E+03 -0.57191430257E+03  0.92870164462E+03  0.12699999809E+01 0. -1.
</event>
<event>
 5   0  0.5281116E-04  0.1584162E+04  0.7818609E-02  0.8830337E-01
        1   -1    0    0  501    0  0.00000000000E+00  0.00000000000E+00  0.13500070366E+04  0.13500070367E+04  0.50400001928E-02 0. -1.
       -1   -1    0    0    0  501  0.00000000000E+00  0.00000000000E+00 -0.46473272953E+03  0.46473272956E+03  0.50400001928E-02 0.  1.
    10030    2    1    2    0    0  0.00000000000E+00  0.00000000000E+00  0.88527430712E+03  0.18147397662E+04  0.15841621824E+04 0.  0.
        2    1    3    3  502    0  0.61753455506E+03  0.30030797271E+03  0.89488881338E+03  0.11279892701E+04  0.25500000920E-02 0. -1.
       -2    1    3    3    0  502 -0.61753455506E+03 -0.30030797271E+03 -0.96145062656E+01  0.68675049610E+03  0.25500000920E-02 0.  1.
</event>
<event>
 5   0  0.5288658E-04  0.1590597E+04  0.7818609E-02  0.8826345E-01
       -1   -1    0    0    0  501  0.00000000000E+00  0.00000000000E+00  0.56269002710E+03  0.56269002713E+03  0.50400001928E-02 0.  1.
        1   -1    0    0  501    0  0.00000000000E+00  0.00000000000E+00 -0.11240647385E+04  0.11240647385E+04  0.50400001928E-02 0. -1.
    10030    2    1    2    0    0  0.00000000000E+00  0.00000000000E+00 -0.56137471139E+03  0.16867547656E+04  0.15905973949E+04 0.  0.
        1    1    3    3  502    0 -0.41960328662E+03 -0.12886961950E+03  0.42259867438E+03  0.60931431674E+03  0.50400001928E-02 0.  1.
       -1    1    3    3    0  502  0.41960328662E+03  0.12886961950E+03 -0.98397338577E+03  0.10774404489E+04  0.50400001928E-02 0. -1.
</event>
<event>
 5   0  0.5425525E-04  0.1593097E+04  0.7818609E-02  0.8824800E-01
        1   -1    0    0  501    0  0.00000000000E+00  0.00000000000E+00  0.14367063951E+04  0.14367063951E+04  0.50400001928E-02 0. -1.
       -1   -1    0    0    0  501  0.00000000000E+00  0.00000000000E+00 -0.44162799147E+03  0.44162799149E+03  0.50400001928E-02 0.  1.
    10030    2    1    2    0    0  0.00000000000E+00  0.00000000000E+00  0.99507840359E+03  0.18783343866E+04  0.15930973098E+04 0.  0.
        5    1    3    3  502    0 -0.68296171249E+03 -0.39993974334E+03  0.39156162284E+03  0.88302383519E+03  0.46999998093E+01 0.  1.
       -5    1    3    3    0  502  0.68296171249E+03  0.39993974334E+03  0.60351678075E+03  0.99531055137E+03  0.46999998093E+01 0. -1.
</event>
<event>
 5   0  0.1037321E-03  0.1597867E+04  0.7818609E-02  0.8821860E-01
        2   -1    0    0  501    0  0.00000000000E+00  0.00000000000E+00  0.15480566030E+04  0.15480566030E+04  0.25500000920E-02 0. -1.
       -2   -1    0    0    0  501  0.00000000000E+00  0.00000000000E+00 -0.41231984704E+03  0.41231984705E+03  0.25500000920E-02 0.  1.
    10030    2    1    2    0    0  0.00000000000E+00  0.00000000000E+00  0.11357367560E+04  0.19603764501E+04  0.15978666550E+04 0.  0.
        5    1    3    3  502    0  0.37139037864E+03  0.29709248753E+03  0.13554370876E+04  0.14364632080E+04  0.46999998093E+01 0. -1.
       -5    1    3    3    0  502 -0.37139037864E+03 -0.29709248753E+03 -0.21970033164E+03  0.52391324206E+03  0.46999998093E+01 0.  1.
</event>
<event>
 5   0  0.1000121E-03  0.1609020E+04  0.7818609E-02  0.8815026E-01
        2   -1    0    0  501    0  0.00000000000E+00  0.00000000000E+00  0.11252659617E+04  0.11252659617E+04  0.25500000920E-02 0.  1.
       -2   -1    0    0    0  501  0.00000000000E+00  0.00000000000E+00 -0.57518532720E+03  0.57518532721E+03  0.25500000920E-02 0. -1.
    10030    2    1    2    0    0  0.00000000000E+00  0.00000000000E+00  0.55008063451E+03  0.17004512889E+04  0.16090201619E+04 0.  0.
        4    1    3    3  502    0 -0.32835775947E+02  0.27133845465E+03 -0.52461464173E+03  0.59154448723E+03  0.12699999809E+01 0. -1.
       -4    1    3    3    0  502  0.32835775947E+02 -0.27133845465E+03  0.10746952762E+04  0.11089068017E+04  0.12699999809E+01 0.  1.
</event>
<event>
 5   0  0.5425525E-04  0.1603080E+04  0.7818609E-02  0.8818658E-01
       -1   -1    0    0    0  501  0.00000000000E+00  0.00000000000E+00  0.11133713927E+04  0.11133713927E+04  0.50400001928E-02 0. -1.
        1   -1    0    0  501    0  0.00000000000E+00  0.00000000000E+00 -0.57704573425E+03  0.57704573427E+03  0.50400001928E-02 0.  1.
    10030    2    1    2    0    0  0.00000000000E+00  0.00000000000E+00  0.53632565847E+03  0.16904171270E+04  0.16030798019E+04 0.  0.
        5    1    3    3  502    0  0.66328111638E+03  0.26793577456E+03  0.64940211020E+03  0.96616593262E+03  0.46999998093E+01 0. -1.
       -5    1    3    3    0  502 -0.66328111638E+03 -0.26793577456E+03 -0.11307645173E+03  0.72425119438E+03  0.46999998093E+01 0.  1.
</event>
<event>
 5   0  0.5425525E-04  0.1611848E+04  0.7818609E-02  0.8813302E-01
        1   -1    0    0  501    0  0.00000000000E+00  0.00000000000E+00  0.18988845580E+04  0.18988845580E+04  0.50400001928E-02 0. -1.
       -1   -1    0    0    0  501  0.00000000000E+00  0.00000000000E+00 -0.34204992785E+03  0.34204992788E+03  0.50400001928E-02 0.  1.
    10030    2    1    2    0    0  0.00000000000E+00  0.00000000000E+00  0.15568346302E+04  0.22409344859E+04  0.16118477920E+04 0.  0.
        5    1    3    3  502    0 -0.79148338113E+03  0.14447280537E+03  0.71360982488E+03  0.10754438183E+04  0.46999998093E+01 0. -1.
       -5    1    3    3    0  502  0.79148338113E+03 -0.14447280537E+03  0.84322480532E+03  0.11654906677E+04  0.46999998093E+01 0.  1.
</event>
<event>
 5   0  0.1030027E-03  0.1592640E+04  0.7818609E-02  0.8825082E-01
        2   -1    0    0  501    0  0.00000000000E+00  0.00000000000E+00  0.42690993917E+03  0.42690993918E+03  0.25500000920E-02 0.  1.
       -2   -1    0    0    0  501  0.00000000000E+00  0.00000000000E+00 -0.14853843122E+04  0.14853843122E+04  0.25500000920E-02 0. -1.
    10030    2    1    2    0    0  0.00000000000E+00  0.00000000000E+00 -0.10584743730E+04  0.19122942514E+04  0.15926397287E+04 0.  0.
        1    1    3    3  502    0 -0.26353811365E+03  0.75076648259E+03 -0.49083936815E+03  0.93489354157E+03  0.50400001928E-02 0. -1.
       -1    1    3    3    0  502  0.26353811365E+03 -0.75076648259E+03 -0.56763500486E+03  0.97740070979E+03  0.50400001928E-02 0.  1.
</event>
<event>
 5   0  0.1000121E-03  0.1602799E+04  0.7818609E-02  0.8818830E-01
       -2   -1    0    0    0  501  0.00000000000E+00  0.00000000000E+00  0.39846024503E+03  0.39846024504E+03  0.25500000920E-02 0.  1.
        2   -1    0    0  501    0  0.00000000000E+00  0.00000000000E+00 -0.16118083236E+04  0.16118083236E+04  0.25500000920E-02 0. -1.
    10030    2    1    2    0    0  0.00000000000E+00  0.00000000000E+00 -0.12133480785E+04  0.20102685686E+04  0.16027994754E+04 0.  0.
        4    1    3    3  502    0 -0.47429983892E+02  0.27152962859E+03  0.33713382958E+03  0.43547534318E+03  0.12699999809E+01 0.  1.
       -4    1    3    3    0  502  0.47429983892E+02 -0.27152962859E+03 -0.15504819081E+04  0.15747932254E+04  0.12699999809E+01 0. -1.
</event>
<event>
 5   0  0.1000121E-03  0.1589632E+04  0.7818609E-02  0.8826943E-01
       -2   -1    0    0    0  501  0.00000000000E+00  0.00000000000E+00  0.53352783471E+03  0.53352783472E+03  0.25500000920E-02 0.  1.
        2   -1    0    0  501    0  0.00000000000E+00  0.00000000000E+00 -0.11840670024E+04  0.11840670024E+04  0.25500000920E-02 0. -1.
    10030    2    1    2    0    0  0.00000000000E+00  0.00000000000E+00 -0.65053916773E+03  0.17175948372E+04  0.15896322895E+04 0.  0.
        4    1    3    3  502    0 -0.40711834001E+03 -0.35556534908E+03 -0.95489419096E+03  0.10972677837E+04  0.12699999809E+01 0. -1.
       -4    1    3    3    0  502  0.40711834001E+03  0.35556534908E+03  0.30435502323E+03  0.62032705350E+03  0.12699999809E+01 0.  1.
</event>
<event>
 5   0  0.5532881E-04  0.1602123E+04  0.7818609E-02  0.8819245E-01
       -1   -1    0    0    0  501  0.00000000000E+00  0.00000000000E+00  0.54224821486E+03  0.54224821489E+03  0.50400001928E-02 0.  1.
        1   -1    0    0  501    0  0.00000000000E+00  0.00000000000E+00 -0.11834057082E+04  0.11834057083E+04  0.50400001928E-02 0. -1.
    10030    2    1    2    0    0  0.00000000000E+00  0.00000000000E+00 -0.64115749338E+03  0.17256539231E+04  0.16021231323E+04 0.  0.
        4    1    3    3  502    0 -0.19542318291E+03 -0.17962002040E+03 -0.11346619760E+04  0.11652952350E+04  0.12699999809E+01 0. -1.
       -4    1    3    3    0  502  0.19542318291E+03  0.17962002040E+03  0.49350448258E+03  0.56035868813E+03  0.12699999809E+01 0.  1.
</event>
<event>
 5   0  0.5623061E-04  0.1596672E+04  0.7818609E-02  0.8822595E-01
       -1   -1    0    0    0  501  0.00000000000E+00  0.00000000000E+00  0.34764246724E+03  0.34764246727E+03  0.50400001928E-02 0. -1.
        1   -1    0    0  501    0  0.00000000000E+00  0.00000000000E+00 -0.18333209909E+04  0.18333209909E+04  0.50400001928E-02 0.  1.
    10030    2    1    2    0    0  0.00000000000E+00  0.00000000000E+00 -0.14856785237E+04  0.21809634582E+04  0.15966718292E+04 0.  0.
        3    1    3    3  502    0 -0.72226613342E+03  0.17723707678E+03 -0.11393368504E+04  0.13605770165E+04  0.10100000352E+00 0.  1.
       -3    1    3    3    0  502  0.72226613342E+03 -0.17723707678E+03 -0.34634167324E+03  0.82038644168E+03  0.10100000352E+00 0. -1.
</event>
<event>
 5   0  0.5623061E-04  0.1591487E+04  0.7818609E-02  0.8825795E-01
       -1   -1    0    0    0  501  0.00000000000E+00  0.00000000000E+00  0.63561684258E+03  0.63561684260E+03  0.50400001928E-02 0. -1.
        1   -1    0    0  501    0  0.00000000000E+00  0.00000000000E+00 -0.99620999610E+03  0.99620999612E+03  0.50400001928E-02 0.  1.
    10030    2    1    2    0    0  0.00000000000E+00  0.00000000000E+00 -0.36059315352E+03  0.16318268387E+04  0.15914871690E+04 0.  0.
        3    1    3    3  502    0  0.70447014656E+03 -0.20192472663E+03  0.13765373769E+03  0.74565430618E+03  0.10100000352E+00 0. -1.
       -3    1    3    3    0  502 -0.70447014656E+03  0.20192472663E+03 -0.49824689121E+03  0.88617253254E+03  0.10100000352E+00 0.  1.
</event>
<event>
 5   0  0.1000121E-03  0.1636116E+04  0.7818609E-02  0.8798663E-01
       -2   -1    0    0    0  501  0.00000000000E+00  0.00000000000E+00  0.41286738176E+03  0.41286738177E+03  0.25500000920E-02 0. -1.
        2   -1    0    0  501    0  0.00000000000E+00  0.00000000000E+00 -0.16209048722E+04  0.16209048722E+04  0.25500000920E-02 0.  1.
    10030    2    1    2    0    0  0.00000000000E+00  0.00000000000E+00 -0.12080374905E+04  0.20337722540E+04  0.16361158280E+04 0.  0.
        4    1    3    3  502    0 -0.13885071469E+02 -0.58801812785E+03 -0.13107651382E+04  0.14366854124E+04  0.12699999809E+01 0.  1.
       -4    1    3    3    0  502  0.13885071469E+02  0.58801812785E+03  0.10272764770E+03  0.59708684159E+03  0.12699999809E+01 0. -1.
</event>
<event>
 5   0  0.5532881E-04  0.1610137E+04  0.7818609E-02  0.8814344E-01
        1   -1    0    0  501    0  0.00000000000E+00  0.00000000000E+00  0.62195755611E+03  0.62195755613E+03  0.50400001928E-02 0. -1.
       -1   -1    0    0    0  501  0.00000000000E+00  0.00000000000E+00 -0.10420895738E+04  0.10420895739E+04  0.50400001928E-02 0.  1.
    10030    2    1    2    0    0  0.00000000000E+00  0.00000000000E+00 -0.42013201773E+03  0.16640471300E+04  0.16101372421E+04 0.  0.
        4    1    3    3  502    0  0.22125169179E+03 -0.71256892439E+03 -0.52255892178E+03  0.91092053592E+03  0.12699999809E+01 0.  1.
       -4    1    3    3    0  502 -0.22125169179E+03  0.71256892439E+03  0.10242690404E+03  0.75312659407E+03  0.12699999809E+01 0. -1.
</event>
<event>
 5   0  0.1030027E-03  0.1741889E+04  0.7818609E-02  0.8737827E-01
        2   -1    0    0  501    0  0.00000000000E+00  0.00000000000E+00  0.13998902059E+04  0.13998902059E+04  0.25500000920E-02 0. -1.
       -2   -1    0    0    0  501  0.00000000000E+00  0.00000000000E+00 -0.54186014619E+03  0.54186014619E+03  0.25500000920E-02 0.  1.
    10030    2    1    2    0    0  0.00000000000E+00  0.00000000000E+00  0.85803005970E+03  0.19417503521E+04  0.17418894473E+04 0.  0.
        1    1    3    3  502    0  0.16380663548E+03 -0.31137962653E+03 -0.45911347710E+03  0.57842464550E+03  0.50400001928E-02 0.  1.
       -1    1    3    3    0  502 -0.16380663548E+03  0.31137962653E+03  0.13171435368E+04  0.13633257066E+04  0.50400001928E-02 0. -1.
</event>
<event>
 5   0  0.5425525E-04  0.1624821E+04  0.7818609E-02  0.8805443E-01
        1   -1    0    0  501    0  0.00000000000E+00  0.00000000000E+00  0.12068077333E+04  0.12068077333E+04  0.50400001928E-02 0. -1.
       -1   -1    0    0    0  501  0.00000000000E+00  0.00000000000E+00 -0.54690629869E+03  0.54690629871E+03  0.50400001928E-02 0.  1.
    10030    2    1    2    0    0  0.00000000000E+00  0.00000000000E+00  0.65990143463E+03  0.17537140320E+04  0.16248209141E+04 0.  0.
        5    1    3    3  502    0  0.30965744884E+03 -0.38278183935E+03 -0.36751456627E+03  0.61440924356E+03  0.46999998093E+01 0.  1.
       -5    1    3    3    0  502 -0.30965744884E+03  0.38278183935E+03  0.10274160009E+04  0.11393047885E+04  0.46999998093E+01 0. -1.
</event>
<event>
 5   0  0.9844690E-04  0.1587235E+04  0.7818609E-02  0.8828429E-01
       -2   -1    0    0    0  501  0.00000000000E+00  0.00000000000E+00  0.33597073520E+03  0.33597073521E+03  0.25500000920E-02 0.  1.
        2   -1    0    0  501    0  0.00000000000E+00  0.00000000000E+00 -0.18746534234E+04  0.18746534234E+04  0.25500000920E-02 0. -1.
    10030    2    1    2    0    0  0.00000000000E+00  0.00000000000E+00 -0.15386826881E+04  0.22106241586E+04  0.15872349403E+04 0.  0.
        3    1    3    3  502    0 -0.34256993946E+03 -0.94044880922E+02  0.21905134722E+03  0.41735129803E+03  0.10100000352E+00 0.  1.
       -3    1    3    3    0  502  0.34256993946E+03  0.94044880922E+02 -0.17577340354E+04  0.17932728605E+04  0.10100000352E+00 0. -1.
</event>
<event>
 5   0  0.1030027E-03  0.1366097E+04  0.7818609E-02  0.8978731E-01
       -2   -1    0    0    0  501  0.00000000000E+00  0.00000000000E+00  0.26914302318E+03  0.26914302319E+03  0.25500000920E-02 0. -1.
        2   -1    0    0  501    0  0.00000000000E+00  0.00000000000E+00 -0.17334851912E+04  0.17334851912E+04  0.25500000920E-02 0.  1.
    10030    2    1    2    0    0  0.00000000000E+00  0.00000000000E+00 -0.14643421681E+04  0.20026282144E+04  0.13660972806E+04 0.  0.
        1    1    3    3  502    0 -0.49008072892E+03  0.25001629728E+02 -0.35650783907E+02  0.49201136243E+03  0.50400001928E-02 0. -1.
       -1    1    3    3    0  502  0.49008072892E+03 -0.25001629728E+02 -0.14286913842E+04  0.15106168520E+04  0.50400001928E-02 0.  1.
</event>
<event>
 5   0  0.5425525E-04  0.1607815E+04  0.7818609E-02  0.8815761E-01
       -1   -1    0    0    0  501  0.00000000000E+00  0.00000000000E+00  0.19722303704E+04  0.19722303704E+04  0.50400001928E-02 0. -1.
        1   -1    0    0  501    0  0.00000000000E+00  0.00000000000E+00 -0.32768351328E+03  0.32768351332E+03  0.50400001928E-02 0.  1.
    10030    2    1    2    0    0  0.00000000000E+00  0.00000000000E+00  0.16445468571E+04  0.22999138837E+04  0.16078151347E+04 0.  0.
        5    1    3    3  502    0 -0.63609538345E+03 -0.34953841889E+03  0.32788297828E+03  0.79644446170E+03  0.46999998093E+01 0.  1.
       -5    1    3    3    0  502  0.63609538345E+03  0.34953841889E+03  0.13166638789E+04  0.15034694220E+04  0.46999998093E+01 0. -1.
</event>
<event>
 5   0  0.5281116E-04  0.1625437E+04  0.7818609E-02  0.8805072E-01
        1   -1    0    0  501    0  0.00000000000E+00  0.00000000000E+00  0.89259908993E+03  0.89259908994E+03  0.50400001928E-02 0.  1.
       -1   -1    0    0    0  501  0.00000000000E+00  0.00000000000E+00 -0.73998625465E+03  0.73998625467E+03  0.50400001928E-02 0. -1.
    10030    2    1    2    0    0  0.00000000000E+00  0.00000000000E+00  0.15261283528E+03  0.16325853446E+04  0.16254366275E+04 0.  0.
        2    1    3    3  502    0 -0.48414931808E+03 -0.39818552229E+02  0.73072779245E+03  0.87746748427E+03  0.25500000920E-02 0.  1.
       -2    1    3    3    0  502  0.48414931808E+03  0.39818552229E+02 -0.57811495717E+03  0.75511786034E+03  0.25500000920E-02 0. -1.
</event>
<event>
 5   0  0.1057872E-03  0.1570453E+04  0.7818609E-02  0.8838908E-01
       -2   -1    0    0    0  501  0.00000000000E+00  0.00000000000E+00  0.10248326814E+04  0.10248326814E+04  0.25500000920E-02 0. -1.
        2   -1    0    0  501    0  0.00000000000E+00  0.00000000000E+00 -0.60164025348E+03  0.60164025349E+03  0.25500000920E-02 0.  1.
    10030    2    1    2    0    0  0.00000000000E+00  0.00000000000E+00  0.42319242795E+03  0.16264729349E+04  0.15704529210E+04 0.  0.
        2    1    3    3  502    0 -0.33923423420E+03  0.24692055405E+03 -0.47580475692E+03  0.63438142500E+03  0.25500000920E-02 0.  1.
       -2    1    3    3    0  502  0.33923423420E+03 -0.24692055405E+03  0.89899718487E+03  0.99209150993E+03  0.25500000920E-02 0. -1.
</event>
<event>
 5   0  0.1057872E-03  0.1607266E+04  0.7818609E-02  0.8816097E-01
        2   -1    0    0  501    0  0.00000000000E+00  0.00000000000E+00  0.84771661824E+03  0.84771661825E+03  0.25500000920E-02 0.  1.
       -2   -1    0    0    0  501  0.00000000000E+00  0.00000000000E+00 -0.76184180893E+03  0.76184180893E+03  0.25500000920E-02 0. -1.
    10030    2    1    2    0    0  0.00000000000E+00  0.00000000000E+00  0.85874809317E+02  0.16095584272E+04  0.16072659542E+04 0.  0.
        2    1    3    3  502    0  0.73399766281E+03  0.24372117284E+03 -0.17571637332E+03  0.79311337334E+03  0.25500000920E-02 0. -1.
       -2    1    3    3    0  502 -0.73399766281E+03 -0.24372117284E+03  0.26159118264E+03  0.81644505384E+03  0.25500000920E-02 0.  1.
</event>
<event>
 5   0  0.5288658E-04  0.1564848E+04  0.7818609E-02  0.8842439E-01
        1   -1    0    0  501    0  0.00000000000E+00  0.00000000000E+00  0.13085416446E+04  0.13085416446E+04  0.50400001928E-02 0.  1.
       -1   -1    0    0    0  501  0.00000000000E+00  0.00000000000E+00 -0.46783920266E+03  0.46783920269E+03  0.50400001928E-02 0. -1.
    10030    2    1    2    0    0  0.00000000000E+00  0.00000000000E+00  0.84070244197E+03  0.17763808473E+04  0.15648476983E+04 0.  0.
        1    1    3    3  502    0 -0.59403101608E+03  0.44265868586E+02 -0.15552628223E+03  0.61564660292E+03  0.50400001928E-02 0. -1.
       -1    1    3    3    0  502  0.59403101608E+03 -0.44265868586E+02  0.99622872420E+03  0.11607342444E+04  0.50400001928E-02 0.  1.
</event>
<event>
 5   0  0.5281116E-04  0.1605854E+04  0.7818609E-02  0.8816960E-01
       -1   -1    0    0    0  501  0.00000000000E+00  0.00000000000E+00  0.88782457027E+03  0.88782457029E+03  0.50400001928E-02 0. -1.
        1   -1    0    0  501    0  0.00000000000E+00  0.00000000000E+00 -0.72614766108E+03  0.72614766110E+03  0.50400001928E-02 0.  1.
    10030    2    1    2    0    0  0.00000000000E+00  0.00000000000E+00  0.16167690919E+03  0.16139722314E+04  0.16058539600E+04 0.  0.
        2    1    3    3  502    0  0.14422466028E+03  0.45928025645E+03 -0.56502413386E+03  0.74228793500E+03  0.25500000920E-02 0.  1.
       -2    1    3    3    0  502 -0.14422466028E+03 -0.45928025645E+03  0.72670104305E+03  0.87168429639E+03  0.25500000920E-02 0. -1.
</event>
<event>
 5   0  0.1030027E-03  0.1619131E+04  0.7818609E-02  0.8808881E-01
       -2   -1    0    0    0  501  0.00000000000E+00  0.00000000000E+00  0.88588033195E+03  0.88588033195E+03  0.25500000920E-02 0.  1.
        2   -1    0    0  501    0  0.00000000000E+00  0.00000000000E+00 -0.73982477871E+03  0.73982477871E+03  0.25500000920E-02 0. -1.
    10030    2    1    2    0    0  0.00000000000E+00  0.00000000000E+00  0.14605555324E+03  0.16257051107E+04  0.16191309034E+04 0.  0.
        1    1    3    3  502    0  0.63174531722E+03 -0.49798848862E+03 -0.18454958194E+02  0.80463362229E+03  0.50400001928E-02 0. -1.
       -1    1    3    3    0  502 -0.63174531722E+03  0.49798848862E+03  0.16451051144E+03  0.82107148837E+03  0.50400001928E-02 0.  1.
</event>
<event>
 5   0  0.5532881E-04  0.1573700E+04  0.7818609E-02  0.8836870E-01
       -1   -1    0    0    0  501  0.00000000000E+00  0.00000000000E+00  0.79413257187E+03  0.79413257188E+03  0.50400001928E-02 0.  1.
        1   -1    0    0  501    0  0.00000000000E+00  0.00000000000E+00 -0.77963462788E+03  0.77963462790E+03  0.50400001928E-02 0. -1.
    10030    2    1    2    0    0  0.00000000000E+00  0.00000000000E+00  0.14497943983E+02  0.15737671998E+04  0.15737004190E+04 0.  0.
        4    1    3    3  502    0 -0.54274926228E+03 -0.30666371390E+02  0.57614432030E+03  0.79212440863E+03  0.12699999809E+01 0.  1.
       -4    1    3    3    0  502  0.54274926228E+03  0.30666371390E+02 -0.56164637632E+03  0.78164279115E+03  0.12699999809E+01 0. -1.
</event>
<event>
 5   0  0.1030027E-03  0.1631555E+04  0.7818609E-02  0.8801393E-01
        2   -1    0    0  501    0  0.00000000000E+00  0.00000000000E+00  0.83659236583E+03  0.83659236583E+03  0.25500000920E-02 0.  1.
       -2   -1    0    0    0  501  0.00000000000E+00  0.00000000000E+00 -0.79548098699E+03  0.79548098699E+03  0.25500000920E-02 0. -1.
    10030    2    1    2    0    0  0.00000000000E+00  0.00000000000E+00  0.41111378843E+02  0.16320733528E+04  0.16315554798E+04 0.  0.
        1    1    3    3  502    0 -0.55610104845E+03 -0.45991855654E+03 -0.35998570379E+03  0.80645096670E+03  0.50400001928E-02 0. -1.
       -1    1    3    3    0  502  0.55610104845E+03  0.45991855654E+03  0.40109708264E+03  0.82562238612E+03  0.50400001928E-02 0.  1.
</event>
<event>
 5   0  0.5288658E-04  0.1613537E+04  0.7818609E-02  0.8812275E-01
       -1   -1    0    0    0  501  0.00000000000E+00  0.00000000000E+00  0.47915486507E+03  0.47915486509E+03  0.50400001928E-02 0. -1.
        1   -1    0    0  501    0  0.00000000000E+00  0.00000000000E+00 -0.13583813835E+04  0.13583813836E+04  0.50400001928E-02 0.  1.
    10030    2    1    2    0    0  0.00000000000E+00  0.00000000000E+00 -0.87922651848E+03  0.18375362486E+04  0.16135365488E+04 0.  0.
        1    1    3    3  502    0 -0.44336505419E+02 -0.70224241134E+03 -0.88907417677E+03  0.11338267160E+04  0.50400001928E-02 0.  1.
       -1    1    3    3    0  502  0.44336505419E+02  0.70224241134E+03  0.98476582933E+01  0.70370953269E+03  0.50400001928E-02 0. -1.
</event>
<event>
 5   0  0.1000121E-03  0.1589249E+04  0.7818609E-02  0.8827180E-01
       -2   -1    0    0    0  501  0.00000000000E+00  0.00000000000E+00  0.19435444570E+04  0.19435444571E+04  0.25500000920E-02 0.  1.
        2   -1    0    0  501    0  0.00000000000E+00  0.00000000000E+00 -0.32488477949E+03  0.32488477950E+03  0.25500000920E-02 0. -1.
    10030    2    1    2    0    0  0.00000000000E+00  0.00000000000E+00  0.16186596776E+04  0.22684292365E+04  0.15892488947E+04 0.  0.
        4    1    3    3  502    0  0.62681228456E+03 -0.45546351928E+03  0.55766998668E+03  0.95464029058E+03  0.12699999809E+01 0.  1.
       -4    1    3    3    0  502 -0.62681228456E+03  0.45546351928E+03  0.10609896909E+04  0.13137889460E+04  0.12699999809E+01 0. -1.
</event>
<event>
 5   0  0.5425525E-04  0.1602917E+04  0.7818609E-02  0.8818758E-01
       -1   -1    0    0    0  501  0.00000000000E+00  0.00000000000E+00  0.82827419594E+03  0.82827419595E+03  0.50400001928E-02 0. -1.
        1   -1    0    0  501    0  0.00000000000E+00  0.00000000000E+00 -0.77551117565E+03  0.77551117567E+03  0.50400001928E-02 0.  1.
    10030    2    1    2    0    0  0.00000000000E+00  0.00000000000E+00  0.52763020286E+02  0.16037853716E+04  0.16029172099E+04 0.  0.
        5    1    3    3  502    0 -0.18072090666E+03  0.28209775828E+01  0.80760258331E+03  0.82759411947E+03  0.46999998093E+01 0. -1.
       -5    1    3    3    0  502  0.18072090666E+03 -0.28209775828E+01 -0.75483956302E+03  0.77619125215E+03  0.46999998093E+01 0.  1.
</event>
<event>
 5   0  0.9844690E-04  0.1574699E+04  0.7818609E-02  0.8836244E-01
       -2   -1    0    0    0  501  0.00000000000E+00  0.00000000000E+00  0.59193839848E+03  0.59193839848E+03  0.25500000920E-02 0. -1.
        2   -1    0    0  501    0  0.00000000000E+00  0.00000000000E+00 -0.10472705015E+04  0.10472705015E+04  0.25500000920E-02 0.  1.
    10030    2    1    2    0    0  0.00000000000E+00  0.00000000000E+00 -0.45533210298E+03  0.16392088999E+04  0.15746994931E+04 0.  0.
        3    1    3    3  502    0 -0.64437970405E+03  0.44332352618E+03 -0.32169164194E+03  0.84572245716E+03  0.10100000352E+00 0.  1.
       -3    1    3    3    0  502  0.64437970405E+03 -0.44332352618E+03 -0.13364046104E+03  0.79348644278E+03  0.10100000352E+00 0. -1.
</event>
<event>
 5   0  0.1057872E-03  0.1555866E+04  0.7818609E-02  0.8848129E-01
       -2   -1    0    0    0  501  0.00000000000E+00  0.00000000000E+00  0.12291648492E+04  0.12291648492E+04  0.25500000920E-02 0.  1.
        2   -1    0    0  501    0  0.00000000000E+00  0.00000000000E+00 -0.49235047314E+03  0.49235047314E+03  0.25500000920E-02 0. -1.
    10030    2    1    2    0    0  0.00000000000E+00  0.00000000000E+00  0.73681437610E+03  0.17215153224E+04  0.15558661833E+04 0.  0.
        2    1    3    3  502    0 -0.45139166291E+03  0.60741472706E+03  0.16901938229E+03  0.77541900647E+03  0.25500000920E-02 0.  1.
       -2    1    3    3    0  502  0.45139166291E+03 -0.60741472706E+03  0.56779499381E+03  0.94609631592E+03  0.25500000920E-02 0. -1.
</event>
<event>
 5   0  0.1030027E-03  0.1590144E+04  0.7818609E-02  0.8826626E-01
       -2   -1    0    0    0  501  0.00000000000E+00  0.00000000000E+00  0.39612865221E+03  0.39612865222E+03  0.25500000920E-02 0. -1.
        2   -1    0    0  501    0  0.00000000000E+00  0.00000000000E+00 -0.15957941004E+04  0.15957941004E+04  0.25500000920E-02 0.  1.
    10030    2    1    2    0    0  0.00000000000E+00  0.00000000000E+00 -0.11996654481E+04  0.19919227526E+04  0.15901443534E+04 0.  0.
        1    1    3    3  502    0  0.12126799131E+03 -0.76463689932E+03 -0.37308858298E+03  0.85940130573E+03  0.50400001928E-02 0.  1.
       -1    1    3    3    0  502 -0.12126799131E+03  0.76463689932E+03 -0.82657686516E+03  0.11325214468E+04  0.50400001928E-02 0. -1.
</event>
<event>
 5   0  0.5281116E-04  0.1688668E+04  0.7818609E-02  0.8767854E-01
        1   -1    0    0  501    0  0.00000000000E+00  0.00000000000E+00  0.13689809896E+04  0.13689809896E+04  0.50400001928E-02 0.  1.
       -1   -1    0    0    0  501  0.00000000000E+00  0.00000000000E+00 -0.52075228242E+03  0.52075228245E+03  0.50400001928E-02 0. -1.
    10030    2    1    2    0    0  0.00000000000E+00  0.00000000000E+00  0.84822870718E+03  0.18897332721E+04  0.16886680846E+04 0.  0.
        2    1    3    3  502    0 -0.18860165377E+03  0.67655340364E+03  0.94853189574E+03  0.11802575350E+04  0.25500000920E-02 0.  1.
       -2    1    3    3    0  502  0.18860165377E+03 -0.67655340364E+03 -0.10030318857E+03  0.70947573702E+03  0.25500000920E-02 0. -1.
</event>
<event>
 5   0  0.1057872E-03  0.1567421E+04  0.7818609E-02  0.8840816E-01
        2   -1    0    0  501    0  0.00000000000E+00  0.00000000000E+00  0.27044596655E+04  0.27044596655E+04  0.25500000920E-02 0. -1.
       -2   -1    0    0    0  501  0.00000000000E+00  0.00000000000E+00 -0.22710717137E+03  0.22710717139E+03  0.25500000920E-02 0.  1.
    10030    2    1    2    0    0  0.00000000000E+00  0.00000000000E+00  0.24773524941E+04  0.29315668369E+04  0.15674210471E+04 0.  0.
        2    1    3    3  502    0  0.41117476730E+03  0.15540288483E+03  0.25151338698E+02  0.44028097361E+03  0.25500000920E-02 0.  1.
       -2    1    3    3    0  502 -0.41117476730E+03 -0.15540288483E+03  0.24522011554E+04  0.24912858632E+04  0.25500000920E-02 0. -1.
</event>
<event>
 5   0  0.5623061E-04  0.1602702E+04  0.7818609E-02  0.8818890E-01
        1   -1    0    0  501    0  0.00000000000E+00  0.00000000000E+00  0.12255897122E+04  0.12255897122E+04  0.50400001928E-02 0.  1.
       -1   -1    0    0    0  501  0.00000000000E+00  0.00000000000E+00 -0.52396295371E+03  0.52396295374E+03  0.50400001928E-02 0. -1.
    10030    2    1    2    0    0  0.00000000000E+00  0.00000000000E+00  0.70162675845E+03  0.17495526659E+04  0.16027022252E+04 0.  0.
        3    1    3    3  502    0  0.15932749973E+03 -0.63913112658E+03  0.84901842990E+03  0.10745725446E+04  0.10100000352E+00 0.  1.
       -3    1    3    3    0  502 -0.15932749973E+03  0.63913112658E+03 -0.14739167145E+03  0.67498012129E+03  0.10100000352E+00 0. -1.
</event>
<event>
 5   0  0.5532881E-04  0.1614356E+04  0.7818609E-02  0.8811777E-01
       -1   -1    0    0    0  501  0.00000000000E+00  0.00000000000E+00  0.69144493816E+03  0.69144493818E+03  0.50400001928E-02 0.  1.
        1   -1    0    0  501    0  0.00000000000E+00  0.00000000000E+00 -0.94228192522E+03  0.94228192523E+03  0.50400001928E-02 0. -1.
    10030    2    1    2    0    0  0.00000000000E+00  0.00000000000E+00 -0.25083698705E+03  0.16337268634E+04  0.16143556827E+04 0.  0.
        4    1    3    3  502    0  0.31850481639E+03  0.67057168675E+03  0.19527952557E+03  0.76762452485E+03  0.12699999809E+01 0.  1.
       -4    1    3    3    0  502 -0.31850481639E+03 -0.67057168675E+03 -0.44611651263E+03  0.86610233857E+03  0.12699999809E+01 0. -1.
</event>
<event>
 5   0  0.5281116E-04  0.1594690E+04  0.7818609E-02  0.8823817E-01
       -1   -1    0    0    0  501  0.00000000000E+00  0.00000000000E+00  0.35430699015E+03  0.35430699019E+03  0.50400001928E-02 0.  1.
        1   -1    0    0  501    0  0.00000000000E+00  0.00000000000E+00 -0.17943725690E+04  0.17943725690E+04  0.50400001928E-02 0. -1.
    10030    2    1    2    0    0  0.00000000000E+00  0.00000000000E+00 -0.14400655788E+04  0.21486795592E+04  0.15946896177E+04 0.  0.
        2    1    3    3  502    0 -0.74594910513E+03 -0.16327538420E+03 -0.41083584460E+03  0.86711303170E+03  0.25500000920E-02 0.  1.
       -2    1    3    3    0  502  0.74594910513E+03  0.16327538420E+03 -0.10292297342E+04  0.12815665275E+04  0.25500000920E-02 0. -1.
</event>
<event>
 5   0  0.5425525E-04  0.1593349E+04  0.7818609E-02  0.8824645E-01
       -1   -1    0    0    0  501  0.00000000000E+00  0.00000000000E+00  0.30869646774E+03  0.30869646778E+03  0.50400001928E-02 0.  1.
        1   -1    0    0  501    0  0.00000000000E+00  0.00000000000E+00 -0.20560328708E+04  0.20560328709E+04  0.50400001928E-02 0. -1.
    10030    2    1    2    0    0  0.00000000000E+00  0.00000000000E+00 -0.17473364031E+04  0.23647293386E+04  0.15933487815E+04 0.  0.
        5    1    3    3  502    0 -0.10692752129E+03 -0.39355591659E+03  0.14200743169E+03  0.43186566771E+03  0.46999998093E+01 0.  1.
       -5    1    3    3    0  502  0.10692752129E+03  0.39355591659E+03 -0.18893438348E+04  0.19328636709E+04  0.46999998093E+01 0. -1.
</event>
<event>
 5   0  0.1030027E-03  0.1578817E+04  0.7818609E-02  0.8833668E-01
        2   -1    0    0  501    0  0.00000000000E+00  0.00000000000E+00  0.44439611536E+03  0.44439611537E+03  0.25500000920E-02 0. -1.
       -2   -1    0    0    0  501  0.00000000000E+00  0.00000000000E+00 -0.14022760843E+04  0.14022760843E+04  0.25500000920E-02 0.  1.
    10030    2    1    2    0    0  0.00000000000E+00  0.00000000000E+00 -0.95787996894E+03  0.18466721997E+04  0.15788173353E+04 0.  0.
        1    1    3    3  502    0  0.17634509001E+02 -0.41050000380E+03 -0.12673474233E+04  0.13322877769E+04  0.50400001928E-02 0.  1.
       -1    1    3    3    0  502 -0.17634509001E+02  0.41050000380E+03  0.30946745439E+03  0.51438442277E+03  0.50400001928E-02 0. -1.
</event>
<event>
 5   0  0.1000121E-03  0.1599840E+04  0.7818609E-02  0.8820646E-01
        2   -1    0    0  501    0  0.00000000000E+00  0.00000000000E+00  0.61224658419E+03  0.61224658419E+03  0.25500000920E-02 0.  1.
       -2   -1    0    0    0  501  0.00000000000E+00  0.00000000000E+00 -0.10451212271E+04  0.10451212271E+04  0.25500000920E-02 0. -1.
    10030    2    1    2    0    0  0.00000000000E+00  0.00000000000E+00 -0.43287464290E+03  0.16573678113E+04  0.15998398687E+04 0.  0.
        4    1    3    3  502    0 -0.19625164180E+03  0.92982002920E+02  0.58112290071E+03  0.62037553015E+03  0.12699999809E+01 0.  1.
       -4    1    3    3    0  502  0.19625164180E+03 -0.92982002920E+02 -0.10139975436E+04  0.10369922811E+04  0.12699999809E+01 0. -1.
</event>
<event>
 5   0  0.9844690E-04  0.1526542E+04  0.7818609E-02  0.8866992E-01
       -2   -1    0    0    0  501  0.00000000000E+00  0.00000000000E+00  0.10234091020E+04  0.10234091020E+04  0.25500000920E-02 0. -1.
        2   -1    0    0  501    0  0.00000000000E+00  0.00000000000E+00 -0.56925713310E+03  0.56925713311E+03  0.25500000920E-02 0.  1.
    10030    2    1    2    0    0  0.00000000000E+00  0.00000000000E+00  0.45415196887E+03  0.15926662351E+04  0.15265424087E+04 0.  0.
        3    1    3    3  502    0 -0.26835083152E+03  0.67381876741E+03 -0.21003037804E+02  0.72559288716E+03  0.10100000352E+00 0.  1.
       -3    1    3    3    0  502  0.26835083152E+03 -0.67381876741E+03  0.47515500667E+03  0.86707334792E+03  0.10100000352E+00 0. -1.
</event>
<event>
 5   0  0.5281116E-04  0.1615176E+04  0.7818609E-02  0.8811279E-01
        1   -1    0    0  501    0  0.00000000000E+00  0.00000000000E+00  0.14375897329E+04  0.14375897329E+04  0.50400001928E-02 0.  1.
       -1   -1    0    0    0  501  0.00000000000E+00  0.00000000000E+00 -0.45367504666E+03  0.45367504669E+03  0.50400001928E-02 0. -1.
    10030    2    1    2    0    0  0.00000000000E+00  0.00000000000E+00  0.98391468627E+03  0.18912647796E+04  0.16151762618E+04 0.  0.
        2    1    3    3  502    0 -0.14139126578E+03 -0.77203857146E+03  0.26928416899E+03  0.82978853302E+03  0.25500000920E-02 0. -1.
       -2    1    3    3    0  502  0.14139126578E+03  0.77203857146E+03  0.71463051728E+03  0.10614762466E+04  0.25500000920E-02 0.  1.
</event>
<event>
 5   0  0.3832500E-04  0.1574736E+04  0.7818609E-02  0.8836221E-01
       -4   -1    0    0    0  501  0.00000000000E+00  0.00000000000E+00  0.50849205455E+03  0.50849364051E+03  0.12699999809E+01 0.  1.
        4   -1    0    0  501    0  0.00000000000E+00  0.00000000000E+00 -0.12191862996E+04  0.12191869610E+04  0.12699999809E+01 0. -1.
    10030    2    1    2    0    0  0.00000000000E+00  0.00000000000E+00 -0.71069424502E+03  0.17276806016E+04  0.15747361528E+04 0.  0.
        4    1    3    3  502    0  0.21175789760E+03  0.42692316301E+03  0.33229846427E+03  0.58097218227E+03  0.12699999809E+01 0.  1.
       -4    1    3    3    0  502 -0.21175789760E+03 -0.42692316301E+03 -0.10429927093E+04  0.11467084193E+04  0.12699999809E+01 0. -1.
</event>
<event>
 5   0  0.3832500E-04  0.1575100E+04  0.7818609E-02  0.8835993E-01
        3   -1    0    0  501    0  0.00000000000E+00  0.00000000000E+00  0.13552445117E+04  0.13552445154E+04  0.10100000352E+00 0. -1.
       -3   -1    0    0    0  501  0.00000000000E+00  0.00000000000E+00 -0.45765525353E+03  0.45765526467E+03  0.10100000352E+00 0.  1.
    10030    2    1    2    0    0  0.00000000000E+00  0.00000000000E+00  0.89758925814E+03  0.18128997801E+04  0.15750997227E+04 0.  0.
        2    1    3    3  502    0  0.32138520320E+03 -0.27314692588E+03 -0.31670048058E+03  0.52744372814E+03  0.25500000920E-02 0.  1.
       -2    1    3    3    0  502 -0.32138520320E+03  0.27314692588E+03  0.12142897387E+04  0.12854560520E+04  0.25500000920E-02 0. -1.
</event>
<event>
 5   0  0.5425525E-04  0.1646087E+04  0.7818609E-02  0.8792725E-01
        1   -1    0    0  501    0  0.00000000000E+00  0.00000000000E+00  0.17206523825E+04  0.17206523826E+04  0.50400001928E-02 0. -1.
       -1   -1    0    0    0  501  0.00000000000E+00  0.00000000000E+00 -0.39368823163E+03  0.39368823166E+03  0.50400001928E-02 0.  1.
    10030    2    1    2    0    0  0.00000000000E+00  0.00000000000E+00  0.13269641509E+04  0.21143406142E+04  0.16460869889E+04 0.  0.
        5    1    3    3  502    0 -0.31871608882E+03  0.15619850698E+03  0.16172787003E+04  0.16557748649E+04  0.46999998093E+01 0. -1.
       -5    1    3    3    0  502  0.31871608882E+03 -0.15619850698E+03 -0.29031454937E+03  0.45856574930E+03  0.46999998093E+01 0.  1.
</event>
<event>
 5   0  0.5532881E-04  0.1670927E+04  0.7818609E-02  0.8778122E-01
        1   -1    0    0  501    0  0.00000000000E+00  0.00000000000E+00  0.67501720697E+03  0.67501720698E+03  0.50400001928E-02 0. -1.
       -1   -1    0    0    0  501  0.00000000000E+00  0.00000000000E+00 -0.10340460327E+04  0.10340460327E+04  0.50400001928E-02 0.  1.
    10030    2    1    2    0    0  0.00000000000E+00  0.00000000000E+00 -0.35902882577E+03  0.17090632397E+04  0.16709265273E+04 0.  0.
        4    1    3    3  502    0  0.20933048038E+03  0.55609984827E+03  0.42119836251E+03  0.72833780950E+03  0.12699999809E+01 0. -1.
       -4    1    3    3    0  502 -0.20933048038E+03 -0.55609984827E+03 -0.78022718828E+03  0.98072543023E+03  0.12699999809E+01 0.  1.
</event>
<event>
 5   0  0.5288658E-04  0.1600755E+04  0.7818609E-02  0.8820084E-01
        1   -1    0    0  501    0  0.00000000000E+00  0.00000000000E+00  0.15452376810E+04  0.15452376810E+04  0.50400001928E-02 0.  1.
       -1   -1    0    0    0  501  0.00000000000E+00  0.00000000000E+00 -0.41456661895E+03  0.41456661898E+03  0.50400001928E-02 0. -1.
    10030    2    1    2    0    0  0.00000000000E+00  0.00000000000E+00  0.11306710620E+04  0.19598042999E+04  0.16007547731E+04 0.  0.
        1    1    3    3  502    0 -0.61141142962E+03  0.36844634346E+03  0.10085039704E+04  0.12355795817E+04  0.50400001928E-02 0.  1.
       -1    1    3    3    0  502  0.61141142962E+03 -0.36844634346E+03  0.12216709163E+03  0.72422471829E+03  0.50400001928E-02 0. -1.
</event>
<event>
 5   0  0.1000121E-03  0.1483396E+04  0.7818609E-02  0.8895570E-01
       -2   -1    0    0    0  501  0.00000000000E+00  0.00000000000E+00  0.38222299857E+03  0.38222299857E+03  0.25500000920E-02 0. -1.
        2   -1    0    0  501    0  0.00000000000E+00  0.00000000000E+00 -0.14392535577E+04  0.14392535578E+04  0.25500000920E-02 0.  1.
    10030    2    1    2    0    0  0.00000000000E+00  0.00000000000E+00 -0.10570305592E+04  0.18214765563E+04  0.14833958481E+04 0.  0.
        4    1    3    3  502    0 -0.16600327070E+03  0.64075366266E+03 -0.11759294484E+03  0.67227379517E+03  0.12699999809E+01 0. -1.
       -4    1    3    3    0  502  0.16600327070E+03 -0.64075366266E+03 -0.93943761434E+03  0.11492027612E+04  0.12699999809E+01 0.  1.
</event>
<event>
 5   0  0.1037321E-03  0.1588115E+04  0.7818609E-02  0.8827883E-01
       -2   -1    0    0    0  501  0.00000000000E+00  0.00000000000E+00  0.72691777373E+03  0.72691777374E+03  0.25500000920E-02 0.  1.
        2   -1    0    0  501    0  0.00000000000E+00  0.00000000000E+00 -0.86739807204E+03  0.86739807204E+03  0.25500000920E-02 0. -1.
    10030    2    1    2    0    0  0.00000000000E+00  0.00000000000E+00 -0.14048029831E+03  0.15943158458E+04  0.15881147005E+04 0.  0.
        5    1    3    3  502    0 -0.37723175993E+03 -0.63819189210E+03  0.21532141549E+03  0.77199617474E+03  0.46999998093E+01 0.  1.
       -5    1    3    3    0  502  0.37723175993E+03  0.63819189210E+03 -0.35580171380E+03  0.82231967104E+03  0.46999998093E+01 0. -1.
</event>
<event>
 5   0  0.5425525E-04  0.1557656E+04  0.7818609E-02  0.8846992E-01
       -1   -1    0    0    0  501  0.00000000000E+00  0.00000000000E+00  0.51766751971E+03  0.51766751974E+03  0.50400001928E-02 0.  1.
        1   -1    0    0  501    0  0.00000000000E+00  0.00000000000E+00 -0.11717423967E+04  0.11717423967E+04  0.50400001928E-02 0. -1.
    10030    2    1    2    0    0  0.00000000000E+00  0.00000000000E+00 -0.65407487698E+03  0.16894099164E+04  0.15576559059E+04 0.  0.
        5    1    3    3  502    0 -0.69172096717E+03  0.13506126683E+03  0.32402944014E+02  0.70554339555E+03  0.46999998093E+01 0.  1.
       -5    1    3    3    0  502  0.69172096717E+03 -0.13506126683E+03 -0.68647782099E+03  0.98386652089E+03  0.46999998093E+01 0. -1.
</event>
<event>
 5   0  0.1030027E-03  0.1611558E+04  0.7818609E-02  0.8813479E-01
       -2   -1    0    0    0  501  0.00000000000E+00  0.00000000000E+00  0.40556618697E+03  0.40556618697E+03  0.25500000920E-02 0. -1.
        2   -1    0    0  501    0  0.00000000000E+00  0.00000000000E+00 -0.16009209930E+04  0.16009209930E+04  0.25500000920E-02 0.  1.
    10030    2    1    2    0    0  0.00000000000E+00  0.00000000000E+00 -0.11953548060E+04  0.20064871800E+04  0.16115575358E+04 0.  0.
        1    1    3    3  502    0 -0.14530397682E+03 -0.65406546593E+03 -0.11549927588E+04  0.13352614547E+04  0.50400001928E-02 0.  1.
       -1    1    3    3    0  502  0.14530397682E+03  0.65406546593E+03 -0.40362047201E+02  0.67122572528E+03  0.50400001928E-02 0. -1.
</event>
<event>
 5   0  0.1057872E-03  0.1493328E+04  0.7818609E-02  0.8888902E-01
        2   -1    0    0  501    0  0.00000000000E+00  0.00000000000E+00  0.17460440361E+04  0.17460440361E+04  0.25500000920E-02 0.  1.
       -2   -1    0    0    0  501  0.00000000000E+00  0.00000000000E+00 -0.31929729729E+03  0.31929729730E+03  0.25500000920E-02 0. -1.
    10030    2    1    2    0    0  0.00000000000E+00  0.00000000000E+00  0.14267467388E+04  0.20653413334E+04  0.14933280171E+04 0.  0.
        2    1    3    3  502    0  0.47977064216E+03 -0.27891563600E+03  0.22496084766E+02  0.55540964604E+03  0.25500000920E-02 0. -1.
       -2    1    3    3    0  502 -0.47977064216E+03  0.27891563600E+03  0.14042506540E+04  0.15099316873E+04  0.25500000920E-02 0.  1.
</event>
<event>
 5   0  0.1057872E-03  0.1596406E+04  0.7818609E-02  0.8822759E-01
        2   -1    0    0  501    0  0.00000000000E+00  0.00000000000E+00  0.46877408232E+03  0.46877408233E+03  0.25500000920E-02 0. -1.
       -2   -1    0    0    0  501  0.00000000000E+00  0.00000000000E+00 -0.13591372561E+04  0.13591372561E+04  0.25500000920E-02 0.  1.
    10030    2    1    2    0    0  0.00000000000E+00  0.00000000000E+00 -0.89036317380E+03  0.18279113385E+04  0.15964063643E+04 0.  0.
        2    1    3    3  502    0 -0.19545859010E+03  0.62291741864E+03  0.80651682507E+02  0.65782586206E+03  0.25500000920E-02 0. -1.
       -2    1    3    3    0  502  0.19545859010E+03 -0.62291741864E+03 -0.97101485631E+03  0.11700854764E+04  0.25500000920E-02 0.  1.
</event>
<event>
 5   0  0.5532881E-04  0.1571314E+04  0.7818609E-02  0.8838367E-01
        1   -1    0    0  501    0  0.00000000000E+00  0.00000000000E+00  0.88811851748E+03  0.88811851749E+03  0.50400001928E-02 0.  1.
       -1   -1    0    0    0  501  0.00000000000E+00  0.00000000000E+00 -0.69501679684E+03  0.69501679686E+03  0.50400001928E-02 0. -1.
    10030    2    1    2    0    0  0.00000000000E+00  0.00000000000E+00  0.19310172064E+03  0.15831353144E+04  0.15713144654E+04 0.  0.
        4    1    3    3  502    0 -0.18241823884E+03 -0.38651981771E+03 -0.56763655229E+03  0.71055390488E+03  0.12699999809E+01 0. -1.
       -4    1    3    3    0  502  0.18241823884E+03  0.38651981771E+03  0.76073827293E+03  0.87258140947E+03  0.12699999809E+01 0.  1.
</event>
<event>
 5   0  0.5288658E-04  0.1615024E+04  0.7818609E-02  0.8811371E-01
       -1   -1    0    0    0  501  0.00000000000E+00  0.00000000000E+00  0.87258316018E+03  0.87258316020E+03  0.50400001928E-02 0. -1.
        1   -1    0    0  501    0  0.00000000000E+00  0.00000000000E+00 -0.74729336269E+03  0.74729336270E+03  0.50400001928E-02 0.  1.
    10030    2    1    2    0    0  0.00000000000E+00  0.00000000000E+00  0.12528979750E+03  0.16198765229E+04  0.16150239677E+04 0.  0.
        1    1    3    3  502    0 -0.27451604900E+03 -0.61734416705E+03 -0.38095392579E+03  0.77562798773E+03  0.50400001928E-02 0.  1.
       -1    1    3    3    0  502  0.27451604900E+03  0.61734416705E+03  0.50624372329E+03  0.84424853517E+03  0.50400001928E-02 0. -1.
</event>
<event>
 5   0  0.1037321E-03  0.1575063E+04  0.7818609E-02  0.8836016E-01
        2   -1    0    0  501    0  0.00000000000E+00  0.00000000000E+00  0.81998763533E+03  0.81998763533E+03  0.25500000920E-02 0. -1.
       -2   -1    0    0    0  501  0.00000000000E+00  0.00000000000E+00 -0.75635960044E+03  0.75635960045E+03  0.25500000920E-02 0.  1.
    10030    2    1    2    0    0  0.00000000000E+00  0.00000000000E+00  0.63628034886E+02  0.15763472358E+04  0.15750625641E+04 0.  0.
        5    1    3    3  502    0 -0.74477198450E+03 -0.17476406946E+02  0.28735087666E+03  0.79848816523E+03  0.46999998093E+01 0. -1.
       -5    1    3    3    0  502  0.74477198450E+03  0.17476406946E+02 -0.22372284178E+03  0.77785907055E+03  0.46999998093E+01 0.  1.
</event>
<event>
 5   0  0.5425525E-04  0.1589283E+04  0.7818609E-02  0.8827159E-01
        1   -1    0    0  501    0  0.00000000000E+00  0.00000000000E+00  0.97963796004E+03  0.97963796005E+03  0.50400001928E-02 0.  1.
       -1   -1    0    0    0  501  0.00000000000E+00  0.00000000000E+00 -0.64457991131E+03  0.64457991133E+03  0.50400001928E-02 0. -1.
    10030    2    1    2    0    0  0.00000000000E+00  0.00000000000E+00  0.33505804873E+03  0.16242178714E+04  0.15892827935E+04 0.  0.
        5    1    3    3  502    0 -0.59964933362E+03  0.51257543128E+03  0.69931309356E+02  0.79197561458E+03  0.46999998093E+01 0.  1.
       -5    1    3    3    0  502  0.59964933362E+03 -0.51257543128E+03  0.26512673938E+03  0.83224225680E+03  0.46999998093E+01 0. -1.
</event>
<event>
 5   0  0.1057872E-03  0.1575689E+04  0.7818609E-02  0.8835624E-01
       -2   -1    0    0    0  501  0.00000000000E+00  0.00000000000E+00  0.38230194247E+03  0.38230194248E+03  0.25500000920E-02 0.  1.
        2   -1    0    0  501    0  0.00000000000E+00  0.00000000000E+00 -0.16235823377E+04  0.16235823377E+04  0.25500000920E-02 0. -1.
    10030    2    1    2    0    0  0.00000000000E+00  0.00000000000E+00 -0.12412803952E+04  0.20058842801E+04  0.15756886513E+04 0.  0.
        2    1    3    3  502    0 -0.33696569306E+03  0.48973396145E+03  0.37541609079E+02  0.59564637472E+03  0.25500000920E-02 0.  1.
       -2    1    3    3    0  502  0.33696569306E+03 -0.48973396145E+03 -0.12788220043E+04  0.14102379054E+04  0.25500000920E-02 0. -1.
</event>
<event>
 5   0  0.1000121E-03  0.1655502E+04  0.7818609E-02  0.8787158E-01
       -2   -1    0    0    0  501  0.00000000000E+00  0.00000000000E+00  0.55451227128E+03  0.55451227128E+03  0.25500000920E-02 0. -1.
        2   -1    0    0  501    0  0.00000000000E+00  0.00000000000E+00 -0.12356293980E+04  0.12356293980E+04  0.25500000920E-02 0.  1.
    10030    2    1    2    0    0  0.00000000000E+00  0.00000000000E+00 -0.68111712671E+03  0.17901416693E+04  0.16555019347E+04 0.  0.
        4    1    3    3  502    0 -0.36850075993E+03  0.74052036316E+03 -0.37486979995E+03  0.90812565107E+03  0.12699999809E+01 0.  1.
       -4    1    3    3    0  502  0.36850075993E+03 -0.74052036316E+03 -0.30624732676E+03  0.88201601820E+03  0.12699999809E+01 0. -1.
</event>
<event>
 5   0  0.5532881E-04  0.1351821E+04  0.7818609E-02  0.8989451E-01
       -1   -1    0    0    0  501  0.00000000000E+00  0.00000000000E+00  0.40963346366E+03  0.40963346369E+03  0.50400001928E-02 0. -1.
        1   -1    0    0  501    0  0.00000000000E+00  0.00000000000E+00 -0.11152780209E+04  0.11152780210E+04  0.50400001928E-02 0.  1.
    10030    2    1    2    0    0  0.00000000000E+00  0.00000000000E+00 -0.70564455729E+03  0.15249114846E+04  0.13518212880E+04 0.  0.
        4    1    3    3  502    0  0.48537821793E+03 -0.25763975181E+03  0.91121211675E+02  0.55702328880E+03  0.12699999809E+01 0. -1.
       -4    1    3    3    0  502 -0.48537821793E+03  0.25763975181E+03 -0.79676576897E+03  0.96788819584E+03  0.12699999809E+01 0.  1.
</event>
<event>
 5   0  0.1037321E-03  0.1246700E+04  0.7818609E-02  0.9072934E-01
       -2   -1    0    0    0  501  0.00000000000E+00  0.00000000000E+00  0.26787093451E+03  0.26787093452E+03  0.25500000920E-02 0.  1.
        2   -1    0    0  501    0  0.00000000000E+00  0.00000000000E+00 -0.14505687227E+04  0.14505687227E+04  0.25500000920E-02 0. -1.
    10030    2    1    2    0    0  0.00000000000E+00  0.00000000000E+00 -0.11826977882E+04  0.17184396572E+04  0.12466999628E+04 0.  0.
        5    1    3    3  502    0  0.18686564379E+03 -0.25555713085E+03  0.14877747694E+03  0.34983573803E+03  0.46999998093E+01 0.  1.
       -5    1    3    3    0  502 -0.18686564379E+03  0.25555713085E+03 -0.13314752651E+04  0.13686039192E+04  0.46999998093E+01 0. -1.
</event>
<event>
 5   0  0.9844690E-04  0.1588626E+04  0.7818609E-02  0.8827566E-01
       -2   -1    0    0    0  501  0.00000000000E+00  0.00000000000E+00  0.70492883476E+03  0.70492883476E+03  0.25500000920E-02 0.  1.
        2   -1    0    0  501    0  0.00000000000E+00  0.00000000000E+00 -0.89503126901E+03  0.89503126901E+03  0.25500000920E-02 0. -1.
    10030    2    1    2    0    0  0.00000000000E+00  0.00000000000E+00 -0.19010243425E+03  0.15999601038E+04  0.15886262613E+04 0.  0.
        3    1    3    3  502    0  0.78864944751E+03 -0.74902926630E+02 -0.15338629548E+03  0.80691124996E+03  0.10100000352E+00 0. -1.
       -3    1    3    3    0  502 -0.78864944751E+03  0.74902926630E+02 -0.36716138766E+02  0.79304885381E+03  0.10100000352E+00 0.  1.
</event>
<event>
 5   0  0.1000121E-03  0.1658228E+04  0.7818609E-02  0.8785553E-01
        2   -1    0    0  501    0  0.00000000000E+00  0.00000000000E+00  0.19010670325E+04  0.19010670325E+04  0.25500000920E-02 0. -1.
       -2   -1    0    0    0  501  0.00000000000E+00  0.00000000000E+00 -0.36160239515E+03  0.36160239516E+03  0.25500000920E-02 0.  1.
    10030    2    1    2    0    0  0.00000000000E+00  0.00000000000E+00  0.15394646373E+04  0.22626694276E+04  0.16582284430E+04 0.  0.
        4    1    3    3  502    0  0.10837676970E+03  0.81770196181E+03  0.65518857022E+03  0.10534019641E+04  0.12699999809E+01 0. -1.
       -4    1    3    3    0  502 -0.10837676970E+03 -0.81770196181E+03  0.88427606709E+03  0.12092674635E+04  0.12699999809E+01 0.  1.
</event>
<event>
 5   0  0.5281116E-04  0.1596765E+04  0.7818609E-02  0.8822538E-01
       -1   -1    0    0    0  501  0.00000000000E+00  0.00000000000E+00  0.61034622165E+03  0.61034622167E+03  0.50400001928E-02 0. -1.
        1   -1    0    0  501    0  0.00000000000E+00  0.00000000000E+00 -0.10443490208E+04  0.10443490208E+04  0.50400001928E-02 0.  1.
    10030    2    1    2    0    0  0.00000000000E+00  0.00000000000E+00 -0.43400279919E+03  0.16546952425E+04  0.15967648280E+04 0.  0.
        2    1    3    3  502    0 -0.14052113099E+03  0.31169783220E+03  0.53063897658E+03  0.63125228738E+03  0.25500000920E-02 0. -1.
       -2    1    3    3    0  502  0.14052113099E+03 -0.31169783220E+03 -0.96464177577E+03  0.10234429551E+04  0.25500000920E-02 0.  1.
</event>
<event>
 5   0  0.9844690E-04  0.1584901E+04  0.7818609E-02  0.8829878E-01
        2   -1    0    0  501    0  0.00000000000E+00  0.00000000000E+00  0.19613145788E+04  0.19613145788E+04  0.25500000920E-02 0. -1.
       -2   -1    0    0    0  501  0.00000000000E+00  0.00000000000E+00 -0.32018200035E+03  0.32018200036E+03  0.25500000920E-02 0.  1.
    10030    2    1    2    0    0  0.00000000000E+00  0.00000000000E+00  0.16411325785E+04  0.22814965792E+04  0.15849007858E+04 0.  0.
        3    1    3    3  502    0  0.72992906106E+03 -0.35643116822E+02  0.37942735111E+03  0.82342697972E+03  0.10100000352E+00 0.  1.
       -3    1    3    3    0  502 -0.72992906106E+03  0.35643116822E+02  0.12617052274E+04  0.14580695995E+04  0.10100000352E+00 0. -1.
</event>
<event>
 5   0  0.5623061E-04  0.1558447E+04  0.7818609E-02  0.8846490E-01
        1   -1    0    0  501    0  0.00000000000E+00  0.00000000000E+00  0.68249890632E+03  0.68249890634E+03  0.50400001928E-02 0.  1.
       -1   -1    0    0    0  501  0.00000000000E+00  0.00000000000E+00 -0.88965649804E+03  0.88965649805E+03  0.50400001928E-02 0. -1.
    10030    2    1    2    0    0  0.00000000000E+00  0.00000000000E+00 -0.20715759172E+03  0.15721554044E+04  0.15584474158E+04 0.  0.
        3    1    3    3  502    0  0.19782075918E+03 -0.71153648984E+03 -0.35430537374E+03  0.81911509399E+03  0.10100000352E+00 0.  1.
       -3    1    3    3    0  502 -0.19782075918E+03  0.71153648984E+03  0.14714778202E+03  0.75304031040E+03  0.10100000352E+00 0. -1.
</event>
<event>
 5   0  0.1000121E-03  0.1632917E+04  0.7818609E-02  0.8800577E-01
       -2   -1    0    0    0  501  0.00000000000E+00  0.00000000000E+00  0.67704753910E+03  0.67704753910E+03  0.25500000920E-02 0. -1.
        2   -1    0    0  501    0  0.00000000000E+00  0.00000000000E+00 -0.98457550341E+03  0.98457550341E+03  0.25500000920E-02 0.  1.
    10030    2    1    2    0    0  0.00000000000E+00  0.00000000000E+00 -0.30752796431E+03  0.16616230425E+04  0.16329169258E+04 0.  0.
        4    1    3    3  502    0  0.27218123360E+03 -0.33559343671E+03 -0.85868837195E+03  0.96127670923E+03  0.12699999809E+01 0.  1.
       -4    1    3    3    0  502 -0.27218123360E+03  0.33559343671E+03  0.55116040764E+03  0.70034633328E+03  0.12699999809E+01 0. -1.
</event>
<event>
 5   0  0.5288658E-04  0.1558283E+04  0.7818609E-02  0.8846595E-01
       -1   -1    0    0    0  501  0.00000000000E+00  0.00000000000E+00  0.30751100706E+03  0.30751100710E+03  0.50400001928E-02 0.  1.
        1   -1    0    0  501    0  0.00000000000E+00  0.00000000000E+00 -0.19741117782E+04  0.19741117782E+04  0.50400001928E-02 0. -1.
    10030    2    1    2    0    0  0.00000000000E+00  0.00000000000E+00 -0.16666007711E+04  0.22816227853E+04  0.15582825174E+04 0.  0.
        1    1    3    3  502    0 -0.53351538116E+03  0.43556276151E+03 -0.13666910538E+04  0.15304241300E+04  0.50400001928E-02 0. -1.
       -1    1    3    3    0  502  0.53351538116E+03 -0.43556276151E+03 -0.29990971736E+03  0.75119865531E+03  0.50400001928E-02 0.  1.
</event>
<event>
 5   0  0.1037321E-03  0.1612614E+04  0.7818609E-02  0.8812836E-01
       -2   -1    0    0    0  501  0.00000000000E+00  0.00000000000E+00  0.71400503771E+03  0.71400503771E+03  0.25500000920E-02 0. -1.
        2   -1    0    0  501    0  0.00000000000E+00  0.00000000000E+00 -0.91054079249E+03  0.91054079249E+03  0.25500000920E-02 0.  1.
    10030    2    1    2    0    0  0.00000000000E+00  0.00000000000E+00 -0.19653575478E+03  0.16245458302E+04  0.16126136709E+04 0.  0.
        5    1    3    3  502    0  0.47776252915E+03 -0.43612650875E+03  0.38658875053E+03  0.75361549741E+03  0.46999998093E+01 0. -1.
       -5    1    3    3    0  502 -0.47776252915E+03  0.43612650875E+03 -0.58312450532E+03  0.87093033280E+03  0.46999998093E+01 0.  1.
</event>
<event>
 5   0  0.5425525E-04  0.1581100E+04  0.7818609E-02  0.8832244E-01
        1   -1    0    0  501    0  0.00000000000E+00  0.00000000000E+00  0.61792509069E+03  0.61792509071E+03  0.50400001928E-02 0.  1.
       -1   -1    0    0    0  501  0.00000000000E+00  0.00000000000E+00 -0.10113994583E+04  0.10113994583E+04  0.50400001928E-02 0. -1.
    10030    2    1    2    0    0  0.00000000000E+00  0.00000000000E+00 -0.39347436764E+03  0.16293245491E+04  0.15810997464E+04 0.  0.
        5    1    3    3  502    0 -0.78428137639E+03  0.44491475580E+02 -0.28815743516E+03  0.83673984379E+03  0.46999998093E+01 0.  1.
       -5    1    3    3    0  502  0.78428137639E+03 -0.44491475580E+02 -0.10531693248E+03  0.79258470526E+03  0.46999998093E+01 0. -1.
</event>
<event>
 5   0  0.5425525E-04  0.1565587E+04  0.7818609E-02  0.8841973E-01
       -1   -1    0    0    0  501  0.00000000000E+00  0.00000000000E+00  0.10405458190E+04  0.10405458190E+04  0.50400001928E-02 0.  1.
        1   -1    0    0  501    0  0.00000000000E+00  0.00000000000E+00 -0.58888839214E+03  0.58888839216E+03  0.50400001928E-02 0. -1.
    10030    2    1    2    0    0  0.00000000000E+00  0.00000000000E+00  0.45165742684E+03  0.16294342112E+04  0.15655866048E+04 0.  0.
        5    1    3    3  502    0  0.24334023338E+03 -0.71293270140E+03  0.44723842042E+03  0.87608892277E+03  0.46999998093E+01 0.  1.
       -5    1    3    3    0  502 -0.24334023338E+03  0.71293270140E+03  0.44190064180E+01  0.75334528838E+03  0.46999998093E+01 0. -1.
</event>
<event>
 5   0  0.1037321E-03  0.1516231E+04  0.7818609E-02  0.8873730E-01
       -2   -1    0    0    0  501  0.00000000000E+00  0.00000000000E+00  0.42481689564E+03  0.42481689564E+03  0.25500000920E-02 0.  1.
        2   -1    0    0  501    0  0.00000000000E+00  0.00000000000E+00 -0.13529108156E+04  0.13529108156E+04  0.25500000920E-02 0. -1.
    10030    2    1    2    0    0  0.00000000000E+00  0.00000000000E+00 -0.92809392001E+03  0.17777277113E+04  0.15162313449E+04 0.  0.
        5    1    3    3  502    0 -0.71659222848E+03 -0.24206641273E+03 -0.52402300063E+03  0.92017539919E+03  0.46999998093E+01 0. -1.
       -5    1    3    3    0  502  0.71659222848E+03  0.24206641273E+03 -0.40407091938E+03  0.85755231209E+03  0.46999998093E+01 0.  1.
</event>
<event>
 5   0  0.5532881E-04  0.1598343E+04  0.7818609E-02  0.8821567E-01
       -1   -1    0    0    0  501  0.00000000000E+00  0.00000000000E+00  0.11541290305E+04  0.11541290305E+04  0.50400001928E-02 0.  1.
        1   -1    0    0  501    0  0.00000000000E+00  0.00000000000E+00 -0.55338261362E+03  0.55338261365E+03  0.50400001928E-02 0. -1.
    10030    2    1    2    0    0  0.00000000000E+00  0.00000000000E+00  0.60074641683E+03  0.17075116441E+04  0.15983428160E+04 0.  0.
        4    1    3    3  502    0 -0.63366781226E+03  0.24627364436E+03 -0.14842487094E+03  0.69585714009E+03  0.12699999809E+01 0. -1.
       -4    1    3    3    0  502  0.63366781226E+03 -0.24627364436E+03  0.74917128777E+03  0.10116545040E+04  0.12699999809E+01 0.  1.
</event>
<event>
 5   0  0.5532881E-04  0.1690280E+04  0.7818609E-02  0.8766927E-01
        1   -1    0    0  501    0  0.00000000000E+00  0.00000000000E+00  0.93458962405E+03  0.93458962407E+03  0.50400001928E-02 0. -1.
       -1   -1    0    0    0  501  0.00000000000E+00  0.00000000000E+00 -0.76425192655E+03  0.76425192657E+03  0.50400001928E-02 0.  1.
    10030    2    1    2    0    0  0.00000000000E+00  0.00000000000E+00  0.17033769750E+03  0.16988415506E+04  0.16902803563E+04 0.  0.
        4    1    3    3  502    0  0.36802588928E+03  0.55362343763E+03  0.60965325117E+03  0.90200923800E+03  0.12699999809E+01 0. -1.
       -4    1    3    3    0  502 -0.36802588928E+03 -0.55362343763E+03 -0.43931555367E+03  0.79683231264E+03  0.12699999809E+01 0.  1.
</event>
<event>
 5   0  0.5425525E-04  0.1568038E+04  0.7818609E-02  0.8840428E-01
        1   -1    0    0  501    0  0.00000000000E+00  0.00000000000E+00  0.19961100060E+04  0.19961100060E+04  0.50400001928E-02 0.  1.
       -1   -1    0    0    0  501  0.00000000000E+00  0.00000000000E+00 -0.30794177069E+03  0.30794177073E+03  0.50400001928E-02 0. -1.
    10030    2    1    2    0    0  0.00000000000E+00  0.00000000000E+00  0.16881682354E+04  0.23040517768E+04  0.15680378182E+04 0.  0.
        5    1    3    3  502    0  0.67700033822E+03 -0.14117508622E+03  0.13867703101E+04  0.15496495881E+04  0.46999998093E+01 0.  1.
       -5    1    3    3    0  502 -0.67700033822E+03  0.14117508622E+03  0.30139792524E+03  0.75440218867E+03  0.46999998093E+01 0. -1.
</event>
<event>
 5   0  0.5281116E-04  0.1610312E+04  0.7818609E-02  0.8814238E-01
        1   -1    0    0  501    0  0.00000000000E+00  0.00000000000E+00  0.95830212117E+03  0.95830212118E+03  0.50400001928E-02 0.  1.
       -1   -1    0    0    0  501  0.00000000000E+00  0.00000000000E+00 -0.67648430388E+03  0.67648430390E+03  0.50400001928E-02 0. -1.
    10030    2    1    2    0    0  0.00000000000E+00  0.00000000000E+00  0.28181781729E+03  0.16347864251E+04  0.16103121975E+04 0.  0.
        2    1    3    3  502    0  0.39808979385E+03  0.59432814918E+03  0.51608607807E+03  0.88206931296E+03  0.25500000920E-02 0.  1.
       -2    1    3    3    0  502 -0.39808979385E+03 -0.59432814918E+03 -0.23426826078E+03  0.75271711212E+03  0.25500000920E-02 0. -1.
</event>
<event>
 5   0  0.5532881E-04  0.1550810E+04  0.7818609E-02  0.8851351E-01
        1   -1    0    0  501    0  0.00000000000E+00  0.00000000000E+00  0.12707853535E+04  0.12707853535E+04  0.50400001928E-02 0. -1.
       -1   -1    0    0    0  501  0.00000000000E+00  0.00000000000E+00 -0.47313468527E+03  0.47313468529E+03  0.50400001928E-02 0.  1.
    10030    2    1    2    0    0  0.00000000000E+00  0.00000000000E+00  0.79765066821E+03  0.17439200388E+04  0.15508096315E+04 0.  0.
        4    1    3    3  502    0 -0.16963387166E+03 -0.75521210576E+03  0.45072469233E+03  0.89569823952E+03  0.12699999809E+01 0.  1.
       -4    1    3    3    0  502  0.16963387166E+03  0.75521210576E+03  0.34692597589E+03  0.84822179926E+03  0.12699999809E+01 0. -1.
</event>
<event>
 5   0  0.5532881E-04  0.1594109E+04  0.7818609E-02  0.8824175E-01
       -1   -1    0    0    0  501  0.00000000000E+00  0.00000000000E+00  0.70474525582E+03  0.70474525584E+03  0.50400001928E-02 0. -1.
        1   -1    0    0  501    0  0.00000000000E+00  0.00000000000E+00 -0.90145494550E+03  0.90145494552E+03  0.50400001928E-02 0.  1.
    10030    2    1    2    0    0  0.00000000000E+00  0.00000000000E+00 -0.19670968968E+03  0.16062002014E+04  0.15941092763E+04 0.  0.
        4    1    3    3  502    0  0.21167356433E+03 -0.18315739765E+02 -0.87239593162E+03  0.89789611792E+03  0.12699999809E+01 0.  1.
       -4    1    3    3    0  502 -0.21167356433E+03  0.18315739765E+02  0.67568624194E+03  0.70830408343E+03  0.12699999809E+01 0. -1.
</event>
<event>
 5   0  0.5288658E-04  0.1715987E+04  0.7818609E-02  0.8752299E-01
        1   -1    0    0  501    0  0.00000000000E+00  0.00000000000E+00  0.89643736069E+03  0.89643736071E+03  0.50400001928E-02 0. -1.
       -1   -1    0    0    0  501  0.00000000000E+00  0.00000000000E+00 -0.82119797923E+03  0.82119797925E+03  0.50400001928E-02 0.  1.
    10030    2    1    2    0    0  0.00000000000E+00  0.00000000000E+00  0.75239381462E+02  0.17176353400E+04  0.17159866539E+04 0.  0.
        1    1    3    3  502    0  0.39419943199E+03 -0.55304718459E+03  0.56243075743E+03  0.88180651931E+03  0.50400001928E-02 0. -1.
       -1    1    3    3    0  502 -0.39419943199E+03  0.55304718459E+03 -0.48719137597E+03  0.83582882064E+03  0.50400001928E-02 0.  1.
</event>
<event>
 5   0  0.1057872E-03  0.1630637E+04  0.7818609E-02  0.8801944E-01
       -2   -1    0    0    0  501  0.00000000000E+00  0.00000000000E+00  0.55373576679E+03  0.55373576680E+03  0.25500000920E-02 0.  1.
        2   -1    0    0  501    0  0.00000000000E+00  0.00000000000E+00 -0.12004723026E+04  0.12004723026E+04  0.25500000920E-02 0. -1.
    10030    2    1    2    0    0  0.00000000000E+00  0.00000000000E+00 -0.64673653585E+03  0.17542080694E+04  0.16306372387E+04 0.  0.
        2    1    3    3  502    0 -0.53587050425E+03  0.21641440749E+03 -0.94206101658E+03  0.11052019508E+04  0.25500000920E-02 0. -1.
       -2    1    3    3    0  502  0.53587050425E+03 -0.21641440749E+03  0.29532448074E+03  0.64900611863E+03  0.25500000920E-02 0.  1.
</event>
<event>
 5   0  0.5288658E-04  0.1592955E+04  0.7818609E-02  0.8824888E-01
       -1   -1    0    0    0  501  0.00000000000E+00  0.00000000000E+00  0.43498962650E+03  0.43498962653E+03  0.50400001928E-02 0. -1.
        1   -1    0    0  501    0  0.00000000000E+00  0.00000000000E+00 -0.14583716004E+04  0.14583716004E+04  0.50400001928E-02 0.  1.
    10030    2    1    2    0    0  0.00000000000E+00  0.00000000000E+00 -0.10233819739E+04  0.18933612270E+04  0.15929551379E+04 0.  0.
        1    1    3    3  502    0 -0.40424406930E+02  0.56863676635E+03  0.14943816602E+03  0.58933324207E+03  0.50400001928E-02 0. -1.
       -1    1    3    3    0  502  0.40424406930E+02 -0.56863676635E+03 -0.11728201399E+04  0.13040279849E+04  0.50400001928E-02 0.  1.
</event>
<event>
 5   0  0.5532881E-04  0.1638710E+04  0.7818609E-02  0.8797114E-01
        1   -1    0    0  501    0  0.00000000000E+00  0.00000000000E+00  0.62462962023E+03  0.62462962026E+03  0.50400001928E-02 0. -1.
       -1   -1    0    0    0  501  0.00000000000E+00  0.00000000000E+00 -0.10747854010E+04  0.10747854010E+04  0.50400001928E-02 0.  1.
    10030    2    1    2    0    0  0.00000000000E+00  0.00000000000E+00 -0.45015578076E+03  0.16994150213E+04  0.16387102207E+04 0.  0.
        4    1    3    3  502    0  0.42494652775E+02  0.51049179109E+03  0.43809023725E+03  0.67404178888E+03  0.12699999809E+01 0. -1.
       -4    1    3    3    0  502 -0.42494652775E+02 -0.51049179109E+03 -0.88824601801E+03  0.10253732324E+04  0.12699999809E+01 0.  1.
</event>
<event>
 5   0  0.1037321E-03  0.1513238E+04  0.7818609E-02  0.8875697E-01
        2   -1    0    0  501    0  0.00000000000E+00  0.00000000000E+00  0.21055858735E+04  0.21055858735E+04  0.25500000920E-02 0. -1.
       -2   -1    0    0    0  501  0.00000000000E+00  0.00000000000E+00 -0.27188271440E+03  0.27188271441E+03  0.25500000920E-02 0.  1.
    10030    2    1    2    0    0  0.00000000000E+00  0.00000000000E+00  0.18337031591E+04  0.23774685879E+04  0.15132381210E+04 0.  0.
        5    1    3    3  502    0 -0.39333949825E+03 -0.29076066580E+03  0.18237427622E+04  0.18882048296E+04  0.46999998093E+01 0. -1.
       -5    1    3    3    0  502  0.39333949825E+03  0.29076066580E+03  0.99603968249E+01  0.48926375828E+03  0.46999998093E+01 0.  1.
</event>
<event>
 5   0  0.1037321E-03  0.1607988E+04  0.7818609E-02  0.8815656E-01
        2   -1    0    0  501    0  0.00000000000E+00  0.00000000000E+00  0.11876945001E+04  0.11876945001E+04  0.25500000920E-02 0. -1.
       -2   -1    0    0    0  501  0.00000000000E+00  0.00000000000E+00 -0.54425284456E+03  0.54425284456E+03  0.25500000920E-02 0.  1.
    10030    2    1    2    0    0  0.00000000000E+00  0.00000000000E+00  0.64344165555E+03  0.17319473447E+04  0.16079876992E+04 0.  0.
        5    1    3    3  502    0 -0.43136764415E+03  0.67570058543E+03  0.38754410605E+03  0.89042790259E+03  0.46999998093E+01 0. -1.
       -5    1    3    3    0  502  0.43136764415E+03 -0.67570058543E+03  0.25589754950E+03  0.84151944209E+03  0.46999998093E+01 0.  1.
</event>
<event>
 5   0  0.5623061E-04  0.1623529E+04  0.7818609E-02  0.8806222E-01
        1   -1    0    0  501    0  0.00000000000E+00  0.00000000000E+00  0.82672822909E+03  0.82672822910E+03  0.50400001928E-02 0.  1.
       -1   -1    0    0    0  501  0.00000000000E+00  0.00000000000E+00 -0.79707150989E+03  0.79707150991E+03  0.50400001928E-02 0. -1.
    10030    2    1    2    0    0  0.00000000000E+00  0.00000000000E+00  0.29656719195E+02  0.16237997390E+04  0.16235288945E+04 0.  0.
        3    1    3    3  502    0 -0.15573587242E+03 -0.23370539843E+03  0.77659157409E+03  0.82581254433E+03  0.10100000352E+00 0.  1.
       -3    1    3    3    0  502  0.15573587242E+03  0.23370539843E+03 -0.74693485490E+03  0.79798719468E+03  0.10100000352E+00 0. -1.
</event>
<event>
 5   0  0.5532881E-04  0.1606407E+04  0.7818609E-02  0.8816622E-01
       -1   -1    0    0    0  501  0.00000000000E+00  0.00000000000E+00  0.10665380034E+04  0.10665380034E+04  0.50400001928E-02 0. -1.
        1   -1    0    0  501    0  0.00000000000E+00  0.00000000000E+00 -0.60488755663E+03  0.60488755665E+03  0.50400001928E-02 0.  1.
    10030    2    1    2    0    0  0.00000000000E+00  0.00000000000E+00  0.46165044678E+03  0.16714255601E+04  0.16064066322E+04 0.  0.
        4    1    3    3  502    0  0.30224063739E+03 -0.68862180603E+02  0.10017900285E+04  0.10486545079E+04  0.12699999809E+01 0. -1.
       -4    1    3    3    0  502 -0.30224063739E+03  0.68862180603E+02 -0.54013958171E+03  0.62277105219E+03  0.12699999809E+01 0.  1.
</event>
<event>
 5   0  0.5281116E-04  0.1590500E+04  0.7818609E-02  0.8826406E-01
        1   -1    0    0  501    0  0.00000000000E+00  0.00000000000E+00  0.86627478692E+03  0.86627478694E+03  0.50400001928E-02 0.  1.
       -1   -1    0    0    0  501  0.00000000000E+00  0.00000000000E+00 -0.73004840306E+03  0.73004840308E+03  0.50400001928E-02 0. -1.
    10030    2    1    2    0    0  0.00000000000E+00  0.00000000000E+00  0.13622638386E+03  0.15963231900E+04  0.15904999526E+04 0.  0.
        2    1    3    3  502    0  0.44495237330E+03  0.55943556658E+03  0.41791723048E+03  0.82801303081E+03  0.25500000920E-02 0.  1.
       -2    1    3    3    0  502 -0.44495237330E+03 -0.55943556658E+03 -0.28169084662E+03  0.76831015920E+03  0.25500000920E-02 0. -1.
</event>
<event>
 5   0  0.1000121E-03  0.1579495E+04  0.7818609E-02  0.8833245E-01
        2   -1    0    0  501    0  0.00000000000E+00  0.00000000000E+00  0.42567694913E+03  0.42567694914E+03  0.25500000920E-02 0. -1.
       -2   -1    0    0    0  501  0.00000000000E+00  0.00000000000E+00 -0.14651973056E+04  0.14651973056E+04  0.25500000920E-02 0.  1.
    10030    2    1    2    0    0  0.00000000000E+00  0.00000000000E+00 -0.10395203564E+04  0.18908742547E+04  0.15794945000E+04 0.  0.
        4    1    3    3  502    0 -0.14966526012E+03 -0.65650342530E+03 -0.10137923794E+04  0.12170345266E+04  0.12699999809E+01 0.  1.
       -4    1    3    3    0  502  0.14966526012E+03  0.65650342530E+03 -0.25727977093E+02  0.67383972815E+03  0.12699999809E+01 0. -1.
</event>
<event>
 5   0  0.3832500E-04  0.1570445E+04  0.7818609E-02  0.8838913E-01
       -3   -1    0    0    0  501  0.00000000000E+00  0.00000000000E+00  0.47988706032E+03  0.47988707095E+03  0.10100000352E+00 0. -1.
        3   -1    0    0  501    0  0.00000000000E+00  0.00000000000E+00 -0.12848330304E+04  0.12848330344E+04  0.10100000352E+00 0.  1.
    10030    2    1    2    0    0  0.00000000000E+00  0.00000000000E+00 -0.80494597007E+03  0.17647201053E+04  0.15704454894E+04 0.  0.
        2    1    3    3  502    0 -0.15447723461E+03  0.64581842237E+03 -0.87339874948E+03  0.10971645393E+04  0.25500000920E-02 0. -1.
       -2    1    3    3    0  502  0.15447723461E+03 -0.64581842237E+03  0.68452779409E+02  0.66755556601E+03  0.25500000920E-02 0.  1.
</event>
<event>
 5   0  0.5623061E-04  0.1590846E+04  0.7818609E-02  0.8826192E-01
       -1   -1    0    0    0  501  0.00000000000E+00  0.00000000000E+00  0.88308167138E+03  0.88308167139E+03  0.50400001928E-02 0.  1.
        1   -1    0    0  501    0  0.00000000000E+00  0.00000000000E+00 -0.71646562322E+03  0.71646562324E+03  0.50400001928E-02 0. -1.
    10030    2    1    2    0    0  0.00000000000E+00  0.00000000000E+00  0.16661604816E+03  0.15995472946E+04  0.15908458883E+04 0.  0.
        3    1    3    3  502    0  0.27773581382E+03 -0.67529111764E+03 -0.23392104218E+03  0.76672963945E+03  0.10100000352E+00 0. -1.
       -3    1    3    3    0  502 -0.27773581382E+03  0.67529111764E+03  0.40053709034E+03  0.83281765518E+03  0.10100000352E+00 0.  1.
</event>
<event>
 5   0  0.1057872E-03  0.1612864E+04  0.7818609E-02  0.8812684E-01
        2   -1    0    0  501    0  0.00000000000E+00  0.00000000000E+00  0.66287970336E+03  0.66287970337E+03  0.25500000920E-02 0. -1.
       -2   -1    0    0    0  501  0.00000000000E+00  0.00000000000E+00 -0.98107210424E+03  0.98107210424E+03  0.25500000920E-02 0.  1.
    10030    2    1    2    0    0  0.00000000000E+00  0.00000000000E+00 -0.31819240088E+03  0.16439518076E+04  0.16128642664E+04 0.  0.
        2    1    3    3  502    0 -0.75971737454E+03 -0.21602753999E+02  0.11572192713E+03  0.76878393102E+03  0.25500000920E-02 0. -1.
       -2    1    3    3    0  502  0.75971737454E+03  0.21602753999E+02 -0.43391432801E+03  0.87516787659E+03  0.25500000920E-02 0.  1.
</event>
<event>
 5   0  0.1037321E-03  0.1598949E+04  0.7818609E-02  0.8821194E-01
       -2   -1    0    0    0  501  0.00000000000E+00  0.00000000000E+00  0.61012537763E+03  0.61012537764E+03  0.25500000920E-02 0. -1.
        2   -1    0    0  501    0  0.00000000000E+00  0.00000000000E+00 -0.10475867857E+04  0.10475867857E+04  0.25500000920E-02 0.  1.
    10030    2    1    2    0    0  0.00000000000E+00  0.00000000000E+00 -0.43746140808E+03  0.16577121634E+04  0.15989487587E+04 0.  0.
        5    1    3    3  502    0  0.28102550220E+03 -0.21455405381E+03 -0.96210986589E+03  0.10250298820E+04  0.46999998093E+01 0.  1.
       -5    1    3    3    0  502 -0.28102550220E+03  0.21455405381E+03  0.52464845781E+03  0.63268228138E+03  0.46999998093E+01 0. -1.
</event>
<event>
 5   0  0.9844690E-04  0.1640992E+04  0.7818609E-02  0.8795754E-01
        2   -1    0    0  501    0  0.00000000000E+00  0.00000000000E+00  0.81140437116E+03  0.81140437116E+03  0.25500000920E-02 0.  1.
       -2   -1    0    0    0  501  0.00000000000E+00  0.00000000000E+00 -0.82968918515E+03  0.82968918516E+03  0.25500000920E-02 0. -1.
    10030    2    1    2    0    0  0.00000000000E+00  0.00000000000E+00 -0.18284813996E+02  0.16410935563E+04  0.16409916899E+04 0.  0.
        3    1    3    3  502    0 -0.44519768184E+02  0.79823080991E+03 -0.19370463045E+03  0.82260314229E+03  0.10100000352E+00 0. -1.
       -3    1    3    3    0  502  0.44519768184E+02 -0.79823080991E+03  0.17541981645E+03  0.81849041403E+03  0.10100000352E+00 0.  1.
</event>
<event>
 5   0  0.5281116E-04  0.1588535E+04  0.7818609E-02  0.8827622E-01
        1   -1    0    0  501    0  0.00000000000E+00  0.00000000000E+00  0.11442231670E+04  0.11442231670E+04  0.50400001928E-02 0.  1.
       -1   -1    0    0    0  501  0.00000000000E+00  0.00000000000E+00 -0.55134434238E+03  0.55134434241E+03  0.50400001928E-02 0. -1.
    10030    2    1    2    0    0  0.00000000000E+00  0.00000000000E+00  0.59287882458E+03  0.16955675094E+04  0.15885351360E+04 0.  0.
        2    1    3    3  502    0  0.69806551481E+03 -0.18174439064E+03  0.65130766899E+03  0.97186838933E+03  0.25500000920E-02 0.  1.
       -2    1    3    3    0  502 -0.69806551481E+03  0.18174439064E+03 -0.58428844406E+02  0.72369912005E+03  0.25500000920E-02 0. -1.
</event>
<event>
 5   0  0.9844690E-04  0.1634254E+04  0.7818609E-02  0.8799777E-01
       -2   -1    0    0    0  501  0.00000000000E+00  0.00000000000E+00  0.48674974752E+03  0.48674974753E+03  0.25500000920E-02 0.  1.
        2   -1    0    0  501    0  0.00000000000E+00  0.00000000000E+00 -0.13717445157E+04  0.13717445157E+04  0.25500000920E-02 0. -1.
    10030    2    1    2    0    0  0.00000000000E+00  0.00000000000E+00 -0.88499476819E+03  0.18584942632E+04  0.16342537094E+04 0.  0.
        3    1    3    3  502    0  0.52205384230E+03 -0.54156249959E+03 -0.80545561689E+03  0.11020838971E+04  0.10100000352E+00 0. -1.
       -3    1    3    3    0  502 -0.52205384230E+03  0.54156249959E+03 -0.79539151292E+02  0.75641036615E+03  0.10100000352E+00 0.  1.
</event>
<event>
 5   0  0.5425525E-04  0.1612950E+04  0.7818609E-02  0.8812631E-01
        1   -1    0    0  501    0  0.00000000000E+00  0.00000000000E+00  0.15411801863E+04  0.15411801863E+04  0.50400001928E-02 0. -1.
       -1   -1    0    0    0  501  0.00000000000E+00  0.00000000000E+00 -0.42201565054E+03  0.42201565057E+03  0.50400001928E-02 0.  1.
    10030    2    1    2    0    0  0.00000000000E+00  0.00000000000E+00  0.11191645358E+04  0.19631958369E+04  0.16129502893E+04 0.  0.
        5    1    3    3  502    0 -0.39886045926E+03 -0.67512944350E+03  0.33028465049E+03  0.85088158506E+03  0.46999998093E+01 0.  1.
       -5    1    3    3    0  502  0.39886045926E+03  0.67512944350E+03  0.78887988529E+03  0.11123142518E+04  0.46999998093E+01 0. -1.
</event>
<event>
 5   0  0.5623061E-04  0.1580831E+04  0.7818609E-02  0.8832411E-01
        1   -1    0    0  501    0  0.00000000000E+00  0.00000000000E+00  0.15854085891E+04  0.15854085892E+04  0.50400001928E-02 0. -1.
       -1   -1    0    0    0  501  0.00000000000E+00  0.00000000000E+00 -0.39406678637E+03  0.39406678640E+03  0.50400001928E-02 0.  1.
    10030    2    1    2    0    0  0.00000000000E+00  0.00000000000E+00  0.11913418028E+04  0.19794753756E+04  0.15808312596E+04 0.  0.
        3    1    3    3  502    0 -0.49665814471E+03 -0.21478873129E+03  0.13171157116E+04  0.14239372597E+04  0.10100000352E+00 0. -1.
       -3    1    3    3    0  502  0.49665814471E+03  0.21478873129E+03 -0.12577390880E+03  0.55553811582E+03  0.10100000352E+00 0.  1.
</event>
<event>
 5   0  0.5532881E-04  0.1516131E+04  0.7818609E-02  0.8873796E-01
        1   -1    0    0  501    0  0.00000000000E+00  0.00000000000E+00  0.63723253706E+03  0.63723253708E+03  0.50400001928E-02 0.  1.
       -1   -1    0    0    0  501  0.00000000000E+00  0.00000000000E+00 -0.90181123301E+03  0.90181123302E+03  0.50400001928E-02 0. -1.
    10030    2    1    2    0    0  0.00000000000E+00  0.00000000000E+00 -0.26457869595E+03  0.15390437701E+04  0.15161312080E+04 0.  0.
        4    1    3    3  502    0  0.26063063978E+03 -0.60690564741E+02  0.58768966117E+03  0.64574950700E+03  0.12699999809E+01 0.  1.
       -4    1    3    3    0  502 -0.26063063978E+03  0.60690564741E+02 -0.85226835712E+03  0.89329426310E+03  0.12699999809E+01 0. -1.
</event>
<event>
 5   0  0.1000121E-03  0.1654077E+04  0.7818609E-02  0.8787998E-01
       -2   -1    0    0    0  501  0.00000000000E+00  0.00000000000E+00  0.11622198272E+04  0.11622198272E+04  0.25500000920E-02 0.  1.
        2   -1    0    0  501    0  0.00000000000E+00  0.00000000000E+00 -0.58852266271E+03  0.58852266271E+03  0.25500000920E-02 0. -1.
    10030    2    1    2    0    0  0.00000000000E+00  0.00000000000E+00  0.57369716447E+03  0.17507424899E+04  0.16540770325E+04 0.  0.
        4    1    3    3  502    0 -0.57133565814E+03 -0.30855431669E+03  0.82899437472E+03  0.10530258719E+04  0.12699999809E+01 0.  1.
       -4    1    3    3    0  502  0.57133565814E+03  0.30855431669E+03 -0.25529721025E+03  0.69771661802E+03  0.12699999809E+01 0. -1.
</event>
<event>
 5   0  0.5532881E-04  0.1642508E+04  0.7818609E-02  0.8794851E-01
        1   -1    0    0  501    0  0.00000000000E+00  0.00000000000E+00  0.19795924858E+04  0.19795924858E+04  0.50400001928E-02 0. -1.
       -1   -1    0    0    0  501  0.00000000000E+00  0.00000000000E+00 -0.34070547280E+03  0.34070547284E+03  0.50400001928E-02 0.  1.
    10030    2    1    2    0    0  0.00000000000E+00  0.00000000000E+00  0.16388870130E+04  0.23202979586E+04  0.16425078312E+04 0.  0.
        4    1    3    3  502    0 -0.73753469352E+03  0.14229429434E+03  0.35038377555E+03  0.82883984787E+03  0.12699999809E+01 0.  1.
       -4    1    3    3    0  502  0.73753469352E+03 -0.14229429434E+03  0.12885032374E+04  0.14914581108E+04  0.12699999809E+01 0. -1.
</event>
<event>
 5   0  0.1037321E-03  0.1789646E+04  0.7818609E-02  0.8711825E-01
       -2   -1    0    0    0  501  0.00000000000E+00  0.00000000000E+00  0.26143741132E+03  0.26143741133E+03  0.25500000920E-02 0. -1.
        2   -1    0    0  501    0  0.00000000000E+00  0.00000000000E+00 -0.30627133151E+04  0.30627133151E+04  0.25500000920E-02 0.  1.
    10030    2    1    2    0    0  0.00000000000E+00  0.00000000000E+00 -0.28012759038E+04  0.33241507264E+04  0.17896455970E+04 0.  0.
        5    1    3    3  502    0 -0.69081863687E+03 -0.54386377484E+03 -0.10916802181E+04  0.14017153717E+04  0.46999998093E+01 0. -1.
       -5    1    3    3    0  502  0.69081863687E+03  0.54386377484E+03 -0.17095956857E+04  0.19224353547E+04  0.46999998093E+01 0.  1.
</event>
<event>
 5   0  0.5623061E-04  0.1588044E+04  0.7818609E-02  0.8827927E-01
        1   -1    0    0  501    0  0.00000000000E+00  0.00000000000E+00  0.16010224298E+04  0.16010224298E+04  0.50400001928E-02 0.  1.
       -1   -1    0    0    0  501  0.00000000000E+00  0.00000000000E+00 -0.39379287846E+03  0.39379287849E+03  0.50400001928E-02 0. -1.
    10030    2    1    2    0    0  0.00000000000E+00  0.00000000000E+00  0.12072295513E+04  0.19948153083E+04  0.15880443711E+04 0.  0.
        3    1    3    3  502    0  0.62016438837E+03  0.12051600580E+03  0.12077977333E+04  0.13630492841E+04  0.10100000352E+00 0.  1.
       -3    1    3    3    0  502 -0.62016438837E+03 -0.12051600580E+03 -0.56818195232E+00  0.63176602416E+03  0.10100000352E+00 0. -1.
</event>
<event>
 5   0  0.1057872E-03  0.1601175E+04  0.7818609E-02  0.8819827E-01
       -2   -1    0    0    0  501  0.00000000000E+00  0.00000000000E+00  0.26106455282E+03  0.26106455283E+03  0.25500000920E-02 0.  1.
        2   -1    0    0  501    0  0.00000000000E+00  0.00000000000E+00 -0.24551020490E+04  0.24551020490E+04  0.25500000920E-02 0. -1.
    10030    2    1    2    0    0  0.00000000000E+00  0.00000000000E+00 -0.21940374962E+04  0.27161666019E+04  0.16011747170E+04 0.  0.
        2    1    3    3  502    0  0.85599553269E+02  0.13739149001E+03 -0.24270509332E+04  0.24324432033E+04  0.25500000920E-02 0. -1.
       -2    1    3    3    0  502 -0.85599553269E+02 -0.13739149001E+03  0.23301343700E+03  0.28372339853E+03  0.25500000920E-02 0.  1.
</event>
<event>
 5   0  0.1000121E-03  0.1545452E+04  0.7818609E-02  0.8854778E-01
        2   -1    0    0  501    0  0.00000000000E+00  0.00000000000E+00  0.96228795183E+03  0.96228795183E+03  0.25500000920E-02 0. -1.
       -2   -1    0    0    0  501  0.00000000000E+00  0.00000000000E+00 -0.62050573145E+03  0.62050573145E+03  0.25500000920E-02 0.  1.
    10030    2    1    2    0    0  0.00000000000E+00  0.00000000000E+00  0.34178222038E+03  0.15827936833E+04  0.15454516355E+04 0.  0.
        4    1    3    3  502    0 -0.26688701001E+02  0.34789959354E+03  0.87701175802E+03  0.94387374714E+03  0.12699999809E+01 0. -1.
       -4    1    3    3    0  502  0.26688701001E+02 -0.34789959354E+03 -0.53522953763E+03  0.63891993614E+03  0.12699999809E+01 0.  1.
</event>
<event>
 5   0  0.1057872E-03  0.1596613E+04  0.7818609E-02  0.8822632E-01
       -2   -1    0    0    0  501  0.00000000000E+00  0.00000000000E+00  0.10375199254E+04  0.10375199254E+04  0.25500000920E-02 0. -1.
        2   -1    0    0  501    0  0.00000000000E+00  0.00000000000E+00 -0.61424673494E+03  0.61424673495E+03  0.25500000920E-02 0.  1.
    10030    2    1    2    0    0  0.00000000000E+00  0.00000000000E+00  0.42327319050E+03  0.16517666604E+04  0.15966129483E+04 0.  0.
        2    1    3    3  502    0 -0.59226682361E+03  0.17571108867E+03 -0.31143661318E+03  0.69184329227E+03  0.25500000920E-02 0.  1.
       -2    1    3    3    0  502  0.59226682361E+03 -0.17571108867E+03  0.73470980368E+03  0.95992336812E+03  0.25500000920E-02 0. -1.
</event>
<event>
 5   0  0.5532881E-04  0.1387246E+04  0.7818609E-02  0.8963103E-01
        1   -1    0    0  501    0  0.00000000000E+00  0.00000000000E+00  0.23513134805E+04  0.23513134805E+04  0.50400001928E-02 0.  1.
       -1   -1    0    0    0  501  0.00000000000E+00  0.00000000000E+00 -0.20461443621E+03  0.20461443627E+03  0.50400001928E-02 0. -1.
    10030    2    1    2    0    0  0.00000000000E+00  0.00000000000E+00  0.21466990443E+04  0.25559279168E+04  0.13872457349E+04 0.  0.
        4    1    3    3  502    0  0.41843307423E+03 -0.50478945034E+03  0.14902985334E+04  0.16281553852E+04  0.12699999809E+01 0. -1.
       -4    1    3    3    0  502 -0.41843307423E+03  0.50478945034E+03  0.65640051092E+03  0.92777253162E+03  0.12699999809E+01 0.  1.
</event>
<event>
 5   0  0.1037321E-03  0.1594684E+04  0.7818609E-02  0.8823821E-01
        2   -1    0    0  501    0  0.00000000000E+00  0.00000000000E+00  0.52782649101E+03  0.52782649102E+03  0.25500000920E-02 0.  1.
       -2   -1    0    0    0  501  0.00000000000E+00  0.00000000000E+00 -0.12044754456E+04  0.12044754456E+04  0.25500000920E-02 0. -1.
    10030    2    1    2    0    0  0.00000000000E+00  0.00000000000E+00 -0.67664895458E+03  0.17323019366E+04  0.15946837278E+04 0.  0.
        5    1    3    3  502    0 -0.43853064194E+03 -0.66495305076E+03 -0.37688843284E+03  0.88121431244E+03  0.46999998093E+01 0. -1.
       -5    1    3    3    0  502  0.43853064194E+03  0.66495305076E+03 -0.29976052174E+03  0.85108762417E+03  0.46999998093E+01 0.  1.
</event>
<event>
 5   0  0.5281116E-04  0.1585663E+04  0.7818609E-02  0.8829404E-01
       -1   -1    0    0    0  501  0.00000000000E+00  0.00000000000E+00  0.98833751991E+03  0.98833751992E+03  0.50400001928E-02 0.  1.
        1   -1    0    0  501    0  0.00000000000E+00  0.00000000000E+00 -0.63599921153E+03  0.63599921155E+03  0.50400001928E-02 0. -1.
    10030    2    1    2    0    0  0.00000000000E+00  0.00000000000E+00  0.35233830837E+03  0.16243367315E+04  0.15856631211E+04 0.  0.
        2    1    3    3  502    0 -0.70965123978E+03  0.21838730122E+03 -0.10861111859E+03  0.75039607578E+03  0.25500000920E-02 0. -1.
       -2    1    3    3    0  502  0.70965123978E+03 -0.21838730122E+03  0.46094942696E+03  0.87394065569E+03  0.25500000920E-02 0.  1.
</event>
<event>
 5   0  0.5288658E-04  0.1597051E+04  0.7818609E-02  0.8822362E-01
       -1   -1    0    0    0  501  0.00000000000E+00  0.00000000000E+00  0.31604616062E+03  0.31604616066E+03  0.50400001928E-02 0. -1.
        1   -1    0    0  501    0  0.00000000000E+00  0.00000000000E+00 -0.20175615632E+04  0.20175615632E+04  0.50400001928E-02 0.  1.
    10030    2    1    2    0    0  0.00000000000E+00  0.00000000000E+00 -0.17015154026E+04  0.23336077239E+04  0.15970505138E+04 0.  0.
        1    1    3    3  502    0  0.71239331659E+03  0.28382702282E+03 -0.52539710436E+03  0.92957201641E+03  0.50400001928E-02 0.  1.
       -1    1    3    3    0  502 -0.71239331659E+03 -0.28382702282E+03 -0.11761182982E+04  0.14040357075E+04  0.50400001928E-02 0. -1.
</event>
<event>
 5   0  0.5425525E-04  0.1596158E+04  0.7818609E-02  0.8822912E-01
        1   -1    0    0  501    0  0.00000000000E+00  0.00000000000E+00  0.18847987551E+04  0.18847987551E+04  0.50400001928E-02 0. -1.
       -1   -1    0    0    0  501  0.00000000000E+00  0.00000000000E+00 -0.33793002635E+03  0.33793002639E+03  0.50400001928E-02 0.  1.
    10030    2    1    2    0    0  0.00000000000E+00  0.00000000000E+00  0.15468687287E+04  0.22227287815E+04  0.15961580035E+04 0.  0.
        5    1    3    3  502    0  0.98805383670E+02  0.62913340609E+03  0.10365336915E+03  0.64524216960E+03  0.46999998093E+01 0.  1.
       -5    1    3    3    0  502 -0.98805383670E+02 -0.62913340609E+03  0.14432153596E+04  0.15774866118E+04  0.46999998093E+01 0. -1.
</event>
<event>
 5   0  0.5532881E-04  0.1616113E+04  0.7818609E-02  0.8810710E-01
        1   -1    0    0  501    0  0.00000000000E+00  0.00000000000E+00  0.76142657260E+03  0.76142657262E+03  0.50400001928E-02 0.  1.
       -1   -1    0    0    0  501  0.00000000000E+00  0.00000000000E+00 -0.85754176821E+03  0.85754176822E+03  0.50400001928E-02 0. -1.
    10030    2    1    2    0    0  0.00000000000E+00  0.00000000000E+00 -0.96115195609E+02  0.16189683408E+04  0.16161127305E+04 0.  0.
        4    1    3    3  502    0 -0.65486125196E+03  0.16487824327E+03  0.39648926860E+03  0.78309223431E+03  0.12699999809E+01 0.  1.
       -4    1    3    3    0  502  0.65486125196E+03 -0.16487824327E+03 -0.49260446421E+03  0.83587610653E+03  0.12699999809E+01 0. -1.
</event>
<event>
 5   0  0.1030027E-03  0.1612865E+04  0.7818609E-02  0.8812684E-01
       -2   -1    0    0    0  501  0.00000000000E+00  0.00000000000E+00  0.10863687377E+04  0.10863687377E+04  0.25500000920E-02 0. -1.
        2   -1    0    0  501    0  0.00000000000E+00  0.00000000000E+00 -0.59863009246E+03  0.59863009246E+03  0.25500000920E-02 0.  1.
    10030    2    1    2    0    0  0.00000000000E+00  0.00000000000E+00  0.48773864523E+03  0.16849988302E+04  0.16128645546E+04 0.  0.
        1    1    3    3  502    0 -0.34744818705E+03 -0.13560735782E+03  0.99084605913E+03  0.10587188064E+04  0.50400001928E-02 0. -1.
       -1    1    3    3    0  502  0.34744818705E+03  0.13560735782E+03 -0.50310741390E+03  0.62628002373E+03  0.50400001928E-02 0.  1.
</event>
<event>
 5   0  0.5288658E-04  0.1578259E+04  0.7818609E-02  0.8834017E-01
       -1   -1    0    0    0  501  0.00000000000E+00  0.00000000000E+00  0.38087578009E+03  0.38087578012E+03  0.50400001928E-02 0. -1.
        1   -1    0    0  501    0  0.00000000000E+00  0.00000000000E+00 -0.16349834170E+04  0.16349834170E+04  0.50400001928E-02 0.  1.
    10030    2    1    2    0    0  0.00000000000E+00  0.00000000000E+00 -0.12541076369E+04  0.20158591972E+04  0.15782592746E+04 0.  0.
        1    1    3    3  502    0  0.17478728017E+03  0.72037202156E+03 -0.28139036291E+03  0.79288522443E+03  0.50400001928E-02 0. -1.
       -1    1    3    3    0  502 -0.17478728017E+03 -0.72037202156E+03 -0.97271727403E+03  0.12229739727E+04  0.50400001928E-02 0.  1.
</event>
<event>
 5   0  0.9844690E-04  0.1023671E+04  0.7818609E-02  0.9282957E-01
        2   -1    0    0  501    0  0.00000000000E+00  0.00000000000E+00  0.11742053486E+04  0.11742053486E+04  0.25500000920E-02 0.  1.
       -2   -1    0    0    0  501  0.00000000000E+00  0.00000000000E+00 -0.22310899551E+03  0.22310899553E+03  0.25500000920E-02 0. -1.
    10030    2    1    2    0    0  0.00000000000E+00  0.00000000000E+00  0.95109635308E+03  0.13973143441E+04  0.10236713845E+04 0.  0.
        3    1    3    3  502    0  0.22315712897E+03 -0.34266235149E+03  0.55359651567E+02  0.41265153891E+03  0.10100000352E+00 0. -1.
       -3    1    3    3    0  502 -0.22315712897E+03  0.34266235149E+03  0.89573670151E+03  0.98466280522E+03  0.10100000352E+00 0.  1.
</event>
<event>
 5   0  0.1030027E-03  0.1637327E+04  0.7818609E-02  0.8797939E-01
        2   -1    0    0  501    0  0.00000000000E+00  0.00000000000E+00  0.50276260269E+03  0.50276260270E+03  0.25500000920E-02 0.  1.
       -2   -1    0    0    0  501  0.00000000000E+00  0.00000000000E+00 -0.13330539303E+04  0.13330539303E+04  0.25500000920E-02 0. -1.
    10030    2    1    2    0    0  0.00000000000E+00  0.00000000000E+00 -0.83029132756E+03  0.18358165330E+04  0.16373266791E+04 0.  0.
        1    1    3    3  502    0  0.19595466823E+03 -0.52894704368E+03 -0.10803906197E+04  0.12187809886E+04  0.50400001928E-02 0. -1.
       -1    1    3    3    0  502 -0.19595466823E+03  0.52894704368E+03  0.25009929215E+03  0.61703554434E+03  0.50400001928E-02 0.  1.
</event>
<event>
 5   0  0.1030027E-03  0.1604565E+04  0.7818609E-02  0.8817749E-01
        2   -1    0    0  501    0  0.00000000000E+00  0.00000000000E+00  0.16793032725E+04  0.16793032725E+04  0.25500000920E-02 0. -1.
       -2   -1    0    0    0  501  0.00000000000E+00  0.00000000000E+00 -0.38328804017E+03  0.38328804018E+03  0.25500000920E-02 0.  1.
    10030    2    1    2    0    0  0.00000000000E+00  0.00000000000E+00  0.12960152323E+04  0.20625913127E+04  0.16045645642E+04 0.  0.
        1    1    3    3  502    0  0.73607095644E+02 -0.29185264749E+03 -0.30795841514E+03  0.43062089807E+03  0.50400001928E-02 0.  1.
       -1    1    3    3    0  502 -0.73607095644E+02  0.29185264749E+03  0.16039736475E+04  0.16319704146E+04  0.50400001928E-02 0. -1.
</event>
<event>
 5   0  0.1037321E-03  0.1613759E+04  0.7818609E-02  0.8812140E-01
        2   -1    0    0  501    0  0.00000000000E+00  0.00000000000E+00  0.56787938798E+03  0.56787938799E+03  0.25500000920E-02 0.  1.
       -2   -1    0    0    0  501  0.00000000000E+00  0.00000000000E+00 -0.11464664221E+04  0.11464664221E+04  0.25500000920E-02 0. -1.
    10030    2    1    2    0    0  0.00000000000E+00  0.00000000000E+00 -0.57858703409E+03  0.17143458101E+04  0.16137591519E+04 0.  0.
        5    1    3    3  502    0 -0.21687213241E+03  0.77716834270E+03 -0.29237343541E+03  0.85821236908E+03  0.46999998093E+01 0. -1.
       -5    1    3    3    0  502  0.21687213241E+03 -0.77716834270E+03 -0.28621359868E+03  0.85613344099E+03  0.46999998093E+01 0.  1.
</event>
<event>
 5   0  0.5425525E-04  0.1375063E+04  0.7818609E-02  0.8972069E-01
        1   -1    0    0  501    0  0.00000000000E+00  0.00000000000E+00  0.59141802780E+03  0.59141802782E+03  0.50400001928E-02 0.  1.
       -1   -1    0    0    0  501  0.00000000000E+00  0.00000000000E+00 -0.79926512557E+03  0.79926512559E+03  0.50400001928E-02 0. -1.
    10030    2    1    2    0    0  0.00000000000E+00  0.00000000000E+00 -0.20784709777E+03  0.13906831534E+04  0.13750633502E+04 0.  0.
        5    1    3    3  502    0 -0.14413705325E+03  0.45581656219E+03 -0.60363484033E+03  0.77002684301E+03  0.46999998093E+01 0. -1.
       -5    1    3    3    0  502  0.14413705325E+03 -0.45581656219E+03  0.39578774256E+03  0.62065631041E+03  0.46999998093E+01 0.  1.
</event>
<event>
 5   0  0.9844690E-04  0.1614272E+04  0.7818609E-02  0.8811828E-01
        2   -1    0    0  501    0  0.00000000000E+00  0.00000000000E+00  0.80326214459E+03  0.80326214459E+03  0.25500000920E-02 0. -1.
       -2   -1    0    0    0  501  0.00000000000E+00  0.00000000000E+00 -0.81102849255E+03  0.81102849255E+03  0.25500000920E-02 0.  1.
    10030    2    1    2    0    0  0.00000000000E+00  0.00000000000E+00 -0.77663479586E+01  0.16142906371E+04  0.16142719551E+04 0.  0.
        3    1    3    3  502    0 -0.40925473933E+03 -0.37144540849E+02  0.69081855182E+03  0.80380311042E+03  0.10100000352E+00 0. -1.
       -3    1    3    3    0  502  0.40925473933E+03  0.37144540849E+02 -0.69858489978E+03  0.81048752673E+03  0.10100000352E+00 0.  1.
</event>
<event>
 5   0  0.5281116E-04  0.1494408E+04  0.7818609E-02  0.8888180E-01
       -1   -1    0    0    0  501  0.00000000000E+00  0.00000000000E+00  0.89132678945E+03  0.89132678946E+03  0.50400001928E-02 0.  1.
        1   -1    0    0  501    0  0.00000000000E+00  0.00000000000E+00 -0.62638504783E+03  0.62638504785E+03  0.50400001928E-02 0. -1.
    10030    2    1    2    0    0  0.00000000000E+00  0.00000000000E+00  0.26494174162E+03  0.15177118373E+04  0.14944079412E+04 0.  0.
        2    1    3    3  502    0 -0.15210632736E+03 -0.58832088831E+02  0.87303063209E+03  0.88813289212E+03  0.25500000920E-02 0.  1.
       -2    1    3    3    0  502  0.15210632736E+03  0.58832088831E+02 -0.60808889047E+03  0.62957894518E+03  0.25500000920E-02 0. -1.
</event>
<event>
 5   0  0.5288658E-04  0.1597324E+04  0.7818609E-02  0.8822193E-01
       -1   -1    0    0    0  501  0.00000000000E+00  0.00000000000E+00  0.42339389873E+03  0.42339389876E+03  0.50400001928E-02 0.  1.
        1   -1    0    0  501    0  0.00000000000E+00  0.00000000000E+00 -0.15065435633E+04  0.15065435633E+04  0.50400001928E-02 0. -1.
    10030    2    1    2    0    0  0.00000000000E+00  0.00000000000E+00 -0.10831496646E+04  0.19299374621E+04  0.15973244541E+04 0.  0.
        1    1    3    3  502    0 -0.31999908987E+03 -0.37985028828E+03  0.21410185883E+03  0.54085604832E+03  0.50400001928E-02 0.  1.
       -1    1    3    3    0  502  0.31999908987E+03  0.37985028828E+03 -0.12972515234E+04  0.13890814138E+04  0.50400001928E-02 0. -1.
</event>
<event>
 5   0  0.5623061E-04  0.1653582E+04  0.7818609E-02  0.8788290E-01
       -1   -1    0    0    0  501  0.00000000000E+00  0.00000000000E+00  0.60094077042E+03  0.60094077044E+03  0.50400001928E-02 0.  1.
        1   -1    0    0  501    0  0.00000000000E+00  0.00000000000E+00 -0.11375217594E+04  0.11375217595E+04  0.50400001928E-02 0. -1.
    10030    2    1    2    0    0  0.00000000000E+00  0.00000000000E+00 -0.53658098903E+03  0.17384625299E+04  0.16535818123E+04 0.  0.
        3    1    3    3  502    0 -0.73233439190E+03  0.30935918721E+03 -0.50702937636E+03  0.94291864281E+03  0.10100000352E+00 0. -1.
       -3    1    3    3    0  502  0.73233439190E+03 -0.30935918721E+03 -0.29551612663E+02  0.79554388708E+03  0.10100000352E+00 0.  1.
</event>
<event>
 5   0  0.5623061E-04  0.1693712E+04  0.7818609E-02  0.8764958E-01
       -1   -1    0    0    0  501  0.00000000000E+00  0.00000000000E+00  0.38878693564E+03  0.38878693568E+03  0.50400001928E-02 0. -1.
        1   -1    0    0  501    0  0.00000000000E+00  0.00000000000E+00 -0.18446234490E+04  0.18446234491E+04  0.50400001928E-02 0.  1.
    10030    2    1    2    0    0  0.00000000000E+00  0.00000000000E+00 -0.14558365134E+04  0.22334103847E+04  0.16937124883E+04 0.  0.
        3    1    3    3  502    0  0.15421685477E+03 -0.33160484787E+03  0.27929126655E+03  0.46016109701E+03  0.10100000352E+00 0. -1.
       -3    1    3    3    0  502 -0.15421685477E+03  0.33160484787E+03 -0.17351277800E+04  0.17732492877E+04  0.10100000352E+00 0.  1.
</event>
<event>
 5   0  0.1057872E-03  0.1588820E+04  0.7818609E-02  0.8827446E-01
        2   -1    0    0  501    0  0.00000000000E+00  0.00000000000E+00  0.22649405091E+04  0.22649405091E+04  0.25500000920E-02 0.  1.
       -2   -1    0    0    0  501  0.00000000000E+00  0.00000000000E+00 -0.27863293760E+03  0.27863293761E+03  0.25500000920E-02 0. -1.
    10030    2    1    2    0    0  0.00000000000E+00  0.00000000000E+00  0.19863075715E+04  0.25435734467E+04  0.15888197224E+04 0.  0.
        2    1    3    3  502    0  0.93356527945E+02 -0.24582361107E+03 -0.20694096907E+03  0.33461807147E+03  0.25500000920E-02 0. -1.
       -2    1    3    3    0  502 -0.93356527945E+02  0.24582361107E+03  0.21932485406E+04  0.22089553752E+04  0.25500000920E-02 0.  1.
</event>
<event>
 5   0  0.5425525E-04  0.1616292E+04  0.7818609E-02  0.8810601E-01
        1   -1    0    0  501    0  0.00000000000E+00  0.00000000000E+00  0.73683443344E+03  0.73683443346E+03  0.50400001928E-02 0.  1.
       -1   -1    0    0    0  501  0.00000000000E+00  0.00000000000E+00 -0.88635892132E+03  0.88635892134E+03  0.50400001928E-02 0. -1.
    10030    2    1    2    0    0  0.00000000000E+00  0.00000000000E+00 -0.14952448788E+03  0.16231933548E+04  0.16162917727E+04 0.  0.
        5    1    3    3  502    0  0.40245768643E+03 -0.45102493870E+03  0.46388797121E+03  0.76197757482E+03  0.46999998093E+01 0.  1.
       -5    1    3    3    0  502 -0.40245768643E+03  0.45102493870E+03 -0.61341245909E+03  0.86121577997E+03  0.46999998093E+01 0. -1.
</event>
<event>
 5   0  0.1037321E-03  0.1598581E+04  0.7818609E-02  0.8821420E-01
        2   -1    0    0  501    0  0.00000000000E+00  0.00000000000E+00  0.12182650272E+04  0.12182650272E+04  0.25500000920E-02 0. -1.
       -2   -1    0    0    0  501  0.00000000000E+00  0.00000000000E+00 -0.52440616672E+03  0.52440616673E+03  0.25500000920E-02 0.  1.
    10030    2    1    2    0    0  0.00000000000E+00  0.00000000000E+00  0.69385886043E+03  0.17426711939E+04  0.15985814874E+04 0.  0.
        5    1    3    3  502    0 -0.41646115885E+02 -0.76847247277E+03  0.58215456158E+03  0.96499241652E+03  0.46999998093E+01 0. -1.
       -5    1    3    3    0  502  0.41646115885E+02  0.76847247277E+03  0.11170429885E+03  0.77767877736E+03  0.46999998093E+01 0.  1.
</event>
<event>
 5   0  0.5281116E-04  0.1624517E+04  0.7818609E-02  0.8805626E-01
       -1   -1    0    0    0  501  0.00000000000E+00  0.00000000000E+00  0.20355769797E+04  0.20355769797E+04  0.50400001928E-02 0. -1.
        1   -1    0    0  501    0  0.00000000000E+00  0.00000000000E+00 -0.32411641336E+03  0.32411641340E+03  0.50400001928E-02 0.  1.
    10030    2    1    2    0    0  0.00000000000E+00  0.00000000000E+00  0.17114605663E+04  0.23596933931E+04  0.16245170480E+04 0.  0.
        2    1    3    3  502    0 -0.64828448743E+03  0.24843937514E+01  0.15665679395E+04  0.16954097021E+04  0.25500000920E-02 0. -1.
       -2    1    3    3    0  502  0.64828448743E+03 -0.24843937514E+01  0.14489262685E+03  0.66428369104E+03  0.25500000920E-02 0.  1.
</event>
<event>
 5   0  0.3832500E-04  0.1584463E+04  0.7818609E-02  0.8830151E-01
        4   -1    0    0  501    0  0.00000000000E+00  0.00000000000E+00  0.58996152912E+03  0.58996289607E+03  0.12699999809E+01 0.  1.
       -4   -1    0    0    0  501  0.00000000000E+00  0.00000000000E+00 -0.10638466801E+04  0.10638474381E+04  0.12699999809E+01 0. -1.
    10030    2    1    2    0    0  0.00000000000E+00  0.00000000000E+00 -0.47388515097E+03  0.16538103342E+04  0.15844625225E+04 0.  0.
        2    1    3    3  502    0  0.32070455935E+03  0.43328361894E+03 -0.84290709967E+03  0.10005390984E+04  0.25500000920E-02 0. -1.
       -2    1    3    3    0  502 -0.32070455935E+03 -0.43328361894E+03  0.36902194870E+03  0.65327123576E+03  0.25500000920E-02 0.  1.
</event>
<event>
 5   0  0.5288658E-04  0.1604947E+04  0.7818609E-02  0.8817515E-01
        1   -1    0    0  501    0  0.00000000000E+00  0.00000000000E+00  0.78428492861E+03  0.78428492862E+03  0.50400001928E-02 0.  1.
       -1   -1    0    0    0  501  0.00000000000E+00  0.00000000000E+00 -0.82108341543E+03  0.82108341544E+03  0.50400001928E-02 0. -1.
    10030    2    1    2    0    0  0.00000000000E+00  0.00000000000E+00 -0.36798486820E+02  0.16053683441E+04  0.16049465385E+04 0.  0.
        1    1    3    3  502    0  0.28023894188E+03  0.35381849236E+03  0.64528245243E+03  0.78747116361E+03  0.50400001928E-02 0.  1.
       -1    1    3    3    0  502 -0.28023894188E+03 -0.35381849236E+03 -0.68208093925E+03  0.81789718045E+03  0.50400001928E-02 0. -1.
</event>
<event>
 5   0  0.5281116E-04  0.1569908E+04  0.7818609E-02  0.8839251E-01
       -1   -1    0    0    0  501  0.00000000000E+00  0.00000000000E+00  0.30975317686E+03  0.30975317690E+03  0.50400001928E-02 0.  1.
        1   -1    0    0  501    0  0.00000000000E+00  0.00000000000E+00 -0.19891744800E+04  0.19891744800E+04  0.50400001928E-02 0. -1.
    10030    2    1    2    0    0  0.00000000000E+00  0.00000000000E+00 -0.16794213031E+04  0.22989276569E+04  0.15699084235E+04 0.  0.
        2    1    3    3  502    0  0.61174910705E+03 -0.46746227253E+03 -0.10636931437E+04  0.13130883634E+04  0.25500000920E-02 0. -1.
       -2    1    3    3    0  502 -0.61174910705E+03  0.46746227253E+03 -0.61572815940E+03  0.98583929345E+03  0.25500000920E-02 0.  1.
</event>
<event>
 5   0  0.1030027E-03  0.1547635E+04  0.7818609E-02  0.8853380E-01
       -2   -1    0    0    0  501  0.00000000000E+00  0.00000000000E+00  0.37531398658E+03  0.37531398659E+03  0.25500000920E-02 0. -1.
        2   -1    0    0  501    0  0.00000000000E+00  0.00000000000E+00 -0.15954468497E+04  0.15954468497E+04  0.25500000920E-02 0.  1.
    10030    2    1    2    0    0  0.00000000000E+00  0.00000000000E+00 -0.12201328631E+04  0.19707608363E+04  0.15476349926E+04 0.  0.
        1    1    3    3  502    0  0.47342308667E+03  0.53161478067E+02 -0.13865678295E+04  0.14661261568E+04  0.50400001928E-02 0.  1.
       -1    1    3    3    0  502 -0.47342308667E+03 -0.53161478067E+02  0.16643496636E+03  0.50463467954E+03  0.50400001928E-02 0. -1.
</event>
<event>
 5   0  0.1030027E-03  0.1617551E+04  0.7818609E-02  0.8809838E-01
        2   -1    0    0  501    0  0.00000000000E+00  0.00000000000E+00  0.13205697416E+04  0.13205697416E+04  0.25500000920E-02 0.  1.
       -2   -1    0    0    0  501  0.00000000000E+00  0.00000000000E+00 -0.49532991266E+03  0.49532991267E+03  0.25500000920E-02 0. -1.
    10030    2    1    2    0    0  0.00000000000E+00  0.00000000000E+00  0.82523982898E+03  0.18158996543E+04  0.16175508583E+04 0.  0.
        1    1    3    3  502    0 -0.29689674794E+03  0.25482013415E+03 -0.38201689214E+03  0.54682527887E+03  0.50400001928E-02 0. -1.
       -1    1    3    3    0  502  0.29689674794E+03 -0.25482013415E+03  0.12072567211E+04  0.12690743754E+04  0.50400001928E-02 0.  1.
</event>
<event>
 5   0  0.3832500E-04  0.1591984E+04  0.7818609E-02  0.8825488E-01
       -3   -1    0    0    0  501  0.00000000000E+00  0.00000000000E+00  0.36499032952E+03  0.36499034349E+03  0.10100000352E+00 0. -1.
        3   -1    0    0  501    0  0.00000000000E+00  0.00000000000E+00 -0.17359452641E+04  0.17359452670E+04  0.10100000352E+00 0.  1.
    10030    2    1    2    0    0  0.00000000000E+00  0.00000000000E+00 -0.13709549346E+04  0.21009356105E+04  0.15919839845E+04 0.  0.
        2    1    3    3  502    0 -0.69993031322E+03  0.46970297640E+01 -0.11857081342E+04  0.13768908035E+04  0.25500000920E-02 0.  1.
       -2    1    3    3    0  502  0.69993031322E+03 -0.46970297640E+01 -0.18524680041E+03  0.72404480698E+03  0.25500000920E-02 0. -1.
</event>
<event>
 5   0  0.5532881E-04  0.1575078E+04  0.7818609E-02  0.8836006E-01
       -1   -1    0    0    0  501  0.00000000000E+00  0.00000000000E+00  0.28846821617E+03  0.28846821621E+03  0.50400001928E-02 0.  1.
        1   -1    0    0  501    0  0.00000000000E+00  0.00000000000E+00 -0.21500390509E+04  0.21500390509E+04  0.50400001928E-02 0. -1.
    10030    2    1    2    0    0  0.00000000000E+00  0.00000000000E+00 -0.18615708347E+04  0.24385072671E+04  0.15750783216E+04 0.  0.
        4    1    3    3  502    0  0.18082214956E+03  0.36434105663E+01 -0.21174505949E+04  0.21251608313E+04  0.12699999809E+01 0. -1.
       -4    1    3    3    0  502 -0.18082214956E+03 -0.36434105663E+01  0.25587976022E+03  0.31334643576E+03  0.12699999809E+01 0.  1.
</event>
<event>
 5   0  0.1037321E-03  0.1606997E+04  0.7818609E-02  0.8816261E-01
        2   -1    0    0  501    0  0.00000000000E+00  0.00000000000E+00  0.13471476016E+04  0.13471476016E+04  0.25500000920E-02 0.  1.
       -2   -1    0    0    0  501  0.00000000000E+00  0.00000000000E+00 -0.47924180282E+03  0.47924180282E+03  0.25500000920E-02 0. -1.
    10030    2    1    2    0    0  0.00000000000E+00  0.00000000000E+00  0.86790579874E+03  0.18263894044E+04  0.16069965093E+04 0.  0.
        5    1    3    3  502    0 -0.53583314241E+03 -0.77810533573E+02  0.11086457087E+04  0.12338107768E+04  0.46999998093E+01 0.  1.
       -5    1    3    3    0  502  0.53583314241E+03  0.77810533573E+02 -0.24073990991E+03  0.59257862758E+03  0.46999998093E+01 0. -1.
</event>
<event>
 5   0  0.5425525E-04  0.1648873E+04  0.7818609E-02  0.8791073E-01
        1   -1    0    0  501    0  0.00000000000E+00  0.00000000000E+00  0.18501288812E+04  0.18501288812E+04  0.50400001928E-02 0. -1.
       -1   -1    0    0    0  501  0.00000000000E+00  0.00000000000E+00 -0.36737762103E+03  0.36737762106E+03  0.50400001928E-02 0.  1.
    10030    2    1    2    0    0  0.00000000000E+00  0.00000000000E+00  0.14827512602E+04  0.22175065023E+04  0.16488734906E+04 0.  0.
        5    1    3    3  502    0  0.15732676641E+03 -0.80163460206E+03  0.89055290703E+03  0.12085016826E+04  0.46999998093E+01 0. -1.
       -5    1    3    3    0  502 -0.15732676641E+03  0.80163460206E+03  0.59219835316E+03  0.10090048197E+04  0.46999998093E+01 0.  1.
</event>
<event>
 5   0  0.5281116E-04  0.1602200E+04  0.7818609E-02  0.8819197E-01
       -1   -1    0    0    0  501  0.00000000000E+00  0.00000000000E+00  0.39679170005E+03  0.39679170008E+03  0.50400001928E-02 0.  1.
        1   -1    0    0  501    0  0.00000000000E+00  0.00000000000E+00 -0.16173761568E+04  0.16173761568E+04  0.50400001928E-02 0. -1.
    10030    2    1    2    0    0  0.00000000000E+00  0.00000000000E+00 -0.12205844567E+04  0.20141678569E+04  0.16022002808E+04 0.  0.
        2    1    3    3  502    0  0.64090178358E+03 -0.46254185521E+02 -0.88826499608E+01  0.64263010150E+03  0.25500000920E-02 0.  1.
       -2    1    3    3    0  502 -0.64090178358E+03  0.46254185521E+02 -0.12117018068E+04  0.13715377554E+04  0.25500000920E-02 0. -1.
</event>
<event>
 5   0  0.1037321E-03  0.1322187E+04  0.7818609E-02  0.9012153E-01
        2   -1    0    0  501    0  0.00000000000E+00  0.00000000000E+00  0.13365838710E+04  0.13365838710E+04  0.25500000920E-02 0.  1.
       -2   -1    0    0    0  501  0.00000000000E+00  0.00000000000E+00 -0.32698646458E+03  0.32698646459E+03  0.25500000920E-02 0. -1.
    10030    2    1    2    0    0  0.00000000000E+00  0.00000000000E+00  0.10095974064E+04  0.16635703356E+04  0.13221873311E+04 0.  0.
        5    1    3    3  502    0  0.27715861306E+03  0.19566181368E+03  0.12186762272E+04  0.12650273826E+04  0.46999998093E+01 0.  1.
       -5    1    3    3    0  502 -0.27715861306E+03 -0.19566181368E+03 -0.20907882071E+03  0.39854295301E+03  0.46999998093E+01 0. -1.
</event>
<event>
 5   0  0.1030027E-03  0.1587626E+04  0.7818609E-02  0.8828186E-01
        2   -1    0    0  501    0  0.00000000000E+00  0.00000000000E+00  0.13751433021E+04  0.13751433021E+04  0.25500000920E-02 0. -1.
       -2   -1    0    0    0  501  0.00000000000E+00  0.00000000000E+00 -0.45823496740E+03  0.45823496741E+03  0.25500000920E-02 0.  1.
    10030    2    1    2    0    0  0.00000000000E+00  0.00000000000E+00  0.91690833474E+03  0.18333782696E+04  0.15876255808E+04 0.  0.
        1    1    3    3  502    0  0.68042468973E+03  0.15595088873E+03  0.89489902491E+03  0.11349637452E+04  0.50400001928E-02 0. -1.
       -1    1    3    3    0  502 -0.68042468973E+03 -0.15595088873E+03  0.22009309839E+02  0.69841452436E+03  0.50400001928E-02 0.  1.
</event>
<event>
 5   0  0.5281116E-04  0.1552086E+04  0.7818609E-02  0.8850536E-01
       -1   -1    0    0    0  501  0.00000000000E+00  0.00000000000E+00  0.64429689963E+03  0.64429689965E+03  0.50400001928E-02 0. -1.
        1   -1    0    0  501    0  0.00000000000E+00  0.00000000000E+00 -0.93472868101E+03  0.93472868102E+03  0.50400001928E-02 0.  1.
    10030    2    1    2    0    0  0.00000000000E+00  0.00000000000E+00 -0.29043178137E+03  0.15790255807E+04  0.15520860687E+04 0.  0.
        2    1    3    3  502    0 -0.41457233846E+03  0.41634102301E+03  0.37056775908E+03  0.69464417894E+03  0.25500000920E-02 0. -1.
       -2    1    3    3    0  502  0.41457233846E+03 -0.41634102301E+03 -0.66099954046E+03  0.88438140174E+03  0.25500000920E-02 0.  1.
</event>
<event>
 5   0  0.5425525E-04  0.1587698E+04  0.7818609E-02  0.8828142E-01
        1   -1    0    0  501    0  0.00000000000E+00  0.00000000000E+00  0.71077642101E+03  0.71077642103E+03  0.50400001928E-02 0.  1.
       -1   -1    0    0    0  501  0.00000000000E+00  0.00000000000E+00 -0.88663027357E+03  0.88663027358E+03  0.50400001928E-02 0. -1.
    10030    2    1    2    0    0  0.00000000000E+00  0.00000000000E+00 -0.17585385256E+03  0.15974066946E+04  0.15876975690E+04 0.  0.
        5    1    3    3  502    0 -0.18920840625E+03  0.68324114605E+02 -0.86054598845E+03  0.88375873057E+03  0.46999998093E+01 0. -1.
       -5    1    3    3    0  502  0.18920840625E+03 -0.68324114605E+02  0.68469213589E+03  0.71364796404E+03  0.46999998093E+01 0.  1.
</event>
<event>
 5   0  0.5623061E-04  0.1584773E+04  0.7818609E-02  0.8829958E-01
       -1   -1    0    0    0  501  0.00000000000E+00  0.00000000000E+00  0.56453490115E+03  0.56453490117E+03  0.50400001928E-02 0.  1.
        1   -1    0    0  501    0  0.00000000000E+00  0.00000000000E+00 -0.11122005432E+04  0.11122005432E+04  0.50400001928E-02 0. -1.
    10030    2    1    2    0    0  0.00000000000E+00  0.00000000000E+00 -0.54766564200E+03  0.16767354443E+04  0.15847725688E+04 0.  0.
        3    1    3    3  502    0  0.29845792174E+03 -0.52008993045E+03 -0.82187282808E+03  0.10173719195E+04  0.10100000352E+00 0. -1.
       -3    1    3    3    0  502 -0.29845792174E+03  0.52008993045E+03  0.27420718608E+03  0.65936352485E+03  0.10100000352E+00 0.  1.
</event>
<event>
 5   0  0.5623061E-04  0.1362580E+04  0.7818609E-02  0.8981360E-01
       -1   -1    0    0    0  501  0.00000000000E+00  0.00000000000E+00  0.66362225857E+03  0.66362225859E+03  0.50400001928E-02 0.  1.
        1   -1    0    0  501    0  0.00000000000E+00  0.00000000000E+00 -0.69942797558E+03  0.69942797559E+03  0.50400001928E-02 0. -1.
    10030    2    1    2    0    0  0.00000000000E+00  0.00000000000E+00 -0.35805717007E+02  0.13630502342E+04  0.13625798661E+04 0.  0.
        3    1    3    3  502    0 -0.45970490821E+03  0.37889597468E+03 -0.34856983753E+03  0.69021134741E+03  0.10100000352E+00 0. -1.
       -3    1    3    3    0  502  0.45970490821E+03 -0.37889597468E+03  0.31276412053E+03  0.67283888677E+03  0.10100000352E+00 0.  1.
</event>
<event>
 5   0  0.5425525E-04  0.1577437E+04  0.7818609E-02  0.8834530E-01
        1   -1    0    0  501    0  0.00000000000E+00  0.00000000000E+00  0.57197376374E+03  0.57197376377E+03  0.50400001928E-02 0.  1.
       -1   -1    0    0    0  501  0.00000000000E+00  0.00000000000E+00 -0.10875973883E+04  0.10875973883E+04  0.50400001928E-02 0. -1.
    10030    2    1    2    0    0  0.00000000000E+00  0.00000000000E+00 -0.51562362459E+03  0.16595711521E+04  0.15774373796E+04 0.  0.
        5    1    3    3  502    0  0.27472303954E+03  0.58415356901E+03 -0.73455870159E+03  0.97790936018E+03  0.46999998093E+01 0. -1.
       -5    1    3    3    0  502 -0.27472303954E+03 -0.58415356901E+03  0.21893507701E+03  0.68166179193E+03  0.46999998093E+01 0.  1.
</event>
<event>
 5   0  0.5532881E-04  0.1547084E+04  0.7818609E-02  0.8853732E-01
       -1   -1    0    0    0  501  0.00000000000E+00  0.00000000000E+00  0.37980578174E+03  0.37980578177E+03  0.50400001928E-02 0. -1.
        1   -1    0    0  501    0  0.00000000000E+00  0.00000000000E+00 -0.15754558950E+04  0.15754558951E+04  0.50400001928E-02 0.  1.
    10030    2    1    2    0    0  0.00000000000E+00  0.00000000000E+00 -0.11956501133E+04  0.19552616768E+04  0.15470840415E+04 0.  0.
        4    1    3    3  502    0  0.29499368099E+03  0.67473810991E+03 -0.89709790766E+03  0.11606373497E+04  0.12699999809E+01 0.  1.
       -4    1    3    3    0  502 -0.29499368099E+03 -0.67473810991E+03 -0.29855220565E+03  0.79462432708E+03  0.12699999809E+01 0. -1.
</event>
<event>
 5   0  0.5425525E-04  0.1599372E+04  0.7818609E-02  0.8820934E-01
        1   -1    0    0  501    0  0.00000000000E+00  0.00000000000E+00  0.13333833910E+04  0.13333833910E+04  0.50400001928E-02 0.  1.
       -1   -1    0    0    0  501  0.00000000000E+00  0.00000000000E+00 -0.47960514856E+03  0.47960514859E+03  0.50400001928E-02 0. -1.
    10030    2    1    2    0    0  0.00000000000E+00  0.00000000000E+00  0.85377824243E+03  0.18129885396E+04  0.15993718009E+04 0.  0.
        5    1    3    3  502    0  0.33480334384E+02  0.65348661852E+02  0.13295384119E+04  0.13315727014E+04  0.46999998093E+01 0.  1.
       -5    1    3    3    0  502 -0.33480334384E+02 -0.65348661852E+02 -0.47576016948E+03  0.48141583819E+03  0.46999998093E+01 0. -1.
</event>
<event>
 5   0  0.1000121E-03  0.1550809E+04  0.7818609E-02  0.8851351E-01
       -2   -1    0    0    0  501  0.00000000000E+00  0.00000000000E+00  0.56877277691E+03  0.56877277692E+03  0.25500000920E-02 0.  1.
        2   -1    0    0  501    0  0.00000000000E+00  0.00000000000E+00 -0.10571037475E+04  0.10571037475E+04  0.25500000920E-02 0. -1.
    10030    2    1    2    0    0  0.00000000000E+00  0.00000000000E+00 -0.48833097062E+03  0.16258765245E+04  0.15508086071E+04 0.  0.
        4    1    3    3  502    0  0.45793261458E+03 -0.39732053505E+03 -0.75097429685E+03  0.96515796350E+03  0.12699999809E+01 0. -1.
       -4    1    3    3    0  502 -0.45793261458E+03  0.39732053505E+03  0.26264332624E+03  0.66071856095E+03  0.12699999809E+01 0.  1.
</event>
<event>
 5   0  0.5623061E-04  0.1597407E+04  0.7818609E-02  0.8822143E-01
        1   -1    0    0  501    0  0.00000000000E+00  0.00000000000E+00  0.81926589498E+03  0.81926589500E+03  0.50400001928E-02 0.  1.
       -1   -1    0    0    0  501  0.00000000000E+00  0.00000000000E+00 -0.77865724851E+03  0.77865724853E+03  0.50400001928E-02 0. -1.
    10030    2    1    2    0    0  0.00000000000E+00  0.00000000000E+00  0.40608646465E+02  0.15979231435E+04  0.15974070585E+04 0.  0.
        3    1    3    3  502    0  0.44075835440E+02  0.78533236332E+03  0.15904923231E+03  0.80248755046E+03  0.10100000352E+00 0. -1.
       -3    1    3    3    0  502 -0.44075835440E+02 -0.78533236332E+03 -0.11844058585E+03  0.79543559307E+03  0.10100000352E+00 0.  1.
</event>
<event>
 5   0  0.9844690E-04  0.1483146E+04  0.7818609E-02  0.8895739E-01
       -2   -1    0    0    0  501  0.00000000000E+00  0.00000000000E+00  0.15737095743E+04  0.15737095743E+04  0.25500000920E-02 0. -1.
        2   -1    0    0  501    0  0.00000000000E+00  0.00000000000E+00 -0.34944854777E+03  0.34944854778E+03  0.25500000920E-02 0.  1.
    10030    2    1    2    0    0  0.00000000000E+00  0.00000000000E+00  0.12242610265E+04  0.19231581221E+04  0.14831460149E+04 0.  0.
        3    1    3    3  502    0  0.52712271997E+01  0.24361215308E+03  0.15203175802E+04  0.15397208259E+04  0.10100000352E+00 0. -1.
       -3    1    3    3    0  502 -0.52712271997E+01 -0.24361215308E+03 -0.29605655363E+03  0.38343729619E+03  0.10100000352E+00 0.  1.
</event>
<event>
 5   0  0.9844690E-04  0.1567805E+04  0.7818609E-02  0.8840574E-01
       -2   -1    0    0    0  501  0.00000000000E+00  0.00000000000E+00  0.80699557497E+03  0.80699557498E+03  0.25500000920E-02 0.  1.
        2   -1    0    0  501    0  0.00000000000E+00  0.00000000000E+00 -0.76147067550E+03  0.76147067550E+03  0.25500000920E-02 0. -1.
    10030    2    1    2    0    0  0.00000000000E+00  0.00000000000E+00  0.45524899479E+02  0.15684662505E+04  0.15678054287E+04 0.  0.
        3    1    3    3  502    0 -0.53248739326E+03  0.96660635303E+02 -0.54458976025E+03  0.76776566710E+03  0.10100000352E+00 0. -1.
       -3    1    3    3    0  502  0.53248739326E+03 -0.96660635303E+02  0.59011465973E+03  0.80070058338E+03  0.10100000352E+00 0.  1.
</event>
<event>
 5   0  0.3832500E-04  0.1607218E+04  0.7818609E-02  0.8816126E-01
       -4   -1    0    0    0  501  0.00000000000E+00  0.00000000000E+00  0.12167281452E+04  0.12167288080E+04  0.12699999809E+01 0.  1.
        4   -1    0    0  501    0  0.00000000000E+00  0.00000000000E+00 -0.53075576128E+03  0.53075728072E+03  0.12699999809E+01 0. -1.
    10030    2    1    2    0    0  0.00000000000E+00  0.00000000000E+00  0.68597238392E+03  0.17474860887E+04  0.16072179438E+04 0.  0.
        4    1    3    3  502    0 -0.48827837632E+03 -0.77733937210E+02  0.10317786389E+04  0.11441272265E+04  0.12699999809E+01 0.  1.
       -4    1    3    3    0  502  0.48827837632E+03  0.77733937210E+02 -0.34580625498E+03  0.60335886225E+03  0.12699999809E+01 0. -1.
</event>
<event>
 5   0  0.1037321E-03  0.1584658E+04  0.7818609E-02  0.8830029E-01
       -2   -1    0    0    0  501  0.00000000000E+00  0.00000000000E+00  0.30666734596E+03  0.30666734597E+03  0.25500000920E-02 0.  1.
        2   -1    0    0  501    0  0.00000000000E+00  0.00000000000E+00 -0.20471202391E+04  0.20471202391E+04  0.25500000920E-02 0. -1.
    10030    2    1    2    0    0  0.00000000000E+00  0.00000000000E+00 -0.17404528932E+04  0.23537875851E+04  0.15846576042E+04 0.  0.
        5    1    3    3  502    0 -0.56961498183E+03 -0.27329104454E+03 -0.15804300595E+04  0.17020371575E+04  0.46999998093E+01 0. -1.
       -5    1    3    3    0  502  0.56961498183E+03  0.27329104454E+03 -0.16002283362E+03  0.65175042756E+03  0.46999998093E+01 0.  1.
</event>
<event>
 5   0  0.5425525E-04  0.1584835E+04  0.7818609E-02  0.8829919E-01
       -1   -1    0    0    0  501  0.00000000000E+00  0.00000000000E+00  0.12625824493E+04  0.12625824493E+04  0.50400001928E-02 0.  1.
        1   -1    0    0  501    0  0.00000000000E+00  0.00000000000E+00 -0.49733405495E+03  0.49733405497E+03  0.50400001928E-02 0. -1.
    10030    2    1    2    0    0  0.00000000000E+00  0.00000000000E+00  0.76524839437E+03  0.17599165043E+04  0.15848346908E+04 0.  0.
        5    1    3    3  502    0 -0.19308902225E+03  0.62056718672E+02  0.12332559379E+04  0.12498306707E+04  0.46999998093E+01 0.  1.
       -5    1    3    3    0  502  0.19308902225E+03 -0.62056718672E+02 -0.46800754357E+03  0.51008583364E+03  0.46999998093E+01 0. -1.
</event>
<event>
 5   0  0.5281116E-04  0.1537294E+04  0.7818609E-02  0.8860025E-01
        1   -1    0    0  501    0  0.00000000000E+00  0.00000000000E+00  0.71811278296E+03  0.71811278298E+03  0.50400001928E-02 0. -1.
       -1   -1    0    0    0  501  0.00000000000E+00  0.00000000000E+00 -0.82273758023E+03  0.82273758024E+03  0.50400001928E-02 0.  1.
    10030    2    1    2    0    0  0.00000000000E+00  0.00000000000E+00 -0.10462479726E+03  0.15408503632E+04  0.15372942118E+04 0.  0.
        2    1    3    3  502    0 -0.39747657992E+02 -0.75619671808E+03  0.79920873454E+02  0.76144645168E+03  0.25500000920E-02 0. -1.
       -2    1    3    3    0  502  0.39747657992E+02  0.75619671808E+03 -0.18454567072E+03  0.77940391155E+03  0.25500000920E-02 0.  1.
</event>
<event>
 5   0  0.1037321E-03  0.1598543E+04  0.7818609E-02  0.8821443E-01
       -2   -1    0    0    0  501  0.00000000000E+00  0.00000000000E+00  0.45932975623E+03  0.45932975624E+03  0.25500000920E-02 0. -1.
        2   -1    0    0  501    0  0.00000000000E+00  0.00000000000E+00 -0.13907987853E+04  0.13907987853E+04  0.25500000920E-02 0.  1.
    10030    2    1    2    0    0  0.00000000000E+00  0.00000000000E+00 -0.93146902902E+03  0.18501285415E+04  0.15985434208E+04 0.  0.
        5    1    3    3  502    0 -0.41520132160E+03 -0.10568911842E+03  0.31517883699E+03  0.53190423621E+03  0.46999998093E+01 0. -1.
       -5    1    3    3    0  502  0.41520132160E+03  0.10568911842E+03 -0.12466478660E+04  0.13182243053E+04  0.46999998093E+01 0.  1.
</event>
<event>
 5   0  0.1030027E-03  0.1557251E+04  0.7818609E-02  0.8847250E-01
        2   -1    0    0  501    0  0.00000000000E+00  0.00000000000E+00  0.88491594370E+03  0.88491594370E+03  0.25500000920E-02 0.  1.
       -2   -1    0    0    0  501  0.00000000000E+00  0.00000000000E+00 -0.68510182987E+03  0.68510182988E+03  0.25500000920E-02 0. -1.
    10030    2    1    2    0    0  0.00000000000E+00  0.00000000000E+00  0.19981411382E+03  0.15700177736E+04  0.15572508241E+04 0.  0.
        1    1    3    3  502    0 -0.16228300890E+03  0.27802312519E+03  0.81467982654E+03  0.87597708470E+03  0.50400001928E-02 0.  1.
       -1    1    3    3    0  502  0.16228300890E+03 -0.27802312519E+03 -0.61486571272E+03  0.69404068888E+03  0.50400001928E-02 0. -1.
</event>
<event>
 5   0  0.5281116E-04  0.1617707E+04  0.7818609E-02  0.8809743E-01
        1   -1    0    0  501    0  0.00000000000E+00  0.00000000000E+00  0.10785859999E+04  0.10785859999E+04  0.50400001928E-02 0.  1.
       -1   -1    0    0    0  501  0.00000000000E+00  0.00000000000E+00 -0.60657587872E+03  0.60657587874E+03  0.50400001928E-02 0. -1.
    10030    2    1    2    0    0  0.00000000000E+00  0.00000000000E+00  0.47201012121E+03  0.16851618787E+04  0.16177073292E+04 0.  0.
        2    1    3    3  502    0 -0.13719548963E+02 -0.48977518531E+03  0.90640550124E+03  0.10303586224E+04  0.25500000920E-02 0.  1.
       -2    1    3    3    0  502  0.13719548963E+02  0.48977518531E+03 -0.43439538003E+03  0.65480325623E+03  0.25500000920E-02 0. -1.
</event>
<event>
 5   0  0.1030027E-03  0.1602772E+04  0.7818609E-02  0.8818847E-01
       -2   -1    0    0    0  501  0.00000000000E+00  0.00000000000E+00  0.64934345291E+03  0.64934345291E+03  0.25500000920E-02 0.  1.
        2   -1    0    0  501    0  0.00000000000E+00  0.00000000000E+00 -0.98902929381E+03  0.98902929381E+03  0.25500000920E-02 0. -1.
    10030    2    1    2    0    0  0.00000000000E+00  0.00000000000E+00 -0.33968584090E+03  0.16383727467E+04  0.16027722192E+04 0.  0.
        1    1    3    3  502    0 -0.73341012910E+03  0.11556677013E+03 -0.47816072253E+03  0.88311028327E+03  0.50400001928E-02 0. -1.
       -1    1    3    3    0  502  0.73341012910E+03 -0.11556677013E+03  0.13847488163E+03  0.75526246345E+03  0.50400001928E-02 0.  1.
</event>
<event>
 5   0  0.5532881E-04  0.1640361E+04  0.7818609E-02  0.8796129E-01
       -1   -1    0    0    0  501  0.00000000000E+00  0.00000000000E+00  0.10611291410E+04  0.10611291410E+04  0.50400001928E-02 0.  1.
        1   -1    0    0  501    0  0.00000000000E+00  0.00000000000E+00 -0.63394356020E+03  0.63394356022E+03  0.50400001928E-02 0. -1.
    10030    2    1    2    0    0  0.00000000000E+00  0.00000000000E+00  0.42718558082E+03  0.16950727013E+04  0.16403609182E+04 0.  0.
        4    1    3    3  502    0 -0.48330558793E+03 -0.24053056226E+03  0.85164580379E+03  0.10083359712E+04  0.12699999809E+01 0.  1.
       -4    1    3    3    0  502  0.48330558793E+03  0.24053056226E+03 -0.42446022297E+03  0.68673673011E+03  0.12699999809E+01 0. -1.
</event>
<event>
 5   0  0.9844690E-04  0.1657003E+04  0.7818609E-02  0.8786274E-01
       -2   -1    0    0    0  501  0.00000000000E+00  0.00000000000E+00  0.89215266703E+03  0.89215266703E+03  0.25500000920E-02 0.  1.
        2   -1    0    0  501    0  0.00000000000E+00  0.00000000000E+00 -0.76939132192E+03  0.76939132192E+03  0.25500000920E-02 0. -1.
    10030    2    1    2    0    0  0.00000000000E+00  0.00000000000E+00  0.12276134511E+03  0.16615439890E+04  0.16570027397E+04 0.  0.
        3    1    3    3  502    0  0.76563312486E+03  0.85832611540E+02 -0.24417266560E+03  0.80819652308E+03  0.10100000352E+00 0. -1.
       -3    1    3    3    0  502 -0.76563312486E+03 -0.85832611540E+02  0.36693401071E+03  0.85334746587E+03  0.10100000352E+00 0.  1.
</event>
<event>
 5   0  0.5532881E-04  0.1622210E+04  0.7818609E-02  0.8807018E-01
        1   -1    0    0  501    0  0.00000000000E+00  0.00000000000E+00  0.15889197743E+04  0.15889197743E+04  0.50400001928E-02 0. -1.
       -1   -1    0    0    0  501  0.00000000000E+00  0.00000000000E+00 -0.41404965824E+03  0.41404965827E+03  0.50400001928E-02 0.  1.
    10030    2    1    2    0    0  0.00000000000E+00  0.00000000000E+00  0.11748701160E+04  0.20029694325E+04  0.16222104543E+04 0.  0.
        4    1    3    3  502    0  0.45407934097E+03  0.62041598389E+03  0.26834743541E+03  0.81431934764E+03  0.12699999809E+01 0.  1.
       -4    1    3    3    0  502 -0.45407934097E+03 -0.62041598389E+03  0.90652268061E+03  0.11886500849E+04  0.12699999809E+01 0. -1.
</event>
<event>
 5   0  0.9844690E-04  0.1575517E+04  0.7818609E-02  0.8835732E-01
       -2   -1    0    0    0  501  0.00000000000E+00  0.00000000000E+00  0.11136441061E+04  0.11136441061E+04  0.25500000920E-02 0.  1.
        2   -1    0    0  501    0  0.00000000000E+00  0.00000000000E+00 -0.55723689453E+03  0.55723689453E+03  0.25500000920E-02 0. -1.
    10030    2    1    2    0    0  0.00000000000E+00  0.00000000000E+00  0.55640721160E+03  0.16708810007E+04  0.15755171637E+04 0.  0.
        3    1    3    3  502    0 -0.70519938070E+03 -0.26613163122E+03  0.52104233382E+03  0.91630635462E+03  0.10100000352E+00 0.  1.
       -3    1    3    3    0  502  0.70519938070E+03  0.26613163122E+03  0.35364877777E+02  0.75457464605E+03  0.10100000352E+00 0. -1.
</event>
<event>
 5   0  0.1000121E-03  0.1590251E+04  0.7818609E-02  0.8826560E-01
       -2   -1    0    0    0  501  0.00000000000E+00  0.00000000000E+00  0.29055744896E+03  0.29055744897E+03  0.25500000920E-02 0. -1.
        2   -1    0    0  501    0  0.00000000000E+00  0.00000000000E+00 -0.21759015326E+04  0.21759015326E+04  0.25500000920E-02 0.  1.
    10030    2    1    2    0    0  0.00000000000E+00  0.00000000000E+00 -0.18853440836E+04  0.24664589816E+04  0.15902507960E+04 0.  0.
        4    1    3    3  502    0 -0.62811695105E+03  0.21379103228E+03 -0.16222546202E+04  0.17526976851E+04  0.12699999809E+01 0.  1.
       -4    1    3    3    0  502  0.62811695105E+03 -0.21379103228E+03 -0.26308946345E+03  0.71376129648E+03  0.12699999809E+01 0. -1.
</event>
<event>
 5   0  0.1057872E-03  0.1051241E+04  0.7818609E-02  0.9254064E-01
       -2   -1    0    0    0  501  0.00000000000E+00  0.00000000000E+00  0.42513852526E+03  0.42513852527E+03  0.25500000920E-02 0.  1.
        2   -1    0    0  501    0  0.00000000000E+00  0.00000000000E+00 -0.64985134410E+03  0.64985134410E+03  0.25500000920E-02 0. -1.
    10030    2    1    2    0    0  0.00000000000E+00  0.00000000000E+00 -0.22471281883E+03  0.10749898694E+04  0.10512408707E+04 0.  0.
        2    1    3    3  502    0 -0.26401308229E+03  0.10624185488E+03  0.33953944724E+03  0.44303191260E+03  0.25500000920E-02 0.  1.
       -2    1    3    3    0  502  0.26401308229E+03 -0.10624185488E+03 -0.56425226607E+03  0.63195795677E+03  0.25500000920E-02 0. -1.
</event>
<event>
 5   0  0.1057872E-03  0.1578281E+04  0.7818609E-02  0.8834003E-01
        2   -1    0    0  501    0  0.00000000000E+00  0.00000000000E+00  0.15478186427E+04  0.15478186427E+04  0.25500000920E-02 0. -1.
       -2   -1    0    0    0  501  0.00000000000E+00  0.00000000000E+00 -0.40233589117E+03  0.40233589118E+03  0.25500000920E-02 0.  1.
    10030    2    1    2    0    0  0.00000000000E+00  0.00000000000E+00  0.11454827515E+04  0.19501545339E+04  0.15782813348E+04 0.  0.
        2    1    3    3  502    0 -0.73443774864E+03  0.19266121905E+03  0.30708085649E+03  0.81903345743E+03  0.25500000920E-02 0.  1.
       -2    1    3    3    0  502  0.73443774864E+03 -0.19266121905E+03  0.83840189501E+03  0.11311210764E+04  0.25500000920E-02 0. -1.
</event>
<event>
 5   0  0.5281116E-04  0.1624473E+04  0.7818609E-02  0.8805653E-01
       -1   -1    0    0    0  501  0.00000000000E+00  0.00000000000E+00  0.12182774382E+04  0.12182774382E+04  0.50400001928E-02 0.  1.
        1   -1    0    0  501    0  0.00000000000E+00  0.00000000000E+00 -0.54152555474E+03  0.54152555476E+03  0.50400001928E-02 0. -1.
    10030    2    1    2    0    0  0.00000000000E+00  0.00000000000E+00  0.67675188343E+03  0.17598029929E+04  0.16244732876E+04 0.  0.
        2    1    3    3  502    0 -0.20858530264E+03 -0.42874203559E+03 -0.37397618308E+03  0.60595853578E+03  0.25500000920E-02 0. -1.
       -2    1    3    3    0  502  0.20858530264E+03  0.42874203559E+03  0.10507280665E+04  0.11538444572E+04  0.25500000920E-02 0.  1.
</event>
<event>
 5   0  0.1057872E-03  0.1575203E+04  0.7818609E-02  0.8835928E-01
        2   -1    0    0  501    0  0.00000000000E+00  0.00000000000E+00  0.19449926021E+04  0.19449926021E+04  0.25500000920E-02 0. -1.
       -2   -1    0    0    0  501  0.00000000000E+00  0.00000000000E+00 -0.31892994316E+03  0.31892994317E+03  0.25500000920E-02 0.  1.
    10030    2    1    2    0    0  0.00000000000E+00  0.00000000000E+00  0.16260626589E+04  0.22639225453E+04  0.15752033266E+04 0.  0.
        2    1    3    3  502    0  0.16680819675E+03  0.63128251893E+03  0.18004188739E+03  0.67731652455E+03  0.25500000920E-02 0.  1.
       -2    1    3    3    0  502 -0.16680819675E+03 -0.63128251893E+03  0.14460207716E+04  0.15866060207E+04  0.25500000920E-02 0. -1.
</event>
<event>
 5   0  0.1037321E-03  0.1612484E+04  0.7818609E-02  0.8812915E-01
       -2   -1    0    0    0  501  0.00000000000E+00  0.00000000000E+00  0.13112912339E+04  0.13112912339E+04  0.25500000920E-02 0.  1.
        2   -1    0    0  501    0  0.00000000000E+00  0.00000000000E+00 -0.49571438539E+03  0.49571438540E+03  0.25500000920E-02 0. -1.
    10030    2    1    2    0    0  0.00000000000E+00  0.00000000000E+00  0.81557684848E+03  0.18070056193E+04  0.16124837092E+04 0.  0.
        5    1    3    3  502    0 -0.55365466722E+03  0.44243030165E+03  0.83850571552E+03  0.10979034508E+04  0.46999998093E+01 0.  1.
       -5    1    3    3    0  502  0.55365466722E+03 -0.44243030165E+03 -0.22928867040E+02  0.70910216845E+03  0.46999998093E+01 0. -1.
</event>
<event>
 5   0  0.1037321E-03  0.1599151E+04  0.7818609E-02  0.8821070E-01
        2   -1    0    0  501    0  0.00000000000E+00  0.00000000000E+00  0.10774408074E+04  0.10774408074E+04  0.25500000920E-02 0.  1.
       -2   -1    0    0    0  501  0.00000000000E+00  0.00000000000E+00 -0.59337007924E+03  0.59337007924E+03  0.25500000920E-02 0. -1.
    10030    2    1    2    0    0  0.00000000000E+00  0.00000000000E+00  0.48407072819E+03  0.16708108867E+04  0.15991511965E+04 0.  0.
        5    1    3    3  502    0 -0.71325676734E+03  0.35466676225E+03  0.16983507144E+03  0.81448742771E+03  0.46999998093E+01 0. -1.
       -5    1    3    3    0  502  0.71325676734E+03 -0.35466676225E+03  0.31423565675E+03  0.85632345896E+03  0.46999998093E+01 0.  1.
</event>
<event>
 5   0  0.9844690E-04  0.1620668E+04  0.7818609E-02  0.8807951E-01
        2   -1    0    0  501    0  0.00000000000E+00  0.00000000000E+00  0.67983792664E+03  0.67983792664E+03  0.25500000920E-02 0. -1.
       -2   -1    0    0    0  501  0.00000000000E+00  0.00000000000E+00 -0.96587882582E+03  0.96587882582E+03  0.25500000920E-02 0.  1.
    10030    2    1    2    0    0  0.00000000000E+00  0.00000000000E+00 -0.28604089918E+03  0.16457167525E+04  0.16206678356E+04 0.  0.
        3    1    3    3  502    0  0.43846681072E+03  0.44272671211E+03 -0.66908244745E+03  0.91429285101E+03  0.10100000352E+00 0.  1.
       -3    1    3    3    0  502 -0.43846681072E+03 -0.44272671211E+03  0.38304154827E+03  0.73142390146E+03  0.10100000352E+00 0. -1.
</event>
<event>
 5   0  0.5425525E-04  0.1573601E+04  0.7818609E-02  0.8836932E-01
        1   -1    0    0  501    0  0.00000000000E+00  0.00000000000E+00  0.64278782240E+03  0.64278782242E+03  0.50400001928E-02 0. -1.
       -1   -1    0    0    0  501  0.00000000000E+00  0.00000000000E+00 -0.96307788476E+03  0.96307788477E+03  0.50400001928E-02 0.  1.
    10030    2    1    2    0    0  0.00000000000E+00  0.00000000000E+00 -0.32029006235E+03  0.16058657072E+04  0.15736006309E+04 0.  0.
        5    1    3    3  502    0  0.20857112514E+03  0.75705388890E+03 -0.11014927750E+03  0.79296119595E+03  0.46999998093E+01 0.  1.
       -5    1    3    3    0  502 -0.20857112514E+03 -0.75705388890E+03 -0.21014078485E+03  0.81290451124E+03  0.46999998093E+01 0. -1.
</event>
<event>
 5   0  0.5288658E-04  0.1618314E+04  0.7818609E-02  0.8809375E-01
        1   -1    0    0  501    0  0.00000000000E+00  0.00000000000E+00  0.11578006926E+04  0.11578006926E+04  0.50400001928E-02 0. -1.
       -1   -1    0    0    0  501  0.00000000000E+00  0.00000000000E+00 -0.56549905139E+03  0.56549905141E+03  0.50400001928E-02 0.  1.
    10030    2    1    2    0    0  0.00000000000E+00  0.00000000000E+00  0.59230164120E+03  0.17232997440E+04  0.16183141764E+04 0.  0.
        1    1    3    3  502    0 -0.20081933145E+03 -0.36721013492E+03 -0.44127959854E+03  0.60819353103E+03  0.50400001928E-02 0.  1.
       -1    1    3    3    0  502  0.20081933145E+03  0.36721013492E+03  0.10335812397E+04  0.11151062130E+04  0.50400001928E-02 0. -1.
</event>
<event>
 5   0  0.9844690E-04  0.1611802E+04  0.7818609E-02  0.8813330E-01
       -2   -1    0    0    0  501  0.00000000000E+00  0.00000000000E+00  0.84786166868E+03  0.84786166869E+03  0.25500000920E-02 0.  1.
        2   -1    0    0  501    0  0.00000000000E+00  0.00000000000E+00 -0.76601714232E+03  0.76601714232E+03  0.25500000920E-02 0. -1.
    10030    2    1    2    0    0  0.00000000000E+00  0.00000000000E+00  0.81844526366E+02  0.16138788110E+04  0.16118021870E+04 0.  0.
        3    1    3    3  502    0  0.12640740372E+03  0.79591135210E+03  0.36135914419E+02  0.80669667572E+03  0.10100000352E+00 0.  1.
       -3    1    3    3    0  502 -0.12640740372E+03 -0.79591135210E+03  0.45708611947E+02  0.80718213528E+03  0.10100000352E+00 0. -1.
</event>
<event>
 5   0  0.3832500E-04  0.1565936E+04  0.7818609E-02  0.8841752E-01
        4   -1    0    0  501    0  0.00000000000E+00  0.00000000000E+00  0.38392770717E+03  0.38392980769E+03  0.12699999809E+01 0. -1.
       -4   -1    0    0    0  501  0.00000000000E+00  0.00000000000E+00 -0.15967499554E+04  0.15967504604E+04  0.12699999809E+01 0.  1.
    10030    2    1    2    0    0  0.00000000000E+00  0.00000000000E+00 -0.12128222482E+04  0.19806802681E+04  0.15659363074E+04 0.  0.
        5    1    3    3  502    0 -0.21608548298E+03  0.65786121768E+03 -0.10686328912E+04  0.12733705917E+04  0.46999998093E+01 0.  1.
       -5    1    3    3    0  502  0.21608548298E+03 -0.65786121768E+03 -0.14418935703E+03  0.70730967642E+03  0.46999998093E+01 0. -1.
</event>
<event>
 5   0  0.1000121E-03  0.1638892E+04  0.7818609E-02  0.8797005E-01
       -2   -1    0    0    0  501  0.00000000000E+00  0.00000000000E+00  0.44509708189E+03  0.44509708189E+03  0.25500000920E-02 0.  1.
        2   -1    0    0  501    0  0.00000000000E+00  0.00000000000E+00 -0.15086416579E+04  0.15086416579E+04  0.25500000920E-02 0. -1.
    10030    2    1    2    0    0  0.00000000000E+00  0.00000000000E+00 -0.10635445760E+04  0.19537387398E+04  0.16388923083E+04 0.  0.
        4    1    3    3  502    0  0.47938111944E+03  0.66353322911E+03 -0.57650074407E+03  0.10012179206E+04  0.12699999809E+01 0. -1.
       -4    1    3    3    0  502 -0.47938111944E+03 -0.66353322911E+03 -0.48704383196E+03  0.95252081917E+03  0.12699999809E+01 0.  1.
</event>
<event>
 5   0  0.3832500E-04  0.1604825E+04  0.7818609E-02  0.8817589E-01
        3   -1    0    0  501    0  0.00000000000E+00  0.00000000000E+00  0.70897205581E+03  0.70897206300E+03  0.10100000352E+00 0.  1.
       -3   -1    0    0    0  501  0.00000000000E+00  0.00000000000E+00 -0.90816804359E+03  0.90816804920E+03  0.10100000352E+00 0. -1.
    10030    2    1    2    0    0  0.00000000000E+00  0.00000000000E+00 -0.19919598778E+03  0.16171401122E+04  0.16048249440E+04 0.  0.
        3    1    3    3  502    0  0.72769909879E+03 -0.24678883608E+03 -0.33248852532E+03  0.83725703202E+03  0.10100000352E+00 0. -1.
       -3    1    3    3    0  502 -0.72769909879E+03  0.24678883608E+03  0.13329253754E+03  0.77988308019E+03  0.10100000352E+00 0.  1.
</event>
<event>
 5   0  0.5532881E-04  0.1509883E+04  0.7818609E-02  0.8877907E-01
        1   -1    0    0  501    0  0.00000000000E+00  0.00000000000E+00  0.26132793107E+04  0.26132793107E+04  0.50400001928E-02 0. -1.
       -1   -1    0    0    0  501  0.00000000000E+00  0.00000000000E+00 -0.21809256687E+03  0.21809256693E+03  0.50400001928E-02 0.  1.
    10030    2    1    2    0    0  0.00000000000E+00  0.00000000000E+00  0.23951867438E+04  0.28313718776E+04  0.15098831649E+04 0.  0.
        4    1    3    3  502    0 -0.44030373270E+03  0.24802202980E+03  0.22493140224E+04  0.23053844557E+04  0.12699999809E+01 0. -1.
       -4    1    3    3    0  502  0.44030373270E+03 -0.24802202980E+03  0.14587272144E+03  0.52598742196E+03  0.12699999809E+01 0.  1.
</event>
<event>
 5   0  0.1000121E-03  0.1527851E+04  0.7818609E-02  0.8866141E-01
       -2   -1    0    0    0  501  0.00000000000E+00  0.00000000000E+00  0.19488045499E+04  0.19488045499E+04  0.25500000920E-02 0. -1.
        2   -1    0    0  501    0  0.00000000000E+00  0.00000000000E+00 -0.29945633052E+03  0.29945633053E+03  0.25500000920E-02 0.  1.
    10030    2    1    2    0    0  0.00000000000E+00  0.00000000000E+00  0.16493482194E+04  0.22482608804E+04  0.15278505940E+04 0.  0.
        4    1    3    3  502    0 -0.64117563447E+03 -0.28016794266E+03  0.37356304254E+03  0.79319053826E+03  0.12699999809E+01 0. -1.
       -4    1    3    3    0  502  0.64117563447E+03  0.28016794266E+03  0.12757851768E+04  0.14550703422E+04  0.12699999809E+01 0.  1.
</event>
<event>
 5   0  0.1030027E-03  0.1509422E+04  0.7818609E-02  0.8878212E-01
        2   -1    0    0  501    0  0.00000000000E+00  0.00000000000E+00  0.12720708279E+04  0.12720708279E+04  0.25500000920E-02 0. -1.
       -2   -1    0    0    0  501  0.00000000000E+00  0.00000000000E+00 -0.44776487150E+03  0.44776487151E+03  0.25500000920E-02 0.  1.
    10030    2    1    2    0    0  0.00000000000E+00  0.00000000000E+00  0.82430595638E+03  0.17198356994E+04  0.15094219169E+04 0.  0.
        1    1    3    3  502    0 -0.64660704983E+03  0.38885087551E+03  0.43131898046E+03  0.86910398872E+03  0.50400001928E-02 0. -1.
       -1    1    3    3    0  502  0.64660704983E+03 -0.38885087551E+03  0.39298697592E+03  0.85073171067E+03  0.50400001928E-02 0.  1.
</event>
<event>
 5   0  0.1057872E-03  0.1596671E+04  0.7818609E-02  0.8822596E-01
        2   -1    0    0  501    0  0.00000000000E+00  0.00000000000E+00  0.17309724489E+04  0.17309724489E+04  0.25500000920E-02 0.  1.
       -2   -1    0    0    0  501  0.00000000000E+00  0.00000000000E+00 -0.36819740375E+03  0.36819740376E+03  0.25500000920E-02 0. -1.
    10030    2    1    2    0    0  0.00000000000E+00  0.00000000000E+00  0.13627750451E+04  0.20991698526E+04  0.15966709888E+04 0.  0.
        2    1    3    3  502    0 -0.53242086322E+03 -0.42204148202E+03  0.12325479783E+04  0.14073967127E+04  0.25500000920E-02 0.  1.
       -2    1    3    3    0  502  0.53242086322E+03  0.42204148202E+03  0.13022706679E+03  0.69177313989E+03  0.25500000920E-02 0. -1.
</event>
<event>
 5   0  0.5623061E-04  0.1508157E+04  0.7818609E-02  0.8879046E-01
        1   -1    0    0  501    0  0.00000000000E+00  0.00000000000E+00  0.11952696140E+04  0.11952696140E+04  0.50400001928E-02 0.  1.
       -1   -1    0    0    0  501  0.00000000000E+00  0.00000000000E+00 -0.47573757124E+03  0.47573757127E+03  0.50400001928E-02 0. -1.
    10030    2    1    2    0    0  0.00000000000E+00  0.00000000000E+00  0.71953204272E+03  0.16710071852E+04  0.15081573700E+04 0.  0.
        3    1    3    3  502    0 -0.72021466039E+03  0.20521051609E+03  0.45770876164E+03  0.87767752258E+03  0.10100000352E+00 0.  1.
       -3    1    3    3    0  502  0.72021466039E+03 -0.20521051609E+03  0.26182328107E+03  0.79332966266E+03  0.10100000352E+00 0. -1.
</event>
<event>
 5   0  0.3832500E-04  0.1626160E+04  0.7818609E-02  0.8804636E-01
        3   -1    0    0  501    0  0.00000000000E+00  0.00000000000E+00  0.62712351141E+03  0.62712351954E+03  0.10100000352E+00 0. -1.
       -3   -1    0    0    0  501  0.00000000000E+00  0.00000000000E+00 -0.10541771323E+04  0.10541771371E+04  0.10100000352E+00 0.  1.
    10030    2    1    2    0    0  0.00000000000E+00  0.00000000000E+00 -0.42705362085E+03  0.16813006566E+04  0.16261602329E+04 0.  0.
        1    1    3    3  502    0 -0.13476231002E+03  0.57787930115E+03 -0.78824772978E+03  0.98663055417E+03  0.50400001928E-02 0.  1.
       -1    1    3    3    0  502  0.13476231002E+03 -0.57787930115E+03  0.36119410893E+03  0.69467010246E+03  0.50400001928E-02 0. -1.
</event>
<event>
 5   0  0.5288658E-04  0.1135428E+04  0.7818609E-02  0.9171333E-01
       -1   -1    0    0    0  501  0.00000000000E+00  0.00000000000E+00  0.47106488621E+03  0.47106488624E+03  0.50400001928E-02 0. -1.
        1   -1    0    0  501    0  0.00000000000E+00  0.00000000000E+00 -0.68419307852E+03  0.68419307854E+03  0.50400001928E-02 0.  1.
    10030    2    1    2    0    0  0.00000000000E+00  0.00000000000E+00 -0.21312819231E+03  0.11552579648E+04  0.11354282623E+04 0.  0.
        1    1    3    3  502    0  0.43348378480E+03 -0.30263449550E+02 -0.47828729837E+03  0.64620647464E+03  0.50400001928E-02 0.  1.
       -1    1    3    3    0  502 -0.43348378480E+03  0.30263449550E+02  0.26515910606E+03  0.50905149014E+03  0.50400001928E-02 0. -1.
</event>
<event>
 5   0  0.5281116E-04  0.1577313E+04  0.7818609E-02  0.8834608E-01
       -1   -1    0    0    0  501  0.00000000000E+00  0.00000000000E+00  0.36665478808E+03  0.36665478811E+03  0.50400001928E-02 0. -1.
        1   -1    0    0  501    0  0.00000000000E+00  0.00000000000E+00 -0.16963610397E+04  0.16963610397E+04  0.50400001928E-02 0.  1.
    10030    2    1    2    0    0  0.00000000000E+00  0.00000000000E+00 -0.13297062517E+04  0.20630158279E+04  0.15773127750E+04 0.  0.
        2    1    3    3  502    0 -0.68129216046E+03 -0.41633853590E+02 -0.11815875884E+04  0.13645664567E+04  0.25500000920E-02 0.  1.
       -2    1    3    3    0  502  0.68129216046E+03  0.41633853590E+02 -0.14811866326E+03  0.69844937117E+03  0.25500000920E-02 0. -1.
</event>
<event>
 5   0  0.1057872E-03  0.1575285E+04  0.7818609E-02  0.8835877E-01
       -2   -1    0    0    0  501  0.00000000000E+00  0.00000000000E+00  0.29325957811E+03  0.29325957813E+03  0.25500000920E-02 0.  1.
        2   -1    0    0  501    0  0.00000000000E+00  0.00000000000E+00 -0.21154658444E+04  0.21154658445E+04  0.25500000920E-02 0. -1.
    10030    2    1    2    0    0  0.00000000000E+00  0.00000000000E+00 -0.18222062663E+04  0.24087254226E+04  0.15752848899E+04 0.  0.
        2    1    3    3  502    0 -0.78073770629E+03 -0.45880405859E+02 -0.76828213113E+03  0.10963182981E+04  0.25500000920E-02 0.  1.
       -2    1    3    3    0  502  0.78073770629E+03  0.45880405859E+02 -0.10539241352E+04  0.13124071245E+04  0.25500000920E-02 0. -1.
</event>
<event>
 5   0  0.1037321E-03  0.1726414E+04  0.7818609E-02  0.8746441E-01
       -2   -1    0    0    0  501  0.00000000000E+00  0.00000000000E+00  0.19243862729E+04  0.19243862729E+04  0.25500000920E-02 0. -1.
        2   -1    0    0  501    0  0.00000000000E+00  0.00000000000E+00 -0.38720217096E+03  0.38720217097E+03  0.25500000920E-02 0.  1.
    10030    2    1    2    0    0  0.00000000000E+00  0.00000000000E+00  0.15371841019E+04  0.23115884438E+04  0.17264142523E+04 0.  0.
        5    1    3    3  502    0 -0.61615206422E+03  0.39118693076E+03  0.13857230814E+04  0.15661804269E+04  0.46999998093E+01 0. -1.
       -5    1    3    3    0  502  0.61615206422E+03 -0.39118693076E+03  0.15146102046E+03  0.74540801697E+03  0.46999998093E+01 0.  1.
</event>
<event>
 5   0  0.5288658E-04  0.1635894E+04  0.7818609E-02  0.8798795E-01
       -1   -1    0    0    0  501  0.00000000000E+00  0.00000000000E+00  0.12531155436E+04  0.12531155436E+04  0.50400001928E-02 0.  1.
        1   -1    0    0  501    0  0.00000000000E+00  0.00000000000E+00 -0.53389932455E+03  0.53389932458E+03  0.50400001928E-02 0. -1.
    10030    2    1    2    0    0  0.00000000000E+00  0.00000000000E+00  0.71921621901E+03  0.17870148681E+04  0.16358943026E+04 0.  0.
        1    1    3    3  502    0  0.51987728710E+02 -0.39744791086E+03  0.11384743374E+04  0.12069761318E+04  0.50400001928E-02 0.  1.
       -1    1    3    3    0  502 -0.51987728710E+02  0.39744791086E+03 -0.41925811840E+03  0.58003873634E+03  0.50400001928E-02 0. -1.
</event>
<event>
 5   0  0.1030027E-03  0.1617317E+04  0.7818609E-02  0.8809979E-01
       -2   -1    0    0    0  501  0.00000000000E+00  0.00000000000E+00  0.92605338390E+03  0.92605338391E+03  0.25500000920E-02 0.  1.
        2   -1    0    0  501    0  0.00000000000E+00  0.00000000000E+00 -0.70614597403E+03  0.70614597404E+03  0.25500000920E-02 0. -1.
    10030    2    1    2    0    0  0.00000000000E+00  0.00000000000E+00  0.21990740987E+03  0.16321993579E+04  0.16173173700E+04 0.  0.
        1    1    3    3  502    0  0.49083466896E+03  0.46817872795E+03 -0.33434596054E+03  0.75623886101E+03  0.50400001928E-02 0. -1.
       -1    1    3    3    0  502 -0.49083466896E+03 -0.46817872795E+03  0.55425337041E+03  0.87596049693E+03  0.50400001928E-02 0.  1.
</event>
<event>
 5   0  0.5288658E-04  0.1495004E+04  0.7818609E-02  0.8887782E-01
       -1   -1    0    0    0  501  0.00000000000E+00  0.00000000000E+00  0.63215224542E+03  0.63215224544E+03  0.50400001928E-02 0.  1.
        1   -1    0    0  501    0  0.00000000000E+00  0.00000000000E+00 -0.88389986675E+03  0.88389986676E+03  0.50400001928E-02 0. -1.
    10030    2    1    2    0    0  0.00000000000E+00  0.00000000000E+00 -0.25174762133E+03  0.15160521122E+04  0.14950040609E+04 0.  0.
        1    1    3    3  502    0 -0.35972563975E+03 -0.51513013360E+03 -0.53654158980E+03  0.82621938252E+03  0.50400001928E-02 0. -1.
       -1    1    3    3    0  502  0.35972563975E+03  0.51513013360E+03  0.28479396847E+03  0.68983272968E+03  0.50400001928E-02 0.  1.
</event>
<event>
 5   0  0.1037321E-03  0.1590434E+04  0.7818609E-02  0.8826446E-01
        2   -1    0    0  501    0  0.00000000000E+00  0.00000000000E+00  0.11735065382E+04  0.11735065382E+04  0.25500000920E-02 0. -1.
       -2   -1    0    0    0  501  0.00000000000E+00  0.00000000000E+00 -0.53887243179E+03  0.53887243179E+03  0.25500000920E-02 0.  1.
    10030    2    1    2    0    0  0.00000000000E+00  0.00000000000E+00  0.63463410646E+03  0.17123789700E+04  0.15904343080E+04 0.  0.
        5    1    3    3  502    0  0.13386987953E+03  0.21442618022E+03  0.11290809136E+04  0.11570417153E+04  0.46999998093E+01 0. -1.
       -5    1    3    3    0  502 -0.13386987953E+03 -0.21442618022E+03 -0.49444680716E+03  0.55533725476E+03  0.46999998093E+01 0.  1.
</event>
<event>
 5   0  0.1000121E-03  0.1605646E+04  0.7818609E-02  0.8817087E-01
        2   -1    0    0  501    0  0.00000000000E+00  0.00000000000E+00  0.59824912175E+03  0.59824912176E+03  0.25500000920E-02 0. -1.
       -2   -1    0    0    0  501  0.00000000000E+00  0.00000000000E+00 -0.10773521874E+04  0.10773521874E+04  0.25500000920E-02 0.  1.
    10030    2    1    2    0    0  0.00000000000E+00  0.00000000000E+00 -0.47910306563E+03  0.16756013091E+04  0.16056462872E+04 0.  0.
        4    1    3    3  502    0  0.63203128200E+03 -0.19669550557E+03  0.23452106724E+03  0.70224953344E+03  0.12699999809E+01 0. -1.
       -4    1    3    3    0  502 -0.63203128200E+03  0.19669550557E+03 -0.71362413287E+03  0.97335177570E+03  0.12699999809E+01 0.  1.
</event>
<event>
 5   0  0.1037321E-03  0.1552940E+04  0.7818609E-02  0.8849992E-01
       -2   -1    0    0    0  501  0.00000000000E+00  0.00000000000E+00  0.35817194219E+03  0.35817194220E+03  0.25500000920E-02 0. -1.
        2   -1    0    0  501    0  0.00000000000E+00  0.00000000000E+00 -0.16832863843E+04  0.16832863843E+04  0.25500000920E-02 0.  1.
    10030    2    1    2    0    0  0.00000000000E+00  0.00000000000E+00 -0.13251144421E+04  0.20414583265E+04  0.15529403769E+04 0.  0.
        5    1    3    3  502    0 -0.58340433365E+03 -0.51021964510E+03 -0.60090989735E+03  0.98071376940E+03  0.46999998093E+01 0. -1.
       -5    1    3    3    0  502  0.58340433365E+03  0.51021964510E+03 -0.72420454479E+03  0.10607445571E+04  0.46999998093E+01 0.  1.
</event>
<event>
 5   0  0.1037321E-03  0.1533836E+04  0.7818609E-02  0.8862259E-01
        2   -1    0    0  501    0  0.00000000000E+00  0.00000000000E+00  0.10386505251E+04  0.10386505251E+04  0.25500000920E-02 0. -1.
       -2   -1    0    0    0  501  0.00000000000E+00  0.00000000000E+00 -0.56627651535E+03  0.56627651536E+03  0.25500000920E-02 0.  1.
    10030    2    1    2    0    0  0.00000000000E+00  0.00000000000E+00  0.47237400971E+03  0.16049270404E+04  0.15338362364E+04 0.  0.
        5    1    3    3  502    0  0.51346662308E+03 -0.56879980206E+03  0.26860898590E+03  0.81200619773E+03  0.46999998093E+01 0.  1.
       -5    1    3    3    0  502 -0.51346662308E+03  0.56879980206E+03  0.20376502380E+03  0.79292084269E+03  0.46999998093E+01 0. -1.
</event>
<event>
 5   0  0.3832500E-04  0.1566057E+04  0.7818609E-02  0.8841676E-01
        4   -1    0    0  501    0  0.00000000000E+00  0.00000000000E+00  0.71412958199E+03  0.71413071126E+03  0.12699999809E+01 0. -1.
       -4   -1    0    0    0  501  0.00000000000E+00  0.00000000000E+00 -0.85857256038E+03  0.85857349967E+03  0.12699999809E+01 0.  1.
    10030    2    1    2    0    0  0.00000000000E+00  0.00000000000E+00 -0.14444297839E+03  0.15727042109E+04  0.15660570747E+04 0.  0.
        4    1    3    3  502    0 -0.21962966947E+03  0.25800576016E+03  0.63669825329E+03  0.72124229121E+03  0.12699999809E+01 0. -1.
       -4    1    3    3    0  502  0.21962966947E+03 -0.25800576016E+03 -0.78114123169E+03  0.85146191972E+03  0.12699999809E+01 0.  1.
</event>
<event>
 5   0  0.1030027E-03  0.1603372E+04  0.7818609E-02  0.8818479E-01
       -2   -1    0    0    0  501  0.00000000000E+00  0.00000000000E+00  0.60099622517E+03  0.60099622518E+03  0.25500000920E-02 0. -1.
        2   -1    0    0  501    0  0.00000000000E+00  0.00000000000E+00 -0.10693922522E+04  0.10693922522E+04  0.25500000920E-02 0.  1.
    10030    2    1    2    0    0  0.00000000000E+00  0.00000000000E+00 -0.46839602704E+03  0.16703884774E+04  0.16033723296E+04 0.  0.
        1    1    3    3  502    0  0.25352638824E+03 -0.97016278672E+02 -0.10200561688E+04  0.10555578504E+04  0.50400001928E-02 0.  1.
       -1    1    3    3    0  502 -0.25352638824E+03  0.97016278672E+02  0.55166014180E+03  0.61483062703E+03  0.50400001928E-02 0. -1.
</event>
<event>
 5   0  0.5281116E-04  0.1612009E+04  0.7818609E-02  0.8813204E-01
        1   -1    0    0  501    0  0.00000000000E+00  0.00000000000E+00  0.20237226217E+04  0.20237226217E+04  0.50400001928E-02 0. -1.
       -1   -1    0    0    0  501  0.00000000000E+00  0.00000000000E+00 -0.32101388808E+03  0.32101388812E+03  0.50400001928E-02 0.  1.
    10030    2    1    2    0    0  0.00000000000E+00  0.00000000000E+00  0.17027087337E+04  0.23447365099E+04  0.16120087683E+04 0.  0.
        2    1    3    3  502    0 -0.67217185253E+03  0.14824142477E+03  0.14613138372E+04  0.16153106978E+04  0.25500000920E-02 0. -1.
       -2    1    3    3    0  502  0.67217185253E+03 -0.14824142477E+03  0.24139489640E+03  0.72942581211E+03  0.25500000920E-02 0.  1.
</event>
<event>
 5   0  0.1000121E-03  0.1592389E+04  0.7818609E-02  0.8825238E-01
        2   -1    0    0  501    0  0.00000000000E+00  0.00000000000E+00  0.12772137583E+04  0.12772137583E+04  0.25500000920E-02 0.  1.
       -2   -1    0    0    0  501  0.00000000000E+00  0.00000000000E+00 -0.49633460018E+03  0.49633460018E+03  0.25500000920E-02 0. -1.
    10030    2    1    2    0    0  0.00000000000E+00  0.00000000000E+00  0.78087915816E+03  0.17735483585E+04  0.15923886210E+04 0.  0.
        4    1    3    3  502    0  0.35727088060E+03  0.36948125545E+03 -0.28682256807E+03  0.58858107233E+03  0.12699999809E+01 0. -1.
       -4    1    3    3    0  502 -0.35727088060E+03 -0.36948125545E+03  0.10677017262E+04  0.11849672862E+04  0.12699999809E+01 0.  1.
</event>
<event>
 5   0  0.5623061E-04  0.1607273E+04  0.7818609E-02  0.8816092E-01
        1   -1    0    0  501    0  0.00000000000E+00  0.00000000000E+00  0.10966699162E+04  0.10966699162E+04  0.50400001928E-02 0.  1.
       -1   -1    0    0    0  501  0.00000000000E+00  0.00000000000E+00 -0.58890259295E+03  0.58890259297E+03  0.50400001928E-02 0. -1.
    10030    2    1    2    0    0  0.00000000000E+00  0.00000000000E+00  0.50776732324E+03  0.16855725092E+04  0.16072731657E+04 0.  0.
        3    1    3    3  502    0  0.76708559918E+03 -0.23928333944E+03  0.26693644696E+03  0.84671831793E+03  0.10100000352E+00 0.  1.
       -3    1    3    3    0  502 -0.76708559918E+03  0.23928333944E+03  0.24083087629E+03  0.83885419125E+03  0.10100000352E+00 0. -1.
</event>
<event>
 5   0  0.9844690E-04  0.1575347E+04  0.7818609E-02  0.8835838E-01
       -2   -1    0    0    0  501  0.00000000000E+00  0.00000000000E+00  0.53957003010E+03  0.53957003011E+03  0.25500000920E-02 0.  1.
        2   -1    0    0  501    0  0.00000000000E+00  0.00000000000E+00 -0.11498591271E+04  0.11498591271E+04  0.25500000920E-02 0. -1.
    10030    2    1    2    0    0  0.00000000000E+00  0.00000000000E+00 -0.61028909701E+03  0.16894291572E+04  0.15753469762E+04 0.  0.
        3    1    3    3  502    0 -0.55917886687E+03 -0.17668577957E+03  0.25879868992E+03  0.64099582055E+03  0.10100000352E+00 0.  1.
       -3    1    3    3    0  502  0.55917886687E+03  0.17668577957E+03 -0.86908778694E+03  0.10484333367E+04  0.10100000352E+00 0. -1.
</event>
<event>
 5   0  0.5532881E-04  0.1621809E+04  0.7818609E-02  0.8807261E-01
       -1   -1    0    0    0  501  0.00000000000E+00  0.00000000000E+00  0.69823238845E+03  0.69823238847E+03  0.50400001928E-02 0.  1.
        1   -1    0    0  501    0  0.00000000000E+00  0.00000000000E+00 -0.94175779261E+03  0.94175779262E+03  0.50400001928E-02 0. -1.
    10030    2    1    2    0    0  0.00000000000E+00  0.00000000000E+00 -0.24352540416E+03  0.16399901811E+04  0.16218086113E+04 0.  0.
        4    1    3    3  502    0  0.21642899136E+02 -0.18147949513E+03  0.67713274387E+03  0.70136551666E+03  0.12699999809E+01 0.  1.
       -4    1    3    3    0  502 -0.21642899136E+02  0.18147949513E+03 -0.92065814803E+03  0.93862466443E+03  0.12699999809E+01 0. -1.
</event>
<event>
 5   0  0.1030027E-03  0.1645416E+04  0.7818609E-02  0.8793123E-01
       -2   -1    0    0    0  501  0.00000000000E+00  0.00000000000E+00  0.67527130842E+03  0.67527130843E+03  0.25500000920E-02 0.  1.
        2   -1    0    0  501    0  0.00000000000E+00  0.00000000000E+00 -0.10023354955E+04  0.10023354955E+04  0.25500000920E-02 0. -1.
    10030    2    1    2    0    0  0.00000000000E+00  0.00000000000E+00 -0.32706418705E+03  0.16776068039E+04  0.16454159371E+04 0.  0.
        1    1    3    3  502    0  0.16926381074E+03 -0.37767366421E+03  0.56140640087E+03  0.69747027265E+03  0.50400001928E-02 0.  1.
       -1    1    3    3    0  502 -0.16926381074E+03  0.37767366421E+03 -0.88847058793E+03  0.98013653125E+03  0.50400001928E-02 0. -1.
</event>
<event>
 5   0  0.5425525E-04  0.1560639E+04  0.7818609E-02  0.8845101E-01
        1   -1    0    0  501    0  0.00000000000E+00  0.00000000000E+00  0.44976201803E+03  0.44976201805E+03  0.50400001928E-02 0.  1.
       -1   -1    0    0    0  501  0.00000000000E+00  0.00000000000E+00 -0.13538233554E+04  0.13538233554E+04  0.50400001928E-02 0. -1.
    10030    2    1    2    0    0  0.00000000000E+00  0.00000000000E+00 -0.90406133740E+03  0.18035853735E+04  0.15606387467E+04 0.  0.
        5    1    3    3  502    0 -0.21230465750E+02 -0.24314017398E+03 -0.13085603613E+04  0.13311349240E+04  0.46999998093E+01 0. -1.
       -5    1    3    3    0  502  0.21230465750E+02  0.24314017398E+03  0.40449902387E+03  0.47245044946E+03  0.46999998093E+01 0.  1.
</event>
<event>
 5   0  0.5532881E-04  0.1432664E+04  0.7818609E-02  0.8930508E-01
        1   -1    0    0  501    0  0.00000000000E+00  0.00000000000E+00  0.58145546383E+03  0.58145546385E+03  0.50400001928E-02 0. -1.
       -1   -1    0    0    0  501  0.00000000000E+00  0.00000000000E+00 -0.88249484710E+03  0.88249484712E+03  0.50400001928E-02 0.  1.
    10030    2    1    2    0    0  0.00000000000E+00  0.00000000000E+00 -0.30103938328E+03  0.14639503110E+04  0.14326638834E+04 0.  0.
        4    1    3    3  502    0 -0.74623412709E+02 -0.70614776729E+03 -0.54030294981E+02  0.71213356097E+03  0.12699999809E+01 0. -1.
       -4    1    3    3    0  502  0.74623412709E+02  0.70614776729E+03 -0.24700908830E+03  0.75181675000E+03  0.12699999809E+01 0.  1.
</event>
<event>
 5   0  0.9844690E-04  0.1636541E+04  0.7818609E-02  0.8798409E-01
       -2   -1    0    0    0  501  0.00000000000E+00  0.00000000000E+00  0.32439603745E+03  0.32439603746E+03  0.25500000920E-02 0.  1.
        2   -1    0    0  501    0  0.00000000000E+00  0.00000000000E+00 -0.20640405729E+04  0.20640405729E+04  0.25500000920E-02 0. -1.
    10030    2    1    2    0    0  0.00000000000E+00  0.00000000000E+00 -0.17396445355E+04  0.23884366104E+04  0.16365409656E+04 0.  0.
        3    1    3    3  502    0  0.23172635877E+03  0.47614862450E+03  0.40607495014E+02  0.53109659838E+03  0.10100000352E+00 0.  1.
       -3    1    3    3    0  502 -0.23172635877E+03 -0.47614862450E+03 -0.17802520305E+04  0.18573400120E+04  0.10100000352E+00 0. -1.
</event>
<event>
 5   0  0.5425525E-04  0.1668792E+04  0.7818609E-02  0.8779366E-01
        1   -1    0    0  501    0  0.00000000000E+00  0.00000000000E+00  0.68163415961E+03  0.68163415963E+03  0.50400001928E-02 0. -1.
       -1   -1    0    0    0  501  0.00000000000E+00  0.00000000000E+00 -0.10213939562E+04  0.10213939562E+04  0.50400001928E-02 0.  1.
    10030    2    1    2    0    0  0.00000000000E+00  0.00000000000E+00 -0.33975979655E+03  0.17030281158E+04  0.16687923909E+04 0.  0.
        5    1    3    3  502    0  0.72054352759E+03  0.32540728092E+03 -0.44203822866E+03  0.90581055371E+03  0.46999998093E+01 0.  1.
       -5    1    3    3    0  502 -0.72054352759E+03 -0.32540728092E+03  0.10227843211E+03  0.79721756209E+03  0.46999998093E+01 0. -1.
</event>
<event>
 5   0  0.5623061E-04  0.1604628E+04  0.7818609E-02  0.8817710E-01
        1   -1    0    0  501    0  0.00000000000E+00  0.00000000000E+00  0.50730354721E+03  0.50730354723E+03  0.50400001928E-02 0. -1.
       -1   -1    0    0    0  501  0.00000000000E+00  0.00000000000E+00 -0.12688809442E+04  0.12688809442E+04  0.50400001928E-02 0.  1.
    10030    2    1    2    0    0  0.00000000000E+00  0.00000000000E+00 -0.76157739694E+03  0.17761844914E+04  0.16046280616E+04 0.  0.
        3    1    3    3  502    0 -0.78274950929E+03 -0.33853195924E+02 -0.18949764271E+03  0.80607208112E+03  0.10100000352E+00 0. -1.
       -3    1    3    3    0  502  0.78274950929E+03  0.33853195924E+02 -0.57207975423E+03  0.97011241027E+03  0.10100000352E+00 0.  1.
</event>
<event>
 5   0  0.5281116E-04  0.1580246E+04  0.7818609E-02  0.8832776E-01
        1   -1    0    0  501    0  0.00000000000E+00  0.00000000000E+00  0.12359363532E+04  0.12359363532E+04  0.50400001928E-02 0. -1.
       -1   -1    0    0    0  501  0.00000000000E+00  0.00000000000E+00 -0.50511841416E+03  0.50511841419E+03  0.50400001928E-02 0.  1.
    10030    2    1    2    0    0  0.00000000000E+00  0.00000000000E+00  0.73081793905E+03  0.17410547674E+04  0.15802458173E+04 0.  0.
        2    1    3    3  502    0  0.81083207168E+02  0.19145942945E+03 -0.47443652823E+03  0.51799731557E+03  0.25500000920E-02 0.  1.
       -2    1    3    3    0  502 -0.81083207168E+02 -0.19145942945E+03  0.12052544673E+04  0.12230574518E+04  0.25500000920E-02 0. -1.
</event>
<event>
 5   0  0.1057872E-03  0.1536092E+04  0.7818609E-02  0.8860801E-01
        2   -1    0    0  501    0  0.00000000000E+00  0.00000000000E+00  0.12050864557E+04  0.12050864557E+04  0.25500000920E-02 0. -1.
       -2   -1    0    0    0  501  0.00000000000E+00  0.00000000000E+00 -0.48950380314E+03  0.48950380314E+03  0.25500000920E-02 0.  1.
    10030    2    1    2    0    0  0.00000000000E+00  0.00000000000E+00  0.71558265259E+03  0.16945902589E+04  0.15360916681E+04 0.  0.
        2    1    3    3  502    0  0.18725203288E+03  0.46116587932E+03  0.10030893831E+04  0.11197881954E+04  0.25500000920E-02 0. -1.
       -2    1    3    3    0  502 -0.18725203288E+03 -0.46116587932E+03 -0.28750673052E+03  0.57480206346E+03  0.25500000920E-02 0.  1.
</event>
<event>
 5   0  0.5281116E-04  0.1603934E+04  0.7818609E-02  0.8818135E-01
        1   -1    0    0  501    0  0.00000000000E+00  0.00000000000E+00  0.84310337727E+03  0.84310337729E+03  0.50400001928E-02 0.  1.
       -1   -1    0    0    0  501  0.00000000000E+00  0.00000000000E+00 -0.76283750154E+03  0.76283750155E+03  0.50400001928E-02 0. -1.
    10030    2    1    2    0    0  0.00000000000E+00  0.00000000000E+00  0.80265875737E+02  0.16059408788E+04  0.16039337566E+04 0.  0.
        2    1    3    3  502    0  0.60719903867E+03  0.17128741312E+03 -0.45558339563E+03  0.77819424364E+03  0.25500000920E-02 0. -1.
       -2    1    3    3    0  502 -0.60719903867E+03 -0.17128741312E+03  0.53584927137E+03  0.82774663520E+03  0.25500000920E-02 0.  1.
</event>
<event>
 5   0  0.5281116E-04  0.1597266E+04  0.7818609E-02  0.8822229E-01
        1   -1    0    0  501    0  0.00000000000E+00  0.00000000000E+00  0.11053059683E+04  0.11053059684E+04  0.50400001928E-02 0. -1.
       -1   -1    0    0    0  501  0.00000000000E+00  0.00000000000E+00 -0.57704799033E+03  0.57704799035E+03  0.50400001928E-02 0.  1.
    10030    2    1    2    0    0  0.00000000000E+00  0.00000000000E+00  0.52825797802E+03  0.16823539587E+04  0.15972658987E+04 0.  0.
        2    1    3    3  502    0  0.50358048868E+02  0.51807112117E+03  0.90210264616E+03  0.10415002659E+04  0.25500000920E-02 0. -1.
       -2    1    3    3    0  502 -0.50358048868E+02 -0.51807112117E+03 -0.37384466814E+03  0.64085369280E+03  0.25500000920E-02 0.  1.
</event>
<event>
 5   0  0.5623061E-04  0.1627460E+04  0.7818609E-02  0.8803853E-01
        1   -1    0    0  501    0  0.00000000000E+00  0.00000000000E+00  0.13726808219E+04  0.13726808219E+04  0.50400001928E-02 0. -1.
       -1   -1    0    0    0  501  0.00000000000E+00  0.00000000000E+00 -0.48238228342E+03  0.48238228345E+03  0.50400001928E-02 0.  1.
    10030    2    1    2    0    0  0.00000000000E+00  0.00000000000E+00  0.89029853848E+03  0.18550631054E+04  0.16274604871E+04 0.  0.
        3    1    3    3  502    0 -0.75492686865E+03 -0.29323891792E+03  0.35501261218E+03  0.88427235906E+03  0.10100000352E+00 0.  1.
       -3    1    3    3    0  502  0.75492686865E+03  0.29323891792E+03  0.53528592630E+03  0.97079074629E+03  0.10100000352E+00 0. -1.
</event>
<event>
 5   0  0.1030027E-03  0.1625418E+04  0.7818609E-02  0.8805083E-01
        2   -1    0    0  501    0  0.00000000000E+00  0.00000000000E+00  0.15998316691E+04  0.15998316691E+04  0.25500000920E-02 0. -1.
       -2   -1    0    0    0  501  0.00000000000E+00  0.00000000000E+00 -0.41285352029E+03  0.41285352030E+03  0.25500000920E-02 0.  1.
    10030    2    1    2    0    0  0.00000000000E+00  0.00000000000E+00  0.11869781488E+04  0.20126851894E+04  0.16254182680E+04 0.  0.
        1    1    3    3  502    0  0.26071502197E+03 -0.76873612444E+03  0.54444746587E+03  0.97742037774E+03  0.50400001928E-02 0.  1.
       -1    1    3    3    0  502 -0.26071502197E+03  0.76873612444E+03  0.64253068291E+03  0.10352648116E+04  0.50400001928E-02 0. -1.
</event>
<event>
 5   0  0.1000121E-03  0.1601255E+04  0.7818609E-02  0.8819778E-01
       -2   -1    0    0    0  501  0.00000000000E+00  0.00000000000E+00  0.44054687250E+03  0.44054687250E+03  0.25500000920E-02 0.  1.
        2   -1    0    0  501    0  0.00000000000E+00  0.00000000000E+00 -0.14550193348E+04  0.14550193348E+04  0.25500000920E-02 0. -1.
    10030    2    1    2    0    0  0.00000000000E+00  0.00000000000E+00 -0.10144724623E+04  0.18955662073E+04  0.16012547797E+04 0.  0.
        4    1    3    3  502    0  0.71127051157E+01 -0.17068042701E+03 -0.14331923941E+04  0.14433379542E+04  0.12699999809E+01 0. -1.
       -4    1    3    3    0  502 -0.71127051157E+01  0.17068042701E+03  0.41871993177E+03  0.45222825310E+03  0.12699999809E+01 0.  1.
</event>
<event>
 5   0  0.5288658E-04  0.1642401E+04  0.7818609E-02  0.8794915E-01
       -1   -1    0    0    0  501  0.00000000000E+00  0.00000000000E+00  0.58968342155E+03  0.58968342157E+03  0.50400001928E-02 0. -1.
        1   -1    0    0  501    0  0.00000000000E+00  0.00000000000E+00 -0.11436138580E+04  0.11436138580E+04  0.50400001928E-02 0.  1.
    10030    2    1    2    0    0  0.00000000000E+00  0.00000000000E+00 -0.55393043647E+03  0.17332972796E+04  0.16424008436E+04 0.  0.
        1    1    3    3  502    0 -0.23663150241E+03  0.44729895223E+03  0.40558949695E+03  0.64851650762E+03  0.50400001928E-02 0. -1.
       -1    1    3    3    0  502  0.23663150241E+03 -0.44729895223E+03 -0.95951993342E+03  0.10847807720E+04  0.50400001928E-02 0.  1.
</event>
<event>
 5   0  0.1030027E-03  0.1596180E+04  0.7818609E-02  0.8822898E-01
        2   -1    0    0  501    0  0.00000000000E+00  0.00000000000E+00  0.18175442480E+04  0.18175442481E+04  0.25500000920E-02 0. -1.
       -2   -1    0    0    0  501  0.00000000000E+00  0.00000000000E+00 -0.35044424581E+03  0.35044424582E+03  0.25500000920E-02 0.  1.
    10030    2    1    2    0    0  0.00000000000E+00  0.00000000000E+00  0.14671000022E+04  0.21679884939E+04  0.15961803448E+04 0.  0.
        1    1    3    3  502    0  0.50073121768E+02  0.20054305595E+03  0.17805574596E+04  0.17925149097E+04  0.50400001928E-02 0. -1.
       -1    1    3    3    0  502 -0.50073121768E+02 -0.20054305595E+03 -0.31345745731E+03  0.37547358414E+03  0.50400001928E-02 0.  1.
</event>
<event>
 5   0  0.1000121E-03  0.1605756E+04  0.7818609E-02  0.8817020E-01
       -2   -1    0    0    0  501  0.00000000000E+00  0.00000000000E+00  0.31745990187E+03  0.31745990188E+03  0.25500000920E-02 0. -1.
        2   -1    0    0  501    0  0.00000000000E+00  0.00000000000E+00 -0.20305326638E+04  0.20305326638E+04  0.25500000920E-02 0.  1.
    10030    2    1    2    0    0  0.00000000000E+00  0.00000000000E+00 -0.17130727619E+04  0.23479925657E+04  0.16057555234E+04 0.  0.
        4    1    3    3  502    0  0.38424633421E+03  0.88531833078E+02 -0.18791899443E+04  0.19201144732E+04  0.12699999809E+01 0.  1.
       -4    1    3    3    0  502 -0.38424633421E+03 -0.88531833078E+02  0.16611718234E+03  0.42787809244E+03  0.12699999809E+01 0. -1.
</event>
<event>
 5   0  0.1037321E-03  0.1611308E+04  0.7818609E-02  0.8813631E-01
        2   -1    0    0  501    0  0.00000000000E+00  0.00000000000E+00  0.14302641209E+04  0.14302641209E+04  0.25500000920E-02 0. -1.
       -2   -1    0    0    0  501  0.00000000000E+00  0.00000000000E+00 -0.45381733452E+03  0.45381733453E+03  0.25500000920E-02 0.  1.
    10030    2    1    2    0    0  0.00000000000E+00  0.00000000000E+00  0.97644678639E+03  0.18840814554E+04  0.16113083516E+04 0.  0.
        5    1    3    3  502    0 -0.31378327613E+03 -0.49894670170E+03  0.11304256417E+04  0.12748693960E+04  0.46999998093E+01 0. -1.
       -5    1    3    3    0  502  0.31378327613E+03  0.49894670170E+03 -0.15397885526E+03  0.60921205945E+03  0.46999998093E+01 0.  1.
</event>
<event>
 5   0  0.1030027E-03  0.1606672E+04  0.7818609E-02  0.8816460E-01
       -2   -1    0    0    0  501  0.00000000000E+00  0.00000000000E+00  0.34565660551E+03  0.34565660552E+03  0.25500000920E-02 0. -1.
        2   -1    0    0  501    0  0.00000000000E+00  0.00000000000E+00 -0.18670224178E+04  0.18670224178E+04  0.25500000920E-02 0.  1.
    10030    2    1    2    0    0  0.00000000000E+00  0.00000000000E+00 -0.15213658123E+04  0.22126790233E+04  0.16066718786E+04 0.  0.
        1    1    3    3  502    0 -0.32141312109E+03  0.37213456971E+03  0.11418857573E+03  0.50480646116E+03  0.50400001928E-02 0. -1.
       -1    1    3    3    0  502  0.32141312109E+03 -0.37213456971E+03 -0.16355543880E+04  0.17078725622E+04  0.50400001928E-02 0.  1.
</event>
<event>
 5   0  0.1037321E-03  0.1607054E+04  0.7818609E-02  0.8816226E-01
       -2   -1    0    0    0  501  0.00000000000E+00  0.00000000000E+00  0.38723695054E+03  0.38723695054E+03  0.25500000920E-02 0.  1.
        2   -1    0    0  501    0  0.00000000000E+00  0.00000000000E+00 -0.16673397211E+04  0.16673397211E+04  0.25500000920E-02 0. -1.
    10030    2    1    2    0    0  0.00000000000E+00  0.00000000000E+00 -0.12801027705E+04  0.20545766716E+04  0.16070538872E+04 0.  0.
        5    1    3    3  502    0 -0.66641492553E+03  0.41021529413E+03 -0.87316884254E+03  0.11725320286E+04  0.46999998093E+01 0. -1.
       -5    1    3    3    0  502  0.66641492553E+03 -0.41021529413E+03 -0.40693392797E+03  0.88204464300E+03  0.46999998093E+01 0.  1.
</event>
<event>
 5   0  0.1030027E-03  0.1505943E+04  0.7818609E-02  0.8880510E-01
       -2   -1    0    0    0  501  0.00000000000E+00  0.00000000000E+00  0.49153146210E+03  0.49153146211E+03  0.25500000920E-02 0.  1.
        2   -1    0    0  501    0  0.00000000000E+00  0.00000000000E+00 -0.11534686994E+04  0.11534686994E+04  0.25500000920E-02 0. -1.
    10030    2    1    2    0    0  0.00000000000E+00  0.00000000000E+00 -0.66193723734E+03  0.16450001615E+04  0.15059431016E+04 0.  0.
        1    1    3    3  502    0  0.57319799041E+03 -0.18571974110E+03 -0.82423962225E+03  0.10209890858E+04  0.50400001928E-02 0. -1.
       -1    1    3    3    0  502 -0.57319799041E+03  0.18571974110E+03  0.16230238491E+03  0.62401107572E+03  0.50400001928E-02 0.  1.
</event>
<event>
 5   0  0.5532881E-04  0.1505492E+04  0.7818609E-02  0.8880809E-01
       -1   -1    0    0    0  501  0.00000000000E+00  0.00000000000E+00  0.50296755506E+03  0.50296755508E+03  0.50400001928E-02 0. -1.
        1   -1    0    0  501    0  0.00000000000E+00  0.00000000000E+00 -0.11265673948E+04  0.11265673948E+04  0.50400001928E-02 0.  1.
    10030    2    1    2    0    0  0.00000000000E+00  0.00000000000E+00 -0.62359983975E+03  0.16295349499E+04  0.15054924088E+04 0.  0.
        4    1    3    3  502    0  0.52161790862E+03 -0.53503838023E+03 -0.21334421551E+03  0.77708987775E+03  0.12699999809E+01 0. -1.
       -4    1    3    3    0  502 -0.52161790862E+03  0.53503838023E+03 -0.41025562423E+03  0.85244507215E+03  0.12699999809E+01 0.  1.
</event>
<event>
 5   0  0.5623061E-04  0.1655220E+04  0.7818609E-02  0.8787324E-01
       -1   -1    0    0    0  501  0.00000000000E+00  0.00000000000E+00  0.80375983770E+03  0.80375983771E+03  0.50400001928E-02 0. -1.
        1   -1    0    0  501    0  0.00000000000E+00  0.00000000000E+00 -0.85216799585E+03  0.85216799586E+03  0.50400001928E-02 0.  1.
    10030    2    1    2    0    0  0.00000000000E+00  0.00000000000E+00 -0.48408158153E+02  0.16559278336E+04  0.16552201184E+04 0.  0.
        3    1    3    3  502    0 -0.70979732591E+03  0.30301675421E+03  0.27476646829E+03  0.81922403498E+03  0.10100000352E+00 0. -1.
       -3    1    3    3    0  502  0.70979732591E+03 -0.30301675421E+03 -0.32317462644E+03  0.83670379859E+03  0.10100000352E+00 0.  1.
</event>
<event>
 5   0  0.1030027E-03  0.1613161E+04  0.7818609E-02  0.8812504E-01
       -2   -1    0    0    0  501  0.00000000000E+00  0.00000000000E+00  0.95020091702E+03  0.95020091702E+03  0.25500000920E-02 0. -1.
        2   -1    0    0  501    0  0.00000000000E+00  0.00000000000E+00 -0.68466758350E+03  0.68466758351E+03  0.25500000920E-02 0.  1.
    10030    2    1    2    0    0  0.00000000000E+00  0.00000000000E+00  0.26553333352E+03  0.16348685005E+04  0.16131605818E+04 0.  0.
        1    1    3    3  502    0 -0.50185995363E+03  0.59099015050E+03  0.35810757487E+03  0.85403384374E+03  0.50400001928E-02 0. -1.
       -1    1    3    3    0  502  0.50185995363E+03 -0.59099015050E+03 -0.92574241356E+02  0.78083465679E+03  0.50400001928E-02 0.  1.
</event>
<event>
 5   0  0.5281116E-04  0.1667120E+04  0.7818609E-02  0.8780342E-01
        1   -1    0    0  501    0  0.00000000000E+00  0.00000000000E+00  0.93469388658E+03  0.93469388659E+03  0.50400001928E-02 0. -1.
       -1   -1    0    0    0  501  0.00000000000E+00  0.00000000000E+00 -0.74336891471E+03  0.74336891473E+03  0.50400001928E-02 0.  1.
    10030    2    1    2    0    0  0.00000000000E+00  0.00000000000E+00  0.19132497187E+03  0.16780628013E+04  0.16671201277E+04 0.  0.
        2    1    3    3  502    0 -0.43037537164E+03 -0.56712589678E+03 -0.34073561893E+03  0.78927530388E+03  0.25500000920E-02 0.  1.
       -2    1    3    3    0  502  0.43037537164E+03  0.56712589678E+03  0.53206059079E+03  0.88878749743E+03  0.25500000920E-02 0. -1.
</event>
<event>
 5   0  0.1057872E-03  0.1622341E+04  0.7818609E-02  0.8806939E-01
       -2   -1    0    0    0  501  0.00000000000E+00  0.00000000000E+00  0.11101450816E+04  0.11101450816E+04  0.25500000920E-02 0. -1.
        2   -1    0    0  501    0  0.00000000000E+00  0.00000000000E+00 -0.59271316801E+03  0.59271316801E+03  0.25500000920E-02 0.  1.
    10030    2    1    2    0    0  0.00000000000E+00  0.00000000000E+00  0.51743191362E+03  0.17028582496E+04  0.16223410348E+04 0.  0.
        2    1    3    3  502    0  0.64608623336E+03 -0.44608713549E+03  0.44693141666E+02  0.78639597551E+03  0.25500000920E-02 0.  1.
       -2    1    3    3    0  502 -0.64608623336E+03  0.44608713549E+03  0.47273877196E+03  0.91646227413E+03  0.25500000920E-02 0. -1.
</event>
<event>
 5   0  0.5532881E-04  0.1857324E+04  0.7818609E-02  0.8676396E-01
       -1   -1    0    0    0  501  0.00000000000E+00  0.00000000000E+00  0.20260363031E+04  0.20260363031E+04  0.50400001928E-02 0.  1.
        1   -1    0    0  501    0  0.00000000000E+00  0.00000000000E+00 -0.42566513027E+03  0.42566513030E+03  0.50400001928E-02 0. -1.
    10030    2    1    2    0    0  0.00000000000E+00  0.00000000000E+00  0.16003711728E+04  0.24517014334E+04  0.18573238888E+04 0.  0.
        4    1    3    3  502    0  0.56613500011E+03 -0.18871769292E+03 -0.13905928845E+03  0.61274978954E+03  0.12699999809E+01 0.  1.
       -4    1    3    3    0  502 -0.56613500011E+03  0.18871769292E+03  0.17394304613E+04  0.18389516439E+04  0.12699999809E+01 0. -1.
</event>
<event>
 5   0  0.1037321E-03  0.1560939E+04  0.7818609E-02  0.8844911E-01
        2   -1    0    0  501    0  0.00000000000E+00  0.00000000000E+00  0.17184627422E+04  0.17184627422E+04  0.25500000920E-02 0.  1.
       -2   -1    0    0    0  501  0.00000000000E+00  0.00000000000E+00 -0.35446353701E+03  0.35446353702E+03  0.25500000920E-02 0. -1.
    10030    2    1    2    0    0  0.00000000000E+00  0.00000000000E+00  0.13639992052E+04  0.20729262793E+04  0.15609386687E+04 0.  0.
        5    1    3    3  502    0 -0.10745498771E+03  0.56309357623E+03 -0.21325631782E+02  0.57367048254E+03  0.46999998093E+01 0. -1.
       -5    1    3    3    0  502  0.10745498771E+03 -0.56309357623E+03  0.13853248370E+04  0.14992557967E+04  0.46999998093E+01 0.  1.
</event>
<event>
 5   0  0.5532881E-04  0.1599608E+04  0.7818609E-02  0.8820789E-01
        1   -1    0    0  501    0  0.00000000000E+00  0.00000000000E+00  0.47507495726E+03  0.47507495729E+03  0.50400001928E-02 0.  1.
       -1   -1    0    0    0  501  0.00000000000E+00  0.00000000000E+00 -0.13464954363E+04  0.13464954363E+04  0.50400001928E-02 0. -1.
    10030    2    1    2    0    0  0.00000000000E+00  0.00000000000E+00 -0.87142047900E+03  0.18215703936E+04  0.15996077793E+04 0.  0.
        4    1    3    3  502    0 -0.29561432253E+03 -0.12031009148E+03 -0.12708359525E+04  0.13103007200E+04  0.12699999809E+01 0. -1.
       -4    1    3    3    0  502  0.29561432253E+03  0.12031009148E+03  0.39941547346E+03  0.51126967359E+03  0.12699999809E+01 0.  1.
</event>
<event>
 5   0  0.1030027E-03  0.1651669E+04  0.7818609E-02  0.8789420E-01
       -2   -1    0    0    0  501  0.00000000000E+00  0.00000000000E+00  0.44209867683E+03  0.44209867684E+03  0.25500000920E-02 0. -1.
        2   -1    0    0  501    0  0.00000000000E+00  0.00000000000E+00 -0.15426482395E+04  0.15426482395E+04  0.25500000920E-02 0.  1.
    10030    2    1    2    0    0  0.00000000000E+00  0.00000000000E+00 -0.11005495627E+04  0.19847469164E+04  0.16516691503E+04 0.  0.
        1    1    3    3  502    0  0.44154681188E+03 -0.29321192887E+03  0.21073451215E+03  0.57039096850E+03  0.50400001928E-02 0. -1.
       -1    1    3    3    0  502 -0.44154681188E+03  0.29321192887E+03 -0.13112840749E+04  0.14143559479E+04  0.50400001928E-02 0.  1.
</event>
<event>
 5   0  0.5281116E-04  0.1228769E+04  0.7818609E-02  0.9088041E-01
       -1   -1    0    0    0  501  0.00000000000E+00  0.00000000000E+00  0.28133231010E+03  0.28133231015E+03  0.50400001928E-02 0.  1.
        1   -1    0    0  501    0  0.00000000000E+00  0.00000000000E+00 -0.13417177458E+04  0.13417177458E+04  0.50400001928E-02 0. -1.
    10030    2    1    2    0    0  0.00000000000E+00  0.00000000000E+00 -0.10603854357E+04  0.16230500559E+04  0.12287693892E+04 0.  0.
        2    1    3    3  502    0  0.30356268767E+03 -0.18411578804E+03  0.13211698367E+03  0.37881898861E+03  0.25500000920E-02 0.  1.
       -2    1    3    3    0  502 -0.30356268767E+03  0.18411578804E+03 -0.11925024193E+04  0.12442310673E+04  0.25500000920E-02 0. -1.
</event>
<event>
 5   0  0.5281116E-04  0.1607711E+04  0.7818609E-02  0.8815825E-01
       -1   -1    0    0    0  501  0.00000000000E+00  0.00000000000E+00  0.41026400202E+03  0.41026400205E+03  0.50400001928E-02 0.  1.
        1   -1    0    0  501    0  0.00000000000E+00  0.00000000000E+00 -0.15750426650E+04  0.15750426650E+04  0.50400001928E-02 0. -1.
    10030    2    1    2    0    0  0.00000000000E+00  0.00000000000E+00 -0.11647786630E+04  0.19853066671E+04  0.16077105550E+04 0.  0.
        2    1    3    3  502    0  0.57700610478E+02 -0.32892948645E+03 -0.14853281345E+04  0.15224071842E+04  0.25500000920E-02 0. -1.
       -2    1    3    3    0  502 -0.57700610478E+02  0.32892948645E+03  0.32054947151E+03  0.46289948282E+03  0.25500000920E-02 0.  1.
</event>
<event>
 5   0  0.5623061E-04  0.1608125E+04  0.7818609E-02  0.8815572E-01
       -1   -1    0    0    0  501  0.00000000000E+00  0.00000000000E+00  0.14010800815E+04  0.14010800815E+04  0.50400001928E-02 0. -1.
        1   -1    0    0  501    0  0.00000000000E+00  0.00000000000E+00 -0.46144143721E+03  0.46144143724E+03  0.50400001928E-02 0.  1.
    10030    2    1    2    0    0  0.00000000000E+00  0.00000000000E+00  0.93963864432E+03  0.18625215188E+04  0.16081248789E+04 0.  0.
        3    1    3    3  502    0  0.76513751321E+03  0.84596973390E+02  0.20086785091E+03  0.79557524205E+03  0.10100000352E+00 0.  1.
       -3    1    3    3    0  502 -0.76513751321E+03 -0.84596973390E+02  0.73877079341E+03  0.10669462767E+04  0.10100000352E+00 0. -1.
</event>
<event>
 5   0  0.5425525E-04  0.1607408E+04  0.7818609E-02  0.8816010E-01
       -1   -1    0    0    0  501  0.00000000000E+00  0.00000000000E+00  0.50458181662E+03  0.50458181665E+03  0.50400001928E-02 0. -1.
        1   -1    0    0  501    0  0.00000000000E+00  0.00000000000E+00 -0.12801489379E+04  0.12801489379E+04  0.50400001928E-02 0.  1.
    10030    2    1    2    0    0  0.00000000000E+00  0.00000000000E+00 -0.77556712127E+03  0.17847307546E+04  0.16074076977E+04 0.  0.
        5    1    3    3  502    0 -0.33700704906E+03  0.23991651986E+03  0.37727511882E+03  0.55990382468E+03  0.46999998093E+01 0. -1.
       -5    1    3    3    0  502  0.33700704906E+03 -0.23991651986E+03 -0.11528422401E+04  0.12248269299E+04  0.46999998093E+01 0.  1.
</event>
<event>
 5   0  0.5532881E-04  0.1545161E+04  0.7818609E-02  0.8854964E-01
        1   -1    0    0  501    0  0.00000000000E+00  0.00000000000E+00  0.72152921912E+03  0.72152921913E+03  0.50400001928E-02 0. -1.
       -1   -1    0    0    0  501  0.00000000000E+00  0.00000000000E+00 -0.82724403063E+03  0.82724403065E+03  0.50400001928E-02 0.  1.
    10030    2    1    2    0    0  0.00000000000E+00  0.00000000000E+00 -0.10571481152E+03  0.15487732498E+04  0.15451611430E+04 0.  0.
        4    1    3    3  502    0  0.48545053235E+03  0.53727260396E+03 -0.32284754466E+03  0.79281537593E+03  0.12699999809E+01 0.  1.
       -4    1    3    3    0  502 -0.48545053235E+03 -0.53727260396E+03  0.21713273314E+03  0.75595787385E+03  0.12699999809E+01 0. -1.
</event>
<event>
 5   0  0.1000121E-03  0.1605087E+04  0.7818609E-02  0.8817429E-01
       -2   -1    0    0    0  501  0.00000000000E+00  0.00000000000E+00  0.71776675026E+03  0.71776675027E+03  0.25500000920E-02 0.  1.
        2   -1    0    0  501    0  0.00000000000E+00  0.00000000000E+00 -0.89733297689E+03  0.89733297690E+03  0.25500000920E-02 0. -1.
    10030    2    1    2    0    0  0.00000000000E+00  0.00000000000E+00 -0.17956622663E+03  0.16150997272E+04  0.16050866328E+04 0.  0.
        4    1    3    3  502    0 -0.14477853345E+03  0.63233401143E+03 -0.56524221922E+03  0.86041124182E+03  0.12699999809E+01 0. -1.
       -4    1    3    3    0  502  0.14477853345E+03 -0.63233401143E+03  0.38567599259E+03  0.75468848535E+03  0.12699999809E+01 0.  1.
</event>
<event>
 5   0  0.1030027E-03  0.1551894E+04  0.7818609E-02  0.8850659E-01
       -2   -1    0    0    0  501  0.00000000000E+00  0.00000000000E+00  0.40591535639E+03  0.40591535640E+03  0.25500000920E-02 0. -1.
        2   -1    0    0  501    0  0.00000000000E+00  0.00000000000E+00 -0.14832981188E+04  0.14832981188E+04  0.25500000920E-02 0.  1.
    10030    2    1    2    0    0  0.00000000000E+00  0.00000000000E+00 -0.10773827624E+04  0.18892134752E+04  0.15518936620E+04 0.  0.
        1    1    3    3  502    0  0.65606506090E+03  0.20693962181E+03 -0.10171485589E+03  0.69540727861E+03  0.50400001928E-02 0. -1.
       -1    1    3    3    0  502 -0.65606506090E+03 -0.20693962181E+03 -0.97566790651E+03  0.11938061966E+04  0.50400001928E-02 0.  1.
</event>
<event>
 5   0  0.1037321E-03  0.1456385E+04  0.7818609E-02  0.8913986E-01
       -2   -1    0    0    0  501  0.00000000000E+00  0.00000000000E+00  0.37862925731E+03  0.37862925732E+03  0.25500000920E-02 0.  1.
        2   -1    0    0  501    0  0.00000000000E+00  0.00000000000E+00 -0.14004834409E+04  0.14004834409E+04  0.25500000920E-02 0. -1.
    10030    2    1    2    0    0  0.00000000000E+00  0.00000000000E+00 -0.10218541836E+04  0.17791126982E+04  0.14563845716E+04 0.  0.
        5    1    3    3  502    0 -0.42724968257E+02 -0.70346215647E+03 -0.28714666249E+03  0.76102544260E+03  0.46999998093E+01 0.  1.
       -5    1    3    3    0  502  0.42724968257E+02  0.70346215647E+03 -0.73470752106E+03  0.10180872556E+04  0.46999998093E+01 0. -1.
</event>
<event>
 5   0  0.1057872E-03  0.1620130E+04  0.7818609E-02  0.8808276E-01
       -2   -1    0    0    0  501  0.00000000000E+00  0.00000000000E+00  0.97988292716E+03  0.97988292716E+03  0.25500000920E-02 0. -1.
        2   -1    0    0  501    0  0.00000000000E+00  0.00000000000E+00 -0.66967709466E+03  0.66967709466E+03  0.25500000920E-02 0.  1.
    10030    2    1    2    0    0  0.00000000000E+00  0.00000000000E+00  0.31020583250E+03  0.16495600218E+04  0.16201298118E+04 0.  0.
        2    1    3    3  502    0 -0.39196521679E+03  0.57897695223E+02 -0.56428423696E+03  0.68949660940E+03  0.25500000920E-02 0.  1.
       -2    1    3    3    0  502  0.39196521679E+03 -0.57897695223E+02  0.87449006946E+03  0.96006341242E+03  0.25500000920E-02 0. -1.
</event>
<event>
 5   0  0.5281116E-04  0.1710672E+04  0.7818609E-02  0.8755301E-01
       -1   -1    0    0    0  501  0.00000000000E+00  0.00000000000E+00  0.53624939751E+03  0.53624939753E+03  0.50400001928E-02 0. -1.
        1   -1    0    0  501    0  0.00000000000E+00  0.00000000000E+00 -0.13642903660E+04  0.13642903660E+04  0.50400001928E-02 0.  1.
    10030    2    1    2    0    0  0.00000000000E+00  0.00000000000E+00 -0.82804096845E+03  0.19005397635E+04  0.17106722501E+04 0.  0.
        2    1    3    3  502    0 -0.38999483667E+03  0.26490384980E+03  0.37886363764E+03  0.60482036854E+03  0.25500000920E-02 0. -1.
       -2    1    3    3    0  502  0.38999483667E+03 -0.26490384980E+03 -0.12069046061E+04  0.12957193950E+04  0.25500000920E-02 0.  1.
</event>
<event>
 5   0  0.5288658E-04  0.1614013E+04  0.7818609E-02  0.8811985E-01
        1   -1    0    0  501    0  0.00000000000E+00  0.00000000000E+00  0.13195744801E+04  0.13195744801E+04  0.50400001928E-02 0. -1.
       -1   -1    0    0    0  501  0.00000000000E+00  0.00000000000E+00 -0.49353752549E+03  0.49353752552E+03  0.50400001928E-02 0.  1.
    10030    2    1    2    0    0  0.00000000000E+00  0.00000000000E+00  0.82603695461E+03  0.18131120056E+04  0.16140130404E+04 0.  0.
        1    1    3    3  502    0  0.45267944790E+03  0.49679865858E+03  0.91481055487E+03  0.11351678030E+04  0.50400001928E-02 0. -1.
       -1    1    3    3    0  502 -0.45267944790E+03 -0.49679865858E+03 -0.88773600252E+02  0.67794420260E+03  0.50400001928E-02 0.  1.
</event>
<event>
 5   0  0.1037321E-03  0.1572261E+04  0.7818609E-02  0.8837773E-01
       -2   -1    0    0    0  501  0.00000000000E+00  0.00000000000E+00  0.48545935758E+03  0.48545935758E+03  0.25500000920E-02 0. -1.
        2   -1    0    0  501    0  0.00000000000E+00  0.00000000000E+00 -0.12730237750E+04  0.12730237750E+04  0.25500000920E-02 0.  1.
    10030    2    1    2    0    0  0.00000000000E+00  0.00000000000E+00 -0.78756441741E+03  0.17584831326E+04  0.15722611793E+04 0.  0.
        5    1    3    3  502    0 -0.59769720312E+03 -0.55030689631E+02  0.17399534092E+03  0.62495343193E+03  0.46999998093E+01 0. -1.
       -5    1    3    3    0  502  0.59769720312E+03  0.55030689631E+02 -0.96155975833E+03  0.11335297007E+04  0.46999998093E+01 0.  1.
</event>
<event>
 5   0  0.1030027E-03  0.1575097E+04  0.7818609E-02  0.8835995E-01
       -2   -1    0    0    0  501  0.00000000000E+00  0.00000000000E+00  0.79575119144E+03  0.79575119144E+03  0.25500000920E-02 0.  1.
        2   -1    0    0  501    0  0.00000000000E+00  0.00000000000E+00 -0.77942992643E+03  0.77942992643E+03  0.25500000920E-02 0. -1.
    10030    2    1    2    0    0  0.00000000000E+00  0.00000000000E+00  0.16321265009E+02  0.15751811179E+04  0.15750965591E+04 0.  0.
        1    1    3    3  502    0 -0.19682778648E+03 -0.76241218973E+03  0.22952234487E+02  0.78774382236E+03  0.50400001928E-02 0. -1.
       -1    1    3    3    0  502  0.19682778648E+03  0.76241218973E+03 -0.66309694781E+01  0.78743729551E+03  0.50400001928E-02 0.  1.
</event>
<event>
 5   0  0.5425525E-04  0.1030362E+04  0.7818609E-02  0.9275857E-01
       -1   -1    0    0    0  501  0.00000000000E+00  0.00000000000E+00  0.41160183180E+03  0.41160183183E+03  0.50400001928E-02 0.  1.
        1   -1    0    0  501    0  0.00000000000E+00  0.00000000000E+00 -0.64482578783E+03  0.64482578785E+03  0.50400001928E-02 0. -1.
    10030    2    1    2    0    0  0.00000000000E+00  0.00000000000E+00 -0.23322395602E+03  0.10564276197E+04  0.10303620247E+04 0.  0.
        5    1    3    3  502    0 -0.24881537291E+03 -0.20285565853E+03 -0.52970621255E+03  0.61941122819E+03  0.46999998093E+01 0. -1.
       -5    1    3    3    0  502  0.24881537291E+03  0.20285565853E+03  0.29648225653E+03  0.43701639149E+03  0.46999998093E+01 0.  1.
</event>
<event>
 5   0  0.5623061E-04  0.1594291E+04  0.7818609E-02  0.8824063E-01
        1   -1    0    0  501    0  0.00000000000E+00  0.00000000000E+00  0.67877144844E+03  0.67877144845E+03  0.50400001928E-02 0.  1.
       -1   -1    0    0    0  501  0.00000000000E+00  0.00000000000E+00 -0.93616312353E+03  0.93616312354E+03  0.50400001928E-02 0. -1.
    10030    2    1    2    0    0  0.00000000000E+00  0.00000000000E+00 -0.25739167509E+03  0.16149345720E+04  0.15942908133E+04 0.  0.
        3    1    3    3  502    0 -0.16067524991E+03  0.28308898870E+03 -0.86577505956E+03  0.92494452558E+03  0.10100000352E+00 0. -1.
       -3    1    3    3    0  502  0.16067524991E+03 -0.28308898870E+03  0.60838338446E+03  0.68999004641E+03  0.10100000352E+00 0.  1.
</event>
<event>
 5   0  0.1037321E-03  0.1589275E+04  0.7818609E-02  0.8827164E-01
       -2   -1    0    0    0  501  0.00000000000E+00  0.00000000000E+00  0.94481595072E+03  0.94481595072E+03  0.25500000920E-02 0.  1.
        2   -1    0    0  501    0  0.00000000000E+00  0.00000000000E+00 -0.66832963701E+03  0.66832963702E+03  0.25500000920E-02 0. -1.
    10030    2    1    2    0    0  0.00000000000E+00  0.00000000000E+00  0.27648631371E+03  0.16131455877E+04  0.15892746791E+04 0.  0.
        5    1    3    3  502    0 -0.29537370003E+00 -0.57100839282E+01  0.94478096222E+03  0.94480995384E+03  0.46999998093E+01 0.  1.
       -5    1    3    3    0  502  0.29537370003E+00  0.57100839282E+01 -0.66829464852E+03  0.66833563390E+03  0.46999998093E+01 0. -1.
</event>
<event>
 5   0  0.5623061E-04  0.1619191E+04  0.7818609E-02  0.8808844E-01
        1   -1    0    0  501    0  0.00000000000E+00  0.00000000000E+00  0.68240271333E+03  0.68240271335E+03  0.50400001928E-02 0. -1.
       -1   -1    0    0    0  501  0.00000000000E+00  0.00000000000E+00 -0.96049607668E+03  0.96049607669E+03  0.50400001928E-02 0.  1.
    10030    2    1    2    0    0  0.00000000000E+00  0.00000000000E+00 -0.27809336335E+03  0.16428987900E+04  0.16191913153E+04 0.  0.
        3    1    3    3  502    0  0.34196610434E+03 -0.23968320993E+03  0.56469063336E+03  0.70232782890E+03  0.10100000352E+00 0. -1.
       -3    1    3    3    0  502 -0.34196610434E+03  0.23968320993E+03 -0.84278399670E+03  0.94057096114E+03  0.10100000352E+00 0.  1.
</event>
<event>
 5   0  0.9844690E-04  0.1527621E+04  0.7818609E-02  0.8866290E-01
       -2   -1    0    0    0  501  0.00000000000E+00  0.00000000000E+00  0.97812949516E+03  0.97812949516E+03  0.25500000920E-02 0.  1.
        2   -1    0    0  501    0  0.00000000000E+00  0.00000000000E+00 -0.59645148960E+03  0.59645148960E+03  0.25500000920E-02 0. -1.
    10030    2    1    2    0    0  0.00000000000E+00  0.00000000000E+00  0.38167800556E+03  0.15745809848E+04  0.15276214118E+04 0.  0.
        3    1    3    3  502    0  0.16384951274E+03  0.74457406551E+03  0.23884962512E+03  0.79892825427E+03  0.10100000352E+00 0.  1.
       -3    1    3    3    0  502 -0.16384951274E+03 -0.74457406551E+03  0.14282838044E+03  0.77565273049E+03  0.10100000352E+00 0. -1.
</event>
<event>
 5   0  0.5281116E-04  0.1690979E+04  0.7818609E-02  0.8766526E-01
       -1   -1    0    0    0  501  0.00000000000E+00  0.00000000000E+00  0.10385273349E+04  0.10385273349E+04  0.50400001928E-02 0.  1.
        1   -1    0    0  501    0  0.00000000000E+00  0.00000000000E+00 -0.68833258305E+03  0.68833258306E+03  0.50400001928E-02 0. -1.
    10030    2    1    2    0    0  0.00000000000E+00  0.00000000000E+00  0.35019475184E+03  0.17268599180E+04  0.16909786551E+04 0.  0.
        2    1    3    3  502    0 -0.13632331283E+03 -0.77289992251E+02 -0.67337198333E+03  0.69136648492E+03  0.25500000920E-02 0. -1.
       -2    1    3    3    0  502  0.13632331283E+03  0.77289992251E+02  0.10235667352E+04  0.10354934330E+04  0.25500000920E-02 0.  1.
</event>
<event>
 5   0  0.1030027E-03  0.1529787E+04  0.7818609E-02  0.8864883E-01
        2   -1    0    0  501    0  0.00000000000E+00  0.00000000000E+00  0.15330797286E+04  0.15330797286E+04  0.25500000920E-02 0.  1.
       -2   -1    0    0    0  501  0.00000000000E+00  0.00000000000E+00 -0.38162542858E+03  0.38162542858E+03  0.25500000920E-02 0. -1.
    10030    2    1    2    0    0  0.00000000000E+00  0.00000000000E+00  0.11514543000E+04  0.19147051571E+04  0.15297871858E+04 0.  0.
        1    1    3    3  502    0 -0.19921640108E+03 -0.47802748523E+03  0.12802707229E+04  0.13810469126E+04  0.50400001928E-02 0.  1.
       -1    1    3    3    0  502  0.19921640108E+03  0.47802748523E+03 -0.12881642288E+03  0.53365824450E+03  0.50400001928E-02 0. -1.
</event>
<event>
 5   0  0.5281116E-04  0.1554894E+04  0.7818609E-02  0.8848748E-01
       -1   -1    0    0    0  501  0.00000000000E+00  0.00000000000E+00  0.30096877990E+03  0.30096877994E+03  0.50400001928E-02 0.  1.
        1   -1    0    0  501    0  0.00000000000E+00  0.00000000000E+00 -0.20082607362E+04  0.20082607362E+04  0.50400001928E-02 0. -1.
    10030    2    1    2    0    0  0.00000000000E+00  0.00000000000E+00 -0.17072919563E+04  0.23092295161E+04  0.15548939302E+04 0.  0.
        2    1    3    3  502    0 -0.30140050908E+03 -0.15443220293E+03 -0.18929573200E+04  0.19230129972E+04  0.25500000920E-02 0. -1.
       -2    1    3    3    0  502  0.30140050908E+03  0.15443220293E+03  0.18566536372E+03  0.38621651889E+03  0.25500000920E-02 0.  1.
</event>
<event>
 5   0  0.1000121E-03  0.1580865E+04  0.7818609E-02  0.8832390E-01
        2   -1    0    0  501    0  0.00000000000E+00  0.00000000000E+00  0.14806511014E+04  0.14806511014E+04  0.25500000920E-02 0.  1.
       -2   -1    0    0    0  501  0.00000000000E+00  0.00000000000E+00 -0.42196543618E+03  0.42196543618E+03  0.25500000920E-02 0. -1.
    10030    2    1    2    0    0  0.00000000000E+00  0.00000000000E+00  0.10586856652E+04  0.19026165376E+04  0.15808650642E+04 0.  0.
        4    1    3    3  502    0 -0.29174089442E+03 -0.68245563388E+03  0.20211681766E+03  0.76922770528E+03  0.12699999809E+01 0. -1.
       -4    1    3    3    0  502  0.29174089442E+03  0.68245563388E+03  0.85656884755E+03  0.11333888323E+04  0.12699999809E+01 0.  1.
</event>
<event>
 5   0  0.5532881E-04  0.1598179E+04  0.7818609E-02  0.8821667E-01
       -1   -1    0    0    0  501  0.00000000000E+00  0.00000000000E+00  0.61767392086E+03  0.61767392088E+03  0.50400001928E-02 0. -1.
        1   -1    0    0  501    0  0.00000000000E+00  0.00000000000E+00 -0.10337887877E+04  0.10337887877E+04  0.50400001928E-02 0.  1.
    10030    2    1    2    0    0  0.00000000000E+00  0.00000000000E+00 -0.41611486685E+03  0.16514627086E+04  0.15981794316E+04 0.  0.
        4    1    3    3  502    0 -0.63688017237E+03 -0.79984286963E+02 -0.69987616161E+03  0.94965367088E+03  0.12699999809E+01 0.  1.
       -4    1    3    3    0  502  0.63688017237E+03  0.79984286963E+02  0.28376129477E+03  0.70180903772E+03  0.12699999809E+01 0. -1.
</event>
<event>
 5   0  0.3832500E-04  0.1603083E+04  0.7818609E-02  0.8818656E-01
        4   -1    0    0  501    0  0.00000000000E+00  0.00000000000E+00  0.13521395085E+04  0.13521401049E+04  0.12699999809E+01 0. -1.
       -4   -1    0    0    0  501  0.00000000000E+00  0.00000000000E+00 -0.47514819694E+03  0.47514989420E+03  0.12699999809E+01 0.  1.
    10030    2    1    2    0    0  0.00000000000E+00  0.00000000000E+00  0.87699131153E+03  0.18272899991E+04  0.16030829611E+04 0.  0.
        4    1    3    3  502    0  0.54436670828E+03 -0.40022026592E+03  0.93003274604E+03  0.11495537812E+04  0.12699999809E+01 0. -1.
       -4    1    3    3    0  502 -0.54436670828E+03  0.40022026592E+03 -0.53041434503E+02  0.67773621787E+03  0.12699999809E+01 0.  1.
</event>
<event>
 5   0  0.5623061E-04  0.1597301E+04  0.7818609E-02  0.8822208E-01
       -1   -1    0    0    0  501  0.00000000000E+00  0.00000000000E+00  0.10186316549E+04  0.10186316549E+04  0.50400001928E-02 0.  1.
        1   -1    0    0  501    0  0.00000000000E+00  0.00000000000E+00 -0.62617563156E+03  0.62617563158E+03  0.50400001928E-02 0. -1.
    10030    2    1    2    0    0  0.00000000000E+00  0.00000000000E+00  0.39245602337E+03  0.16448072865E+04  0.15973006228E+04 0.  0.
        3    1    3    3  502    0  0.48634216918E+02  0.27797929460E+03  0.96557992871E+03  0.10059733516E+04  0.10100000352E+00 0.  1.
       -3    1    3    3    0  502 -0.48634216918E+02 -0.27797929460E+03 -0.57312390534E+03  0.63883393488E+03  0.10100000352E+00 0. -1.
</event>
<event>
 5   0  0.5281116E-04  0.1586598E+04  0.7818609E-02  0.8828824E-01
       -1   -1    0    0    0  501  0.00000000000E+00  0.00000000000E+00  0.91797127347E+03  0.91797127349E+03  0.50400001928E-02 0.  1.
        1   -1    0    0  501    0  0.00000000000E+00  0.00000000000E+00 -0.68555905205E+03  0.68555905207E+03  0.50400001928E-02 0. -1.
    10030    2    1    2    0    0  0.00000000000E+00  0.00000000000E+00  0.23241222142E+03  0.16035303256E+04  0.15865982681E+04 0.  0.
        2    1    3    3  502    0  0.65738515616E+03 -0.44295634999E+03  0.14748709320E+03  0.80629896081E+03  0.25500000920E-02 0. -1.
       -2    1    3    3    0  502 -0.65738515616E+03  0.44295634999E+03  0.84925128224E+02  0.79723136475E+03  0.25500000920E-02 0.  1.
</event>
<event>
 5   0  0.5623061E-04  0.1511185E+04  0.7818609E-02  0.8877049E-01
        1   -1    0    0  501    0  0.00000000000E+00  0.00000000000E+00  0.55482284930E+03  0.55482284932E+03  0.50400001928E-02 0. -1.
       -1   -1    0    0    0  501  0.00000000000E+00  0.00000000000E+00 -0.10290132548E+04  0.10290132548E+04  0.50400001928E-02 0.  1.
    10030    2    1    2    0    0  0.00000000000E+00  0.00000000000E+00 -0.47419040553E+03  0.15838361042E+04  0.15111850529E+04 0.  0.
        3    1    3    3  502    0 -0.29373056616E+03 -0.60387994400E+03 -0.60011599098E+03  0.90060415560E+03  0.10100000352E+00 0. -1.
       -3    1    3    3    0  502  0.29373056616E+03  0.60387994400E+03  0.12592558545E+03  0.68323194856E+03  0.10100000352E+00 0.  1.
</event>
<event>
 5   0  0.5425525E-04  0.1562145E+04  0.7818609E-02  0.8844147E-01
       -1   -1    0    0    0  501  0.00000000000E+00  0.00000000000E+00  0.73378666920E+03  0.73378666922E+03  0.50400001928E-02 0.  1.
        1   -1    0    0  501    0  0.00000000000E+00  0.00000000000E+00 -0.83140519173E+03  0.83140519174E+03  0.50400001928E-02 0. -1.
    10030    2    1    2    0    0  0.00000000000E+00  0.00000000000E+00 -0.97618522527E+02  0.15651918610E+04  0.15621447390E+04 0.  0.
        5    1    3    3  502    0  0.74377907345E+03 -0.14226372540E+02  0.18965131221E+03  0.76772352446E+03  0.46999998093E+01 0.  1.
       -5    1    3    3    0  502 -0.74377907345E+03  0.14226372540E+02 -0.28726983473E+03  0.79746833651E+03  0.46999998093E+01 0. -1.
</event>
<event>
 5   0  0.5425525E-04  0.1668458E+04  0.7818609E-02  0.8779561E-01
       -1   -1    0    0    0  501  0.00000000000E+00  0.00000000000E+00  0.10634712001E+04  0.10634712001E+04  0.50400001928E-02 0.  1.
        1   -1    0    0  501    0  0.00000000000E+00  0.00000000000E+00 -0.65440227988E+03  0.65440227990E+03  0.50400001928E-02 0. -1.
    10030    2    1    2    0    0  0.00000000000E+00  0.00000000000E+00  0.40906892020E+03  0.17178734800E+04  0.16684579443E+04 0.  0.
        5    1    3    3  502    0  0.23271466921E+03  0.28639762445E+03  0.97484811696E+03  0.10423678131E+04  0.46999998093E+01 0.  1.
       -5    1    3    3    0  502 -0.23271466921E+03 -0.28639762445E+03 -0.56577919677E+03  0.67550566692E+03  0.46999998093E+01 0. -1.
</event>
<event>
 5   0  0.5425525E-04  0.1598684E+04  0.7818609E-02  0.8821357E-01
       -1   -1    0    0    0  501  0.00000000000E+00  0.00000000000E+00  0.66525144486E+03  0.66525144488E+03  0.50400001928E-02 0.  1.
        1   -1    0    0  501    0  0.00000000000E+00  0.00000000000E+00 -0.96046040994E+03  0.96046040996E+03  0.50400001928E-02 0. -1.
    10030    2    1    2    0    0  0.00000000000E+00  0.00000000000E+00 -0.29520896508E+03  0.16257118548E+04  0.15986840532E+04 0.  0.
        5    1    3    3  502    0 -0.39154807566E+03  0.14120381369E+03 -0.84154685193E+03  0.93886719324E+03  0.46999998093E+01 0. -1.
       -5    1    3    3    0  502  0.39154807566E+03 -0.14120381369E+03  0.54633788685E+03  0.68684466160E+03  0.46999998093E+01 0.  1.
</event>
<event>
 5   0  0.1000121E-03  0.1599602E+04  0.7818609E-02  0.8820792E-01
       -2   -1    0    0    0  501  0.00000000000E+00  0.00000000000E+00  0.76061427007E+03  0.76061427007E+03  0.25500000920E-02 0.  1.
        2   -1    0    0  501    0  0.00000000000E+00  0.00000000000E+00 -0.84100679564E+03  0.84100679565E+03  0.25500000920E-02 0. -1.
    10030    2    1    2    0    0  0.00000000000E+00  0.00000000000E+00 -0.80392525574E+02  0.16016210657E+04  0.15996021630E+04 0.  0.
        4    1    3    3  502    0 -0.20874034884E+03 -0.60915048874E+03 -0.51518229557E+03  0.82465220653E+03  0.12699999809E+01 0. -1.
       -4    1    3    3    0  502  0.20874034884E+03  0.60915048874E+03  0.43478976999E+03  0.77696885919E+03  0.12699999809E+01 0.  1.
</event>
<event>
 5   0  0.5532881E-04  0.1607979E+04  0.7818609E-02  0.8815661E-01
        1   -1    0    0  501    0  0.00000000000E+00  0.00000000000E+00  0.60670294888E+03  0.60670294890E+03  0.50400001928E-02 0. -1.
       -1   -1    0    0    0  501  0.00000000000E+00  0.00000000000E+00 -0.10654296401E+04  0.10654296401E+04  0.50400001928E-02 0.  1.
    10030    2    1    2    0    0  0.00000000000E+00  0.00000000000E+00 -0.45872669123E+03  0.16721325890E+04  0.16079792343E+04 0.  0.
        4    1    3    3  502    0 -0.12971384383E+03 -0.88433874187E+02 -0.10493347030E+04  0.10610142144E+04  0.12699999809E+01 0.  1.
       -4    1    3    3    0  502  0.12971384383E+03  0.88433874187E+02  0.59060801173E+03  0.61111837463E+03  0.12699999809E+01 0. -1.
</event>
<event>
 5   0  0.9844690E-04  0.1581456E+04  0.7818609E-02  0.8832022E-01
        2   -1    0    0  501    0  0.00000000000E+00  0.00000000000E+00  0.12730756253E+04  0.12730756253E+04  0.25500000920E-02 0. -1.
       -2   -1    0    0    0  501  0.00000000000E+00  0.00000000000E+00 -0.49113422207E+03  0.49113422207E+03  0.25500000920E-02 0.  1.
    10030    2    1    2    0    0  0.00000000000E+00  0.00000000000E+00  0.78194140322E+03  0.17642098474E+04  0.15814562996E+04 0.  0.
        3    1    3    3  502    0 -0.18037321243E+03  0.26034925587E+03 -0.41727930086E+03  0.52386854833E+03  0.10100000352E+00 0.  1.
       -3    1    3    3    0  502  0.18037321243E+03 -0.26034925587E+03  0.11992207041E+04  0.12403412990E+04  0.10100000352E+00 0. -1.
</event>
<event>
 5   0  0.1030027E-03  0.1568529E+04  0.7818609E-02  0.8840118E-01
       -2   -1    0    0    0  501  0.00000000000E+00  0.00000000000E+00  0.65380419790E+03  0.65380419791E+03  0.25500000920E-02 0. -1.
        2   -1    0    0  501    0  0.00000000000E+00  0.00000000000E+00 -0.94075732095E+03  0.94075732096E+03  0.25500000920E-02 0.  1.
    10030    2    1    2    0    0  0.00000000000E+00  0.00000000000E+00 -0.28695312305E+03  0.15945615189E+04  0.15685293566E+04 0.  0.
        1    1    3    3  502    0 -0.40171183374E+03 -0.41885477824E+03  0.39278111369E+03  0.70077722988E+03  0.50400001928E-02 0. -1.
       -1    1    3    3    0  502  0.40171183374E+03  0.41885477824E+03 -0.67973423674E+03  0.89378428899E+03  0.50400001928E-02 0.  1.
</event>
<event>
 5   0  0.5532881E-04  0.1583457E+04  0.7818609E-02  0.8830776E-01
       -1   -1    0    0    0  501  0.00000000000E+00  0.00000000000E+00  0.38916499770E+03  0.38916499773E+03  0.50400001928E-02 0.  1.
        1   -1    0    0  501    0  0.00000000000E+00  0.00000000000E+00 -0.16107160775E+04  0.16107160775E+04  0.50400001928E-02 0. -1.
    10030    2    1    2    0    0  0.00000000000E+00  0.00000000000E+00 -0.12215510798E+04  0.19998810752E+04  0.15834573801E+04 0.  0.
        4    1    3    3  502    0 -0.29754623134E+03  0.44436422839E+03 -0.13481238250E+04  0.14503216153E+04  0.12699999809E+01 0. -1.
       -4    1    3    3    0  502  0.29754623134E+03 -0.44436422839E+03  0.12657274525E+03  0.54955945993E+03  0.12699999809E+01 0.  1.
</event>
<event>
 5   0  0.1030027E-03  0.1600411E+04  0.7818609E-02  0.8820296E-01
        2   -1    0    0  501    0  0.00000000000E+00  0.00000000000E+00  0.12665172324E+04  0.12665172324E+04  0.25500000920E-02 0. -1.
       -2   -1    0    0    0  501  0.00000000000E+00  0.00000000000E+00 -0.50558242883E+03  0.50558242883E+03  0.25500000920E-02 0.  1.
    10030    2    1    2    0    0  0.00000000000E+00  0.00000000000E+00  0.76093480358E+03  0.17720996612E+04  0.16004110204E+04 0.  0.
        1    1    3    3  502    0  0.34839094192E+03  0.13379707611E+03  0.11642534984E+04  0.12226054615E+04  0.50400001928E-02 0. -1.
       -1    1    3    3    0  502 -0.34839094192E+03 -0.13379707611E+03 -0.40331869478E+03  0.54949419976E+03  0.50400001928E-02 0.  1.
</event>
<event>
 5   0  0.9844690E-04  0.1434431E+04  0.7818609E-02  0.8929266E-01
        2   -1    0    0  501    0  0.00000000000E+00  0.00000000000E+00  0.10950498806E+04  0.10950498806E+04  0.25500000920E-02 0.  1.
       -2   -1    0    0    0  501  0.00000000000E+00  0.00000000000E+00 -0.46974861174E+03  0.46974861175E+03  0.25500000920E-02 0. -1.
    10030    2    1    2    0    0  0.00000000000E+00  0.00000000000E+00  0.62530126891E+03  0.15647984924E+04  0.14344311224E+04 0.  0.
        3    1    3    3  502    0  0.41646114688E+03  0.11383329888E+03  0.93741435592E+03  0.10320579401E+04  0.10100000352E+00 0.  1.
       -3    1    3    3    0  502 -0.41646114688E+03 -0.11383329888E+03 -0.31211308701E+03  0.53274055232E+03  0.10100000352E+00 0. -1.
</event>
<event>
 5   0  0.5281116E-04  0.1591871E+04  0.7818609E-02  0.8825557E-01
        1   -1    0    0  501    0  0.00000000000E+00  0.00000000000E+00  0.70244847466E+03  0.70244847468E+03  0.50400001928E-02 0.  1.
       -1   -1    0    0    0  501  0.00000000000E+00  0.00000000000E+00 -0.90186466179E+03  0.90186466180E+03  0.50400001928E-02 0. -1.
    10030    2    1    2    0    0  0.00000000000E+00  0.00000000000E+00 -0.19941618713E+03  0.16043131365E+04  0.15918711707E+04 0.  0.
        2    1    3    3  502    0  0.52168298108E+03 -0.11005129633E+03 -0.69530005795E+03  0.87618867327E+03  0.25500000920E-02 0. -1.
       -2    1    3    3    0  502 -0.52168298108E+03  0.11005129633E+03  0.49588387082E+03  0.72812446321E+03  0.25500000920E-02 0.  1.
</event>
<event>
 5   0  0.9844690E-04  0.1607925E+04  0.7818609E-02  0.8815694E-01
       -2   -1    0    0    0  501  0.00000000000E+00  0.00000000000E+00  0.67993932630E+03  0.67993932630E+03  0.25500000920E-02 0. -1.
        2   -1    0    0  501    0  0.00000000000E+00  0.00000000000E+00 -0.95060751249E+03  0.95060751250E+03  0.25500000920E-02 0.  1.
    10030    2    1    2    0    0  0.00000000000E+00  0.00000000000E+00 -0.27066818619E+03  0.16305468388E+04  0.16079246644E+04 0.  0.
        3    1    3    3  502    0 -0.39633102699E+03  0.86383619379E+02 -0.83922887212E+03  0.93211883505E+03  0.10100000352E+00 0.  1.
       -3    1    3    3    0  502  0.39633102699E+03 -0.86383619379E+02  0.56856068592E+03  0.69842800376E+03  0.10100000352E+00 0. -1.
</event>
<event>
 5   0  0.5532881E-04  0.1566055E+04  0.7818609E-02  0.8841677E-01
        1   -1    0    0  501    0  0.00000000000E+00  0.00000000000E+00  0.10209146815E+04  0.10209146815E+04  0.50400001928E-02 0. -1.
       -1   -1    0    0    0  501  0.00000000000E+00  0.00000000000E+00 -0.60057134750E+03  0.60057134753E+03  0.50400001928E-02 0.  1.
    10030    2    1    2    0    0  0.00000000000E+00  0.00000000000E+00  0.42034333403E+03  0.16214860291E+04  0.15660550514E+04 0.  0.
        4    1    3    3  502    0  0.45685985588E+03 -0.26354772388E+03 -0.38906389555E+03  0.65540114312E+03  0.12699999809E+01 0.  1.
       -4    1    3    3    0  502 -0.45685985588E+03  0.26354772388E+03  0.80940722957E+03  0.96608488595E+03  0.12699999809E+01 0. -1.
</event>
<event>
 5   0  0.3832500E-04  0.1593978E+04  0.7818609E-02  0.8824256E-01
        4   -1    0    0  501    0  0.00000000000E+00  0.00000000000E+00  0.73361504003E+03  0.73361613931E+03  0.12699999809E+01 0. -1.
       -4   -1    0    0    0  501  0.00000000000E+00  0.00000000000E+00 -0.86583545899E+03  0.86583639040E+03  0.12699999809E+01 0.  1.
    10030    2    1    2    0    0  0.00000000000E+00  0.00000000000E+00 -0.13222041896E+03  0.15994525297E+04  0.15939780913E+04 0.  0.
        5    1    3    3  502    0  0.34392535317E+03 -0.43049335590E+03  0.51168009528E+03  0.75196262402E+03  0.46999998093E+01 0. -1.
       -5    1    3    3    0  502 -0.34392535317E+03  0.43049335590E+03 -0.64390051424E+03  0.84748990570E+03  0.46999998093E+01 0.  1.
</event>
<event>
 5   0  0.5532881E-04  0.1603572E+04  0.7818609E-02  0.8818356E-01
       -1   -1    0    0    0  501  0.00000000000E+00  0.00000000000E+00  0.51423450448E+03  0.51423450450E+03  0.50400001928E-02 0. -1.
        1   -1    0    0  501    0  0.00000000000E+00  0.00000000000E+00 -0.12501320907E+04  0.12501320908E+04  0.50400001928E-02 0.  1.
    10030    2    1    2    0    0  0.00000000000E+00  0.00000000000E+00 -0.73589758627E+03  0.17643665953E+04  0.16035723323E+04 0.  0.
        4    1    3    3  502    0  0.61052684003E+03  0.14259380024E+03  0.18194913575E+03  0.65282701779E+03  0.12699999809E+01 0. -1.
       -4    1    3    3    0  502 -0.61052684003E+03 -0.14259380024E+03 -0.91784672201E+03  0.11115395775E+04  0.12699999809E+01 0.  1.
</event>
<event>
 5   0  0.1030027E-03  0.1579299E+04  0.7818609E-02  0.8833367E-01
       -2   -1    0    0    0  501  0.00000000000E+00  0.00000000000E+00  0.84540993270E+03  0.84540993271E+03  0.25500000920E-02 0. -1.
        2   -1    0    0  501    0  0.00000000000E+00  0.00000000000E+00 -0.73756654186E+03  0.73756654186E+03  0.25500000920E-02 0.  1.
    10030    2    1    2    0    0  0.00000000000E+00  0.00000000000E+00  0.10784339084E+03  0.15829764746E+04  0.15792986805E+04 0.  0.
        1    1    3    3  502    0  0.76126465122E+03 -0.55193452786E+02  0.25681812621E+03  0.80531095634E+03  0.50400001928E-02 0.  1.
       -1    1    3    3    0  502 -0.76126465122E+03  0.55193452786E+02 -0.14897473537E+03  0.77766551823E+03  0.50400001928E-02 0. -1.
</event>
<event>
 5   0  0.5288658E-04  0.1611146E+04  0.7818609E-02  0.8813730E-01
        1   -1    0    0  501    0  0.00000000000E+00  0.00000000000E+00  0.50801505429E+03  0.50801505431E+03  0.50400001928E-02 0.  1.
       -1   -1    0    0    0  501  0.00000000000E+00  0.00000000000E+00 -0.12774181731E+04  0.12774181731E+04  0.50400001928E-02 0. -1.
    10030    2    1    2    0    0  0.00000000000E+00  0.00000000000E+00 -0.76940311881E+03  0.17854332274E+04  0.16111457570E+04 0.  0.
        1    1    3    3  502    0  0.44955329611E+03  0.47828851817E+00 -0.11254816579E+04  0.12119436278E+04  0.50400001928E-02 0. -1.
       -1    1    3    3    0  502 -0.44955329611E+03 -0.47828851817E+00  0.35607853908E+03  0.57348959958E+03  0.50400001928E-02 0.  1.
</event>
<event>
 5   0  0.5281116E-04  0.1622975E+04  0.7818609E-02  0.8806557E-01
        1   -1    0    0  501    0  0.00000000000E+00  0.00000000000E+00  0.10805189165E+04  0.10805189165E+04  0.50400001928E-02 0.  1.
       -1   -1    0    0    0  501  0.00000000000E+00  0.00000000000E+00 -0.60944059371E+03  0.60944059373E+03  0.50400001928E-02 0. -1.
    10030    2    1    2    0    0  0.00000000000E+00  0.00000000000E+00  0.47107832274E+03  0.16899595102E+04  0.16229751569E+04 0.  0.
        2    1    3    3  502    0  0.54551322110E+03  0.58982053715E+03  0.35444113424E+03  0.87812382844E+03  0.25500000920E-02 0.  1.
       -2    1    3    3    0  502 -0.54551322110E+03 -0.58982053715E+03  0.11663718851E+03  0.81183568176E+03  0.25500000920E-02 0. -1.
</event>
<event>
 5   0  0.1057872E-03  0.1611522E+04  0.7818609E-02  0.8813500E-01
       -2   -1    0    0    0  501  0.00000000000E+00  0.00000000000E+00  0.64503158833E+03  0.64503158834E+03  0.25500000920E-02 0.  1.
        2   -1    0    0  501    0  0.00000000000E+00  0.00000000000E+00 -0.10065416553E+04  0.10065416553E+04  0.25500000920E-02 0. -1.
    10030    2    1    2    0    0  0.00000000000E+00  0.00000000000E+00 -0.36151006694E+03  0.16515732436E+04  0.16115224635E+04 0.  0.
        2    1    3    3  502    0  0.46203874350E+03 -0.63576053260E+03  0.13688491669E+01  0.78592183394E+03  0.25500000920E-02 0.  1.
       -2    1    3    3    0  502 -0.46203874350E+03  0.63576053260E+03 -0.36287891610E+03  0.86565140967E+03  0.25500000920E-02 0. -1.
</event>
<event>
 5   0  0.1057872E-03  0.1361538E+04  0.7818609E-02  0.8982140E-01
       -2   -1    0    0    0  501  0.00000000000E+00  0.00000000000E+00  0.74855254075E+03  0.74855254076E+03  0.25500000920E-02 0.  1.
        2   -1    0    0  501    0  0.00000000000E+00  0.00000000000E+00 -0.61912350331E+03  0.61912350332E+03  0.25500000920E-02 0. -1.
    10030    2    1    2    0    0  0.00000000000E+00  0.00000000000E+00  0.12942903744E+03  0.13676760441E+04  0.13615380589E+04 0.  0.
        2    1    3    3  502    0  0.19552432046E+03  0.64795882251E+03 -0.88692215399E+01  0.67687447777E+03  0.25500000920E-02 0.  1.
       -2    1    3    3    0  502 -0.19552432046E+03 -0.64795882251E+03  0.13829825898E+03  0.69080156630E+03  0.25500000920E-02 0. -1.
</event>
<event>
 5   0  0.1037321E-03  0.1569311E+04  0.7818609E-02  0.8839626E-01
        2   -1    0    0  501    0  0.00000000000E+00  0.00000000000E+00  0.11112415518E+04  0.11112415518E+04  0.25500000920E-02 0.  1.
       -2   -1    0    0    0  501  0.00000000000E+00  0.00000000000E+00 -0.55405095708E+03  0.55405095708E+03  0.25500000920E-02 0. -1.
    10030    2    1    2    0    0  0.00000000000E+00  0.00000000000E+00  0.55719059472E+03  0.16652925089E+04  0.15693112442E+04 0.  0.
        5    1    3    3  502    0 -0.53787996210E+03  0.41760275734E+03 -0.13506092960E+03  0.69424092452E+03  0.46999998093E+01 0. -1.
       -5    1    3    3    0  502  0.53787996210E+03 -0.41760275734E+03  0.69225152433E+03  0.97105158437E+03  0.46999998093E+01 0.  1.
</event>
<event>
 5   0  0.1030027E-03  0.1622371E+04  0.7818609E-02  0.8806922E-01
       -2   -1    0    0    0  501  0.00000000000E+00  0.00000000000E+00  0.33577385039E+03  0.33577385040E+03  0.25500000920E-02 0. -1.
        2   -1    0    0  501    0  0.00000000000E+00  0.00000000000E+00 -0.19597164978E+04  0.19597164978E+04  0.25500000920E-02 0.  1.
    10030    2    1    2    0    0  0.00000000000E+00  0.00000000000E+00 -0.16239426474E+04  0.22954903482E+04  0.16223705547E+04 0.  0.
        1    1    3    3  502    0 -0.21109529409E+03 -0.62994368939E+03 -0.15342550351E+03  0.68185750721E+03  0.50400001928E-02 0. -1.
       -1    1    3    3    0  502  0.21109529409E+03  0.62994368939E+03 -0.14705171439E+04  0.16136328410E+04  0.50400001928E-02 0.  1.
</event>
<event>
 5   0  0.5623061E-04  0.1597303E+04  0.7818609E-02  0.8822206E-01
       -1   -1    0    0    0  501  0.00000000000E+00  0.00000000000E+00  0.90145169322E+03  0.90145169324E+03  0.50400001928E-02 0. -1.
        1   -1    0    0  501    0  0.00000000000E+00  0.00000000000E+00 -0.70757462859E+03  0.70757462861E+03  0.50400001928E-02 0.  1.
    10030    2    1    2    0    0  0.00000000000E+00  0.00000000000E+00  0.19387706463E+03  0.16090263218E+04  0.15973031610E+04 0.  0.
        3    1    3    3  502    0 -0.23423612827E+03  0.75030261263E+03 -0.45605368994E+02  0.78733756051E+03  0.10100000352E+00 0.  1.
       -3    1    3    3    0  502  0.23423612827E+03 -0.75030261263E+03  0.23948243362E+03  0.82168876134E+03  0.10100000352E+00 0. -1.
</event>
<event>
 5   0  0.1000121E-03  0.1655952E+04  0.7818609E-02  0.8786893E-01
        2   -1    0    0  501    0  0.00000000000E+00  0.00000000000E+00  0.13913334448E+04  0.13913334448E+04  0.25500000920E-02 0. -1.
       -2   -1    0    0    0  501  0.00000000000E+00  0.00000000000E+00 -0.49272438570E+03  0.49272438571E+03  0.25500000920E-02 0.  1.
    10030    2    1    2    0    0  0.00000000000E+00  0.00000000000E+00  0.89860905912E+03  0.18840578305E+04  0.16559515898E+04 0.  0.
        4    1    3    3  502    0  0.36032037455E+03  0.72177300538E+03  0.23719661880E+03  0.84086318297E+03  0.12699999809E+01 0. -1.
       -4    1    3    3    0  502 -0.36032037455E+03 -0.72177300538E+03  0.66141244032E+03  0.10431946476E+04  0.12699999809E+01 0.  1.
</event>
<event>
 5   0  0.1037321E-03  0.1599227E+04  0.7818609E-02  0.8821023E-01
       -2   -1    0    0    0  501  0.00000000000E+00  0.00000000000E+00  0.30742815206E+03  0.30742815207E+03  0.25500000920E-02 0.  1.
        2   -1    0    0  501    0  0.00000000000E+00  0.00000000000E+00 -0.20797756671E+04  0.20797756671E+04  0.25500000920E-02 0. -1.
    10030    2    1    2    0    0  0.00000000000E+00  0.00000000000E+00 -0.17723475150E+04  0.23872038191E+04  0.15992268007E+04 0.  0.
        5    1    3    3  502    0 -0.54998831330E+03 -0.56490898357E+03 -0.10850491329E+04  0.13412542694E+04  0.46999998093E+01 0. -1.
       -5    1    3    3    0  502  0.54998831330E+03  0.56490898357E+03 -0.68729838209E+03  0.10459495497E+04  0.46999998093E+01 0.  1.
</event>
<event>
 5   0  0.1030027E-03  0.1659273E+04  0.7818609E-02  0.8784940E-01
       -2   -1    0    0    0  501  0.00000000000E+00  0.00000000000E+00  0.53743395237E+03  0.53743395237E+03  0.25500000920E-02 0.  1.
        2   -1    0    0  501    0  0.00000000000E+00  0.00000000000E+00 -0.12807087636E+04  0.12807087636E+04  0.25500000920E-02 0. -1.
    10030    2    1    2    0    0  0.00000000000E+00  0.00000000000E+00 -0.74327481127E+03  0.18181427160E+04  0.16592725788E+04 0.  0.
        1    1    3    3  502    0  0.53284255723E+03  0.32901086488E+03 -0.96791605861E+03  0.11528359972E+04  0.50400001928E-02 0. -1.
       -1    1    3    3    0  502 -0.53284255723E+03 -0.32901086488E+03  0.22464124734E+03  0.66530671877E+03  0.50400001928E-02 0.  1.
</event>
<event>
 5   0  0.5288658E-04  0.1538582E+04  0.7818609E-02  0.8859194E-01
       -1   -1    0    0    0  501  0.00000000000E+00  0.00000000000E+00  0.24894070067E+03  0.24894070073E+03  0.50400001928E-02 0.  1.
        1   -1    0    0  501    0  0.00000000000E+00  0.00000000000E+00 -0.23773068078E+04  0.23773068078E+04  0.50400001928E-02 0. -1.
    10030    2    1    2    0    0  0.00000000000E+00  0.00000000000E+00 -0.21283661072E+04  0.26262475086E+04  0.15385817138E+04 0.  0.
        1    1    3    3  502    0  0.47968489251E+03  0.60099670877E+03 -0.10254925199E+04  0.12817681337E+04  0.50400001928E-02 0.  1.
       -1    1    3    3    0  502 -0.47968489251E+03 -0.60099670877E+03 -0.11028735872E+04  0.13444793749E+04  0.50400001928E-02 0. -1.
</event>
<event>
 5   0  0.3832500E-04  0.1497259E+04  0.7818609E-02  0.8886277E-01
       -4   -1    0    0    0  501  0.00000000000E+00  0.00000000000E+00  0.66152638164E+03  0.66152760071E+03  0.12699999809E+01 0. -1.
        4   -1    0    0  501    0  0.00000000000E+00  0.00000000000E+00 -0.84719956380E+03  0.84720051570E+03  0.12699999809E+01 0.  1.
    10030    2    1    2    0    0  0.00000000000E+00  0.00000000000E+00 -0.18567318216E+03  0.15087281164E+04  0.14972594961E+04 0.  0.
        4    1    3    3  502    0  0.41186394819E+03  0.29890374778E+03 -0.64610467196E+03  0.82245256537E+03  0.12699999809E+01 0.  1.
       -4    1    3    3    0  502 -0.41186394819E+03 -0.29890374778E+03  0.46043148980E+03  0.68627555104E+03  0.12699999809E+01 0. -1.
</event>
<event>
 5   0  0.5281116E-04  0.1649062E+04  0.7818609E-02  0.8790962E-01
       -1   -1    0    0    0  501  0.00000000000E+00  0.00000000000E+00  0.12902188529E+04  0.12902188529E+04  0.50400001928E-02 0. -1.
        1   -1    0    0  501    0  0.00000000000E+00  0.00000000000E+00 -0.52692685463E+03  0.52692685465E+03  0.50400001928E-02 0.  1.
    10030    2    1    2    0    0  0.00000000000E+00  0.00000000000E+00  0.76329199830E+03  0.18171457076E+04  0.16490615052E+04 0.  0.
        2    1    3    3  502    0 -0.58396787723E+03  0.57992644462E+03  0.43693814463E+03  0.93179831779E+03  0.25500000920E-02 0.  1.
       -2    1    3    3    0  502  0.58396787723E+03 -0.57992644462E+03  0.32635385368E+03  0.88534738980E+03  0.25500000920E-02 0. -1.
</event>
<event>
 5   0  0.1057872E-03  0.1494060E+04  0.7818609E-02  0.8888412E-01
        2   -1    0    0  501    0  0.00000000000E+00  0.00000000000E+00  0.12375787002E+04  0.12375787002E+04  0.25500000920E-02 0.  1.
       -2   -1    0    0    0  501  0.00000000000E+00  0.00000000000E+00 -0.45092399331E+03  0.45092399332E+03  0.25500000920E-02 0. -1.
    10030    2    1    2    0    0  0.00000000000E+00  0.00000000000E+00  0.78665470686E+03  0.16885026935E+04  0.14940601454E+04 0.  0.
        2    1    3    3  502    0  0.35630876541E+03  0.81185845941E+02  0.11296633449E+04  0.11873021312E+04  0.25500000920E-02 0.  1.
       -2    1    3    3    0  502 -0.35630876541E+03 -0.81185845941E+02 -0.34300863804E+03  0.50120056232E+03  0.25500000920E-02 0. -1.
</event>
<event>
 5   0  0.1000121E-03  0.1578173E+04  0.7818609E-02  0.8834071E-01
        2   -1    0    0  501    0  0.00000000000E+00  0.00000000000E+00  0.13775307312E+04  0.13775307312E+04  0.25500000920E-02 0.  1.
       -2   -1    0    0    0  501  0.00000000000E+00  0.00000000000E+00 -0.45200972928E+03  0.45200972929E+03  0.25500000920E-02 0. -1.
    10030    2    1    2    0    0  0.00000000000E+00  0.00000000000E+00  0.92552100194E+03  0.18295404605E+04  0.15781727319E+04 0.  0.
        4    1    3    3  502    0  0.73712739717E+03 -0.30277759273E+02  0.78732127831E+03  0.10789578076E+04  0.12699999809E+01 0.  1.
       -4    1    3    3    0  502 -0.73712739717E+03  0.30277759273E+02  0.13819972363E+03  0.75058265293E+03  0.12699999809E+01 0. -1.
</event>
<event>
 5   0  0.1037321E-03  0.1607193E+04  0.7818609E-02  0.8816141E-01
       -2   -1    0    0    0  501  0.00000000000E+00  0.00000000000E+00  0.79671439258E+03  0.79671439259E+03  0.25500000920E-02 0.  1.
        2   -1    0    0  501    0  0.00000000000E+00  0.00000000000E+00 -0.81053826210E+03  0.81053826210E+03  0.25500000920E-02 0. -1.
    10030    2    1    2    0    0  0.00000000000E+00  0.00000000000E+00 -0.13823869517E+02  0.16072526547E+04  0.16071932045E+04 0.  0.
        5    1    3    3  502    0  0.26929756836E+03  0.39684985649E+03  0.63788662053E+03  0.79808045933E+03  0.46999998093E+01 0.  1.
       -5    1    3    3    0  502 -0.26929756836E+03 -0.39684985649E+03 -0.65171049004E+03  0.80917219536E+03  0.46999998093E+01 0. -1.
</event>
<event>
 5   0  0.5532881E-04  0.1602706E+04  0.7818609E-02  0.8818887E-01
       -1   -1    0    0    0  501  0.00000000000E+00  0.00000000000E+00  0.56216201101E+03  0.56216201103E+03  0.50400001928E-02 0. -1.
        1   -1    0    0  501    0  0.00000000000E+00  0.00000000000E+00 -0.11423159734E+04  0.11423159734E+04  0.50400001928E-02 0.  1.
    10030    2    1    2    0    0  0.00000000000E+00  0.00000000000E+00 -0.58015396243E+03  0.17044779845E+04  0.16027060178E+04 0.  0.
        4    1    3    3  502    0  0.47110824047E+03 -0.48134239993E+03 -0.75185105892E+03  0.10094132493E+04  0.12699999809E+01 0.  1.
       -4    1    3    3    0  502 -0.47110824047E+03  0.48134239993E+03  0.17169709650E+03  0.69506473516E+03  0.12699999809E+01 0. -1.
</event>
<event>
 5   0  0.5532881E-04  0.1616917E+04  0.7818609E-02  0.8810222E-01
        1   -1    0    0  501    0  0.00000000000E+00  0.00000000000E+00  0.72661233361E+03  0.72661233363E+03  0.50400001928E-02 0. -1.
       -1   -1    0    0    0  501  0.00000000000E+00  0.00000000000E+00 -0.89952437680E+03  0.89952437681E+03  0.50400001928E-02 0.  1.
    10030    2    1    2    0    0  0.00000000000E+00  0.00000000000E+00 -0.17291204318E+03  0.16261367104E+04  0.16169174457E+04 0.  0.
        4    1    3    3  502    0 -0.58158368718E+02 -0.45852306415E+03  0.58063444789E+03  0.74213460449E+03  0.12699999809E+01 0. -1.
       -4    1    3    3    0  502  0.58158368718E+02  0.45852306415E+03 -0.75354649108E+03  0.88400210595E+03  0.12699999809E+01 0.  1.
</event>
<event>
 5   0  0.1057872E-03  0.1480270E+04  0.7818609E-02  0.8897680E-01
        2   -1    0    0  501    0  0.00000000000E+00  0.00000000000E+00  0.14584601401E+04  0.14584601401E+04  0.25500000920E-02 0.  1.
       -2   -1    0    0    0  501  0.00000000000E+00  0.00000000000E+00 -0.37560162788E+03  0.37560162789E+03  0.25500000920E-02 0. -1.
    10030    2    1    2    0    0  0.00000000000E+00  0.00000000000E+00  0.10828585122E+04  0.18340617680E+04  0.14802702494E+04 0.  0.
        2    1    3    3  502    0  0.42805889457E+03  0.34184933023E+03 -0.75222540860E+02  0.55295009943E+03  0.25500000920E-02 0. -1.
       -2    1    3    3    0  502 -0.42805889457E+03 -0.34184933023E+03  0.11580810530E+04  0.12811116685E+04  0.25500000920E-02 0.  1.
</event>
<event>
 5   0  0.1030027E-03  0.1578722E+04  0.7818609E-02  0.8833727E-01
       -2   -1    0    0    0  501  0.00000000000E+00  0.00000000000E+00  0.34181145336E+03  0.34181145337E+03  0.25500000920E-02 0.  1.
        2   -1    0    0  501    0  0.00000000000E+00  0.00000000000E+00 -0.18229083314E+04  0.18229083314E+04  0.25500000920E-02 0. -1.
    10030    2    1    2    0    0  0.00000000000E+00  0.00000000000E+00 -0.14810968780E+04  0.21647197848E+04  0.15787221999E+04 0.  0.
        1    1    3    3  502    0 -0.37209198332E+03 -0.59777242870E+03 -0.12297878940E+04  0.14170965334E+04  0.50400001928E-02 0. -1.
       -1    1    3    3    0  502  0.37209198332E+03  0.59777242870E+03 -0.25130898401E+03  0.74762325140E+03  0.50400001928E-02 0.  1.
</event>
<event>
 5   0  0.1030027E-03  0.1576835E+04  0.7818609E-02  0.8834907E-01
        2   -1    0    0  501    0  0.00000000000E+00  0.00000000000E+00  0.19784220655E+04  0.19784220655E+04  0.25500000920E-02 0.  1.
       -2   -1    0    0    0  501  0.00000000000E+00  0.00000000000E+00 -0.31419079089E+03  0.31419079090E+03  0.25500000920E-02 0. -1.
    10030    2    1    2    0    0  0.00000000000E+00  0.00000000000E+00  0.16642312746E+04  0.22926128564E+04  0.15768347960E+04 0.  0.
        1    1    3    3  502    0  0.24286609598E+03  0.22073373158E+03 -0.21015759969E+03  0.38970955540E+03  0.50400001928E-02 0. -1.
       -1    1    3    3    0  502 -0.24286609598E+03 -0.22073373158E+03  0.18743888743E+04  0.19029033010E+04  0.50400001928E-02 0.  1.
</event>
<event>
 5   0  0.5281116E-04  0.1647125E+04  0.7818609E-02  0.8792109E-01
       -1   -1    0    0    0  501  0.00000000000E+00  0.00000000000E+00  0.77096191027E+03  0.77096191029E+03  0.50400001928E-02 0.  1.
        1   -1    0    0  501    0  0.00000000000E+00  0.00000000000E+00 -0.87975185460E+03  0.87975185461E+03  0.50400001928E-02 0. -1.
    10030    2    1    2    0    0  0.00000000000E+00  0.00000000000E+00 -0.10878994433E+03  0.16507137649E+04  0.16471249745E+04 0.  0.
        2    1    3    3  502    0  0.42532888593E+03 -0.51332380512E+02 -0.75928761464E+03  0.87181268415E+03  0.25500000920E-02 0. -1.
       -2    1    3    3    0  502 -0.42532888593E+03  0.51332380512E+02  0.65049767032E+03  0.77890108075E+03  0.25500000920E-02 0.  1.
</event>
<event>
 5   0  0.1037321E-03  0.1598262E+04  0.7818609E-02  0.8821617E-01
        2   -1    0    0  501    0  0.00000000000E+00  0.00000000000E+00  0.19124614267E+04  0.19124614267E+04  0.25500000920E-02 0.  1.
       -2   -1    0    0    0  501  0.00000000000E+00  0.00000000000E+00 -0.33392053677E+03  0.33392053678E+03  0.25500000920E-02 0. -1.
    10030    2    1    2    0    0  0.00000000000E+00  0.00000000000E+00  0.15785408899E+04  0.22463819635E+04  0.15982617385E+04 0.  0.
        5    1    3    3  502    0 -0.59989279694E+03 -0.91490845773E+01  0.47359184732E+02  0.60184720316E+03  0.46999998093E+01 0. -1.
       -5    1    3    3    0  502  0.59989279694E+03  0.91490845773E+01  0.15311817052E+04  0.16445347603E+04  0.46999998093E+01 0.  1.
</event>
<event>
 5   0  0.5532881E-04  0.1609165E+04  0.7818609E-02  0.8814937E-01
        1   -1    0    0  501    0  0.00000000000E+00  0.00000000000E+00  0.92207198009E+03  0.92207198011E+03  0.50400001928E-02 0.  1.
       -1   -1    0    0    0  501  0.00000000000E+00  0.00000000000E+00 -0.70206369988E+03  0.70206369990E+03  0.50400001928E-02 0. -1.
    10030    2    1    2    0    0  0.00000000000E+00  0.00000000000E+00  0.22000828021E+03  0.16241356800E+04  0.16091653314E+04 0.  0.
        4    1    3    3  502    0  0.18225787105E+03  0.43235174403E+03  0.76969452567E+03  0.90143066171E+03  0.12699999809E+01 0.  1.
       -4    1    3    3    0  502 -0.18225787105E+03 -0.43235174403E+03 -0.54968624545E+03  0.72270501829E+03  0.12699999809E+01 0. -1.
</event>
<event>
 5   0  0.5288658E-04  0.1610662E+04  0.7818609E-02  0.8814024E-01
       -1   -1    0    0    0  501  0.00000000000E+00  0.00000000000E+00  0.10655975649E+04  0.10655975649E+04  0.50400001928E-02 0. -1.
        1   -1    0    0  501    0  0.00000000000E+00  0.00000000000E+00 -0.60863342353E+03  0.60863342355E+03  0.50400001928E-02 0.  1.
    10030    2    1    2    0    0  0.00000000000E+00  0.00000000000E+00  0.45696414132E+03  0.16742309884E+04  0.16106623408E+04 0.  0.
        1    1    3    3  502    0  0.25666316843E+03  0.69603302588E+03 -0.97288302736E+02  0.74819981891E+03  0.50400001928E-02 0.  1.
       -1    1    3    3    0  502 -0.25666316843E+03 -0.69603302588E+03  0.55425244406E+03  0.92603116951E+03  0.50400001928E-02 0. -1.
</event>
<event>
 5   0  0.5288658E-04  0.1961849E+04  0.7818609E-02  0.8624668E-01
       -1   -1    0    0    0  501  0.00000000000E+00  0.00000000000E+00  0.57995730150E+03  0.57995730152E+03  0.50400001928E-02 0.  1.
        1   -1    0    0  501    0  0.00000000000E+00  0.00000000000E+00 -0.16591105128E+04  0.16591105128E+04  0.50400001928E-02 0. -1.
    10030    2    1    2    0    0  0.00000000000E+00  0.00000000000E+00 -0.10791532113E+04  0.22390678143E+04  0.19618493886E+04 0.  0.
        1    1    3    3  502    0 -0.91842638010E+03  0.33694449899E+03 -0.62167635991E+03  0.11591031479E+04  0.50400001928E-02 0. -1.
       -1    1    3    3    0  502  0.91842638010E+03 -0.33694449899E+03 -0.45747685140E+03  0.10799646664E+04  0.50400001928E-02 0.  1.
</event>
<event>
 5   0  0.5281116E-04  0.1610922E+04  0.7818609E-02  0.8813866E-01
        1   -1    0    0  501    0  0.00000000000E+00  0.00000000000E+00  0.86503249242E+03  0.86503249244E+03  0.50400001928E-02 0. -1.
       -1   -1    0    0    0  501  0.00000000000E+00  0.00000000000E+00 -0.74999223997E+03  0.74999223998E+03  0.50400001928E-02 0.  1.
    10030    2    1    2    0    0  0.00000000000E+00  0.00000000000E+00  0.11504025245E+03  0.16150247324E+04  0.16109222907E+04 0.  0.
        2    1    3    3  502    0  0.75296669639E+02  0.79749777986E+03 -0.26928343284E+02  0.80149699502E+03  0.25500000920E-02 0. -1.
       -2    1    3    3    0  502 -0.75296669639E+02 -0.79749777986E+03  0.14196859574E+03  0.81352773740E+03  0.25500000920E-02 0.  1.
</event>
<event>
 5   0  0.5288658E-04  0.1609087E+04  0.7818609E-02  0.8814985E-01
        1   -1    0    0  501    0  0.00000000000E+00  0.00000000000E+00  0.87719432740E+03  0.87719432742E+03  0.50400001928E-02 0.  1.
       -1   -1    0    0    0  501  0.00000000000E+00  0.00000000000E+00 -0.73790946471E+03  0.73790946473E+03  0.50400001928E-02 0. -1.
    10030    2    1    2    0    0  0.00000000000E+00  0.00000000000E+00  0.13928486269E+03  0.16151037921E+04  0.16090866933E+04 0.  0.
        1    1    3    3  502    0 -0.34968152919E+03 -0.17456807894E+03 -0.63622181340E+03  0.74667890148E+03  0.50400001928E-02 0. -1.
       -1    1    3    3    0  502  0.34968152919E+03  0.17456807894E+03  0.77550667609E+03  0.86842489067E+03  0.50400001928E-02 0.  1.
</event>
<event>
 5   0  0.9844690E-04  0.1617647E+04  0.7818609E-02  0.8809780E-01
       -2   -1    0    0    0  501  0.00000000000E+00  0.00000000000E+00  0.80343059707E+03  0.80343059707E+03  0.25500000920E-02 0.  1.
        2   -1    0    0  501    0  0.00000000000E+00  0.00000000000E+00 -0.81425216446E+03  0.81425216446E+03  0.25500000920E-02 0. -1.
    10030    2    1    2    0    0  0.00000000000E+00  0.00000000000E+00 -0.10821567393E+02  0.16176827615E+04  0.16176465654E+04 0.  0.
        3    1    3    3  502    0  0.48717898123E+03 -0.63012458310E+03  0.13528615420E+03  0.80790018177E+03  0.10100000352E+00 0.  1.
       -3    1    3    3    0  502 -0.48717898123E+03  0.63012458310E+03 -0.14610772159E+03  0.80978257976E+03  0.10100000352E+00 0. -1.
</event>
<event>
 5   0  0.5623061E-04  0.1613431E+04  0.7818609E-02  0.8812339E-01
        1   -1    0    0  501    0  0.00000000000E+00  0.00000000000E+00  0.52096179404E+03  0.52096179407E+03  0.50400001928E-02 0.  1.
       -1   -1    0    0    0  501  0.00000000000E+00  0.00000000000E+00 -0.12492085887E+04  0.12492085887E+04  0.50400001928E-02 0. -1.
    10030    2    1    2    0    0  0.00000000000E+00  0.00000000000E+00 -0.72824679468E+03  0.17701703828E+04  0.16134310615E+04 0.  0.
        3    1    3    3  502    0 -0.32711595464E+03 -0.98352794569E+02 -0.11659505336E+04  0.12149562860E+04  0.10100000352E+00 0. -1.
       -3    1    3    3    0  502  0.32711595464E+03  0.98352794569E+02  0.43770373892E+03  0.55521409676E+03  0.10100000352E+00 0.  1.
</event>
<event>
 5   0  0.1000121E-03  0.1604201E+04  0.7818609E-02  0.8817972E-01
       -2   -1    0    0    0  501  0.00000000000E+00  0.00000000000E+00  0.55005409997E+03  0.55005409997E+03  0.25500000920E-02 0.  1.
        2   -1    0    0  501    0  0.00000000000E+00  0.00000000000E+00 -0.11696393735E+04  0.11696393735E+04  0.25500000920E-02 0. -1.
    10030    2    1    2    0    0  0.00000000000E+00  0.00000000000E+00 -0.61958527349E+03  0.17196934734E+04  0.16042006519E+04 0.  0.
        4    1    3    3  502    0  0.42952575816E+03  0.23557368995E+03  0.37105098164E+03  0.61454681204E+03  0.12699999809E+01 0.  1.
       -4    1    3    3    0  502 -0.42952575816E+03 -0.23557368995E+03 -0.99063625513E+03  0.11051466614E+04  0.12699999809E+01 0. -1.
</event>
<event>
 5   0  0.9844690E-04  0.1611219E+04  0.7818609E-02  0.8813686E-01
       -2   -1    0    0    0  501  0.00000000000E+00  0.00000000000E+00  0.29454898369E+03  0.29454898370E+03  0.25500000920E-02 0. -1.
        2   -1    0    0  501    0  0.00000000000E+00  0.00000000000E+00 -0.22033899347E+04  0.22033899347E+04  0.25500000920E-02 0.  1.
    10030    2    1    2    0    0  0.00000000000E+00  0.00000000000E+00 -0.19088409510E+04  0.24979389184E+04  0.16112185028E+04 0.  0.
        3    1    3    3  502    0 -0.71661923284E+03  0.26721056354E+03 -0.56202280618E+03  0.94911235110E+03  0.10100000352E+00 0.  1.
       -3    1    3    3    0  502  0.71661923284E+03 -0.26721056354E+03 -0.13468181448E+04  0.15488265673E+04  0.10100000352E+00 0. -1.
</event>
<event>
 5   0  0.1057872E-03  0.1605889E+04  0.7818609E-02  0.8816938E-01
        2   -1    0    0  501    0  0.00000000000E+00  0.00000000000E+00  0.14612302038E+04  0.14612302038E+04  0.25500000920E-02 0. -1.
       -2   -1    0    0    0  501  0.00000000000E+00  0.00000000000E+00 -0.44121735684E+03  0.44121735684E+03  0.25500000920E-02 0.  1.
    10030    2    1    2    0    0  0.00000000000E+00  0.00000000000E+00  0.10200128470E+04  0.19024475606E+04  0.16058893215E+04 0.  0.
        2    1    3    3  502    0 -0.61625859296E+03 -0.26466698958E+03  0.10330037935E+04  0.12316331053E+04  0.25500000920E-02 0. -1.
       -2    1    3    3    0  502  0.61625859296E+03  0.26466698958E+03 -0.12990946528E+02  0.67081445532E+03  0.25500000920E-02 0.  1.
</event>
<event>
 5   0  0.5425525E-04  0.1630554E+04  0.7818609E-02  0.8801994E-01
       -1   -1    0    0    0  501  0.00000000000E+00  0.00000000000E+00  0.12807204449E+04  0.12807204449E+04  0.50400001928E-02 0. -1.
        1   -1    0    0  501    0  0.00000000000E+00  0.00000000000E+00 -0.51898640217E+03  0.51898640219E+03  0.50400001928E-02 0.  1.
    10030    2    1    2    0    0  0.00000000000E+00  0.00000000000E+00  0.76173404269E+03  0.17997068471E+04  0.16305538886E+04 0.  0.
        5    1    3    3  502    0 -0.75114486383E+02  0.24655928395E+02  0.12764646674E+04  0.12789191678E+04  0.46999998093E+01 0. -1.
       -5    1    3    3    0  502  0.75114486383E+02 -0.24655928395E+02 -0.51473062466E+03  0.52078767922E+03  0.46999998093E+01 0.  1.
</event>
<event>
 5   0  0.5288658E-04  0.1566440E+04  0.7818609E-02  0.8841435E-01
       -1   -1    0    0    0  501  0.00000000000E+00  0.00000000000E+00  0.47658416799E+03  0.47658416802E+03  0.50400001928E-02 0. -1.
        1   -1    0    0  501    0  0.00000000000E+00  0.00000000000E+00 -0.12871455496E+04  0.12871455496E+04  0.50400001928E-02 0.  1.
    10030    2    1    2    0    0  0.00000000000E+00  0.00000000000E+00 -0.81056138161E+03  0.17637297176E+04  0.15664395180E+04 0.  0.
        1    1    3    3  502    0  0.63713340206E+02  0.67288084971E+03 -0.85085633109E+03  0.10866390955E+04  0.50400001928E-02 0.  1.
       -1    1    3    3    0  502 -0.63713340206E+02 -0.67288084971E+03  0.40294949482E+02  0.67709062216E+03  0.50400001928E-02 0. -1.
</event>
<event>
 5   0  0.1000121E-03  0.1612893E+04  0.7818609E-02  0.8812666E-01
       -2   -1    0    0    0  501  0.00000000000E+00  0.00000000000E+00  0.52558800251E+03  0.52558800251E+03  0.25500000920E-02 0. -1.
        2   -1    0    0  501    0  0.00000000000E+00  0.00000000000E+00 -0.12373878109E+04  0.12373878109E+04  0.25500000920E-02 0.  1.
    10030    2    1    2    0    0  0.00000000000E+00  0.00000000000E+00 -0.71179980839E+03  0.17629758134E+04  0.16128932858E+04 0.  0.
        4    1    3    3  502    0 -0.23834900579E+03  0.77033603307E+03 -0.36820450898E+03  0.88645587919E+03  0.12699999809E+01 0.  1.
       -4    1    3    3    0  502  0.23834900579E+03 -0.77033603307E+03 -0.34359529941E+03  0.87651993422E+03  0.12699999809E+01 0. -1.
</event>
<event>
 5   0  0.1000121E-03  0.1635102E+04  0.7818609E-02  0.8799269E-01
        2   -1    0    0  501    0  0.00000000000E+00  0.00000000000E+00  0.78960820647E+03  0.78960820648E+03  0.25500000920E-02 0. -1.
       -2   -1    0    0    0  501  0.00000000000E+00  0.00000000000E+00 -0.84648303944E+03  0.84648303944E+03  0.25500000920E-02 0.  1.
    10030    2    1    2    0    0  0.00000000000E+00  0.00000000000E+00 -0.56874832967E+02  0.16360912459E+04  0.16351023877E+04 0.  0.
        4    1    3    3  502    0  0.28914428574E+03  0.51708072834E+03 -0.59217093596E+03  0.83764248214E+03  0.12699999809E+01 0.  1.
       -4    1    3    3    0  502 -0.28914428574E+03 -0.51708072834E+03  0.53529610299E+03  0.79844876377E+03  0.12699999809E+01 0. -1.
</event>
<event>
 5   0  0.1037321E-03  0.1538005E+04  0.7818609E-02  0.8859566E-01
        2   -1    0    0  501    0  0.00000000000E+00  0.00000000000E+00  0.14751206059E+04  0.14751206059E+04  0.25500000920E-02 0.  1.
       -2   -1    0    0    0  501  0.00000000000E+00  0.00000000000E+00 -0.40089267340E+03  0.40089267341E+03  0.25500000920E-02 0. -1.
    10030    2    1    2    0    0  0.00000000000E+00  0.00000000000E+00  0.10742279325E+04  0.18760132793E+04  0.15380052578E+04 0.  0.
        5    1    3    3  502    0  0.58143980568E+03  0.20916982983E+03  0.10954420469E+04  0.12577120631E+04  0.46999998093E+01 0.  1.
       -5    1    3    3    0  502 -0.58143980568E+03 -0.20916982983E+03 -0.21214114478E+02  0.61830121623E+03  0.46999998093E+01 0. -1.
</event>
<event>
 5   0  0.9844690E-04  0.1594147E+04  0.7818609E-02  0.8824152E-01
        2   -1    0    0  501    0  0.00000000000E+00  0.00000000000E+00  0.14164535833E+04  0.14164535833E+04  0.25500000920E-02 0. -1.
       -2   -1    0    0    0  501  0.00000000000E+00  0.00000000000E+00 -0.44853288213E+03  0.44853288214E+03  0.25500000920E-02 0.  1.
    10030    2    1    2    0    0  0.00000000000E+00  0.00000000000E+00  0.96792070118E+03  0.18649864654E+04  0.15941468039E+04 0.  0.
        3    1    3    3  502    0  0.34089644411E+02  0.58186367600E+03 -0.15210029568E+03  0.60238023827E+03  0.10100000352E+00 0.  1.
       -3    1    3    3    0  502 -0.34089644411E+02 -0.58186367600E+03  0.11200209969E+04  0.12626062272E+04  0.10100000352E+00 0. -1.
</event>
<event>
 5   0  0.1000121E-03  0.1589677E+04  0.7818609E-02  0.8826915E-01
        2   -1    0    0  501    0  0.00000000000E+00  0.00000000000E+00  0.14548338327E+04  0.14548338327E+04  0.25500000920E-02 0.  1.
       -2   -1    0    0    0  501  0.00000000000E+00  0.00000000000E+00 -0.43425456978E+03  0.43425456979E+03  0.25500000920E-02 0. -1.
    10030    2    1    2    0    0  0.00000000000E+00  0.00000000000E+00  0.10205792629E+04  0.18890884025E+04  0.15896769988E+04 0.  0.
        4    1    3    3  502    0  0.79418320586E+03  0.16712238927E+01  0.47202429857E+03  0.92387137027E+03  0.12699999809E+01 0.  1.
       -4    1    3    3    0  502 -0.79418320586E+03 -0.16712238927E+01  0.54855496432E+03  0.96521703219E+03  0.12699999809E+01 0. -1.
</event>
<event>
 5   0  0.5425525E-04  0.1478479E+04  0.7818609E-02  0.8898891E-01
       -1   -1    0    0    0  501  0.00000000000E+00  0.00000000000E+00  0.12090336351E+04  0.12090336351E+04  0.50400001928E-02 0. -1.
        1   -1    0    0  501    0  0.00000000000E+00  0.00000000000E+00 -0.45199335118E+03  0.45199335120E+03  0.50400001928E-02 0.  1.
    10030    2    1    2    0    0  0.00000000000E+00  0.00000000000E+00  0.75704028390E+03  0.16610269863E+04  0.14784791705E+04 0.  0.
        5    1    3    3  502    0  0.63538768161E+03 -0.37435954961E+03  0.43570130055E+03  0.85657474374E+03  0.46999998093E+01 0. -1.
       -5    1    3    3    0  502 -0.63538768161E+03  0.37435954961E+03  0.32133898335E+03  0.80445224255E+03  0.46999998093E+01 0.  1.
</event>
<event>
 5   0  0.5281116E-04  0.1589440E+04  0.7818609E-02  0.8827062E-01
       -1   -1    0    0    0  501  0.00000000000E+00  0.00000000000E+00  0.30575520636E+03  0.30575520640E+03  0.50400001928E-02 0. -1.
        1   -1    0    0  501    0  0.00000000000E+00  0.00000000000E+00 -0.20656393782E+04  0.20656393782E+04  0.50400001928E-02 0.  1.
    10030    2    1    2    0    0  0.00000000000E+00  0.00000000000E+00 -0.17598841718E+04  0.23713945846E+04  0.15894401459E+04 0.  0.
        2    1    3    3  502    0 -0.33401403840E+03  0.53060412584E+03 -0.16085267956E+04  0.17264022036E+04  0.25500000920E-02 0.  1.
       -2    1    3    3    0  502  0.33401403840E+03 -0.53060412584E+03 -0.15135737616E+03  0.64499238099E+03  0.25500000920E-02 0. -1.
</event>
<event>
 5   0  0.1000121E-03  0.1619456E+04  0.7818609E-02  0.8808684E-01
        2   -1    0    0  501    0  0.00000000000E+00  0.00000000000E+00  0.10832943792E+04  0.10832943792E+04  0.25500000920E-02 0. -1.
       -2   -1    0    0    0  501  0.00000000000E+00  0.00000000000E+00 -0.60524589398E+03  0.60524589399E+03  0.25500000920E-02 0.  1.
    10030    2    1    2    0    0  0.00000000000E+00  0.00000000000E+00  0.47804848523E+03  0.16885402732E+04  0.16194560506E+04 0.  0.
        4    1    3    3  502    0  0.36538256490E+03 -0.37935670146E+03  0.88027382614E+03  0.10258165272E+04  0.12699999809E+01 0. -1.
       -4    1    3    3    0  502 -0.36538256490E+03  0.37935670146E+03 -0.40222534092E+03  0.66272374595E+03  0.12699999809E+01 0.  1.
</event>
<event>
 5   0  0.9844690E-04  0.1114744E+04  0.7818609E-02  0.9190939E-01
        2   -1    0    0  501    0  0.00000000000E+00  0.00000000000E+00  0.54862765603E+03  0.54862765604E+03  0.25500000920E-02 0. -1.
       -2   -1    0    0    0  501  0.00000000000E+00  0.00000000000E+00 -0.56625583421E+03  0.56625583421E+03  0.25500000920E-02 0.  1.
    10030    2    1    2    0    0  0.00000000000E+00  0.00000000000E+00 -0.17628178172E+02  0.11148834903E+04  0.11147441160E+04 0.  0.
        3    1    3    3  502    0  0.15697673314E+03  0.12747653123E+03 -0.52827448442E+03  0.56565528536E+03  0.10100000352E+00 0.  1.
       -3    1    3    3    0  502 -0.15697673314E+03 -0.12747653123E+03  0.51064630625E+03  0.54922820489E+03  0.10100000352E+00 0. -1.
</event>
<event>
 5   0  0.5425525E-04  0.1643440E+04  0.7818609E-02  0.8794297E-01
        1   -1    0    0  501    0  0.00000000000E+00  0.00000000000E+00  0.86406248740E+03  0.86406248742E+03  0.50400001928E-02 0.  1.
       -1   -1    0    0    0  501  0.00000000000E+00  0.00000000000E+00 -0.78145276503E+03  0.78145276505E+03  0.50400001928E-02 0. -1.
    10030    2    1    2    0    0  0.00000000000E+00  0.00000000000E+00  0.82609722374E+02  0.16455152525E+04  0.16434403183E+04 0.  0.
        5    1    3    3  502    0 -0.10520402081E+03 -0.42039793862E+03 -0.65771669211E+03  0.78766468111E+03  0.46999998093E+01 0. -1.
       -5    1    3    3    0  502  0.10520402081E+03  0.42039793862E+03  0.74032641449E+03  0.85785057135E+03  0.46999998093E+01 0.  1.
</event>
<event>
 5   0  0.1057872E-03  0.1695080E+04  0.7818609E-02  0.8764175E-01
        2   -1    0    0  501    0  0.00000000000E+00  0.00000000000E+00  0.60997292863E+03  0.60997292863E+03  0.25500000920E-02 0.  1.
       -2   -1    0    0    0  501  0.00000000000E+00  0.00000000000E+00 -0.11776332287E+04  0.11776332287E+04  0.25500000920E-02 0. -1.
    10030    2    1    2    0    0  0.00000000000E+00  0.00000000000E+00 -0.56766030006E+03  0.17876061573E+04  0.16950803985E+04 0.  0.
        2    1    3    3  502    0 -0.13011130688E+03  0.81914266086E+03 -0.99954760540E+02  0.83541283518E+03  0.25500000920E-02 0.  1.
       -2    1    3    3    0  502  0.13011130688E+03 -0.81914266086E+03 -0.46770553952E+03  0.95219332214E+03  0.25500000920E-02 0. -1.
</event>
<event>
 5   0  0.1000121E-03  0.1631851E+04  0.7818609E-02  0.8801216E-01
       -2   -1    0    0    0  501  0.00000000000E+00  0.00000000000E+00  0.33459768220E+03  0.33459768221E+03  0.25500000920E-02 0.  1.
        2   -1    0    0  501    0  0.00000000000E+00  0.00000000000E+00 -0.19896558953E+04  0.19896558953E+04  0.25500000920E-02 0. -1.
    10030    2    1    2    0    0  0.00000000000E+00  0.00000000000E+00 -0.16550582131E+04  0.23242535775E+04  0.16318507909E+04 0.  0.
        4    1    3    3  502    0  0.53501314121E+03  0.80497118635E+02 -0.16974214453E+04  0.17815611197E+04  0.12699999809E+01 0. -1.
       -4    1    3    3    0  502 -0.53501314121E+03 -0.80497118635E+02  0.42363232240E+02  0.54269245777E+03  0.12699999809E+01 0.  1.
</event>
<event>
 5   0  0.5288658E-04  0.1611654E+04  0.7818609E-02  0.8813420E-01
        1   -1    0    0  501    0  0.00000000000E+00  0.00000000000E+00  0.17388421470E+04  0.17388421470E+04  0.50400001928E-02 0. -1.
       -1   -1    0    0    0  501  0.00000000000E+00  0.00000000000E+00 -0.37344225551E+03  0.37344225554E+03  0.50400001928E-02 0.  1.
    10030    2    1    2    0    0  0.00000000000E+00  0.00000000000E+00  0.13653998915E+04  0.21122844026E+04  0.16116539745E+04 0.  0.
        1    1    3    3  502    0 -0.16660662664E+03  0.86051057993E+02  0.17098492557E+04  0.17201008778E+04  0.50400001928E-02 0. -1.
       -1    1    3    3    0  502  0.16660662664E+03 -0.86051057993E+02 -0.34444936415E+03  0.39218352479E+03  0.50400001928E-02 0.  1.
</event>
<event>
 5   0  0.1057872E-03  0.1313521E+04  0.7818609E-02  0.9018911E-01
       -2   -1    0    0    0  501  0.00000000000E+00  0.00000000000E+00  0.25331210906E+03  0.25331210908E+03  0.25500000920E-02 0. -1.
        2   -1    0    0  501    0  0.00000000000E+00  0.00000000000E+00 -0.17027793442E+04  0.17027793442E+04  0.25500000920E-02 0.  1.
    10030    2    1    2    0    0  0.00000000000E+00  0.00000000000E+00 -0.14494672352E+04  0.19560914533E+04  0.13135214151E+04 0.  0.
        2    1    3    3  502    0 -0.36526678113E+03 -0.10460280551E+03  0.73026941348E+02  0.38690373801E+03  0.25500000920E-02 0. -1.
       -2    1    3    3    0  502  0.36526678113E+03  0.10460280551E+03 -0.15224941765E+04  0.15691877153E+04  0.25500000920E-02 0.  1.
</event>
<event>
 5   0  0.5425525E-04  0.1599276E+04  0.7818609E-02  0.8820993E-01
       -1   -1    0    0    0  501  0.00000000000E+00  0.00000000000E+00  0.38600902202E+03  0.38600902205E+03  0.50400001928E-02 0. -1.
        1   -1    0    0  501    0  0.00000000000E+00  0.00000000000E+00 -0.16564927705E+04  0.16564927705E+04  0.50400001928E-02 0.  1.
    10030    2    1    2    0    0  0.00000000000E+00  0.00000000000E+00 -0.12704837485E+04  0.20425017926E+04  0.15992762793E+04 0.  0.
        5    1    3    3  502    0  0.52845723480E+03 -0.77556056088E+02 -0.13952397595E+04  0.14939873050E+04  0.46999998093E+01 0.  1.
       -5    1    3    3    0  502 -0.52845723480E+03  0.77556056088E+02  0.12475601101E+03  0.54851448762E+03  0.46999998093E+01 0. -1.
</event>
<event>
 5   0  0.3832500E-04  0.1521626E+04  0.7818609E-02  0.8870198E-01
       -3   -1    0    0    0  501  0.00000000000E+00  0.00000000000E+00  0.95544626081E+03  0.95544626615E+03  0.10100000352E+00 0.  1.
        3   -1    0    0  501    0  0.00000000000E+00  0.00000000000E+00 -0.60582847294E+03  0.60582848135E+03  0.10100000352E+00 0. -1.
    10030    2    1    2    0    0  0.00000000000E+00  0.00000000000E+00  0.34961778788E+03  0.15612747475E+04  0.15216261826E+04 0.  0.
        3    1    3    3  502    0  0.33160511578E+03 -0.12179585083E+03 -0.51657394589E+03  0.62581533527E+03  0.10100000352E+00 0. -1.
       -3    1    3    3    0  502 -0.33160511578E+03  0.12179585083E+03  0.86619173376E+03  0.93545941223E+03  0.10100000352E+00 0.  1.
</event>
<event>
 5   0  0.5288658E-04  0.1594601E+04  0.7818609E-02  0.8823872E-01
       -1   -1    0    0    0  501  0.00000000000E+00  0.00000000000E+00  0.78399223002E+03  0.78399223004E+03  0.50400001928E-02 0.  1.
        1   -1    0    0  501    0  0.00000000000E+00  0.00000000000E+00 -0.81083435384E+03  0.81083435385E+03  0.50400001928E-02 0. -1.
    10030    2    1    2    0    0  0.00000000000E+00  0.00000000000E+00 -0.26842123816E+02  0.15948265839E+04  0.15946006814E+04 0.  0.
        1    1    3    3  502    0 -0.18706198203E+03  0.62023306998E+03  0.45140986803E+03  0.78958983985E+03  0.50400001928E-02 0.  1.
       -1    1    3    3    0  502  0.18706198203E+03 -0.62023306998E+03 -0.47825199185E+03  0.80523674404E+03  0.50400001928E-02 0. -1.
</event>
<event>
 5   0  0.1037321E-03  0.1572800E+04  0.7818609E-02  0.8837435E-01
        2   -1    0    0  501    0  0.00000000000E+00  0.00000000000E+00  0.36390883773E+03  0.36390883773E+03  0.25500000920E-02 0.  1.
       -2   -1    0    0    0  501  0.00000000000E+00  0.00000000000E+00 -0.16993945656E+04  0.16993945656E+04  0.25500000920E-02 0. -1.
    10030    2    1    2    0    0  0.00000000000E+00  0.00000000000E+00 -0.13354857279E+04  0.20633034034E+04  0.15727996709E+04 0.  0.
        5    1    3    3  502    0 -0.55519136867E+03  0.48624950637E+03 -0.10239492558E+04  0.12622084641E+04  0.46999998093E+01 0. -1.
       -5    1    3    3    0  502  0.55519136867E+03 -0.48624950637E+03 -0.31153647207E+03  0.80109493927E+03  0.46999998093E+01 0.  1.
</event>
<event>
 5   0  0.5425525E-04  0.1589587E+04  0.7818609E-02  0.8826971E-01
        1   -1    0    0  501    0  0.00000000000E+00  0.00000000000E+00  0.17115980520E+04  0.17115980520E+04  0.50400001928E-02 0.  1.
       -1   -1    0    0    0  501  0.00000000000E+00  0.00000000000E+00 -0.36906837927E+03  0.36906837930E+03  0.50400001928E-02 0. -1.
    10030    2    1    2    0    0  0.00000000000E+00  0.00000000000E+00  0.13425296728E+04  0.20806664313E+04  0.15895870144E+04 0.  0.
        5    1    3    3  502    0  0.58669265610E+03 -0.46140566346E+03  0.10287052327E+04  0.12709681368E+04  0.46999998093E+01 0. -1.
       -5    1    3    3    0  502 -0.58669265610E+03  0.46140566346E+03  0.31382444009E+03  0.80969829455E+03  0.46999998093E+01 0.  1.
</event>
<event>
 5   0  0.9844690E-04  0.1578356E+04  0.7818609E-02  0.8833956E-01
        2   -1    0    0  501    0  0.00000000000E+00  0.00000000000E+00  0.16858067263E+04  0.16858067263E+04  0.25500000920E-02 0.  1.
       -2   -1    0    0    0  501  0.00000000000E+00  0.00000000000E+00 -0.36943853014E+03  0.36943853015E+03  0.25500000920E-02 0. -1.
    10030    2    1    2    0    0  0.00000000000E+00  0.00000000000E+00  0.13163681962E+04  0.20552452564E+04  0.15783560550E+04 0.  0.
        3    1    3    3  502    0 -0.77183429135E+03 -0.12541973215E+03  0.79687098386E+03  0.11164504725E+04  0.10100000352E+00 0. -1.
       -3    1    3    3    0  502  0.77183429135E+03  0.12541973215E+03  0.51949721229E+03  0.93879478391E+03  0.10100000352E+00 0.  1.
</event>
<event>
 5   0  0.5288658E-04  0.1601600E+04  0.7818609E-02  0.8819565E-01
       -1   -1    0    0    0  501  0.00000000000E+00  0.00000000000E+00  0.51352885006E+03  0.51352885008E+03  0.50400001928E-02 0.  1.
        1   -1    0    0  501    0  0.00000000000E+00  0.00000000000E+00 -0.12487730013E+04  0.12487730013E+04  0.50400001928E-02 0. -1.
    10030    2    1    2    0    0  0.00000000000E+00  0.00000000000E+00 -0.73524415124E+03  0.17623018514E+04  0.16016004038E+04 0.  0.
        1    1    3    3  502    0 -0.23836569262E+03  0.56902743537E+03  0.19416546320E+03  0.64676939689E+03  0.50400001928E-02 0.  1.
       -1    1    3    3    0  502  0.23836569262E+03 -0.56902743537E+03 -0.92940961444E+03  0.11155324545E+04  0.50400001928E-02 0. -1.
</event>
<event>
 5   0  0.5623061E-04  0.1731405E+04  0.7818609E-02  0.8743653E-01
        1   -1    0    0  501    0  0.00000000000E+00  0.00000000000E+00  0.56841930904E+03  0.56841930907E+03  0.50400001928E-02 0.  1.
       -1   -1    0    0    0  501  0.00000000000E+00  0.00000000000E+00 -0.13184641948E+04  0.13184641948E+04  0.50400001928E-02 0. -1.
    10030    2    1    2    0    0  0.00000000000E+00  0.00000000000E+00 -0.75004488573E+03  0.18868835038E+04  0.17314046397E+04 0.  0.
        3    1    3    3  502    0  0.59791162929E+03  0.49723281703E+03 -0.78957856756E+03  0.11082297214E+04  0.10100000352E+00 0. -1.
       -3    1    3    3    0  502 -0.59791162929E+03 -0.49723281703E+03  0.39533681834E+02  0.77865378248E+03  0.10100000352E+00 0.  1.
</event>
<event>
 5   0  0.9844690E-04  0.1579455E+04  0.7818609E-02  0.8833270E-01
        2   -1    0    0  501    0  0.00000000000E+00  0.00000000000E+00  0.86228242177E+03  0.86228242178E+03  0.25500000920E-02 0.  1.
       -2   -1    0    0    0  501  0.00000000000E+00  0.00000000000E+00 -0.72327723831E+03  0.72327723832E+03  0.25500000920E-02 0. -1.
    10030    2    1    2    0    0  0.00000000000E+00  0.00000000000E+00  0.13900518346E+03  0.15855596601E+04  0.15794546510E+04 0.  0.
        3    1    3    3  502    0  0.21806757359E+02 -0.54876830697E+03 -0.50018280760E+03  0.74283581000E+03  0.10100000352E+00 0. -1.
       -3    1    3    3    0  502 -0.21806757359E+02  0.54876830697E+03  0.63918799106E+03  0.84272385009E+03  0.10100000352E+00 0.  1.
</event>
<event>
 5   0  0.1037321E-03  0.1567019E+04  0.7818609E-02  0.8841070E-01
        2   -1    0    0  501    0  0.00000000000E+00  0.00000000000E+00  0.24932131110E+04  0.24932131110E+04  0.25500000920E-02 0. -1.
       -2   -1    0    0    0  501  0.00000000000E+00  0.00000000000E+00 -0.24622332940E+03  0.24622332941E+03  0.25500000920E-02 0.  1.
    10030    2    1    2    0    0  0.00000000000E+00  0.00000000000E+00  0.22469897816E+04  0.27394364404E+04  0.15670191232E+04 0.  0.
        5    1    3    3  502    0 -0.59354287692E+03  0.30416429232E+03  0.18422853913E+04  0.19592974804E+04  0.46999998093E+01 0. -1.
       -5    1    3    3    0  502  0.59354287692E+03 -0.30416429232E+03  0.40470439027E+03  0.78013896004E+03  0.46999998093E+01 0.  1.
</event>
<event>
 5   0  0.1037321E-03  0.1610209E+04  0.7818609E-02  0.8814301E-01
       -2   -1    0    0    0  501  0.00000000000E+00  0.00000000000E+00  0.34367655508E+03  0.34367655509E+03  0.25500000920E-02 0.  1.
        2   -1    0    0  501    0  0.00000000000E+00  0.00000000000E+00 -0.18860557028E+04  0.18860557028E+04  0.25500000920E-02 0. -1.
    10030    2    1    2    0    0  0.00000000000E+00  0.00000000000E+00 -0.15423791477E+04  0.22297322579E+04  0.16102088394E+04 0.  0.
        5    1    3    3  502    0 -0.28425326271E+03  0.74192572840E+03 -0.59108014158E+03  0.99027851011E+03  0.46999998093E+01 0.  1.
       -5    1    3    3    0  502  0.28425326271E+03 -0.74192572840E+03 -0.95129900614E+03  0.12394537478E+04  0.46999998093E+01 0. -1.
</event>
<event>
 5   0  0.5532881E-04  0.1630165E+04  0.7818609E-02  0.8802228E-01
        1   -1    0    0  501    0  0.00000000000E+00  0.00000000000E+00  0.72931043233E+03  0.72931043234E+03  0.50400001928E-02 0. -1.
       -1   -1    0    0    0  501  0.00000000000E+00  0.00000000000E+00 -0.91094242265E+03  0.91094242266E+03  0.50400001928E-02 0.  1.
    10030    2    1    2    0    0  0.00000000000E+00  0.00000000000E+00 -0.18163199032E+03  0.16402528550E+04  0.16301654052E+04 0.  0.
        4    1    3    3  502    0  0.32390193323E+02 -0.72735611607E+03 -0.45950139254E+03  0.86095248815E+03  0.12699999809E+01 0.  1.
       -4    1    3    3    0  502 -0.32390193323E+02  0.72735611607E+03  0.27786940222E+03  0.77930036686E+03  0.12699999809E+01 0. -1.
</event>
<event>
 5   0  0.5425525E-04  0.1622765E+04  0.7818609E-02  0.8806683E-01
        1   -1    0    0  501    0  0.00000000000E+00  0.00000000000E+00  0.27518713437E+04  0.27518713437E+04  0.50400001928E-02 0.  1.
       -1   -1    0    0    0  501  0.00000000000E+00  0.00000000000E+00 -0.23923411725E+03  0.23923411731E+03  0.50400001928E-02 0. -1.
    10030    2    1    2    0    0  0.00000000000E+00  0.00000000000E+00  0.25126372265E+04  0.29911054610E+04  0.16227649390E+04 0.  0.
        5    1    3    3  502    0  0.80306147439E+03  0.22698596562E+02  0.14656389538E+04  0.16713894193E+04  0.46999998093E+01 0.  1.
       -5    1    3    3    0  502 -0.80306147439E+03 -0.22698596562E+02  0.10469982727E+04  0.13197160418E+04  0.46999998093E+01 0. -1.
</event>
<event>
 5   0  0.5281116E-04  0.1600489E+04  0.7818609E-02  0.8820248E-01
       -1   -1    0    0    0  501  0.00000000000E+00  0.00000000000E+00  0.62347636163E+03  0.62347636165E+03  0.50400001928E-02 0.  1.
        1   -1    0    0  501    0  0.00000000000E+00  0.00000000000E+00 -0.10271301196E+04  0.10271301197E+04  0.50400001928E-02 0. -1.
    10030    2    1    2    0    0  0.00000000000E+00  0.00000000000E+00 -0.40365375802E+03  0.16506064813E+04  0.16004891127E+04 0.  0.
        2    1    3    3  502    0  0.79986924451E+03 -0.52628981213E+01 -0.22651049757E+03  0.83133958881E+03  0.25500000920E-02 0.  1.
       -2    1    3    3    0  502 -0.79986924451E+03  0.52628981213E+01 -0.17714326045E+03  0.81926689249E+03  0.25500000920E-02 0. -1.
</event>
<event>
 5   0  0.5288658E-04  0.1612734E+04  0.7818609E-02  0.8812763E-01
        1   -1    0    0  501    0  0.00000000000E+00  0.00000000000E+00  0.79214668213E+03  0.79214668215E+03  0.50400001928E-02 0.  1.
       -1   -1    0    0    0  501  0.00000000000E+00  0.00000000000E+00 -0.82084261030E+03  0.82084261032E+03  0.50400001928E-02 0. -1.
    10030    2    1    2    0    0  0.00000000000E+00  0.00000000000E+00 -0.28695928172E+02  0.16129892925E+04  0.16127340144E+04 0.  0.
        1    1    3    3  502    0  0.80171445716E+02  0.28116205210E+03  0.73726828842E+03  0.79312299764E+03  0.50400001928E-02 0.  1.
       -1    1    3    3    0  502 -0.80171445716E+02 -0.28116205210E+03 -0.76596421660E+03  0.81986629482E+03  0.50400001928E-02 0. -1.
</event>
<event>
 5   0  0.5532881E-04  0.1630764E+04  0.7818609E-02  0.8801868E-01
       -1   -1    0    0    0  501  0.00000000000E+00  0.00000000000E+00  0.12936005227E+04  0.12936005227E+04  0.50400001928E-02 0.  1.
        1   -1    0    0  501    0  0.00000000000E+00  0.00000000000E+00 -0.51395119428E+03  0.51395119430E+03  0.50400001928E-02 0. -1.
    10030    2    1    2    0    0  0.00000000000E+00  0.00000000000E+00  0.77964932839E+03  0.18075517170E+04  0.16307636660E+04 0.  0.
        4    1    3    3  502    0  0.62914618095E+03 -0.78908581514E+02 -0.17838392083E+03  0.65869106366E+03  0.12699999809E+01 0. -1.
       -4    1    3    3    0  502 -0.62914618095E+03  0.78908581514E+02  0.95803324922E+03  0.11488606533E+04  0.12699999809E+01 0.  1.
</event>
<event>
 5   0  0.9844690E-04  0.1945354E+04  0.7818609E-02  0.8632604E-01
       -2   -1    0    0    0  501  0.00000000000E+00  0.00000000000E+00  0.61042574461E+03  0.61042574462E+03  0.25500000920E-02 0.  1.
        2   -1    0    0  501    0  0.00000000000E+00  0.00000000000E+00 -0.15499024448E+04  0.15499024448E+04  0.25500000920E-02 0. -1.
    10030    2    1    2    0    0  0.00000000000E+00  0.00000000000E+00 -0.93947670022E+03  0.21603281895E+04  0.19453538022E+04 0.  0.
        3    1    3    3  502    0  0.21971196628E+03  0.86134396860E+02  0.57815148445E+03  0.62446107294E+03  0.10100000352E+00 0.  1.
       -3    1    3    3    0  502 -0.21971196628E+03 -0.86134396860E+02 -0.15176281847E+04  0.15358671165E+04  0.10100000352E+00 0. -1.
</event>
<event>
 5   0  0.1037321E-03  0.1597138E+04  0.7818609E-02  0.8822308E-01
        2   -1    0    0  501    0  0.00000000000E+00  0.00000000000E+00  0.12329440987E+04  0.12329440987E+04  0.25500000920E-02 0. -1.
       -2   -1    0    0    0  501  0.00000000000E+00  0.00000000000E+00 -0.51722724578E+03  0.51722724578E+03  0.25500000920E-02 0.  1.
    10030    2    1    2    0    0  0.00000000000E+00  0.00000000000E+00  0.71571685292E+03  0.17501713445E+04  0.15971377904E+04 0.  0.
        5    1    3    3  502    0  0.53573073130E+03  0.50758718937E+03  0.23610739437E+02  0.73839808254E+03  0.46999998093E+01 0. -1.
       -5    1    3    3    0  502 -0.53573073130E+03 -0.50758718937E+03  0.69210611349E+03  0.10117732620E+04  0.46999998093E+01 0.  1.
</event>
<event>
 5   0  0.1037321E-03  0.1574000E+04  0.7818609E-02  0.8836682E-01
       -2   -1    0    0    0  501  0.00000000000E+00  0.00000000000E+00  0.26833065385E+03  0.26833065386E+03  0.25500000920E-02 0. -1.
        2   -1    0    0  501    0  0.00000000000E+00  0.00000000000E+00 -0.23082304655E+04  0.23082304655E+04  0.25500000920E-02 0.  1.
    10030    2    1    2    0    0  0.00000000000E+00  0.00000000000E+00 -0.20398998117E+04  0.25765611194E+04  0.15739999874E+04 0.  0.
        5    1    3    3  502    0  0.41118057178E+03  0.44341454235E+03 -0.19550325457E+03  0.63555450712E+03  0.46999998093E+01 0. -1.
       -5    1    3    3    0  502 -0.41118057178E+03 -0.44341454235E+03 -0.18443965571E+04  0.19410066122E+04  0.46999998093E+01 0.  1.
</event>
<event>
 5   0  0.5288658E-04  0.1632790E+04  0.7818609E-02  0.8800653E-01
        1   -1    0    0  501    0  0.00000000000E+00  0.00000000000E+00  0.63072767517E+03  0.63072767519E+03  0.50400001928E-02 0.  1.
       -1   -1    0    0    0  501  0.00000000000E+00  0.00000000000E+00 -0.10567174061E+04  0.10567174061E+04  0.50400001928E-02 0. -1.
    10030    2    1    2    0    0  0.00000000000E+00  0.00000000000E+00 -0.42598973088E+03  0.16874450813E+04  0.16327901431E+04 0.  0.
        1    1    3    3  502    0 -0.34203290859E+03  0.65846372451E+03  0.13890231449E+03  0.75488730288E+03  0.50400001928E-02 0.  1.
       -1    1    3    3    0  502  0.34203290859E+03 -0.65846372451E+03 -0.56489204537E+03  0.93255777837E+03  0.50400001928E-02 0. -1.
</event>
<event>
 5   0  0.1030027E-03  0.1615439E+04  0.7818609E-02  0.8811119E-01
        2   -1    0    0  501    0  0.00000000000E+00  0.00000000000E+00  0.95701270688E+03  0.95701270688E+03  0.25500000920E-02 0.  1.
       -2   -1    0    0    0  501  0.00000000000E+00  0.00000000000E+00 -0.68171563623E+03  0.68171563624E+03  0.25500000920E-02 0. -1.
    10030    2    1    2    0    0  0.00000000000E+00  0.00000000000E+00  0.27529707065E+03  0.16387283431E+04  0.16154386728E+04 0.  0.
        1    1    3    3  502    0 -0.33017676568E+03  0.29378612219E+02 -0.60953735089E+03  0.69384117895E+03  0.50400001928E-02 0. -1.
       -1    1    3    3    0  502  0.33017676568E+03 -0.29378612219E+02  0.88483442153E+03  0.94488716417E+03  0.50400001928E-02 0.  1.
</event>
<event>
 5   0  0.1030027E-03  0.1652017E+04  0.7818609E-02  0.8789214E-01
       -2   -1    0    0    0  501  0.00000000000E+00  0.00000000000E+00  0.61700375714E+03  0.61700375715E+03  0.25500000920E-02 0. -1.
        2   -1    0    0  501    0  0.00000000000E+00  0.00000000000E+00 -0.11058123557E+04  0.11058123557E+04  0.25500000920E-02 0.  1.
    10030    2    1    2    0    0  0.00000000000E+00  0.00000000000E+00 -0.48880859855E+03  0.17228161128E+04  0.16520174069E+04 0.  0.
        1    1    3    3  502    0 -0.66966706846E+03 -0.47421999411E+03 -0.14573561990E+03  0.83341313664E+03  0.50400001928E-02 0.  1.
       -1    1    3    3    0  502  0.66966706846E+03  0.47421999411E+03 -0.34307297866E+03  0.88940297621E+03  0.50400001928E-02 0. -1.
</event>
<event>
 5   0  0.5623061E-04  0.1608352E+04  0.7818609E-02  0.8815433E-01
       -1   -1    0    0    0  501  0.00000000000E+00  0.00000000000E+00  0.74949605887E+03  0.74949605889E+03  0.50400001928E-02 0. -1.
        1   -1    0    0  501    0  0.00000000000E+00  0.00000000000E+00 -0.86284548337E+03  0.86284548338E+03  0.50400001928E-02 0.  1.
    10030    2    1    2    0    0  0.00000000000E+00  0.00000000000E+00 -0.11334942450E+03  0.16123415423E+04  0.16083523112E+04 0.  0.
        3    1    3    3  502    0  0.64003322025E+03 -0.16570321846E+02 -0.54448433604E+03  0.84046433653E+03  0.10100000352E+00 0.  1.
       -3    1    3    3    0  502 -0.64003322025E+03  0.16570321846E+02  0.43113491154E+03  0.77187720574E+03  0.10100000352E+00 0. -1.
</event>
<event>
 5   0  0.1000121E-03  0.1567309E+04  0.7818609E-02  0.8840887E-01
        2   -1    0    0  501    0  0.00000000000E+00  0.00000000000E+00  0.18100508471E+04  0.18100508471E+04  0.25500000920E-02 0.  1.
       -2   -1    0    0    0  501  0.00000000000E+00  0.00000000000E+00 -0.33928005164E+03  0.33928005165E+03  0.25500000920E-02 0. -1.
    10030    2    1    2    0    0  0.00000000000E+00  0.00000000000E+00  0.14707707954E+04  0.21493308987E+04  0.15673087059E+04 0.  0.
        4    1    3    3  502    0  0.49610158121E+03  0.46818194955E+03  0.20638954522E+03  0.71267760877E+03  0.12699999809E+01 0. -1.
       -4    1    3    3    0  502 -0.49610158121E+03 -0.46818194955E+03  0.12643812502E+04  0.14366532899E+04  0.12699999809E+01 0.  1.
</event>
<event>
 5   0  0.5281116E-04  0.1516717E+04  0.7818609E-02  0.8873412E-01
        1   -1    0    0  501    0  0.00000000000E+00  0.00000000000E+00  0.53976241457E+03  0.53976241459E+03  0.50400001928E-02 0.  1.
       -1   -1    0    0    0  501  0.00000000000E+00  0.00000000000E+00 -0.10654826928E+04  0.10654826928E+04  0.50400001928E-02 0. -1.
    10030    2    1    2    0    0  0.00000000000E+00  0.00000000000E+00 -0.52572027818E+03  0.16052451074E+04  0.15167168634E+04 0.  0.
        2    1    3    3  502    0  0.32855090959E+03 -0.32458822095E+02 -0.98543064047E+03  0.10392655207E+04  0.25500000920E-02 0. -1.
       -2    1    3    3    0  502 -0.32855090959E+03  0.32458822095E+02  0.45971036229E+03  0.56597958667E+03  0.25500000920E-02 0.  1.
</event>
<event>
 5   0  0.1057872E-03  0.1584569E+04  0.7818609E-02  0.8830084E-01
       -2   -1    0    0    0  501  0.00000000000E+00  0.00000000000E+00  0.98344236286E+03  0.98344236287E+03  0.25500000920E-02 0.  1.
        2   -1    0    0  501    0  0.00000000000E+00  0.00000000000E+00 -0.63828317011E+03  0.63828317012E+03  0.25500000920E-02 0. -1.
    10030    2    1    2    0    0  0.00000000000E+00  0.00000000000E+00  0.34515919275E+03  0.16217255330E+04  0.15845689748E+04 0.  0.
        2    1    3    3  502    0 -0.24340635307E+03 -0.39790645061E+03  0.82801739351E+03  0.95036256245E+03  0.25500000920E-02 0.  1.
       -2    1    3    3    0  502  0.24340635307E+03  0.39790645061E+03 -0.48285820076E+03  0.67136297053E+03  0.25500000920E-02 0. -1.
</event>
<event>
 5   0  0.5288658E-04  0.1590264E+04  0.7818609E-02  0.8826551E-01
       -1   -1    0    0    0  501  0.00000000000E+00  0.00000000000E+00  0.58540753303E+03  0.58540753305E+03  0.50400001928E-02 0. -1.
        1   -1    0    0  501    0  0.00000000000E+00  0.00000000000E+00 -0.10799913073E+04  0.10799913074E+04  0.50400001928E-02 0.  1.
    10030    2    1    2    0    0  0.00000000000E+00  0.00000000000E+00 -0.49458377432E+03  0.16653988404E+04  0.15902641881E+04 0.  0.
        1    1    3    3  502    0 -0.79103735648E+03 -0.80069004729E+02 -0.25688446433E+03  0.83554818706E+03  0.50400001928E-02 0. -1.
       -1    1    3    3    0  502  0.79103735648E+03  0.80069004729E+02 -0.23769930999E+03  0.82985065334E+03  0.50400001928E-02 0.  1.
</event>
<event>
 5   0  0.1057872E-03  0.1589605E+04  0.7818609E-02  0.8826959E-01
       -2   -1    0    0    0  501  0.00000000000E+00  0.00000000000E+00  0.31327714635E+04  0.31327714635E+04  0.25500000920E-02 0. -1.
        2   -1    0    0  501    0  0.00000000000E+00  0.00000000000E+00 -0.20164613874E+03  0.20164613876E+03  0.25500000920E-02 0.  1.
    10030    2    1    2    0    0  0.00000000000E+00  0.00000000000E+00  0.29311253248E+04  0.33344176023E+04  0.15896053211E+04 0.  0.
        2    1    3    3  502    0 -0.52321406369E+03 -0.46694745536E+03  0.68092694004E+03  0.97747346777E+03  0.25500000920E-02 0.  1.
       -2    1    3    3    0  502  0.52321406369E+03  0.46694745536E+03  0.22501983847E+04  0.23569441345E+04  0.25500000920E-02 0. -1.
</event>
<event>
 5   0  0.1037321E-03  0.1618068E+04  0.7818609E-02  0.8809524E-01
       -2   -1    0    0    0  501  0.00000000000E+00  0.00000000000E+00  0.49872106567E+03  0.49872106568E+03  0.25500000920E-02 0.  1.
        2   -1    0    0  501    0  0.00000000000E+00  0.00000000000E+00 -0.13124292593E+04  0.13124292593E+04  0.25500000920E-02 0. -1.
    10030    2    1    2    0    0  0.00000000000E+00  0.00000000000E+00 -0.81370819359E+03  0.18111503249E+04  0.16180681306E+04 0.  0.
        5    1    3    3  502    0  0.11518523942E+03  0.75366413452E+03 -0.10393806381E+03  0.76948195440E+03  0.46999998093E+01 0.  1.
       -5    1    3    3    0  502 -0.11518523942E+03 -0.75366413452E+03 -0.70977012978E+03  0.10416683705E+04  0.46999998093E+01 0. -1.
</event>
<event>
 5   0  0.1037321E-03  0.1532377E+04  0.7818609E-02  0.8863204E-01
       -2   -1    0    0    0  501  0.00000000000E+00  0.00000000000E+00  0.74345577301E+03  0.74345577302E+03  0.25500000920E-02 0. -1.
        2   -1    0    0  501    0  0.00000000000E+00  0.00000000000E+00 -0.78961588571E+03  0.78961588572E+03  0.25500000920E-02 0.  1.
    10030    2    1    2    0    0  0.00000000000E+00  0.00000000000E+00 -0.46160112700E+02  0.15330716587E+04  0.15323765708E+04 0.  0.
        5    1    3    3  502    0 -0.50684957138E+03 -0.31496956919E+02 -0.59704217284E+03  0.78381757600E+03  0.46999998093E+01 0.  1.
       -5    1    3    3    0  502  0.50684957138E+03  0.31496956919E+02  0.55088206014E+03  0.74925408273E+03  0.46999998093E+01 0. -1.
</event>
<event>
 5   0  0.1037321E-03  0.1553792E+04  0.7818609E-02  0.8849449E-01
       -2   -1    0    0    0  501  0.00000000000E+00  0.00000000000E+00  0.52376482897E+03  0.52376482898E+03  0.25500000920E-02 0. -1.
        2   -1    0    0  501    0  0.00000000000E+00  0.00000000000E+00 -0.11523637548E+04  0.11523637548E+04  0.25500000920E-02 0.  1.
    10030    2    1    2    0    0  0.00000000000E+00  0.00000000000E+00 -0.62859892579E+03  0.16761285837E+04  0.15537922705E+04 0.  0.
        5    1    3    3  502    0 -0.34670547477E+03  0.59922882017E+03 -0.69456758782E+03  0.98067634273E+03  0.46999998093E+01 0.  1.
       -5    1    3    3    0  502  0.34670547477E+03 -0.59922882017E+03  0.65968662028E+02  0.69545224101E+03  0.46999998093E+01 0. -1.
</event>
<event>
 5   0  0.5288658E-04  0.1570866E+04  0.7818609E-02  0.8838649E-01
       -1   -1    0    0    0  501  0.00000000000E+00  0.00000000000E+00  0.94979352196E+03  0.94979352198E+03  0.50400001928E-02 0. -1.
        1   -1    0    0  501    0  0.00000000000E+00  0.00000000000E+00 -0.64951493989E+03  0.64951493991E+03  0.50400001928E-02 0.  1.
    10030    2    1    2    0    0  0.00000000000E+00  0.00000000000E+00  0.30027858208E+03  0.15993084619E+04  0.15708661080E+04 0.  0.
        1    1    3    3  502    0 -0.12760398546E+03 -0.75540618246E+03  0.32643284610E+03  0.83275427387E+03  0.50400001928E-02 0.  1.
       -1    1    3    3    0  502  0.12760398546E+03  0.75540618246E+03 -0.26154264024E+02  0.76655418801E+03  0.50400001928E-02 0. -1.
</event>
<event>
 5   0  0.5288658E-04  0.1597253E+04  0.7818609E-02  0.8822237E-01
       -1   -1    0    0    0  501  0.00000000000E+00  0.00000000000E+00  0.94542184200E+03  0.94542184202E+03  0.50400001928E-02 0. -1.
        1   -1    0    0  501    0  0.00000000000E+00  0.00000000000E+00 -0.67462386491E+03  0.67462386493E+03  0.50400001928E-02 0.  1.
    10030    2    1    2    0    0  0.00000000000E+00  0.00000000000E+00  0.27079797709E+03  0.16200457070E+04  0.15972528129E+04 0.  0.
        1    1    3    3  502    0  0.38084257419E+03  0.51877719825E+03  0.61504609825E+03  0.89019804018E+03  0.50400001928E-02 0. -1.
       -1    1    3    3    0  502 -0.38084257419E+03 -0.51877719825E+03 -0.34424812116E+03  0.72984766677E+03  0.50400001928E-02 0.  1.
</event>
<event>
 5   0  0.5623061E-04  0.1121885E+04  0.7818609E-02  0.9184120E-01
       -1   -1    0    0    0  501  0.00000000000E+00  0.00000000000E+00  0.72912543142E+03  0.72912543144E+03  0.50400001928E-02 0. -1.
        1   -1    0    0  501    0  0.00000000000E+00  0.00000000000E+00 -0.43155321153E+03  0.43155321156E+03  0.50400001928E-02 0.  1.
    10030    2    1    2    0    0  0.00000000000E+00  0.00000000000E+00  0.29757221989E+03  0.11606786430E+04  0.11218848810E+04 0.  0.
        3    1    3    3  502    0 -0.40890561651E+03  0.37043879925E+03  0.25341527910E+03  0.60716391616E+03  0.10100000352E+00 0.  1.
       -3    1    3    3    0  502  0.40890561651E+03 -0.37043879925E+03  0.44156940788E+02  0.55351472684E+03  0.10100000352E+00 0. -1.
</event>
<event>
 5   0  0.1030027E-03  0.1560028E+04  0.7818609E-02  0.8845488E-01
       -2   -1    0    0    0  501  0.00000000000E+00  0.00000000000E+00  0.60902885699E+03  0.60902885700E+03  0.25500000920E-02 0. -1.
        2   -1    0    0  501    0  0.00000000000E+00  0.00000000000E+00 -0.99900292735E+03  0.99900292735E+03  0.25500000920E-02 0.  1.
    10030    2    1    2    0    0  0.00000000000E+00  0.00000000000E+00 -0.38997407036E+03  0.16080317843E+04  0.15600277061E+04 0.  0.
        1    1    3    3  502    0 -0.14779524861E+03  0.56520221871E+03  0.33775784162E+03  0.67481652554E+03  0.50400001928E-02 0. -1.
       -1    1    3    3    0  502  0.14779524861E+03 -0.56520221871E+03 -0.72773191197E+03  0.93321525881E+03  0.50400001928E-02 0.  1.
</event>
<event>
 5   0  0.5425525E-04  0.1579643E+04  0.7818609E-02  0.8833153E-01
       -1   -1    0    0    0  501  0.00000000000E+00  0.00000000000E+00  0.11797903006E+04  0.11797903006E+04  0.50400001928E-02 0.  1.
        1   -1    0    0  501    0  0.00000000000E+00  0.00000000000E+00 -0.52875337886E+03  0.52875337888E+03  0.50400001928E-02 0. -1.
    10030    2    1    2    0    0  0.00000000000E+00  0.00000000000E+00  0.65103692176E+03  0.17085436795E+04  0.15796431342E+04 0.  0.
        5    1    3    3  502    0  0.86338878191E+02  0.78108141209E+03  0.23998683621E+03  0.82168019676E+03  0.46999998093E+01 0.  1.
       -5    1    3    3    0  502 -0.86338878191E+02 -0.78108141209E+03  0.41105008555E+03  0.88686348274E+03  0.46999998093E+01 0. -1.
</event>
<event>
 5   0  0.1030027E-03  0.1691012E+04  0.7818609E-02  0.8766507E-01
        2   -1    0    0  501    0  0.00000000000E+00  0.00000000000E+00  0.10616211455E+04  0.10616211455E+04  0.25500000920E-02 0. -1.
       -2   -1    0    0    0  501  0.00000000000E+00  0.00000000000E+00 -0.67338539531E+03  0.67338539531E+03  0.25500000920E-02 0.  1.
    10030    2    1    2    0    0  0.00000000000E+00  0.00000000000E+00  0.38823575019E+03  0.17350065408E+04  0.16910117383E+04 0.  0.
        1    1    3    3  502    0 -0.33870461925E+03  0.71879676030E+03  0.49058272900E+03  0.93384207216E+03  0.50400001928E-02 0. -1.
       -1    1    3    3    0  502  0.33870461925E+03 -0.71879676030E+03 -0.10234697881E+03  0.80116446864E+03  0.50400001928E-02 0.  1.
</event>
<event>
 5   0  0.9844690E-04  0.1571126E+04  0.7818609E-02  0.8838485E-01
        2   -1    0    0  501    0  0.00000000000E+00  0.00000000000E+00  0.24645333962E+04  0.24645333962E+04  0.25500000920E-02 0.  1.
       -2   -1    0    0    0  501  0.00000000000E+00  0.00000000000E+00 -0.25039602656E+03  0.25039602657E+03  0.25500000920E-02 0. -1.
    10030    2    1    2    0    0  0.00000000000E+00  0.00000000000E+00  0.22141373697E+04  0.27149294228E+04  0.15711261818E+04 0.  0.
        3    1    3    3  502    0 -0.69125447739E+03  0.32560615249E+03  0.14221992902E+04  0.16144667697E+04  0.10100000352E+00 0.  1.
       -3    1    3    3    0  502  0.69125447739E+03 -0.32560615249E+03  0.79193807942E+03  0.11004626531E+04  0.10100000352E+00 0. -1.
</event>
<event>
 5   0  0.1057872E-03  0.1629645E+04  0.7818609E-02  0.8802540E-01
       -2   -1    0    0    0  501  0.00000000000E+00  0.00000000000E+00  0.10661747202E+04  0.10661747202E+04  0.25500000920E-02 0.  1.
        2   -1    0    0  501    0  0.00000000000E+00  0.00000000000E+00 -0.62272664016E+03  0.62272664016E+03  0.25500000920E-02 0. -1.
    10030    2    1    2    0    0  0.00000000000E+00  0.00000000000E+00  0.44344808003E+03  0.16889013604E+04  0.16296446255E+04 0.  0.
        2    1    3    3  502    0  0.62601947542E+03 -0.80899975290E+02  0.75571712577E+03  0.98465911045E+03  0.25500000920E-02 0.  1.
       -2    1    3    3    0  502 -0.62601947542E+03  0.80899975290E+02 -0.31226904575E+03  0.70424224990E+03  0.25500000920E-02 0. -1.
</event>
<event>
 5   0  0.5281116E-04  0.1585104E+04  0.7818609E-02  0.8829752E-01
       -1   -1    0    0    0  501  0.00000000000E+00  0.00000000000E+00  0.12121672230E+04  0.12121672230E+04  0.50400001928E-02 0.  1.
        1   -1    0    0  501    0  0.00000000000E+00  0.00000000000E+00 -0.51819443916E+03  0.51819443918E+03  0.50400001928E-02 0. -1.
    10030    2    1    2    0    0  0.00000000000E+00  0.00000000000E+00  0.69397278383E+03  0.17303616622E+04  0.15851035478E+04 0.  0.
        2    1    3    3  502    0  0.46250813130E+03 -0.64158063784E+03  0.40263675600E+03  0.88749977107E+03  0.25500000920E-02 0.  1.
       -2    1    3    3    0  502 -0.46250813130E+03  0.64158063784E+03  0.29133602782E+03  0.84286189111E+03  0.25500000920E-02 0. -1.
</event>
<event>
 5   0  0.1037321E-03  0.1590125E+04  0.7818609E-02  0.8826637E-01
       -2   -1    0    0    0  501  0.00000000000E+00  0.00000000000E+00  0.11858950742E+04  0.11858950742E+04  0.25500000920E-02 0. -1.
        2   -1    0    0  501    0  0.00000000000E+00  0.00000000000E+00 -0.53303597959E+03  0.53303597960E+03  0.25500000920E-02 0.  1.
    10030    2    1    2    0    0  0.00000000000E+00  0.00000000000E+00  0.65285909462E+03  0.17189310538E+04  0.15901254574E+04 0.  0.
        5    1    3    3  502    0 -0.59600413946E+03 -0.45125333706E+02  0.89315317717E+03  0.10747101553E+04  0.46999998093E+01 0. -1.
       -5    1    3    3    0  502  0.59600413946E+03  0.45125333706E+02 -0.24029408255E+03  0.64422089853E+03  0.46999998093E+01 0.  1.
</event>
<event>
 5   0  0.3832500E-04  0.1561655E+04  0.7818609E-02  0.8844458E-01
       -3   -1    0    0    0  501  0.00000000000E+00  0.00000000000E+00  0.14632608948E+04  0.14632608982E+04  0.10100000352E+00 0. -1.
        3   -1    0    0  501    0  0.00000000000E+00  0.00000000000E+00 -0.41666620111E+03  0.41666621335E+03  0.10100000352E+00 0.  1.
    10030    2    1    2    0    0  0.00000000000E+00  0.00000000000E+00  0.10465946936E+04  0.18799271116E+04  0.15616547288E+04 0.  0.
        2    1    3    3  502    0  0.41090835335E+03  0.41689941615E+03 -0.98780331056E+02  0.59363991767E+03  0.25500000920E-02 0.  1.
       -2    1    3    3    0  502 -0.41090835335E+03 -0.41689941615E+03  0.11453750247E+04  0.12862871939E+04  0.25500000920E-02 0. -1.
</event>
<event>
 5   0  0.1037321E-03  0.1629305E+04  0.7818609E-02  0.8802744E-01
       -2   -1    0    0    0  501  0.00000000000E+00  0.00000000000E+00  0.76089327280E+03  0.76089327281E+03  0.25500000920E-02 0. -1.
        2   -1    0    0  501    0  0.00000000000E+00  0.00000000000E+00 -0.87221015361E+03  0.87221015361E+03  0.25500000920E-02 0.  1.
    10030    2    1    2    0    0  0.00000000000E+00  0.00000000000E+00 -0.11131688080E+03  0.16331034264E+04  0.16293051750E+04 0.  0.
        5    1    3    3  502    0  0.31933056506E+03 -0.18653576224E+02 -0.80661578072E+03  0.86773905835E+03  0.46999998093E+01 0.  1.
       -5    1    3    3    0  502 -0.31933056506E+03  0.18653576224E+02  0.69529889991E+03  0.76536436807E+03  0.46999998093E+01 0. -1.
</event>
<event>
 5   0  0.1030027E-03  0.1632192E+04  0.7818609E-02  0.8801012E-01
       -2   -1    0    0    0  501  0.00000000000E+00  0.00000000000E+00  0.40605894495E+03  0.40605894496E+03  0.25500000920E-02 0.  1.
        2   -1    0    0  501    0  0.00000000000E+00  0.00000000000E+00 -0.16401865461E+04  0.16401865461E+04  0.25500000920E-02 0. -1.
    10030    2    1    2    0    0  0.00000000000E+00  0.00000000000E+00 -0.12341276012E+04  0.20462454911E+04  0.16321916780E+04 0.  0.
        1    1    3    3  502    0 -0.50766800815E+03  0.37909157430E+03  0.27789808428E+02  0.63419989095E+03  0.50400001928E-02 0.  1.
       -1    1    3    3    0  502  0.50766800815E+03 -0.37909157430E+03 -0.12619174096E+04  0.14120456001E+04  0.50400001928E-02 0. -1.
</event>
<event>
 5   0  0.1000121E-03  0.1714579E+04  0.7818609E-02  0.8753093E-01
        2   -1    0    0  501    0  0.00000000000E+00  0.00000000000E+00  0.68007881706E+03  0.68007881706E+03  0.25500000920E-02 0. -1.
       -2   -1    0    0    0  501  0.00000000000E+00  0.00000000000E+00 -0.10806771818E+04  0.10806771818E+04  0.25500000920E-02 0.  1.
    10030    2    1    2    0    0  0.00000000000E+00  0.00000000000E+00 -0.40059836476E+03  0.17607559989E+04  0.17145794347E+04 0.  0.
        4    1    3    3  502    0  0.59154816103E+03 -0.61575388358E+03 -0.27892470253E+03  0.89826648303E+03  0.12699999809E+01 0.  1.
       -4    1    3    3    0  502 -0.59154816103E+03  0.61575388358E+03 -0.12167366223E+03  0.86248951584E+03  0.12699999809E+01 0. -1.
</event>
<event>
 5   0  0.5281116E-04  0.1596494E+04  0.7818609E-02  0.8822705E-01
       -1   -1    0    0    0  501  0.00000000000E+00  0.00000000000E+00  0.45873292352E+03  0.45873292355E+03  0.50400001928E-02 0.  1.
        1   -1    0    0  501    0  0.00000000000E+00  0.00000000000E+00 -0.13890400061E+04  0.13890400061E+04  0.50400001928E-02 0. -1.
    10030    2    1    2    0    0  0.00000000000E+00  0.00000000000E+00 -0.93030708262E+03  0.18477729297E+04  0.15964941377E+04 0.  0.
        2    1    3    3  502    0  0.40731574806E+02 -0.46470409431E+03 -0.12148639491E+04  0.13013467529E+04  0.25500000920E-02 0. -1.
       -2    1    3    3    0  502 -0.40731574806E+02  0.46470409431E+03  0.28455686646E+03  0.54642617682E+03  0.25500000920E-02 0.  1.
</event>
<event>
 5   0  0.5281116E-04  0.1617056E+04  0.7818609E-02  0.8810138E-01
        1   -1    0    0  501    0  0.00000000000E+00  0.00000000000E+00  0.69129781937E+03  0.69129781939E+03  0.50400001928E-02 0.  1.
       -1   -1    0    0    0  501  0.00000000000E+00  0.00000000000E+00 -0.94563751334E+03  0.94563751335E+03  0.50400001928E-02 0. -1.
    10030    2    1    2    0    0  0.00000000000E+00  0.00000000000E+00 -0.25433969397E+03  0.16369353327E+04  0.16170555351E+04 0.  0.
        2    1    3    3  502    0 -0.17155217886E+03 -0.27849957008E+03 -0.87566854699E+03  0.93476604816E+03  0.25500000920E-02 0. -1.
       -2    1    3    3    0  502  0.17155217886E+03  0.27849957008E+03  0.62132885302E+03  0.70216928458E+03  0.25500000920E-02 0.  1.
</event>
<event>
 5   0  0.1037321E-03  0.1613726E+04  0.7818609E-02  0.8812160E-01
       -2   -1    0    0    0  501  0.00000000000E+00  0.00000000000E+00  0.42165289224E+03  0.42165289225E+03  0.25500000920E-02 0. -1.
        2   -1    0    0  501    0  0.00000000000E+00  0.00000000000E+00 -0.15439898693E+04  0.15439898693E+04  0.25500000920E-02 0.  1.
    10030    2    1    2    0    0  0.00000000000E+00  0.00000000000E+00 -0.11223369770E+04  0.19656427615E+04  0.16137258677E+04 0.  0.
        5    1    3    3  502    0  0.49392327901E+03 -0.59397081782E+03 -0.84486327124E+03  0.11448046013E+04  0.46999998093E+01 0. -1.
       -5    1    3    3    0  502 -0.49392327901E+03  0.59397081782E+03 -0.27747370581E+03  0.82083816029E+03  0.46999998093E+01 0.  1.
</event>
<event>
 5   0  0.9844690E-04  0.1625556E+04  0.7818609E-02  0.8805000E-01
        2   -1    0    0  501    0  0.00000000000E+00  0.00000000000E+00  0.69062591804E+03  0.69062591804E+03  0.25500000920E-02 0. -1.
       -2   -1    0    0    0  501  0.00000000000E+00  0.00000000000E+00 -0.95653517361E+03  0.95653517361E+03  0.25500000920E-02 0.  1.
    10030    2    1    2    0    0  0.00000000000E+00  0.00000000000E+00 -0.26590925557E+03  0.16471610917E+04  0.16255558833E+04 0.  0.
        3    1    3    3  502    0  0.33472318765E+03  0.41756355998E+03  0.48690207860E+03  0.72351405191E+03  0.10100000352E+00 0. -1.
       -3    1    3    3    0  502 -0.33472318765E+03 -0.41756355998E+03 -0.75281133417E+03  0.92364703974E+03  0.10100000352E+00 0.  1.
</event>
<event>
 5   0  0.5281116E-04  0.1647680E+04  0.7818609E-02  0.8791780E-01
        1   -1    0    0  501    0  0.00000000000E+00  0.00000000000E+00  0.97422082159E+03  0.97422082161E+03  0.50400001928E-02 0.  1.
       -1   -1    0    0    0  501  0.00000000000E+00  0.00000000000E+00 -0.69667159983E+03  0.69667159985E+03  0.50400001928E-02 0. -1.
    10030    2    1    2    0    0  0.00000000000E+00  0.00000000000E+00  0.27754922176E+03  0.16708924215E+04  0.16476795543E+04 0.  0.
        2    1    3    3  502    0  0.41386906505E+03  0.62868942197E+03  0.47841694196E+03  0.89186364578E+03  0.25500000920E-02 0.  1.
       -2    1    3    3    0  502 -0.41386906505E+03 -0.62868942197E+03 -0.20086772020E+03  0.77902877568E+03  0.25500000920E-02 0. -1.
</event>
<event>
 5   0  0.1000121E-03  0.1607068E+04  0.7818609E-02  0.8816218E-01
       -2   -1    0    0    0  501  0.00000000000E+00  0.00000000000E+00  0.28726875803E+03  0.28726875805E+03  0.25500000920E-02 0. -1.
        2   -1    0    0  501    0  0.00000000000E+00  0.00000000000E+00 -0.22476048044E+04  0.22476048044E+04  0.25500000920E-02 0.  1.
    10030    2    1    2    0    0  0.00000000000E+00  0.00000000000E+00 -0.19603360464E+04  0.25348735625E+04  0.16070676908E+04 0.  0.
        4    1    3    3  502    0 -0.64064089742E+03 -0.11869694365E+03 -0.23839538109E+03  0.69378937330E+03  0.12699999809E+01 0. -1.
       -4    1    3    3    0  502  0.64064089742E+03  0.11869694365E+03 -0.17219406653E+04  0.18410841892E+04  0.12699999809E+01 0.  1.
</event>
<event>
 5   0  0.5281116E-04  0.1645512E+04  0.7818609E-02  0.8793066E-01
       -1   -1    0    0    0  501  0.00000000000E+00  0.00000000000E+00  0.60183418472E+03  0.60183418474E+03  0.50400001928E-02 0.  1.
        1   -1    0    0  501    0  0.00000000000E+00  0.00000000000E+00 -0.11247733456E+04  0.11247733456E+04  0.50400001928E-02 0. -1.
    10030    2    1    2    0    0  0.00000000000E+00  0.00000000000E+00 -0.52293916086E+03  0.17266075303E+04  0.16455115307E+04 0.  0.
        2    1    3    3  502    0 -0.74142753009E+03  0.13832710242E+03 -0.60642351984E+03  0.96778027209E+03  0.25500000920E-02 0. -1.
       -2    1    3    3    0  502  0.74142753009E+03 -0.13832710242E+03  0.83484358984E+02  0.75882725823E+03  0.25500000920E-02 0.  1.
</event>
<event>
 5   0  0.5623061E-04  0.1557643E+04  0.7818609E-02  0.8847001E-01
       -1   -1    0    0    0  501  0.00000000000E+00  0.00000000000E+00  0.10815109733E+04  0.10815109733E+04  0.50400001928E-02 0.  1.
        1   -1    0    0  501    0  0.00000000000E+00  0.00000000000E+00 -0.56084764031E+03  0.56084764034E+03  0.50400001928E-02 0. -1.
    10030    2    1    2    0    0  0.00000000000E+00  0.00000000000E+00  0.52066333296E+03  0.16423586136E+04  0.15576429339E+04 0.  0.
        3    1    3    3  502    0  0.54215501237E+03 -0.23218956688E+03 -0.27597610440E+03  0.65115810123E+03  0.10100000352E+00 0. -1.
       -3    1    3    3    0  502 -0.54215501237E+03  0.23218956688E+03  0.79663943736E+03  0.99120051239E+03  0.10100000352E+00 0.  1.
</event>
<event>
 5   0  0.1030027E-03  0.1652237E+04  0.7818609E-02  0.8789084E-01
        2   -1    0    0  501    0  0.00000000000E+00  0.00000000000E+00  0.14323751112E+04  0.14323751112E+04  0.25500000920E-02 0. -1.
       -2   -1    0    0    0  501  0.00000000000E+00  0.00000000000E+00 -0.47646138029E+03  0.47646138030E+03  0.25500000920E-02 0.  1.
    10030    2    1    2    0    0  0.00000000000E+00  0.00000000000E+00  0.95591373089E+03  0.19088364915E+04  0.16522365721E+04 0.  0.
        1    1    3    3  502    0 -0.21187072110E+03 -0.77744456565E+03  0.26757032524E+03  0.84906014751E+03  0.50400001928E-02 0.  1.
       -1    1    3    3    0  502  0.21187072110E+03  0.77744456565E+03  0.68834340565E+03  0.10597763440E+04  0.50400001928E-02 0. -1.
</event>
<event>
 5   0  0.5281116E-04  0.1605677E+04  0.7818609E-02  0.8817068E-01
       -1   -1    0    0    0  501  0.00000000000E+00  0.00000000000E+00  0.37559631938E+03  0.37559631941E+03  0.50400001928E-02 0. -1.
        1   -1    0    0  501    0  0.00000000000E+00  0.00000000000E+00 -0.17160712647E+04  0.17160712647E+04  0.50400001928E-02 0.  1.
    10030    2    1    2    0    0  0.00000000000E+00  0.00000000000E+00 -0.13404749454E+04  0.20916675841E+04  0.16056774905E+04 0.  0.
        2    1    3    3  502    0 -0.64972355052E+03 -0.34896304983E+03 -0.10834819279E+04  0.13106673836E+04  0.25500000920E-02 0.  1.
       -2    1    3    3    0  502  0.64972355052E+03  0.34896304983E+03 -0.25699301740E+03  0.78100020054E+03  0.25500000920E-02 0. -1.
</event>
<event>
 5   0  0.1030027E-03  0.1521704E+04  0.7818609E-02  0.8870147E-01
        2   -1    0    0  501    0  0.00000000000E+00  0.00000000000E+00  0.63839569508E+03  0.63839569509E+03  0.25500000920E-02 0.  1.
       -2   -1    0    0    0  501  0.00000000000E+00  0.00000000000E+00 -0.90679811472E+03  0.90679811472E+03  0.25500000920E-02 0. -1.
    10030    2    1    2    0    0  0.00000000000E+00  0.00000000000E+00 -0.26840241963E+03  0.15451938098E+04  0.15217043244E+04 0.  0.
        1    1    3    3  502    0  0.66657225924E+03 -0.35482818523E+03 -0.22877532347E+03  0.78902456645E+03  0.50400001928E-02 0. -1.
       -1    1    3    3    0  502 -0.66657225924E+03  0.35482818523E+03 -0.39627096167E+02  0.75616924335E+03  0.50400001928E-02 0.  1.
</event>
<event>
 5   0  0.9844690E-04  0.1610981E+04  0.7818609E-02  0.8813830E-01
       -2   -1    0    0    0  501  0.00000000000E+00  0.00000000000E+00  0.10341805292E+04  0.10341805292E+04  0.25500000920E-02 0. -1.
        2   -1    0    0  501    0  0.00000000000E+00  0.00000000000E+00 -0.62737085163E+03  0.62737085164E+03  0.25500000920E-02 0.  1.
    10030    2    1    2    0    0  0.00000000000E+00  0.00000000000E+00  0.40680967754E+03  0.16615513808E+04  0.16109807191E+04 0.  0.
        3    1    3    3  502    0  0.66982361371E+03 -0.44046419712E+03  0.28423806060E+03  0.85056667447E+03  0.10100000352E+00 0.  1.
       -3    1    3    3    0  502 -0.66982361371E+03  0.44046419712E+03  0.12257161694E+03  0.81098470633E+03  0.10100000352E+00 0. -1.
</event>
<event>
 5   0  0.5288658E-04  0.1605403E+04  0.7818609E-02  0.8817236E-01
        1   -1    0    0  501    0  0.00000000000E+00  0.00000000000E+00  0.47077583252E+03  0.47077583255E+03  0.50400001928E-02 0. -1.
       -1   -1    0    0    0  501  0.00000000000E+00  0.00000000000E+00 -0.13686551758E+04  0.13686551758E+04  0.50400001928E-02 0.  1.
    10030    2    1    2    0    0  0.00000000000E+00  0.00000000000E+00 -0.89787934328E+03  0.18394310084E+04  0.16054031018E+04 0.  0.
        1    1    3    3  502    0  0.13967331816E+03  0.34987405468E+03 -0.12610746882E+04  0.13161420361E+04  0.50400001928E-02 0.  1.
       -1    1    3    3    0  502 -0.13967331816E+03 -0.34987405468E+03  0.36319534489E+03  0.52328897229E+03  0.50400001928E-02 0. -1.
</event>
<event>
 5   0  0.5288658E-04  0.1649297E+04  0.7818609E-02  0.8790823E-01
        1   -1    0    0  501    0  0.00000000000E+00  0.00000000000E+00  0.18837119247E+04  0.18837119247E+04  0.50400001928E-02 0.  1.
       -1   -1    0    0    0  501  0.00000000000E+00  0.00000000000E+00 -0.36101323430E+03  0.36101323434E+03  0.50400001928E-02 0. -1.
    10030    2    1    2    0    0  0.00000000000E+00  0.00000000000E+00  0.15226986904E+04  0.22447251590E+04  0.16492967404E+04 0.  0.
        1    1    3    3  502    0 -0.52837434040E+03 -0.62209086864E+03  0.92162893085E+03  0.12310874781E+04  0.50400001928E-02 0. -1.
       -1    1    3    3    0  502  0.52837434040E+03  0.62209086864E+03  0.60106975956E+03  0.10136376810E+04  0.50400001928E-02 0.  1.
</event>
<event>
 5   0  0.1030027E-03  0.1516413E+04  0.7818609E-02  0.8873611E-01
        2   -1    0    0  501    0  0.00000000000E+00  0.00000000000E+00  0.17267470824E+04  0.17267470824E+04  0.25500000920E-02 0.  1.
       -2   -1    0    0    0  501  0.00000000000E+00  0.00000000000E+00 -0.33292490587E+03  0.33292490588E+03  0.25500000920E-02 0. -1.
    10030    2    1    2    0    0  0.00000000000E+00  0.00000000000E+00  0.13938221765E+04  0.20596719883E+04  0.15164130175E+04 0.  0.
        1    1    3    3  502    0 -0.18028249906E+01 -0.14249627182E+03 -0.31457106613E+03  0.34534532476E+03  0.50400001928E-02 0. -1.
       -1    1    3    3    0  502  0.18028249906E+01  0.14249627182E+03  0.17083932427E+04  0.17143266635E+04  0.50400001928E-02 0.  1.
</event>
<event>
 5   0  0.5281116E-04  0.1572371E+04  0.7818609E-02  0.8837703E-01
       -1   -1    0    0    0  501  0.00000000000E+00  0.00000000000E+00  0.17714125266E+04  0.17714125266E+04  0.50400001928E-02 0. -1.
        1   -1    0    0  501    0  0.00000000000E+00  0.00000000000E+00 -0.34892376508E+03  0.34892376512E+03  0.50400001928E-02 0.  1.
    10030    2    1    2    0    0  0.00000000000E+00  0.00000000000E+00  0.14224887616E+04  0.21203362918E+04  0.15723713663E+04 0.  0.
        2    1    3    3  502    0  0.18804476454E+03 -0.17968632735E+02 -0.31786580819E+03  0.36975989136E+03  0.25500000920E-02 0.  1.
       -2    1    3    3    0  502 -0.18804476454E+03  0.17968632735E+02  0.17403545697E+04  0.17505764004E+04  0.25500000920E-02 0. -1.
</event>
<event>
 5   0  0.5288658E-04  0.1553222E+04  0.7818609E-02  0.8849812E-01
       -1   -1    0    0    0  501  0.00000000000E+00  0.00000000000E+00  0.40198590166E+03  0.40198590169E+03  0.50400001928E-02 0.  1.
        1   -1    0    0  501    0  0.00000000000E+00  0.00000000000E+00 -0.15003621890E+04  0.15003621890E+04  0.50400001928E-02 0. -1.
    10030    2    1    2    0    0  0.00000000000E+00  0.00000000000E+00 -0.10983762874E+04  0.19023480907E+04  0.15532217452E+04 0.  0.
        1    1    3    3  502    0 -0.23050833876E+03 -0.65484486484E+03 -0.97552363813E+03  0.11973313075E+04  0.50400001928E-02 0. -1.
       -1    1    3    3    0  502  0.23050833876E+03  0.65484486484E+03 -0.12285264923E+03  0.70501678327E+03  0.50400001928E-02 0.  1.
</event>
<event>
 5   0  0.9844690E-04  0.1605584E+04  0.7818609E-02  0.8817125E-01
        2   -1    0    0  501    0  0.00000000000E+00  0.00000000000E+00  0.21499977655E+04  0.21499977655E+04  0.25500000920E-02 0. -1.
       -2   -1    0    0    0  501  0.00000000000E+00  0.00000000000E+00 -0.29975619593E+03  0.29975619594E+03  0.25500000920E-02 0.  1.
    10030    2    1    2    0    0  0.00000000000E+00  0.00000000000E+00  0.18502415695E+04  0.24497539614E+04  0.16055841945E+04 0.  0.
        3    1    3    3  502    0  0.24236364652E+03  0.39822281991E+03 -0.72077251497E+02  0.47171674958E+03  0.10100000352E+00 0.  1.
       -3    1    3    3    0  502 -0.24236364652E+03 -0.39822281991E+03  0.19223188210E+04  0.19780372118E+04  0.10100000352E+00 0. -1.
</event>
<event>
 5   0  0.5532881E-04  0.1602511E+04  0.7818609E-02  0.8819007E-01
       -1   -1    0    0    0  501  0.00000000000E+00  0.00000000000E+00  0.36526471751E+03  0.36526471754E+03  0.50400001928E-02 0.  1.
        1   -1    0    0  501    0  0.00000000000E+00  0.00000000000E+00 -0.17576570981E+04  0.17576570981E+04  0.50400001928E-02 0. -1.
    10030    2    1    2    0    0  0.00000000000E+00  0.00000000000E+00 -0.13923923806E+04  0.21229218157E+04  0.16025106845E+04 0.  0.
        4    1    3    3  502    0 -0.32992072996E+03  0.63108660236E+03 -0.11827420544E+04  0.13805789974E+04  0.12699999809E+01 0. -1.
       -4    1    3    3    0  502  0.32992072996E+03 -0.63108660236E+03 -0.20965032620E+03  0.74234281832E+03  0.12699999809E+01 0.  1.
</event>
<event>
 5   0  0.5532881E-04  0.1595694E+04  0.7818609E-02  0.8823198E-01
       -1   -1    0    0    0  501  0.00000000000E+00  0.00000000000E+00  0.64762414950E+03  0.64762414952E+03  0.50400001928E-02 0. -1.
        1   -1    0    0  501    0  0.00000000000E+00  0.00000000000E+00 -0.98291586823E+03  0.98291586824E+03  0.50400001928E-02 0.  1.
    10030    2    1    2    0    0  0.00000000000E+00  0.00000000000E+00 -0.33529171872E+03  0.16305400178E+04  0.15956942730E+04 0.  0.
        4    1    3    3  502    0  0.52464326898E+03  0.31155987280E+03  0.35762061277E+03  0.70725824817E+03  0.12699999809E+01 0. -1.
       -4    1    3    3    0  502 -0.52464326898E+03 -0.31155987280E+03 -0.69291233150E+03  0.92328176959E+03  0.12699999809E+01 0.  1.
</event>
<event>
 5   0  0.5532881E-04  0.1569657E+04  0.7818609E-02  0.8839408E-01
       -1   -1    0    0    0  501  0.00000000000E+00  0.00000000000E+00  0.82765227932E+03  0.82765227934E+03  0.50400001928E-02 0. -1.
        1   -1    0    0  501    0  0.00000000000E+00  0.00000000000E+00 -0.74422092681E+03  0.74422092682E+03  0.50400001928E-02 0.  1.
    10030    2    1    2    0    0  0.00000000000E+00  0.00000000000E+00  0.83431352519E+02  0.15718732062E+04  0.15696574740E+04 0.  0.
        4    1    3    3  502    0 -0.35894903383E+01  0.16635736739E+03 -0.72635257942E+03  0.74516933690E+03  0.12699999809E+01 0.  1.
       -4    1    3    3    0  502  0.35894903383E+01 -0.16635736739E+03  0.80978393194E+03  0.82670386926E+03  0.12699999809E+01 0. -1.
</event>
<event>
 5   0  0.1057872E-03  0.1083696E+04  0.7818609E-02  0.9221230E-01
        2   -1    0    0  501    0  0.00000000000E+00  0.00000000000E+00  0.21431342539E+03  0.21431342540E+03  0.25500000920E-02 0. -1.
       -2   -1    0    0    0  501  0.00000000000E+00  0.00000000000E+00 -0.13699529045E+04  0.13699529045E+04  0.25500000920E-02 0.  1.
    10030    2    1    2    0    0  0.00000000000E+00  0.00000000000E+00 -0.11556394791E+04  0.15842663299E+04  0.10836960821E+04 0.  0.
        2    1    3    3  502    0 -0.52482736791E+03  0.13347394976E+03 -0.60478547262E+03  0.81180325774E+03  0.25500000920E-02 0.  1.
       -2    1    3    3    0  502  0.52482736791E+03 -0.13347394976E+03 -0.55085400645E+03  0.77246307213E+03  0.25500000920E-02 0. -1.
</event>
<event>
 5   0  0.1000121E-03  0.1587487E+04  0.7818609E-02  0.8828272E-01
       -2   -1    0    0    0  501  0.00000000000E+00  0.00000000000E+00  0.59193008851E+03  0.59193008851E+03  0.25500000920E-02 0. -1.
        2   -1    0    0  501    0  0.00000000000E+00  0.00000000000E+00 -0.10643639258E+04  0.10643639258E+04  0.25500000920E-02 0.  1.
    10030    2    1    2    0    0  0.00000000000E+00  0.00000000000E+00 -0.47243383726E+03  0.16562940143E+04  0.15874873641E+04 0.  0.
        4    1    3    3  502    0  0.30607421122E+03 -0.23457372264E+02 -0.99992394616E+03  0.10459833565E+04  0.12699999809E+01 0.  1.
       -4    1    3    3    0  502 -0.30607421122E+03  0.23457372264E+02  0.52749010891E+03  0.61031065777E+03  0.12699999809E+01 0. -1.
</event>
<event>
 5   0  0.9844690E-04  0.1496967E+04  0.7818609E-02  0.8886472E-01
        2   -1    0    0  501    0  0.00000000000E+00  0.00000000000E+00  0.14872153674E+04  0.14872153674E+04  0.25500000920E-02 0. -1.
       -2   -1    0    0    0  501  0.00000000000E+00  0.00000000000E+00 -0.37669555209E+03  0.37669555209E+03  0.25500000920E-02 0.  1.
    10030    2    1    2    0    0  0.00000000000E+00  0.00000000000E+00  0.11105198153E+04  0.18639109195E+04  0.14969668185E+04 0.  0.
        3    1    3    3  502    0  0.39714401657E+03  0.13457338242E+03  0.13272314670E+04  0.13918968145E+04  0.10100000352E+00 0. -1.
       -3    1    3    3    0  502 -0.39714401657E+03 -0.13457338242E+03 -0.21671165164E+03  0.47201410499E+03  0.10100000352E+00 0.  1.
</event>
<event>
 5   0  0.5623061E-04  0.1668009E+04  0.7818609E-02  0.8779823E-01
       -1   -1    0    0    0  501  0.00000000000E+00  0.00000000000E+00  0.54263225384E+03  0.54263225386E+03  0.50400001928E-02 0. -1.
        1   -1    0    0  501    0  0.00000000000E+00  0.00000000000E+00 -0.12818328683E+04  0.12818328683E+04  0.50400001928E-02 0.  1.
    10030    2    1    2    0    0  0.00000000000E+00  0.00000000000E+00 -0.73920061443E+03  0.18244651221E+04  0.16680094225E+04 0.  0.
        3    1    3    3  502    0 -0.61628900259E+03 -0.19153240479E+03 -0.94741868104E+03  0.11463415565E+04  0.10100000352E+00 0.  1.
       -3    1    3    3    0  502  0.61628900259E+03  0.19153240479E+03  0.20821806661E+03  0.67812356563E+03  0.10100000352E+00 0. -1.
</event>
<event>
 5   0  0.9844690E-04  0.1706517E+04  0.7818609E-02  0.8757656E-01
       -2   -1    0    0    0  501  0.00000000000E+00  0.00000000000E+00  0.73669173788E+03  0.73669173789E+03  0.25500000920E-02 0.  1.
        2   -1    0    0  501    0  0.00000000000E+00  0.00000000000E+00 -0.98826961922E+03  0.98826961922E+03  0.25500000920E-02 0. -1.
    10030    2    1    2    0    0  0.00000000000E+00  0.00000000000E+00 -0.25157788134E+03  0.17249613571E+04  0.17065169947E+04 0.  0.
        3    1    3    3  502    0 -0.24605718316E+03 -0.81138703894E+03 -0.22251535589E+03  0.87658779261E+03  0.10100000352E+00 0.  1.
       -3    1    3    3    0  502  0.24605718316E+03  0.81138703894E+03 -0.29062525445E+02  0.84837356450E+03  0.10100000352E+00 0. -1.
</event>
<event>
 5   0  0.1057872E-03  0.1563862E+04  0.7818609E-02  0.8843062E-01
        2   -1    0    0  501    0  0.00000000000E+00  0.00000000000E+00  0.13409983324E+04  0.13409983324E+04  0.25500000920E-02 0.  1.
       -2   -1    0    0    0  501  0.00000000000E+00  0.00000000000E+00 -0.45594105522E+03  0.45594105523E+03  0.25500000920E-02 0. -1.
    10030    2    1    2    0    0  0.00000000000E+00  0.00000000000E+00  0.88505727715E+03  0.17969393876E+04  0.15638621355E+04 0.  0.
        2    1    3    3  502    0  0.41965711551E+03 -0.18902653921E+03  0.11688571085E+04  0.12562125884E+04  0.25500000920E-02 0.  1.
       -2    1    3    3    0  502 -0.41965711551E+03  0.18902653921E+03 -0.28379983134E+03  0.54072679923E+03  0.25500000920E-02 0. -1.
</event>
<event>
 5   0  0.5623061E-04  0.1596646E+04  0.7818609E-02  0.8822611E-01
       -1   -1    0    0    0  501  0.00000000000E+00  0.00000000000E+00  0.28642764055E+03  0.28642764060E+03  0.50400001928E-02 0.  1.
        1   -1    0    0  501    0  0.00000000000E+00  0.00000000000E+00 -0.22250632605E+04  0.22250632605E+04  0.50400001928E-02 0. -1.
    10030    2    1    2    0    0  0.00000000000E+00  0.00000000000E+00 -0.19386356200E+04  0.25114909011E+04  0.15966460094E+04 0.  0.
        3    1    3    3  502    0 -0.26175047876E+03 -0.11083638477E+03  0.20413054034E+03  0.34995328977E+03  0.10100000352E+00 0.  1.
       -3    1    3    3    0  502  0.26175047876E+03  0.11083638477E+03 -0.21427661603E+04  0.21615376114E+04  0.10100000352E+00 0. -1.
</event>
<event>
 5   0  0.1037321E-03  0.1624810E+04  0.7818609E-02  0.8805449E-01
       -2   -1    0    0    0  501  0.00000000000E+00  0.00000000000E+00  0.78707058381E+03  0.78707058381E+03  0.25500000920E-02 0. -1.
        2   -1    0    0  501    0  0.00000000000E+00  0.00000000000E+00 -0.83855530720E+03  0.83855530721E+03  0.25500000920E-02 0.  1.
    10030    2    1    2    0    0  0.00000000000E+00  0.00000000000E+00 -0.51484723393E+02  0.16256258910E+04  0.16248104076E+04 0.  0.
        5    1    3    3  502    0  0.29608063618E+03  0.69503341279E+03 -0.32463120852E+03  0.82227896699E+03  0.46999998093E+01 0. -1.
       -5    1    3    3    0  502 -0.29608063618E+03 -0.69503341279E+03  0.27314648513E+03  0.80334692403E+03  0.46999998093E+01 0.  1.
</event>
<event>
 5   0  0.5425525E-04  0.1612045E+04  0.7818609E-02  0.8813182E-01
       -1   -1    0    0    0  501  0.00000000000E+00  0.00000000000E+00  0.50798004102E+03  0.50798004105E+03  0.50400001928E-02 0. -1.
        1   -1    0    0  501    0  0.00000000000E+00  0.00000000000E+00 -0.12789332638E+04  0.12789332638E+04  0.50400001928E-02 0.  1.
    10030    2    1    2    0    0  0.00000000000E+00  0.00000000000E+00 -0.77095322281E+03  0.17869133049E+04  0.16120453739E+04 0.  0.
        5    1    3    3  502    0  0.11492360306E+03 -0.24799414627E+03  0.45502436045E+03  0.53082745759E+03  0.46999998093E+01 0. -1.
       -5    1    3    3    0  502 -0.11492360306E+03  0.24799414627E+03 -0.12259775833E+04  0.12560858473E+04  0.46999998093E+01 0.  1.
</event>
<event>
 5   0  0.1037321E-03  0.1422566E+04  0.7818609E-02  0.8937644E-01
        2   -1    0    0  501    0  0.00000000000E+00  0.00000000000E+00  0.95464791196E+03  0.95464791196E+03  0.25500000920E-02 0. -1.
       -2   -1    0    0    0  501  0.00000000000E+00  0.00000000000E+00 -0.52995797983E+03  0.52995797984E+03  0.25500000920E-02 0.  1.
    10030    2    1    2    0    0  0.00000000000E+00  0.00000000000E+00  0.42468993212E+03  0.14846058918E+04  0.14225656806E+04 0.  0.
        5    1    3    3  502    0 -0.72145296022E+02 -0.45698259008E+03  0.77614940511E+03  0.90358619977E+03  0.46999998093E+01 0. -1.
       -5    1    3    3    0  502  0.72145296022E+02  0.45698259008E+03 -0.35145947299E+03  0.58101969203E+03  0.46999998093E+01 0.  1.
</event>
<event>
 5   0  0.1030027E-03  0.1595051E+04  0.7818609E-02  0.8823594E-01
       -2   -1    0    0    0  501  0.00000000000E+00  0.00000000000E+00  0.28759320409E+03  0.28759320410E+03  0.25500000920E-02 0.  1.
        2   -1    0    0  501    0  0.00000000000E+00  0.00000000000E+00 -0.22116200215E+04  0.22116200215E+04  0.25500000920E-02 0. -1.
    10030    2    1    2    0    0  0.00000000000E+00  0.00000000000E+00 -0.19240268174E+04  0.24992132256E+04  0.15950509562E+04 0.  0.
        1    1    3    3  502    0 -0.64803361903E+03 -0.37377653555E+03 -0.52895328793E+03  0.91621397651E+03  0.50400001928E-02 0.  1.
       -1    1    3    3    0  502  0.64803361903E+03  0.37377653555E+03 -0.13950735294E+04  0.15829992491E+04  0.50400001928E-02 0. -1.
</event>
<event>
 5   0  0.1000121E-03  0.1685586E+04  0.7818609E-02  0.8769628E-01
        2   -1    0    0  501    0  0.00000000000E+00  0.00000000000E+00  0.14855684629E+04  0.14855684629E+04  0.25500000920E-02 0. -1.
       -2   -1    0    0    0  501  0.00000000000E+00  0.00000000000E+00 -0.47813327594E+03  0.47813327594E+03  0.25500000920E-02 0.  1.
    10030    2    1    2    0    0  0.00000000000E+00  0.00000000000E+00  0.10074351870E+04  0.19637017389E+04  0.16855856143E+04 0.  0.
        4    1    3    3  502    0  0.32278255293E+03 -0.63264901779E+03  0.10323036463E+04  0.12530306410E+04  0.12699999809E+01 0. -1.
       -4    1    3    3    0  502 -0.32278255293E+03  0.63264901779E+03 -0.24868459323E+02  0.71067109787E+03  0.12699999809E+01 0.  1.
</event>
<event>
 5   0  0.5623061E-04  0.1604257E+04  0.7818609E-02  0.8817937E-01
       -1   -1    0    0    0  501  0.00000000000E+00  0.00000000000E+00  0.74718123590E+03  0.74718123592E+03  0.50400001928E-02 0. -1.
        1   -1    0    0  501    0  0.00000000000E+00  0.00000000000E+00 -0.86111647489E+03  0.86111647490E+03  0.50400001928E-02 0.  1.
    10030    2    1    2    0    0  0.00000000000E+00  0.00000000000E+00 -0.11393523899E+03  0.16082977108E+04  0.16042569270E+04 0.  0.
        3    1    3    3  502    0  0.46295886388E+03 -0.64858790273E+03 -0.14892042535E+03  0.81066298824E+03  0.10100000352E+00 0.  1.
       -3    1    3    3    0  502 -0.46295886388E+03  0.64858790273E+03  0.34985186359E+02  0.79763472259E+03  0.10100000352E+00 0. -1.
</event>
<event>
 5   0  0.5532881E-04  0.1593600E+04  0.7818609E-02  0.8824489E-01
       -1   -1    0    0    0  501  0.00000000000E+00  0.00000000000E+00  0.95061957229E+03  0.95061957230E+03  0.50400001928E-02 0. -1.
        1   -1    0    0  501    0  0.00000000000E+00  0.00000000000E+00 -0.66787009977E+03  0.66787009979E+03  0.50400001928E-02 0.  1.
    10030    2    1    2    0    0  0.00000000000E+00  0.00000000000E+00  0.28274947252E+03  0.16184896721E+04  0.15936001865E+04 0.  0.
        4    1    3    3  502    0 -0.34495557521E+03  0.71243331019E+03  0.48662596800E+02  0.79304806385E+03  0.12699999809E+01 0.  1.
       -4    1    3    3    0  502  0.34495557521E+03 -0.71243331019E+03  0.23408687572E+03  0.82544160825E+03  0.12699999809E+01 0. -1.
</event>
<event>
 5   0  0.1030027E-03  0.1621613E+04  0.7818609E-02  0.8807379E-01
       -2   -1    0    0    0  501  0.00000000000E+00  0.00000000000E+00  0.10183516697E+04  0.10183516697E+04  0.25500000920E-02 0. -1.
        2   -1    0    0  501    0  0.00000000000E+00  0.00000000000E+00 -0.64556023550E+03  0.64556023551E+03  0.25500000920E-02 0.  1.
    10030    2    1    2    0    0  0.00000000000E+00  0.00000000000E+00  0.37279143418E+03  0.16639119052E+04  0.16216132014E+04 0.  0.
        1    1    3    3  502    0 -0.17456188663E+03 -0.38564337401E+03 -0.52317308023E+03  0.67298048715E+03  0.50400001928E-02 0.  1.
       -1    1    3    3    0  502  0.17456188663E+03  0.38564337401E+03  0.89596451441E+03  0.99093141805E+03  0.50400001928E-02 0. -1.
</event>
<event>
 5   0  0.5532881E-04  0.1615086E+04  0.7818609E-02  0.8811334E-01
        1   -1    0    0  501    0  0.00000000000E+00  0.00000000000E+00  0.74556011699E+03  0.74556011700E+03  0.50400001928E-02 0.  1.
       -1   -1    0    0    0  501  0.00000000000E+00  0.00000000000E+00 -0.87467852343E+03  0.87467852344E+03  0.50400001928E-02 0. -1.
    10030    2    1    2    0    0  0.00000000000E+00  0.00000000000E+00 -0.12911840644E+03  0.16202386404E+04  0.16150856600E+04 0.  0.
        4    1    3    3  502    0  0.70415124337E+03 -0.41545348366E+00 -0.46116174998E+03  0.84172496618E+03  0.12699999809E+01 0. -1.
       -4    1    3    3    0  502 -0.70415124337E+03  0.41545348366E+00  0.33204334354E+03  0.77851367427E+03  0.12699999809E+01 0.  1.
</event>
<event>
 5   0  0.1000121E-03  0.1629296E+04  0.7818609E-02  0.8802750E-01
        2   -1    0    0  501    0  0.00000000000E+00  0.00000000000E+00  0.11521948457E+04  0.11521948457E+04  0.25500000920E-02 0. -1.
       -2   -1    0    0    0  501  0.00000000000E+00  0.00000000000E+00 -0.57598882934E+03  0.57598882935E+03  0.25500000920E-02 0.  1.
    10030    2    1    2    0    0  0.00000000000E+00  0.00000000000E+00  0.57620601637E+03  0.17281836751E+04  0.16292959957E+04 0.  0.
        4    1    3    3  502    0 -0.50461216307E+03  0.81536783056E+02  0.96092729642E+03  0.10884229711E+04  0.12699999809E+01 0. -1.
       -4    1    3    3    0  502  0.50461216307E+03 -0.81536783056E+02 -0.38472128005E+03  0.63976070396E+03  0.12699999809E+01 0.  1.
</event>
<event>
 5   0  0.9844690E-04  0.1571991E+04  0.7818609E-02  0.8837942E-01
       -2   -1    0    0    0  501  0.00000000000E+00  0.00000000000E+00  0.64449933941E+03  0.64449933942E+03  0.25500000920E-02 0. -1.
        2   -1    0    0  501    0  0.00000000000E+00  0.00000000000E+00 -0.95855685191E+03  0.95855685192E+03  0.25500000920E-02 0.  1.
    10030    2    1    2    0    0  0.00000000000E+00  0.00000000000E+00 -0.31405751250E+03  0.16030561913E+04  0.15719914222E+04 0.  0.
        3    1    3    3  502    0  0.74911876777E+03  0.21254242504E+03 -0.47976074642E+02  0.78016339610E+03  0.10100000352E+00 0. -1.
       -3    1    3    3    0  502 -0.74911876777E+03 -0.21254242504E+03 -0.26608143786E+03  0.82289279523E+03  0.10100000352E+00 0.  1.
</event>
<event>
 5   0  0.1037321E-03  0.1659990E+04  0.7818609E-02  0.8784518E-01
       -2   -1    0    0    0  501  0.00000000000E+00  0.00000000000E+00  0.62935456306E+03  0.62935456306E+03  0.25500000920E-02 0. -1.
        2   -1    0    0  501    0  0.00000000000E+00  0.00000000000E+00 -0.10946008497E+04  0.10946008497E+04  0.25500000920E-02 0.  1.
    10030    2    1    2    0    0  0.00000000000E+00  0.00000000000E+00 -0.46524628668E+03  0.17239554128E+04  0.16599904090E+04 0.  0.
        5    1    3    3  502    0 -0.57687681722E+03  0.57734777809E+03 -0.38927525611E+03  0.90425363374E+03  0.46999998093E+01 0. -1.
       -5    1    3    3    0  502  0.57687681722E+03 -0.57734777809E+03 -0.75971030564E+02  0.81970177906E+03  0.46999998093E+01 0.  1.
</event>
<event>
 5   0  0.5532881E-04  0.1607923E+04  0.7818609E-02  0.8815695E-01
        1   -1    0    0  501    0  0.00000000000E+00  0.00000000000E+00  0.13691322944E+04  0.13691322944E+04  0.50400001928E-02 0.  1.
       -1   -1    0    0    0  501  0.00000000000E+00  0.00000000000E+00 -0.47209038639E+03  0.47209038642E+03  0.50400001928E-02 0. -1.
    10030    2    1    2    0    0  0.00000000000E+00  0.00000000000E+00  0.89704190799E+03  0.18412226808E+04  0.16079231249E+04 0.  0.
        4    1    3    3  502    0  0.46890565406E+03 -0.31541038592E+03  0.11033267155E+04  0.12396320736E+04  0.12699999809E+01 0.  1.
       -4    1    3    3    0  502 -0.46890565406E+03  0.31541038592E+03 -0.20628480749E+03  0.60159060719E+03  0.12699999809E+01 0. -1.
</event>
<event>
 5   0  0.5532881E-04  0.1221572E+04  0.7818609E-02  0.9094181E-01
       -1   -1    0    0    0  501  0.00000000000E+00  0.00000000000E+00  0.26506759715E+03  0.26506759720E+03  0.50400001928E-02 0.  1.
        1   -1    0    0  501    0  0.00000000000E+00  0.00000000000E+00 -0.14074127709E+04  0.14074127709E+04  0.50400001928E-02 0. -1.
    10030    2    1    2    0    0  0.00000000000E+00  0.00000000000E+00 -0.11423451737E+04  0.16724803681E+04  0.12215719732E+04 0.  0.
        4    1    3    3  502    0  0.21763671305E+03  0.56651191169E+03 -0.47674862245E+03  0.77174629695E+03  0.12699999809E+01 0.  1.
       -4    1    3    3    0  502 -0.21763671305E+03 -0.56651191169E+03 -0.66559655129E+03  0.90073407115E+03  0.12699999809E+01 0. -1.
</event>
<event>
 5   0  0.5288658E-04  0.1614187E+04  0.7818609E-02  0.8811880E-01
        1   -1    0    0  501    0  0.00000000000E+00  0.00000000000E+00  0.14275534100E+04  0.14275534100E+04  0.50400001928E-02 0.  1.
       -1   -1    0    0    0  501  0.00000000000E+00  0.00000000000E+00 -0.45630483545E+03  0.45630483547E+03  0.50400001928E-02 0. -1.
    10030    2    1    2    0    0  0.00000000000E+00  0.00000000000E+00  0.97124857456E+03  0.18838582455E+04  0.16141865120E+04 0.  0.
        1    1    3    3  502    0  0.90344453424E+02 -0.66623786108E+03  0.10067211251E+04  0.12105876389E+04  0.50400001928E-02 0.  1.
       -1    1    3    3    0  502 -0.90344453424E+02  0.66623786108E+03 -0.35472550532E+02  0.67327060656E+03  0.50400001928E-02 0. -1.
</event>
<event>
 5   0  0.1037321E-03  0.1570528E+04  0.7818609E-02  0.8838861E-01
       -2   -1    0    0    0  501  0.00000000000E+00  0.00000000000E+00  0.32748129616E+03  0.32748129617E+03  0.25500000920E-02 0.  1.
        2   -1    0    0  501    0  0.00000000000E+00  0.00000000000E+00 -0.18829758989E+04  0.18829758989E+04  0.25500000920E-02 0. -1.
    10030    2    1    2    0    0  0.00000000000E+00  0.00000000000E+00 -0.15554946028E+04  0.22104571951E+04  0.15705277941E+04 0.  0.
        5    1    3    3  502    0 -0.68288393546E+03  0.12073380793E+03 -0.25925454901E+03  0.74036621537E+03  0.46999998093E+01 0. -1.
       -5    1    3    3    0  502  0.68288393546E+03 -0.12073380793E+03 -0.12962400538E+04  0.14700909797E+04  0.46999998093E+01 0.  1.
</event>
<event>
 5   0  0.1000121E-03  0.1623190E+04  0.7818609E-02  0.8806427E-01
        2   -1    0    0  501    0  0.00000000000E+00  0.00000000000E+00  0.11295860727E+04  0.11295860727E+04  0.25500000920E-02 0.  1.
       -2   -1    0    0    0  501  0.00000000000E+00  0.00000000000E+00 -0.58312216863E+03  0.58312216863E+03  0.25500000920E-02 0. -1.
    10030    2    1    2    0    0  0.00000000000E+00  0.00000000000E+00  0.54646390406E+03  0.17127082413E+04  0.16231902912E+04 0.  0.
        4    1    3    3  502    0  0.26341593843E+03  0.68203079394E+03 -0.98520862542E+02  0.73774110211E+03  0.12699999809E+01 0. -1.
       -4    1    3    3    0  502 -0.26341593843E+03 -0.68203079394E+03  0.64498476660E+03  0.97496713921E+03  0.12699999809E+01 0.  1.
</event>
<event>
 5   0  0.1030027E-03  0.1484122E+04  0.7818609E-02  0.8895081E-01
       -2   -1    0    0    0  501  0.00000000000E+00  0.00000000000E+00  0.94112670118E+03  0.94112670118E+03  0.25500000920E-02 0.  1.
        2   -1    0    0  501    0  0.00000000000E+00  0.00000000000E+00 -0.58510155213E+03  0.58510155214E+03  0.25500000920E-02 0. -1.
    10030    2    1    2    0    0  0.00000000000E+00  0.00000000000E+00  0.35602514905E+03  0.15262282533E+04  0.14841222236E+04 0.  0.
        1    1    3    3  502    0  0.92568267491E+02  0.26319913679E+03 -0.52910898174E+03  0.59816300817E+03  0.50400001928E-02 0. -1.
       -1    1    3    3    0  502 -0.92568267491E+02 -0.26319913679E+03  0.88513413079E+03  0.92806524515E+03  0.50400001928E-02 0.  1.
</event>
<event>
 5   0  0.1030027E-03  0.1618323E+04  0.7818609E-02  0.8809370E-01
        2   -1    0    0  501    0  0.00000000000E+00  0.00000000000E+00  0.56387974891E+03  0.56387974892E+03  0.25500000920E-02 0. -1.
       -2   -1    0    0    0  501  0.00000000000E+00  0.00000000000E+00 -0.11611383125E+04  0.11611383125E+04  0.25500000920E-02 0.  1.
    10030    2    1    2    0    0  0.00000000000E+00  0.00000000000E+00 -0.59725856360E+03  0.17250180614E+04  0.16183230581E+04 0.  0.
        1    1    3    3  502    0 -0.67114869730E+03 -0.10104661511E+03  0.17097446919E+03  0.69991661036E+03  0.50400001928E-02 0. -1.
       -1    1    3    3    0  502  0.67114869730E+03  0.10104661511E+03 -0.76823303279E+03  0.10251014511E+04  0.50400001928E-02 0.  1.
</event>
<event>
 5   0  0.5281116E-04  0.1737305E+04  0.7818609E-02  0.8740370E-01
       -1   -1    0    0    0  501  0.00000000000E+00  0.00000000000E+00  0.57113741559E+03  0.57113741562E+03  0.50400001928E-02 0.  1.
        1   -1    0    0  501    0  0.00000000000E+00  0.00000000000E+00 -0.13211477327E+04  0.13211477328E+04  0.50400001928E-02 0. -1.
    10030    2    1    2    0    0  0.00000000000E+00  0.00000000000E+00 -0.75001031715E+03  0.18922851484E+04  0.17373046960E+04 0.  0.
        2    1    3    3  502    0  0.46074082733E+03  0.60697447465E+02 -0.11743606754E+04  0.12629684422E+04  0.25500000920E-02 0. -1.
       -2    1    3    3    0  502 -0.46074082733E+03 -0.60697447465E+02  0.42435035825E+03  0.62931670616E+03  0.25500000920E-02 0.  1.
</event>
<event>
 5   0  0.5425525E-04  0.1590447E+04  0.7818609E-02  0.8826438E-01
       -1   -1    0    0    0  501  0.00000000000E+00  0.00000000000E+00  0.36979531410E+03  0.36979531413E+03  0.50400001928E-02 0. -1.
        1   -1    0    0  501    0  0.00000000000E+00  0.00000000000E+00 -0.17100827754E+04  0.17100827754E+04  0.50400001928E-02 0.  1.
    10030    2    1    2    0    0  0.00000000000E+00  0.00000000000E+00 -0.13402874613E+04  0.20798780896E+04  0.15904472291E+04 0.  0.
        5    1    3    3  502    0  0.24880729848E+03  0.41336931260E+03  0.15650323888E+03  0.50724216520E+03  0.46999998093E+01 0. -1.
       -5    1    3    3    0  502 -0.24880729848E+03 -0.41336931260E+03 -0.14967907002E+04  0.15726359244E+04  0.46999998093E+01 0.  1.
</event>
<event>
 5   0  0.1037321E-03  0.1610271E+04  0.7818609E-02  0.8814263E-01
        2   -1    0    0  501    0  0.00000000000E+00  0.00000000000E+00  0.12100675183E+04  0.12100675183E+04  0.25500000920E-02 0. -1.
       -2   -1    0    0    0  501  0.00000000000E+00  0.00000000000E+00 -0.53570805554E+03  0.53570805555E+03  0.25500000920E-02 0.  1.
    10030    2    1    2    0    0  0.00000000000E+00  0.00000000000E+00  0.67435946277E+03  0.17457755739E+04  0.16102706820E+04 0.  0.
        5    1    3    3  502    0  0.46680197137E+03  0.60248208456E+03  0.61849969801E+03  0.98155626895E+03  0.46999998093E+01 0. -1.
       -5    1    3    3    0  502 -0.46680197137E+03 -0.60248208456E+03  0.55859764762E+02  0.76421930491E+03  0.46999998093E+01 0.  1.
</event>
<event>
 5   0  0.5532881E-04  0.1569601E+04  0.7818609E-02  0.8839444E-01
        1   -1    0    0  501    0  0.00000000000E+00  0.00000000000E+00  0.89084758196E+03  0.89084758198E+03  0.50400001928E-02 0. -1.
       -1   -1    0    0    0  501  0.00000000000E+00  0.00000000000E+00 -0.69137697214E+03  0.69137697216E+03  0.50400001928E-02 0.  1.
    10030    2    1    2    0    0  0.00000000000E+00  0.00000000000E+00  0.19947060982E+03  0.15822245541E+04  0.15696005911E+04 0.  0.
        4    1    3    3  502    0  0.14428533560E+03 -0.48370628449E+03  0.70550097165E+03  0.86748098632E+03  0.12699999809E+01 0. -1.
       -4    1    3    3    0  502 -0.14428533560E+03  0.48370628449E+03 -0.50603036184E+03  0.71474356781E+03  0.12699999809E+01 0.  1.
</event>
<event>
 5   0  0.1057872E-03  0.1532951E+04  0.7818609E-02  0.8862832E-01
       -2   -1    0    0    0  501  0.00000000000E+00  0.00000000000E+00  0.88784435861E+03  0.88784435861E+03  0.25500000920E-02 0.  1.
        2   -1    0    0  501    0  0.00000000000E+00  0.00000000000E+00 -0.66169771304E+03  0.66169771305E+03  0.25500000920E-02 0. -1.
    10030    2    1    2    0    0  0.00000000000E+00  0.00000000000E+00  0.22614664556E+03  0.15495420717E+04  0.15329508559E+04 0.  0.
        2    1    3    3  502    0 -0.32188744742E+03 -0.68142493864E+03 -0.28200205423E+02  0.75415298673E+03  0.25500000920E-02 0.  1.
       -2    1    3    3    0  502  0.32188744742E+03  0.68142493864E+03  0.25434685099E+03  0.79538908492E+03  0.25500000920E-02 0. -1.
</event>
<event>
 5   0  0.5288658E-04  0.1645761E+04  0.7818609E-02  0.8792918E-01
       -1   -1    0    0    0  501  0.00000000000E+00  0.00000000000E+00  0.61629749787E+03  0.61629749789E+03  0.50400001928E-02 0. -1.
        1   -1    0    0  501    0  0.00000000000E+00  0.00000000000E+00 -0.10987102992E+04  0.10987102992E+04  0.50400001928E-02 0.  1.
    10030    2    1    2    0    0  0.00000000000E+00  0.00000000000E+00 -0.48241280136E+03  0.17150077971E+04  0.16457611106E+04 0.  0.
        1    1    3    3  502    0 -0.66369778133E+03  0.10929901858E+03 -0.73516723622E+03  0.99644964029E+03  0.50400001928E-02 0. -1.
       -1    1    3    3    0  502  0.66369778133E+03 -0.10929901858E+03  0.25275443486E+03  0.71855815684E+03  0.50400001928E-02 0.  1.
</event>
<event>
 5   0  0.9844690E-04  0.1620937E+04  0.7818609E-02  0.8807788E-01
       -2   -1    0    0    0  501  0.00000000000E+00  0.00000000000E+00  0.50922171388E+03  0.50922171389E+03  0.25500000920E-02 0. -1.
        2   -1    0    0  501    0  0.00000000000E+00  0.00000000000E+00 -0.12899280946E+04  0.12899280946E+04  0.25500000920E-02 0.  1.
    10030    2    1    2    0    0  0.00000000000E+00  0.00000000000E+00 -0.78070638070E+03  0.17991498085E+04  0.16209372537E+04 0.  0.
        3    1    3    3  502    0  0.73370168810E+03  0.34424433608E+03 -0.39710972194E+03  0.90250677089E+03  0.10100000352E+00 0.  1.
       -3    1    3    3    0  502 -0.73370168810E+03 -0.34424433608E+03 -0.38359665876E+03  0.89664303759E+03  0.10100000352E+00 0. -1.
</event>
<event>
 5   0  0.1037321E-03  0.1561465E+04  0.7818609E-02  0.8844577E-01
       -2   -1    0    0    0  501  0.00000000000E+00  0.00000000000E+00  0.42287093548E+03  0.42287093549E+03  0.25500000920E-02 0. -1.
        2   -1    0    0  501    0  0.00000000000E+00  0.00000000000E+00 -0.14414412582E+04  0.14414412583E+04  0.25500000920E-02 0.  1.
    10030    2    1    2    0    0  0.00000000000E+00  0.00000000000E+00 -0.10185703228E+04  0.18643121937E+04  0.15614654826E+04 0.  0.
        5    1    3    3  502    0  0.26783306655E+03  0.69546112849E+03 -0.78704427514E+03  0.10839102886E+04  0.46999998093E+01 0.  1.
       -5    1    3    3    0  502 -0.26783306655E+03 -0.69546112849E+03 -0.23152604763E+03  0.78040190511E+03  0.46999998093E+01 0. -1.
</event>
<event>
 5   0  0.5288658E-04  0.1584470E+04  0.7818609E-02  0.8830146E-01
        1   -1    0    0  501    0  0.00000000000E+00  0.00000000000E+00  0.14516094231E+04  0.14516094231E+04  0.50400001928E-02 0.  1.
       -1   -1    0    0    0  501  0.00000000000E+00  0.00000000000E+00 -0.43237253218E+03  0.43237253221E+03  0.50400001928E-02 0. -1.
    10030    2    1    2    0    0  0.00000000000E+00  0.00000000000E+00  0.10192368909E+04  0.18839819553E+04  0.15844696804E+04 0.  0.
        1    1    3    3  502    0  0.54011603807E+02  0.49703273873E+03  0.12403421829E+04  0.13373135486E+04  0.50400001928E-02 0.  1.
       -1    1    3    3    0  502 -0.54011603807E+02 -0.49703273873E+03 -0.22110529195E+03  0.54666840669E+03  0.50400001928E-02 0. -1.
</event>
<event>
 5   0  0.5532881E-04  0.1582181E+04  0.7818609E-02  0.8831570E-01
        1   -1    0    0  501    0  0.00000000000E+00  0.00000000000E+00  0.20889356120E+04  0.20889356120E+04  0.50400001928E-02 0. -1.
       -1   -1    0    0    0  501  0.00000000000E+00  0.00000000000E+00 -0.29958995753E+03  0.29958995758E+03  0.50400001928E-02 0.  1.
    10030    2    1    2    0    0  0.00000000000E+00  0.00000000000E+00  0.17893456545E+04  0.23885255696E+04  0.15821809395E+04 0.  0.
        4    1    3    3  502    0 -0.25754297962E+03 -0.74773793680E+03  0.86516291450E+03  0.11721556595E+04  0.12699999809E+01 0.  1.
       -4    1    3    3    0  502  0.25754297962E+03  0.74773793680E+03  0.92418273996E+03  0.12163699101E+04  0.12699999809E+01 0. -1.
</event>
<event>
 5   0  0.5425525E-04  0.1581755E+04  0.7818609E-02  0.8831836E-01
       -1   -1    0    0    0  501  0.00000000000E+00  0.00000000000E+00  0.35775532192E+03  0.35775532196E+03  0.50400001928E-02 0. -1.
        1   -1    0    0  501    0  0.00000000000E+00  0.00000000000E+00 -0.17483652361E+04  0.17483652361E+04  0.50400001928E-02 0.  1.
    10030    2    1    2    0    0  0.00000000000E+00  0.00000000000E+00 -0.13906099142E+04  0.21061205580E+04  0.15817546812E+04 0.  0.
        5    1    3    3  502    0  0.44544128637E+03  0.13911722418E+02 -0.15652332837E+04  0.16274485547E+04  0.46999998093E+01 0.  1.
       -5    1    3    3    0  502 -0.44544128637E+03 -0.13911722418E+02  0.17462336956E+03  0.47867200338E+03  0.46999998093E+01 0. -1.
</event>
<event>
 5   0  0.5425525E-04  0.1592673E+04  0.7818609E-02  0.8825062E-01
       -1   -1    0    0    0  501  0.00000000000E+00  0.00000000000E+00  0.12569660031E+04  0.12569660031E+04  0.50400001928E-02 0. -1.
        1   -1    0    0  501    0  0.00000000000E+00  0.00000000000E+00 -0.50451012584E+03  0.50451012587E+03  0.50400001928E-02 0.  1.
    10030    2    1    2    0    0  0.00000000000E+00  0.00000000000E+00  0.75245587723E+03  0.17614761290E+04  0.15926733205E+04 0.  0.
        5    1    3    3  502    0  0.46970387001E+03  0.76053139036E+02  0.10824370095E+04  0.11824118466E+04  0.46999998093E+01 0. -1.
       -5    1    3    3    0  502 -0.46970387001E+03 -0.76053139036E+02 -0.32998113226E+03  0.57906428236E+03  0.46999998093E+01 0.  1.
</event>
<event>
 5   0  0.1037321E-03  0.1604936E+04  0.7818609E-02  0.8817521E-01
       -2   -1    0    0    0  501  0.00000000000E+00  0.00000000000E+00  0.87237062919E+03  0.87237062920E+03  0.25500000920E-02 0.  1.
        2   -1    0    0  501    0  0.00000000000E+00  0.00000000000E+00 -0.73816655765E+03  0.73816655766E+03  0.25500000920E-02 0. -1.
    10030    2    1    2    0    0  0.00000000000E+00  0.00000000000E+00  0.13420407154E+03  0.16105371869E+04  0.16049359169E+04 0.  0.
        5    1    3    3  502    0 -0.69967381156E+03 -0.21020029506E+03  0.40023220227E+03  0.83302791812E+03  0.46999998093E+01 0. -1.
       -5    1    3    3    0  502  0.69967381156E+03  0.21020029506E+03 -0.26602813073E+03  0.77750926873E+03  0.46999998093E+01 0.  1.
</event>
<event>
 5   0  0.1037321E-03  0.1452705E+04  0.7818609E-02  0.8916527E-01
        2   -1    0    0  501    0  0.00000000000E+00  0.00000000000E+00  0.89152386449E+03  0.89152386449E+03  0.25500000920E-02 0. -1.
       -2   -1    0    0    0  501  0.00000000000E+00  0.00000000000E+00 -0.59178214249E+03  0.59178214249E+03  0.25500000920E-02 0.  1.
    10030    2    1    2    0    0  0.00000000000E+00  0.00000000000E+00  0.29974172200E+03  0.14833060070E+04  0.14527049289E+04 0.  0.
        5    1    3    3  502    0 -0.23511172963E+03 -0.46789152447E+03  0.66382852780E+03  0.84551192091E+03  0.46999998093E+01 0. -1.
       -5    1    3    3    0  502  0.23511172963E+03  0.46789152447E+03 -0.36408680580E+03  0.63779408607E+03  0.46999998093E+01 0.  1.
</event>
<event>
 5   0  0.9844690E-04  0.1443463E+04  0.7818609E-02  0.8922945E-01
        2   -1    0    0  501    0  0.00000000000E+00  0.00000000000E+00  0.14020285431E+04  0.14020285431E+04  0.25500000920E-02 0. -1.
       -2   -1    0    0    0  501  0.00000000000E+00  0.00000000000E+00 -0.37153028802E+03  0.37153028803E+03  0.25500000920E-02 0.  1.
    10030    2    1    2    0    0  0.00000000000E+00  0.00000000000E+00  0.10304982551E+04  0.17735588311E+04  0.14434625987E+04 0.  0.
        3    1    3    3  502    0 -0.17075131592E+03 -0.29841839884E+03 -0.26444381254E+03  0.43375118772E+03  0.10100000352E+00 0.  1.
       -3    1    3    3    0  502  0.17075131592E+03  0.29841839884E+03  0.12949420676E+04  0.13398076434E+04  0.10100000352E+00 0. -1.
</event>
<event>
 5   0  0.1037321E-03  0.1590281E+04  0.7818609E-02  0.8826541E-01
       -2   -1    0    0    0  501  0.00000000000E+00  0.00000000000E+00  0.39647393301E+03  0.39647393302E+03  0.25500000920E-02 0. -1.
        2   -1    0    0  501    0  0.00000000000E+00  0.00000000000E+00 -0.15946775096E+04  0.15946775096E+04  0.25500000920E-02 0.  1.
    10030    2    1    2    0    0  0.00000000000E+00  0.00000000000E+00 -0.11982035766E+04  0.19911514426E+04  0.15902805591E+04 0.  0.
        5    1    3    3  502    0  0.97166966332E+02  0.75052257932E+03 -0.29368666938E+03  0.81178784863E+03  0.46999998093E+01 0. -1.
       -5    1    3    3    0  502 -0.97166966332E+02 -0.75052257932E+03 -0.90451690720E+03  0.11793635940E+04  0.46999998093E+01 0.  1.
</event>
<event>
 5   0  0.5281116E-04  0.1554996E+04  0.7818609E-02  0.8848683E-01
       -1   -1    0    0    0  501  0.00000000000E+00  0.00000000000E+00  0.34098938517E+03  0.34098938521E+03  0.50400001928E-02 0. -1.
        1   -1    0    0  501    0  0.00000000000E+00  0.00000000000E+00 -0.17727912005E+04  0.17727912005E+04  0.50400001928E-02 0.  1.
    10030    2    1    2    0    0  0.00000000000E+00  0.00000000000E+00 -0.14318018153E+04  0.21137805857E+04  0.15549957962E+04 0.  0.
        2    1    3    3  502    0 -0.32795428845E+03 -0.65337883797E+03 -0.10756663482E+04  0.13005829515E+04  0.25500000920E-02 0.  1.
       -2    1    3    3    0  502  0.32795428845E+03  0.65337883797E+03 -0.35613546708E+03  0.81319763412E+03  0.25500000920E-02 0. -1.
</event>
<event>
 5   0  0.9844690E-04  0.1580438E+04  0.7818609E-02  0.8832657E-01
        2   -1    0    0  501    0  0.00000000000E+00  0.00000000000E+00  0.64802103348E+03  0.64802103349E+03  0.25500000920E-02 0.  1.
       -2   -1    0    0    0  501  0.00000000000E+00  0.00000000000E+00 -0.96361961647E+03  0.96361961647E+03  0.25500000920E-02 0. -1.
    10030    2    1    2    0    0  0.00000000000E+00  0.00000000000E+00 -0.31559858299E+03  0.16116406500E+04  0.15804376353E+04 0.  0.
        3    1    3    3  502    0 -0.45570168649E+02 -0.17616768593E+03  0.62636543503E+03  0.65226172832E+03  0.10100000352E+00 0.  1.
       -3    1    3    3    0  502  0.45570168649E+02  0.17616768593E+03 -0.94196401802E+03  0.95937892164E+03  0.10100000352E+00 0. -1.
</event>
<event>
 5   0  0.1000121E-03  0.1592643E+04  0.7818609E-02  0.8825080E-01
        2   -1    0    0  501    0  0.00000000000E+00  0.00000000000E+00  0.53801696144E+03  0.53801696144E+03  0.25500000920E-02 0. -1.
       -2   -1    0    0    0  501  0.00000000000E+00  0.00000000000E+00 -0.11786398444E+04  0.11786398444E+04  0.25500000920E-02 0.  1.
    10030    2    1    2    0    0  0.00000000000E+00  0.00000000000E+00 -0.64062288300E+03  0.17166568059E+04  0.15926433722E+04 0.  0.
        4    1    3    3  502    0  0.73051444871E+03 -0.20237369204E+03 -0.57347060161E+02  0.76019521783E+03  0.12699999809E+01 0. -1.
       -4    1    3    3    0  502 -0.73051444871E+03  0.20237369204E+03 -0.58327582284E+03  0.95646158805E+03  0.12699999809E+01 0.  1.
</event>
<event>
 5   0  0.9844690E-04  0.1592549E+04  0.7818609E-02  0.8825139E-01
        2   -1    0    0  501    0  0.00000000000E+00  0.00000000000E+00  0.83867334243E+03  0.83867334244E+03  0.25500000920E-02 0.  1.
       -2   -1    0    0    0  501  0.00000000000E+00  0.00000000000E+00 -0.75601894861E+03  0.75601894862E+03  0.25500000920E-02 0. -1.
    10030    2    1    2    0    0  0.00000000000E+00  0.00000000000E+00  0.82654393822E+02  0.15946922911E+04  0.15925488232E+04 0.  0.
        3    1    3    3  502    0  0.33634339218E+03 -0.22487671355E+03  0.72807569939E+03  0.83294096310E+03  0.10100000352E+00 0.  1.
       -3    1    3    3    0  502 -0.33634339218E+03  0.22487671355E+03 -0.64542130557E+03  0.76175132796E+03  0.10100000352E+00 0. -1.
</event>
<event>
 5   0  0.5281116E-04  0.1587569E+04  0.7818609E-02  0.8828221E-01
       -1   -1    0    0    0  501  0.00000000000E+00  0.00000000000E+00  0.61599859554E+03  0.61599859556E+03  0.50400001928E-02 0.  1.
        1   -1    0    0  501    0  0.00000000000E+00  0.00000000000E+00 -0.10228819284E+04  0.10228819284E+04  0.50400001928E-02 0. -1.
    10030    2    1    2    0    0  0.00000000000E+00  0.00000000000E+00 -0.40688333284E+03  0.16388805240E+04  0.15875689986E+04 0.  0.
        2    1    3    3  502    0  0.54691445670E+03 -0.46328800245E+03 -0.55555634737E+03  0.90685944406E+03  0.25500000920E-02 0.  1.
       -2    1    3    3    0  502 -0.54691445670E+03  0.46328800245E+03  0.14867301453E+03  0.73202107990E+03  0.25500000920E-02 0. -1.
</event>
<event>
 5   0  0.1057872E-03  0.1620117E+04  0.7818609E-02  0.8808284E-01
        2   -1    0    0  501    0  0.00000000000E+00  0.00000000000E+00  0.10740054798E+04  0.10740054798E+04  0.25500000920E-02 0. -1.
       -2   -1    0    0    0  501  0.00000000000E+00  0.00000000000E+00 -0.61097881424E+03  0.61097881425E+03  0.25500000920E-02 0.  1.
    10030    2    1    2    0    0  0.00000000000E+00  0.00000000000E+00  0.46302666551E+03  0.16849842940E+04  0.16201167791E+04 0.  0.
        2    1    3    3  502    0 -0.64135452759E+03 -0.12996981025E+03 -0.26506223859E+03  0.70603524839E+03  0.25500000920E-02 0. -1.
       -2    1    3    3    0  502  0.64135452759E+03  0.12996981025E+03  0.72808890410E+03  0.97894904562E+03  0.25500000920E-02 0.  1.
</event>
<event>
 5   0  0.5532881E-04  0.1609831E+04  0.7818609E-02  0.8814531E-01
       -1   -1    0    0    0  501  0.00000000000E+00  0.00000000000E+00  0.72927260593E+03  0.72927260595E+03  0.50400001928E-02 0.  1.
        1   -1    0    0  501    0  0.00000000000E+00  0.00000000000E+00 -0.88840454144E+03  0.88840454146E+03  0.50400001928E-02 0. -1.
    10030    2    1    2    0    0  0.00000000000E+00  0.00000000000E+00 -0.15913193551E+03  0.16176771474E+04  0.16098311652E+04 0.  0.
        4    1    3    3  502    0 -0.79006951520E+03 -0.71508750147E+02 -0.21648031502E+03  0.82230692560E+03  0.12699999809E+01 0.  1.
       -4    1    3    3    0  502  0.79006951520E+03  0.71508750147E+02  0.57348379509E+02  0.79537022180E+03  0.12699999809E+01 0. -1.
</event>
<event>
 5   0  0.5532881E-04  0.1599502E+04  0.7818609E-02  0.8820854E-01
        1   -1    0    0  501    0  0.00000000000E+00  0.00000000000E+00  0.74467784325E+03  0.74467784327E+03  0.50400001928E-02 0. -1.
       -1   -1    0    0    0  501  0.00000000000E+00  0.00000000000E+00 -0.85889702685E+03  0.85889702687E+03  0.50400001928E-02 0.  1.
    10030    2    1    2    0    0  0.00000000000E+00  0.00000000000E+00 -0.11421918360E+03  0.16035748701E+04  0.15995019044E+04 0.  0.
        4    1    3    3  502    0 -0.20974305594E+03 -0.71800988823E+03  0.22657671508E+03  0.78158107054E+03  0.12699999809E+01 0. -1.
       -4    1    3    3    0  502  0.20974305594E+03  0.71800988823E+03 -0.34079589868E+03  0.82199379960E+03  0.12699999809E+01 0.  1.
</event>
<event>
 5   0  0.1000121E-03  0.1607720E+04  0.7818609E-02  0.8815819E-01
       -2   -1    0    0    0  501  0.00000000000E+00  0.00000000000E+00  0.32116309252E+03  0.32116309253E+03  0.25500000920E-02 0.  1.
        2   -1    0    0  501    0  0.00000000000E+00  0.00000000000E+00 -0.20120330322E+04  0.20120330322E+04  0.25500000920E-02 0. -1.
    10030    2    1    2    0    0  0.00000000000E+00  0.00000000000E+00 -0.16908699397E+04  0.23331961248E+04  0.16077198150E+04 0.  0.
        4    1    3    3  502    0  0.18531354185E+03  0.72486333847E+03 -0.41880540103E+03  0.85741911868E+03  0.12699999809E+01 0. -1.
       -4    1    3    3    0  502 -0.18531354185E+03 -0.72486333847E+03 -0.12720645387E+04  0.14757770061E+04  0.12699999809E+01 0.  1.
</event>
<event>
 5   0  0.5623061E-04  0.1657874E+04  0.7818609E-02  0.8785762E-01
       -1   -1    0    0    0  501  0.00000000000E+00  0.00000000000E+00  0.31918323864E+03  0.31918323868E+03  0.50400001928E-02 0. -1.
        1   -1    0    0  501    0  0.00000000000E+00  0.00000000000E+00 -0.21527965241E+04  0.21527965241E+04  0.50400001928E-02 0.  1.
    10030    2    1    2    0    0  0.00000000000E+00  0.00000000000E+00 -0.18336132855E+04  0.24719797628E+04  0.16578740203E+04 0.  0.
        3    1    3    3  502    0  0.99957717898E+02 -0.30294867605E+03 -0.20576014716E+04  0.20821847353E+04  0.10100000352E+00 0.  1.
       -3    1    3    3    0  502 -0.99957717898E+02  0.30294867605E+03  0.22398818619E+03  0.38979502747E+03  0.10100000352E+00 0. -1.
</event>
<event>
 5   0  0.3832500E-04  0.1028828E+04  0.7818609E-02  0.9277479E-01
       -4   -1    0    0    0  501  0.00000000000E+00  0.00000000000E+00  0.23852738884E+03  0.23853076977E+03  0.12699999809E+01 0. -1.
        4   -1    0    0  501    0  0.00000000000E+00  0.00000000000E+00 -0.11093870738E+04  0.11093878007E+04  0.12699999809E+01 0.  1.
    10030    2    1    2    0    0  0.00000000000E+00  0.00000000000E+00 -0.87085968497E+03  0.13479185705E+04  0.10288284025E+04 0.  0.
        1    1    3    3  502    0 -0.13275899525E+03 -0.49609618395E+03 -0.39644116483E+03  0.64876958294E+03  0.50400001928E-02 0.  1.
       -1    1    3    3    0  502  0.13275899525E+03  0.49609618395E+03 -0.47441852014E+03  0.69914898758E+03  0.50400001928E-02 0. -1.
</event>
<event>
 5   0  0.1030027E-03  0.1544358E+04  0.7818609E-02  0.8855480E-01
       -2   -1    0    0    0  501  0.00000000000E+00  0.00000000000E+00  0.71849043192E+03  0.71849043193E+03  0.25500000920E-02 0. -1.
        2   -1    0    0  501    0  0.00000000000E+00  0.00000000000E+00 -0.82987929659E+03  0.82987929660E+03  0.25500000920E-02 0.  1.
    10030    2    1    2    0    0  0.00000000000E+00  0.00000000000E+00 -0.11138886467E+03  0.15483697285E+04  0.15443579045E+04 0.  0.
        1    1    3    3  502    0 -0.64026043520E+03 -0.31777822428E+03 -0.34859012405E+03  0.79525561885E+03  0.50400001928E-02 0.  1.
       -1    1    3    3    0  502  0.64026043520E+03  0.31777822428E+03  0.23720125939E+03  0.75311410967E+03  0.50400001928E-02 0. -1.
</event>
<event>
 5   0  0.9844690E-04  0.1620641E+04  0.7818609E-02  0.8807967E-01
        2   -1    0    0  501    0  0.00000000000E+00  0.00000000000E+00  0.49660629605E+03  0.49660629605E+03  0.25500000920E-02 0. -1.
       -2   -1    0    0    0  501  0.00000000000E+00  0.00000000000E+00 -0.13222132685E+04  0.13222132685E+04  0.25500000920E-02 0.  1.
    10030    2    1    2    0    0  0.00000000000E+00  0.00000000000E+00 -0.82560697242E+03  0.18188195645E+04  0.16206411495E+04 0.  0.
        3    1    3    3  502    0  0.33317981532E+03 -0.28802588633E+03  0.35055730142E+03  0.56290152986E+03  0.10100000352E+00 0. -1.
       -3    1    3    3    0  502 -0.33317981532E+03  0.28802588633E+03 -0.11761642738E+04  0.12559180347E+04  0.10100000352E+00 0.  1.
</event>
<event>
 5   0  0.1000121E-03  0.1610279E+04  0.7818609E-02  0.8814258E-01
        2   -1    0    0  501    0  0.00000000000E+00  0.00000000000E+00  0.12360708268E+04  0.12360708268E+04  0.25500000920E-02 0.  1.
       -2   -1    0    0    0  501  0.00000000000E+00  0.00000000000E+00 -0.52444392715E+03  0.52444392716E+03  0.25500000920E-02 0. -1.
    10030    2    1    2    0    0  0.00000000000E+00  0.00000000000E+00  0.71162689963E+03  0.17605147539E+04  0.16102792784E+04 0.  0.
        4    1    3    3  502    0  0.59512532301E+03 -0.19129271618E+03  0.91058119612E+03  0.11045029565E+04  0.12699999809E+01 0.  1.
       -4    1    3    3    0  502 -0.59512532301E+03  0.19129271618E+03 -0.19895429649E+03  0.65601179741E+03  0.12699999809E+01 0. -1.
</event>
<event>
 5   0  0.5288658E-04  0.1624790E+04  0.7818609E-02  0.8805462E-01
        1   -1    0    0  501    0  0.00000000000E+00  0.00000000000E+00  0.10287397026E+04  0.10287397027E+04  0.50400001928E-02 0.  1.
       -1   -1    0    0    0  501  0.00000000000E+00  0.00000000000E+00 -0.64154736960E+03  0.64154736962E+03  0.50400001928E-02 0. -1.
    10030    2    1    2    0    0  0.00000000000E+00  0.00000000000E+00  0.38719233305E+03  0.16702870723E+04  0.16247895251E+04 0.  0.
        1    1    3    3  502    0  0.20325458325E+03  0.75088996485E+02  0.99848602561E+03  0.10217265419E+04  0.50400001928E-02 0.  1.
       -1    1    3    3    0  502 -0.20325458325E+03 -0.75088996485E+02 -0.61129369256E+03  0.64856053040E+03  0.50400001928E-02 0. -1.
</event>
<event>
 5   0  0.1000121E-03  0.1155151E+04  0.7818609E-02  0.9153045E-01
       -2   -1    0    0    0  501  0.00000000000E+00  0.00000000000E+00  0.29357237398E+03  0.29357237399E+03  0.25500000920E-02 0. -1.
        2   -1    0    0  501    0  0.00000000000E+00  0.00000000000E+00 -0.11363241076E+04  0.11363241076E+04  0.25500000920E-02 0.  1.
    10030    2    1    2    0    0  0.00000000000E+00  0.00000000000E+00 -0.84275173357E+03  0.14298964816E+04  0.11551508402E+04 0.  0.
        4    1    3    3  502    0 -0.54649023720E+03 -0.14564851127E+03 -0.27634891141E+03  0.62947232022E+03  0.12699999809E+01 0. -1.
       -4    1    3    3    0  502  0.54649023720E+03  0.14564851127E+03 -0.56640282216E+03  0.80042416133E+03  0.12699999809E+01 0.  1.
</event>
<event>
 5   0  0.5623061E-04  0.1621900E+04  0.7818609E-02  0.8807206E-01
        1   -1    0    0  501    0  0.00000000000E+00  0.00000000000E+00  0.24628437691E+04  0.24628437692E+04  0.50400001928E-02 0. -1.
       -1   -1    0    0    0  501  0.00000000000E+00  0.00000000000E+00 -0.26702448794E+03  0.26702448798E+03  0.50400001928E-02 0.  1.
    10030    2    1    2    0    0  0.00000000000E+00  0.00000000000E+00  0.21958192812E+04  0.27298682571E+04  0.16218996225E+04 0.  0.
        3    1    3    3  502    0 -0.42506692642E+03  0.64608068522E+03  0.68722089363E+03  0.10345891506E+04  0.10100000352E+00 0.  1.
       -3    1    3    3    0  502  0.42506692642E+03 -0.64608068522E+03  0.15085983876E+04  0.16952791065E+04  0.10100000352E+00 0. -1.
</event>
<event>
 5   0  0.9844690E-04  0.1609339E+04  0.7818609E-02  0.8814831E-01
        2   -1    0    0  501    0  0.00000000000E+00  0.00000000000E+00  0.16917432634E+04  0.16917432634E+04  0.25500000920E-02 0. -1.
       -2   -1    0    0    0  501  0.00000000000E+00  0.00000000000E+00 -0.38273697943E+03  0.38273697944E+03  0.25500000920E-02 0.  1.
    10030    2    1    2    0    0  0.00000000000E+00  0.00000000000E+00  0.13090062840E+04  0.20744802429E+04  0.16093386302E+04 0.  0.
        3    1    3    3  502    0 -0.33813617155E+03  0.28473150250E+03  0.15212089808E+04  0.15841353706E+04  0.10100000352E+00 0. -1.
       -3    1    3    3    0  502  0.33813617155E+03 -0.28473150250E+03 -0.21220269679E+03  0.49034487226E+03  0.10100000352E+00 0.  1.
</event>
<event>
 5   0  0.9844690E-04  0.1607200E+04  0.7818609E-02  0.8816137E-01
       -2   -1    0    0    0  501  0.00000000000E+00  0.00000000000E+00  0.94049639716E+03  0.94049639716E+03  0.25500000920E-02 0. -1.
        2   -1    0    0  501    0  0.00000000000E+00  0.00000000000E+00 -0.68662962720E+03  0.68662962721E+03  0.25500000920E-02 0.  1.
    10030    2    1    2    0    0  0.00000000000E+00  0.00000000000E+00  0.25386676996E+03  0.16271260244E+04  0.16071996647E+04 0.  0.
        3    1    3    3  502    0  0.51105341876E+03 -0.20102041464E+03  0.72088236730E+03  0.90623186967E+03  0.10100000352E+00 0.  1.
       -3    1    3    3    0  502 -0.51105341876E+03  0.20102041464E+03 -0.46701559734E+03  0.72089415470E+03  0.10100000352E+00 0. -1.
</event>
<event>
 5   0  0.5532881E-04  0.1577330E+04  0.7818609E-02  0.8834597E-01
       -1   -1    0    0    0  501  0.00000000000E+00  0.00000000000E+00  0.72524879562E+03  0.72524879564E+03  0.50400001928E-02 0.  1.
        1   -1    0    0  501    0  0.00000000000E+00  0.00000000000E+00 -0.85762657563E+03  0.85762657564E+03  0.50400001928E-02 0. -1.
    10030    2    1    2    0    0  0.00000000000E+00  0.00000000000E+00 -0.13237778000E+03  0.15828753713E+04  0.15773302014E+04 0.  0.
        4    1    3    3  502    0 -0.76668251952E+03  0.17362761648E+03 -0.23855545042E+01  0.78610173560E+03  0.12699999809E+01 0.  1.
       -4    1    3    3    0  502  0.76668251952E+03 -0.17362761648E+03 -0.12999222550E+03  0.79677363569E+03  0.12699999809E+01 0. -1.
</event>
<event>
 5   0  0.5288658E-04  0.1607699E+04  0.7818609E-02  0.8815832E-01
       -1   -1    0    0    0  501  0.00000000000E+00  0.00000000000E+00  0.86467476426E+03  0.86467476427E+03  0.50400001928E-02 0. -1.
        1   -1    0    0  501    0  0.00000000000E+00  0.00000000000E+00 -0.74730282711E+03  0.74730282713E+03  0.50400001928E-02 0.  1.
    10030    2    1    2    0    0  0.00000000000E+00  0.00000000000E+00  0.11737193715E+03  0.16119775914E+04  0.16076988473E+04 0.  0.
        1    1    3    3  502    0 -0.26759771108E+03  0.55808297466E+03  0.57299239270E+03  0.84343667439E+03  0.50400001928E-02 0. -1.
       -1    1    3    3    0  502  0.26759771108E+03 -0.55808297466E+03 -0.45562045555E+03  0.76854091701E+03  0.50400001928E-02 0.  1.
</event>
<event>
 5   0  0.1030027E-03  0.1602045E+04  0.7818609E-02  0.8819293E-01
        2   -1    0    0  501    0  0.00000000000E+00  0.00000000000E+00  0.18027436739E+04  0.18027436739E+04  0.25500000920E-02 0. -1.
       -2   -1    0    0    0  501  0.00000000000E+00  0.00000000000E+00 -0.35592262081E+03  0.35592262082E+03  0.25500000920E-02 0.  1.
    10030    2    1    2    0    0  0.00000000000E+00  0.00000000000E+00  0.14468210531E+04  0.21586662947E+04  0.16020452591E+04 0.  0.
        1    1    3    3  502    0  0.76634809501E+03  0.23171733918E+03  0.75789364446E+03  0.11024450573E+04  0.50400001928E-02 0. -1.
       -1    1    3    3    0  502 -0.76634809501E+03 -0.23171733918E+03  0.68892740860E+03  0.10562212374E+04  0.50400001928E-02 0.  1.
</event>
<event>
 5   0  0.5532881E-04  0.1752702E+04  0.7818609E-02  0.8731864E-01
       -1   -1    0    0    0  501  0.00000000000E+00  0.00000000000E+00  0.51595280808E+03  0.51595280811E+03  0.50400001928E-02 0. -1.
        1   -1    0    0  501    0  0.00000000000E+00  0.00000000000E+00 -0.14884917203E+04  0.14884917203E+04  0.50400001928E-02 0.  1.
    10030    2    1    2    0    0  0.00000000000E+00  0.00000000000E+00 -0.97253891220E+03  0.20044445284E+04  0.17527024652E+04 0.  0.
        4    1    3    3  502    0 -0.47033089959E+03 -0.42508423923E+03 -0.11782200623E+04  0.13379506320E+04  0.12699999809E+01 0.  1.
       -4    1    3    3    0  502  0.47033089959E+03  0.42508423923E+03  0.20568115009E+03  0.66649389641E+03  0.12699999809E+01 0. -1.
</event>
<event>
 5   0  0.1037321E-03  0.1582133E+04  0.7818609E-02  0.8831600E-01
       -2   -1    0    0    0  501  0.00000000000E+00  0.00000000000E+00  0.77678473504E+03  0.77678473504E+03  0.25500000920E-02 0.  1.
        2   -1    0    0  501    0  0.00000000000E+00  0.00000000000E+00 -0.80561118583E+03  0.80561118583E+03  0.25500000920E-02 0. -1.
    10030    2    1    2    0    0  0.00000000000E+00  0.00000000000E+00 -0.28826450789E+02  0.15823959209E+04  0.15821333339E+04 0.  0.
        5    1    3    3  502    0 -0.31810603291E+03 -0.63709153078E+03  0.33015420656E+03  0.78492098766E+03  0.46999998093E+01 0.  1.
       -5    1    3    3    0  502  0.31810603291E+03  0.63709153078E+03 -0.35898065735E+03  0.79747493322E+03  0.46999998093E+01 0. -1.
</event>
<event>
 5   0  0.5281116E-04  0.1354738E+04  0.7818609E-02  0.8987249E-01
       -1   -1    0    0    0  501  0.00000000000E+00  0.00000000000E+00  0.65298598773E+03  0.65298598775E+03  0.50400001928E-02 0. -1.
        1   -1    0    0  501    0  0.00000000000E+00  0.00000000000E+00 -0.70266259857E+03  0.70266259859E+03  0.50400001928E-02 0.  1.
    10030    2    1    2    0    0  0.00000000000E+00  0.00000000000E+00 -0.49676610841E+02  0.13556485863E+04  0.13547381016E+04 0.  0.
        2    1    3    3  502    0 -0.62677732488E+03 -0.14928567870E+03  0.18433040999E+03  0.67015948020E+03  0.25500000920E-02 0. -1.
       -2    1    3    3    0  502  0.62677732488E+03  0.14928567870E+03 -0.23400702083E+03  0.68548910615E+03  0.25500000920E-02 0.  1.
</event>
<event>
 5   0  0.5425525E-04  0.1614334E+04  0.7818609E-02  0.8811790E-01
       -1   -1    0    0    0  501  0.00000000000E+00  0.00000000000E+00  0.44401079623E+03  0.44401079626E+03  0.50400001928E-02 0.  1.
        1   -1    0    0  501    0  0.00000000000E+00  0.00000000000E+00 -0.14673493799E+04  0.14673493799E+04  0.50400001928E-02 0. -1.
    10030    2    1    2    0    0  0.00000000000E+00  0.00000000000E+00 -0.10233385837E+04  0.19113601762E+04  0.16143344964E+04 0.  0.
        5    1    3    3  502    0  0.59733975650E+03 -0.54215250660E+03 -0.47918489521E+03  0.93828800424E+03  0.46999998093E+01 0. -1.
       -5    1    3    3    0  502 -0.59733975650E+03  0.54215250660E+03 -0.54415368846E+03  0.97307217192E+03  0.46999998093E+01 0.  1.
</event>
<event>
 5   0  0.5288658E-04  0.1700908E+04  0.7818609E-02  0.8760846E-01
       -1   -1    0    0    0  501  0.00000000000E+00  0.00000000000E+00  0.42127906751E+03  0.42127906754E+03  0.50400001928E-02 0.  1.
        1   -1    0    0  501    0  0.00000000000E+00  0.00000000000E+00 -0.17168485493E+04  0.17168485493E+04  0.50400001928E-02 0. -1.
    10030    2    1    2    0    0  0.00000000000E+00  0.00000000000E+00 -0.12955694818E+04  0.21381276169E+04  0.17009084114E+04 0.  0.
        1    1    3    3  502    0 -0.10579156266E+03 -0.83646869160E+02  0.40775121662E+03  0.42947608564E+03  0.50400001928E-02 0.  1.
       -1    1    3    3    0  502  0.10579156266E+03  0.83646869160E+02 -0.17033206984E+04  0.17086515312E+04  0.50400001928E-02 0. -1.
</event>
<event>
 5   0  0.1037321E-03  0.1593480E+04  0.7818609E-02  0.8824564E-01
        2   -1    0    0  501    0  0.00000000000E+00  0.00000000000E+00  0.18907796197E+04  0.18907796197E+04  0.25500000920E-02 0. -1.
       -2   -1    0    0    0  501  0.00000000000E+00  0.00000000000E+00 -0.33573148079E+03  0.33573148079E+03  0.25500000920E-02 0.  1.
    10030    2    1    2    0    0  0.00000000000E+00  0.00000000000E+00  0.15550481390E+04  0.22265111005E+04  0.15934795155E+04 0.  0.
        5    1    3    3  502    0  0.24163675888E+03  0.36500813471E+03  0.17076787434E+04  0.17628976268E+04  0.46999998093E+01 0. -1.
       -5    1    3    3    0  502 -0.24163675888E+03 -0.36500813471E+03 -0.15263060448E+03  0.46361347378E+03  0.46999998093E+01 0.  1.
</event>
<event>
 5   0  0.5281116E-04  0.1646425E+04  0.7818609E-02  0.8792524E-01
        1   -1    0    0  501    0  0.00000000000E+00  0.00000000000E+00  0.59028007224E+03  0.59028007226E+03  0.50400001928E-02 0.  1.
       -1   -1    0    0    0  501  0.00000000000E+00  0.00000000000E+00 -0.11480627478E+04  0.11480627478E+04  0.50400001928E-02 0. -1.
    10030    2    1    2    0    0  0.00000000000E+00  0.00000000000E+00 -0.55778267552E+03  0.17383428200E+04  0.16464246861E+04 0.  0.
        2    1    3    3  502    0  0.53718343916E+03  0.67030209851E+02  0.37590944348E+03  0.65906525173E+03  0.25500000920E-02 0.  1.
       -2    1    3    3    0  502 -0.53718343916E+03 -0.67030209851E+02 -0.93369211900E+03  0.10792775683E+04  0.25500000920E-02 0. -1.
</event>
<event>
 5   0  0.5623061E-04  0.1600969E+04  0.7818609E-02  0.8819953E-01
       -1   -1    0    0    0  501  0.00000000000E+00  0.00000000000E+00  0.53360418652E+03  0.53360418654E+03  0.50400001928E-02 0. -1.
        1   -1    0    0  501    0  0.00000000000E+00  0.00000000000E+00 -0.12008447589E+04  0.12008447589E+04  0.50400001928E-02 0.  1.
    10030    2    1    2    0    0  0.00000000000E+00  0.00000000000E+00 -0.66724057234E+03  0.17344489454E+04  0.16009694447E+04 0.  0.
        3    1    3    3  502    0  0.98199421939E+02 -0.37285625386E+03  0.42637334964E+03  0.57485576974E+03  0.10100000352E+00 0. -1.
       -3    1    3    3    0  502 -0.98199421939E+02  0.37285625386E+03 -0.10936139220E+04  0.11595931757E+04  0.10100000352E+00 0.  1.
</event>
<event>
 5   0  0.9844690E-04  0.1614199E+04  0.7818609E-02  0.8811872E-01
        2   -1    0    0  501    0  0.00000000000E+00  0.00000000000E+00  0.67965773572E+03  0.67965773572E+03  0.25500000920E-02 0. -1.
       -2   -1    0    0    0  501  0.00000000000E+00  0.00000000000E+00 -0.95843753240E+03  0.95843753241E+03  0.25500000920E-02 0.  1.
    10030    2    1    2    0    0  0.00000000000E+00  0.00000000000E+00 -0.27877979669E+03  0.16380952681E+04  0.16141988516E+04 0.  0.
        3    1    3    3  502    0  0.25546674946E+03 -0.52769554515E+03  0.42351407372E+03  0.72324963138E+03  0.10100000352E+00 0. -1.
       -3    1    3    3    0  502 -0.25546674946E+03  0.52769554515E+03 -0.70229387041E+03  0.91484563674E+03  0.10100000352E+00 0.  1.
</event>
<event>
 5   0  0.1037321E-03  0.1631432E+04  0.7818609E-02  0.8801467E-01
        2   -1    0    0  501    0  0.00000000000E+00  0.00000000000E+00  0.12103753130E+04  0.12103753130E+04  0.25500000920E-02 0.  1.
       -2   -1    0    0    0  501  0.00000000000E+00  0.00000000000E+00 -0.54974074483E+03  0.54974074483E+03  0.25500000920E-02 0. -1.
    10030    2    1    2    0    0  0.00000000000E+00  0.00000000000E+00  0.66063456820E+03  0.17601160579E+04  0.16314320410E+04 0.  0.
        5    1    3    3  502    0 -0.59632178770E+03 -0.54772725436E+03  0.22370079602E+03  0.84004104411E+03  0.46999998093E+01 0. -1.
       -5    1    3    3    0  502  0.59632178770E+03  0.54772725436E+03  0.43693377218E+03  0.92007501375E+03  0.46999998093E+01 0.  1.
</event>
<event>
 5   0  0.1030027E-03  0.1067961E+04  0.7818609E-02  0.9236994E-01
       -2   -1    0    0    0  501  0.00000000000E+00  0.00000000000E+00  0.22318474287E+03  0.22318474288E+03  0.25500000920E-02 0.  1.
        2   -1    0    0  501    0  0.00000000000E+00  0.00000000000E+00 -0.12775753779E+04  0.12775753779E+04  0.25500000920E-02 0. -1.
    10030    2    1    2    0    0  0.00000000000E+00  0.00000000000E+00 -0.10543906351E+04  0.15007601208E+04  0.10679612956E+04 0.  0.
        1    1    3    3  502    0  0.17362640539E+03 -0.25019671276E+03 -0.11435744498E+04  0.11834302033E+04  0.50400001928E-02 0. -1.
       -1    1    3    3    0  502 -0.17362640539E+03  0.25019671276E+03  0.89183814753E+02  0.31732991754E+03  0.50400001928E-02 0.  1.
</event>
<event>
 5   0  0.5532881E-04  0.1587642E+04  0.7818609E-02  0.8828176E-01
        1   -1    0    0  501    0  0.00000000000E+00  0.00000000000E+00  0.63851209179E+03  0.63851209181E+03  0.50400001928E-02 0. -1.
       -1   -1    0    0    0  501  0.00000000000E+00  0.00000000000E+00 -0.98690686729E+03  0.98690686730E+03  0.50400001928E-02 0.  1.
    10030    2    1    2    0    0  0.00000000000E+00  0.00000000000E+00 -0.34839477550E+03  0.16254189591E+04  0.15876422371E+04 0.  0.
        4    1    3    3  502    0  0.52849954386E+03 -0.57279411980E+03 -0.32860199909E+03  0.84580479913E+03  0.12699999809E+01 0. -1.
       -4    1    3    3    0  502 -0.52849954386E+03  0.57279411980E+03 -0.19792776409E+02  0.77961415997E+03  0.12699999809E+01 0.  1.
</event>
<event>
 5   0  0.5623061E-04  0.1555109E+04  0.7818609E-02  0.8848611E-01
       -1   -1    0    0    0  501  0.00000000000E+00  0.00000000000E+00  0.30338511286E+03  0.30338511291E+03  0.50400001928E-02 0.  1.
        1   -1    0    0  501    0  0.00000000000E+00  0.00000000000E+00 -0.19928167105E+04  0.19928167105E+04  0.50400001928E-02 0. -1.
    10030    2    1    2    0    0  0.00000000000E+00  0.00000000000E+00 -0.16894315976E+04  0.22962018234E+04  0.15551089000E+04 0.  0.
        3    1    3    3  502    0  0.61049988073E+03 -0.42775094624E+03 -0.11712643779E+04  0.13883591860E+04  0.10100000352E+00 0. -1.
       -3    1    3    3    0  502 -0.61049988073E+03  0.42775094624E+03 -0.51816721975E+03  0.90784263736E+03  0.10100000352E+00 0.  1.
</event>
<event>
 5   0  0.5288658E-04  0.1595341E+04  0.7818609E-02  0.8823415E-01
        1   -1    0    0  501    0  0.00000000000E+00  0.00000000000E+00  0.11155573149E+04  0.11155573149E+04  0.50400001928E-02 0.  1.
       -1   -1    0    0    0  501  0.00000000000E+00  0.00000000000E+00 -0.57036825568E+03  0.57036825570E+03  0.50400001928E-02 0. -1.
    10030    2    1    2    0    0  0.00000000000E+00  0.00000000000E+00  0.54518905925E+03  0.16859255706E+04  0.15953413175E+04 0.  0.
        1    1    3    3  502    0  0.42197601701E+02  0.25740233875E+03 -0.52402583279E+03  0.58535431581E+03  0.50400001928E-02 0. -1.
       -1    1    3    3    0  502 -0.42197601701E+02 -0.25740233875E+03  0.10692148920E+04  0.11005712548E+04  0.50400001928E-02 0.  1.
</event>
<event>
 5   0  0.1057872E-03  0.1560890E+04  0.7818609E-02  0.8844942E-01
        2   -1    0    0  501    0  0.00000000000E+00  0.00000000000E+00  0.77485918578E+03  0.77485918578E+03  0.25500000920E-02 0. -1.
       -2   -1    0    0    0  501  0.00000000000E+00  0.00000000000E+00 -0.78607092170E+03  0.78607092170E+03  0.25500000920E-02 0.  1.
    10030    2    1    2    0    0  0.00000000000E+00  0.00000000000E+00 -0.11211735919E+02  0.15609301075E+04  0.15608898415E+04 0.  0.
        2    1    3    3  502    0 -0.20746019614E+03  0.65239729465E+03  0.36914679287E+03  0.77777330743E+03  0.25500000920E-02 0. -1.
       -2    1    3    3    0  502  0.20746019614E+03 -0.65239729465E+03 -0.38035852879E+03  0.78315680006E+03  0.25500000920E-02 0.  1.
</event>
<event>
 5   0  0.5288658E-04  0.1890282E+04  0.7818609E-02  0.8659709E-01
       -1   -1    0    0    0  501  0.00000000000E+00  0.00000000000E+00  0.61744478125E+03  0.61744478127E+03  0.50400001928E-02 0.  1.
        1   -1    0    0  501    0  0.00000000000E+00  0.00000000000E+00 -0.14467560523E+04  0.14467560524E+04  0.50400001928E-02 0. -1.
    10030    2    1    2    0    0  0.00000000000E+00  0.00000000000E+00 -0.82931127109E+03  0.20642008336E+04  0.18902824914E+04 0.  0.
        1    1    3    3  502    0  0.15861410610E+03  0.79306887414E+03 -0.94870745809E+03  0.12466605452E+04  0.50400001928E-02 0. -1.
       -1    1    3    3    0  502 -0.15861410610E+03 -0.79306887414E+03  0.11939618700E+03  0.81754028847E+03  0.50400001928E-02 0.  1.
</event>
<event>
 5   0  0.3832500E-04  0.1489180E+04  0.7818609E-02  0.8891680E-01
       -4   -1    0    0    0  501  0.00000000000E+00  0.00000000000E+00  0.62651873932E+03  0.62652002652E+03  0.12699999809E+01 0.  1.
        4   -1    0    0  501    0  0.00000000000E+00  0.00000000000E+00 -0.88490980355E+03  0.88491071489E+03  0.12699999809E+01 0. -1.
    10030    2    1    2    0    0  0.00000000000E+00  0.00000000000E+00 -0.25839106423E+03  0.15114307414E+04  0.14891799569E+04 0.  0.
        4    1    3    3  502    0  0.71165763864E+03 -0.81574125204E+02  0.77069202854E+02  0.72045277949E+03  0.12699999809E+01 0.  1.
       -4    1    3    3    0  502 -0.71165763864E+03  0.81574125204E+02 -0.33546026708E+03  0.79097796191E+03  0.12699999809E+01 0. -1.
</event>
<event>
 5   0  0.5532881E-04  0.1533692E+04  0.7818609E-02  0.8862352E-01
        1   -1    0    0  501    0  0.00000000000E+00  0.00000000000E+00  0.60720755772E+03  0.60720755774E+03  0.50400001928E-02 0. -1.
       -1   -1    0    0    0  501  0.00000000000E+00  0.00000000000E+00 -0.96845374851E+03  0.96845374852E+03  0.50400001928E-02 0.  1.
    10030    2    1    2    0    0  0.00000000000E+00  0.00000000000E+00 -0.36124619078E+03  0.15756613063E+04  0.15336915406E+04 0.  0.
        4    1    3    3  502    0 -0.60946828907E+03 -0.41664155313E+03 -0.39368447720E+03  0.83667846851E+03  0.12699999809E+01 0.  1.
       -4    1    3    3    0  502  0.60946828907E+03  0.41664155313E+03  0.32438286415E+02  0.73898283776E+03  0.12699999809E+01 0. -1.
</event>
<event>
 5   0  0.1030027E-03  0.1610927E+04  0.7818609E-02  0.8813863E-01
        2   -1    0    0  501    0  0.00000000000E+00  0.00000000000E+00  0.67909169274E+03  0.67909169275E+03  0.25500000920E-02 0.  1.
       -2   -1    0    0    0  501  0.00000000000E+00  0.00000000000E+00 -0.95535150491E+03  0.95535150491E+03  0.25500000920E-02 0. -1.
    10030    2    1    2    0    0  0.00000000000E+00  0.00000000000E+00 -0.27625981216E+03  0.16344431977E+04  0.16109267775E+04 0.  0.
        1    1    3    3  502    0 -0.12811810750E+03  0.55943081815E+03  0.43526988589E+03  0.72030338286E+03  0.50400001928E-02 0.  1.
       -1    1    3    3    0  502  0.12811810750E+03 -0.55943081815E+03 -0.71152969805E+03  0.91413981480E+03  0.50400001928E-02 0. -1.
</event>
<event>
 5   0  0.9844690E-04  0.1594917E+04  0.7818609E-02  0.8823677E-01
       -2   -1    0    0    0  501  0.00000000000E+00  0.00000000000E+00  0.82968701919E+03  0.82968701919E+03  0.25500000920E-02 0. -1.
        2   -1    0    0  501    0  0.00000000000E+00  0.00000000000E+00 -0.76648226443E+03  0.76648226444E+03  0.25500000920E-02 0.  1.
    10030    2    1    2    0    0  0.00000000000E+00  0.00000000000E+00  0.63204754758E+02  0.15961692836E+04  0.15949174088E+04 0.  0.
        3    1    3    3  502    0  0.29002248931E+03  0.16233101122E+03 -0.69386382126E+03  0.76935779333E+03  0.10100000352E+00 0.  1.
       -3    1    3    3    0  502 -0.29002248931E+03 -0.16233101122E+03  0.75706857601E+03  0.82681149030E+03  0.10100000352E+00 0. -1.
</event>
<event>
 5   0  0.5281116E-04  0.1553043E+04  0.7818609E-02  0.8849926E-01
       -1   -1    0    0    0  501  0.00000000000E+00  0.00000000000E+00  0.58398603156E+03  0.58398603158E+03  0.50400001928E-02 0.  1.
        1   -1    0    0  501    0  0.00000000000E+00  0.00000000000E+00 -0.10325343905E+04  0.10325343905E+04  0.50400001928E-02 0. -1.
    10030    2    1    2    0    0  0.00000000000E+00  0.00000000000E+00 -0.44854835894E+03  0.16165204221E+04  0.15530430273E+04 0.  0.
        2    1    3    3  502    0 -0.25445661660E+03  0.29674915756E+03  0.47410223782E+03  0.61447633327E+03  0.25500000920E-02 0.  1.
       -2    1    3    3    0  502  0.25445661660E+03 -0.29674915756E+03 -0.92265059676E+03  0.10020440888E+04  0.25500000920E-02 0. -1.
</event>
<event>
 5   0  0.3832500E-04  0.1806492E+04  0.7818609E-02  0.8702855E-01
        3   -1    0    0  501    0  0.00000000000E+00  0.00000000000E+00  0.68108964250E+03  0.68108964999E+03  0.10100000352E+00 0. -1.
       -3   -1    0    0    0  501  0.00000000000E+00  0.00000000000E+00 -0.11978648103E+04  0.11978648145E+04  0.10100000352E+00 0.  1.
    10030    2    1    2    0    0  0.00000000000E+00  0.00000000000E+00 -0.51677516777E+03  0.18789544645E+04  0.18064919888E+04 0.  0.
        1    1    3    3  502    0  0.28313264467E+03 -0.63235076519E+03  0.34435880925E+03  0.77370186393E+03  0.50400001928E-02 0. -1.
       -1    1    3    3    0  502 -0.28313264467E+03  0.63235076519E+03 -0.86113397701E+03  0.11052526006E+04  0.50400001928E-02 0.  1.
</event>
<event>
 5   0  0.5425525E-04  0.1626455E+04  0.7818609E-02  0.8804458E-01
       -1   -1    0    0    0  501  0.00000000000E+00  0.00000000000E+00  0.11218910991E+04  0.11218910992E+04  0.50400001928E-02 0. -1.
        1   -1    0    0  501    0  0.00000000000E+00  0.00000000000E+00 -0.58948611679E+03  0.58948611681E+03  0.50400001928E-02 0.  1.
    10030    2    1    2    0    0  0.00000000000E+00  0.00000000000E+00  0.53240498235E+03  0.17113772160E+04  0.16264553207E+04 0.  0.
        5    1    3    3  502    0 -0.27000427732E+03 -0.75972649444E+03  0.37770966141E+03  0.89037819742E+03  0.46999998093E+01 0. -1.
       -5    1    3    3    0  502  0.27000427732E+03  0.75972649444E+03  0.15469532094E+03  0.82099901854E+03  0.46999998093E+01 0.  1.
</event>
<event>
 5   0  0.1037321E-03  0.1601742E+04  0.7818609E-02  0.8819478E-01
       -2   -1    0    0    0  501  0.00000000000E+00  0.00000000000E+00  0.45208950655E+03  0.45208950656E+03  0.25500000920E-02 0. -1.
        2   -1    0    0  501    0  0.00000000000E+00  0.00000000000E+00 -0.14187332684E+04  0.14187332685E+04  0.25500000920E-02 0.  1.
    10030    2    1    2    0    0  0.00000000000E+00  0.00000000000E+00 -0.96664376190E+03  0.18708227750E+04  0.16017420807E+04 0.  0.
        5    1    3    3  502    0  0.56888402902E+03 -0.28008043216E+03 -0.10546818651E+04  0.12306299255E+04  0.46999998093E+01 0.  1.
       -5    1    3    3    0  502 -0.56888402902E+03  0.28008043216E+03  0.88038103208E+02  0.64019284951E+03  0.46999998093E+01 0. -1.
</event>
<event>
 5   0  0.1030027E-03  0.1587554E+04  0.7818609E-02  0.8828231E-01
       -2   -1    0    0    0  501  0.00000000000E+00  0.00000000000E+00  0.86127137585E+03  0.86127137586E+03  0.25500000920E-02 0. -1.
        2   -1    0    0  501    0  0.00000000000E+00  0.00000000000E+00 -0.73157149666E+03  0.73157149666E+03  0.25500000920E-02 0.  1.
    10030    2    1    2    0    0  0.00000000000E+00  0.00000000000E+00  0.12969987919E+03  0.15928428725E+04  0.15875535764E+04 0.  0.
        1    1    3    3  502    0  0.40655016329E+02 -0.98721583611E+02  0.85403448131E+03  0.86068209969E+03  0.50400001928E-02 0. -1.
       -1    1    3    3    0  502 -0.40655016329E+02  0.98721583611E+02 -0.72433460212E+03  0.73216077283E+03  0.50400001928E-02 0.  1.
</event>
<event>
 5   0  0.5425525E-04  0.1610967E+04  0.7818609E-02  0.8813839E-01
       -1   -1    0    0    0  501  0.00000000000E+00  0.00000000000E+00  0.14349192944E+04  0.14349192944E+04  0.50400001928E-02 0.  1.
        1   -1    0    0  501    0  0.00000000000E+00  0.00000000000E+00 -0.45215355895E+03  0.45215355898E+03  0.50400001928E-02 0. -1.
    10030    2    1    2    0    0  0.00000000000E+00  0.00000000000E+00  0.98276573547E+03  0.18870728534E+04  0.16109672446E+04 0.  0.
        5    1    3    3  502    0 -0.64762550405E+03 -0.22328054513E+03  0.98768347347E+03  0.12020040470E+04  0.46999998093E+01 0.  1.
       -5    1    3    3    0  502  0.64762550405E+03  0.22328054513E+03 -0.49177380043E+01  0.68506880637E+03  0.46999998093E+01 0. -1.
</event>
<event>
 5   0  0.5281116E-04  0.1588341E+04  0.7818609E-02  0.8827743E-01
        1   -1    0    0  501    0  0.00000000000E+00  0.00000000000E+00  0.84593811620E+03  0.84593811622E+03  0.50400001928E-02 0.  1.
       -1   -1    0    0    0  501  0.00000000000E+00  0.00000000000E+00 -0.74557050191E+03  0.74557050193E+03  0.50400001928E-02 0. -1.
    10030    2    1    2    0    0  0.00000000000E+00  0.00000000000E+00  0.10036761429E+03  0.15915086181E+04  0.15883406510E+04 0.  0.
        2    1    3    3  502    0  0.70402886522E+03  0.34755036883E+03  0.16983136730E+03  0.80329981654E+03  0.25500000920E-02 0. -1.
       -2    1    3    3    0  502 -0.70402886522E+03 -0.34755036883E+03 -0.69463753006E+02  0.78820880160E+03  0.25500000920E-02 0.  1.
</event>
<event>
 5   0  0.1000121E-03  0.1599979E+04  0.7818609E-02  0.8820561E-01
       -2   -1    0    0    0  501  0.00000000000E+00  0.00000000000E+00  0.34655261060E+03  0.34655261061E+03  0.25500000920E-02 0.  1.
        2   -1    0    0  501    0  0.00000000000E+00  0.00000000000E+00 -0.18467140700E+04  0.18467140700E+04  0.25500000920E-02 0. -1.
    10030    2    1    2    0    0  0.00000000000E+00  0.00000000000E+00 -0.15001614594E+04  0.21932666806E+04  0.15999794774E+04 0.  0.
        4    1    3    3  502    0 -0.54258013633E+02 -0.69949651634E+03 -0.12769828993E+04  0.14570265085E+04  0.12699999809E+01 0.  1.
       -4    1    3    3    0  502  0.54258013633E+02  0.69949651634E+03 -0.22317856005E+03  0.73624017208E+03  0.12699999809E+01 0. -1.
</event>
<event>
 5   0  0.1030027E-03  0.1590398E+04  0.7818609E-02  0.8826469E-01
       -2   -1    0    0    0  501  0.00000000000E+00  0.00000000000E+00  0.36646996483E+03  0.36646996484E+03  0.25500000920E-02 0.  1.
        2   -1    0    0  501    0  0.00000000000E+00  0.00000000000E+00 -0.17254927843E+04  0.17254927843E+04  0.25500000920E-02 0. -1.
    10030    2    1    2    0    0  0.00000000000E+00  0.00000000000E+00 -0.13590228195E+04  0.20919627492E+04  0.15903977867E+04 0.  0.
        1    1    3    3  502    0  0.62129946681E+03 -0.28237729630E+00 -0.26673708427E+02  0.62187184688E+03  0.50400001928E-02 0.  1.
       -1    1    3    3    0  502 -0.62129946681E+03  0.28237729630E+00 -0.13323491111E+04  0.14700909023E+04  0.50400001928E-02 0. -1.
</event>
<event>
 5   0  0.1037321E-03  0.1604481E+04  0.7818609E-02  0.8817800E-01
        2   -1    0    0  501    0  0.00000000000E+00  0.00000000000E+00  0.14768907270E+04  0.14768907270E+04  0.25500000920E-02 0. -1.
       -2   -1    0    0    0  501  0.00000000000E+00  0.00000000000E+00 -0.43577334990E+03  0.43577334991E+03  0.25500000920E-02 0.  1.
    10030    2    1    2    0    0  0.00000000000E+00  0.00000000000E+00  0.10411173771E+04  0.19126640769E+04  0.16044807503E+04 0.  0.
        5    1    3    3  502    0  0.43871404700E+03 -0.66669942627E+03  0.61747231931E+03  0.10090848800E+04  0.46999998093E+01 0. -1.
       -5    1    3    3    0  502 -0.43871404700E+03  0.66669942627E+03  0.42364505781E+03  0.90357919688E+03  0.46999998093E+01 0.  1.
</event>
<event>
 5   0  0.1037321E-03  0.1574564E+04  0.7818609E-02  0.8836329E-01
        2   -1    0    0  501    0  0.00000000000E+00  0.00000000000E+00  0.13362992266E+04  0.13362992266E+04  0.25500000920E-02 0.  1.
       -2   -1    0    0    0  501  0.00000000000E+00  0.00000000000E+00 -0.46382792382E+03  0.46382792382E+03  0.25500000920E-02 0. -1.
    10030    2    1    2    0    0  0.00000000000E+00  0.00000000000E+00  0.87247130273E+03  0.18001271504E+04  0.15745639344E+04 0.  0.
        5    1    3    3  502    0 -0.58513770122E+03  0.48278324945E+03  0.19554051971E+03  0.78340537411E+03  0.46999998093E+01 0. -1.
       -5    1    3    3    0  502  0.58513770122E+03 -0.48278324945E+03  0.67693078302E+03  0.10167217763E+04  0.46999998093E+01 0.  1.
</event>
<event>
 5   0  0.1037321E-03  0.1582737E+04  0.7818609E-02  0.8831224E-01
        2   -1    0    0  501    0  0.00000000000E+00  0.00000000000E+00  0.16211460650E+04  0.16211460650E+04  0.25500000920E-02 0.  1.
       -2   -1    0    0    0  501  0.00000000000E+00  0.00000000000E+00 -0.38630946228E+03  0.38630946229E+03  0.25500000920E-02 0. -1.
    10030    2    1    2    0    0  0.00000000000E+00  0.00000000000E+00  0.12348366027E+04  0.20074555273E+04  0.15827369518E+04 0.  0.
        5    1    3    3  502    0  0.34383218853E+03  0.43778353728E+03 -0.95981135369E+02  0.56489774980E+03  0.46999998093E+01 0. -1.
       -5    1    3    3    0  502 -0.34383218853E+03 -0.43778353728E+03  0.13308177381E+04  0.14425577775E+04  0.46999998093E+01 0.  1.
</event>
<event>
 5   0  0.5425525E-04  0.1661567E+04  0.7818609E-02  0.8783593E-01
        1   -1    0    0  501    0  0.00000000000E+00  0.00000000000E+00  0.95892012234E+03  0.95892012235E+03  0.50400001928E-02 0.  1.
       -1   -1    0    0    0  501  0.00000000000E+00  0.00000000000E+00 -0.71976899585E+03  0.71976899587E+03  0.50400001928E-02 0. -1.
    10030    2    1    2    0    0  0.00000000000E+00  0.00000000000E+00  0.23915112649E+03  0.16786891182E+04  0.16615666987E+04 0.  0.
        5    1    3    3  502    0  0.92769613740E+02  0.48559674642E+03  0.79411473513E+03  0.93544144868E+03  0.46999998093E+01 0.  1.
       -5    1    3    3    0  502 -0.92769613740E+02 -0.48559674642E+03 -0.55496360863E+03  0.74324766954E+03  0.46999998093E+01 0. -1.
</event>
<event>
 5   0  0.1030027E-03  0.1644586E+04  0.7818609E-02  0.8793616E-01
       -2   -1    0    0    0  501  0.00000000000E+00  0.00000000000E+00  0.59618890431E+03  0.59618890432E+03  0.25500000920E-02 0. -1.
        2   -1    0    0  501    0  0.00000000000E+00  0.00000000000E+00 -0.11341464613E+04  0.11341464613E+04  0.25500000920E-02 0.  1.
    10030    2    1    2    0    0  0.00000000000E+00  0.00000000000E+00 -0.53795755698E+03  0.17303353656E+04  0.16445857060E+04 0.  0.
        1    1    3    3  502    0 -0.39189881258E+03  0.49543960857E+03  0.28489150089E+03  0.69297059992E+03  0.50400001928E-02 0.  1.
       -1    1    3    3    0  502  0.39189881258E+03 -0.49543960857E+03 -0.82284905787E+03  0.10373647657E+04  0.50400001928E-02 0. -1.
</event>
<event>
 5   0  0.5281116E-04  0.1430413E+04  0.7818609E-02  0.8932094E-01
       -1   -1    0    0    0  501  0.00000000000E+00  0.00000000000E+00  0.33703708113E+03  0.33703708117E+03  0.50400001928E-02 0.  1.
        1   -1    0    0  501    0  0.00000000000E+00  0.00000000000E+00 -0.15176973084E+04  0.15176973084E+04  0.50400001928E-02 0. -1.
    10030    2    1    2    0    0  0.00000000000E+00  0.00000000000E+00 -0.11806602272E+04  0.18547343895E+04  0.14304129067E+04 0.  0.
        2    1    3    3  502    0 -0.88879216649E+02 -0.70225848231E+03 -0.45775653568E+03  0.84297540717E+03  0.25500000920E-02 0. -1.
       -2    1    3    3    0  502  0.88879216649E+02  0.70225848231E+03 -0.72290369156E+03  0.10117589824E+04  0.25500000920E-02 0.  1.
</event>
<event>
 5   0  0.5281116E-04  0.1628937E+04  0.7818609E-02  0.8802966E-01
       -1   -1    0    0    0  501  0.00000000000E+00  0.00000000000E+00  0.55963893231E+03  0.55963893233E+03  0.50400001928E-02 0.  1.
        1   -1    0    0  501    0  0.00000000000E+00  0.00000000000E+00 -0.11853335421E+04  0.11853335421E+04  0.50400001928E-02 0. -1.
    10030    2    1    2    0    0  0.00000000000E+00  0.00000000000E+00 -0.62569460981E+03  0.17449724745E+04  0.16289368287E+04 0.  0.
        2    1    3    3  502    0  0.80117868463E+03 -0.27670339980E+02 -0.46699286961E+03  0.92775819731E+03  0.25500000920E-02 0.  1.
       -2    1    3    3    0  502 -0.80117868463E+03  0.27670339980E+02 -0.15870174020E+03  0.81721427714E+03  0.25500000920E-02 0. -1.
</event>
<event>
 5   0  0.5623061E-04  0.1594849E+04  0.7818609E-02  0.8823719E-01
       -1   -1    0    0    0  501  0.00000000000E+00  0.00000000000E+00  0.80359085354E+03  0.80359085355E+03  0.50400001928E-02 0.  1.
        1   -1    0    0  501    0  0.00000000000E+00  0.00000000000E+00 -0.79130576882E+03  0.79130576883E+03  0.50400001928E-02 0. -1.
    10030    2    1    2    0    0  0.00000000000E+00  0.00000000000E+00  0.12285084719E+02  0.15948966224E+04  0.15948493072E+04 0.  0.
        3    1    3    3  502    0 -0.73874870349E+02 -0.70877884910E+03 -0.35172435078E+03  0.79469175316E+03  0.10100000352E+00 0. -1.
       -3    1    3    3    0  502  0.73874870349E+02  0.70877884910E+03  0.36400943550E+03  0.80020486923E+03  0.10100000352E+00 0.  1.
</event>
<event>
 5   0  0.1030027E-03  0.1497689E+04  0.7818609E-02  0.8885991E-01
        2   -1    0    0  501    0  0.00000000000E+00  0.00000000000E+00  0.12514104077E+04  0.12514104077E+04  0.25500000920E-02 0.  1.
       -2   -1    0    0    0  501  0.00000000000E+00  0.00000000000E+00 -0.44810886040E+03  0.44810886041E+03  0.25500000920E-02 0. -1.
    10030    2    1    2    0    0  0.00000000000E+00  0.00000000000E+00  0.80330154727E+03  0.16995192681E+04  0.14976890087E+04 0.  0.
        1    1    3    3  502    0  0.54939772386E+03 -0.50749648148E+03  0.35953364454E+03  0.82985238403E+03  0.50400001928E-02 0.  1.
       -1    1    3    3    0  502 -0.54939772386E+03  0.50749648148E+03  0.44376790273E+03  0.86966688405E+03  0.50400001928E-02 0. -1.
</event>
<event>
 5   0  0.5532881E-04  0.1639638E+04  0.7818609E-02  0.8796560E-01
       -1   -1    0    0    0  501  0.00000000000E+00  0.00000000000E+00  0.80864063535E+03  0.80864063536E+03  0.50400001928E-02 0. -1.
        1   -1    0    0  501    0  0.00000000000E+00  0.00000000000E+00 -0.83115172976E+03  0.83115172978E+03  0.50400001928E-02 0.  1.
    10030    2    1    2    0    0  0.00000000000E+00  0.00000000000E+00 -0.22511094413E+02  0.16397923651E+04  0.16396378415E+04 0.  0.
        4    1    3    3  502    0 -0.23704376547E+03  0.78284397996E+03 -0.66641324743E+02  0.82065651936E+03  0.12699999809E+01 0.  1.
       -4    1    3    3    0  502  0.23704376547E+03 -0.78284397996E+03  0.44130230330E+02  0.81913584578E+03  0.12699999809E+01 0. -1.
</event>
<event>
 5   0  0.5532881E-04  0.1555841E+04  0.7818609E-02  0.8848146E-01
        1   -1    0    0  501    0  0.00000000000E+00  0.00000000000E+00  0.91423988448E+03  0.91423988450E+03  0.50400001928E-02 0.  1.
       -1   -1    0    0    0  501  0.00000000000E+00  0.00000000000E+00 -0.66192709732E+03  0.66192709734E+03  0.50400001928E-02 0. -1.
    10030    2    1    2    0    0  0.00000000000E+00  0.00000000000E+00  0.25231278717E+03  0.15761669818E+04  0.15558408055E+04 0.  0.
        4    1    3    3  502    0  0.75344448551E+03  0.19151062009E+03  0.15487511332E+03  0.79268078315E+03  0.12699999809E+01 0.  1.
       -4    1    3    3    0  502 -0.75344448551E+03 -0.19151062009E+03  0.97437673841E+02  0.78348619868E+03  0.12699999809E+01 0. -1.
</event>
<event>
 5   0  0.5425525E-04  0.1023191E+04  0.7818609E-02  0.9283469E-01
        1   -1    0    0  501    0  0.00000000000E+00  0.00000000000E+00  0.14019963320E+04  0.14019963320E+04  0.50400001928E-02 0.  1.
       -1   -1    0    0    0  501  0.00000000000E+00  0.00000000000E+00 -0.18668362565E+03  0.18668362572E+03  0.50400001928E-02 0. -1.
    10030    2    1    2    0    0  0.00000000000E+00  0.00000000000E+00  0.12153127064E+04  0.15886799578E+04  0.10231906146E+04 0.  0.
        5    1    3    3  502    0  0.24059975517E+03  0.44672275447E+03  0.70897590264E+03  0.87184768284E+03  0.46999998093E+01 0. -1.
       -5    1    3    3    0  502 -0.24059975517E+03 -0.44672275447E+03  0.50633680374E+03  0.71683227492E+03  0.46999998093E+01 0.  1.
</event>
<event>
 5   0  0.1057872E-03  0.1616910E+04  0.7818609E-02  0.8810226E-01
       -2   -1    0    0    0  501  0.00000000000E+00  0.00000000000E+00  0.24361002190E+03  0.24361002191E+03  0.25500000920E-02 0.  1.
        2   -1    0    0  501    0  0.00000000000E+00  0.00000000000E+00 -0.26829758322E+04  0.26829758322E+04  0.25500000920E-02 0. -1.
    10030    2    1    2    0    0  0.00000000000E+00  0.00000000000E+00 -0.24393658103E+04  0.29265858541E+04  0.16169103887E+04 0.  0.
        2    1    3    3  502    0 -0.74429343338E+03  0.20069046623E+02 -0.17898266744E+04  0.19385187660E+04  0.25500000920E-02 0. -1.
       -2    1    3    3    0  502  0.74429343338E+03 -0.20069046623E+02 -0.64953913588E+03  0.98806708813E+03  0.25500000920E-02 0.  1.
</event>
<event>
 5   0  0.1000121E-03  0.1607833E+04  0.7818609E-02  0.8815750E-01
        2   -1    0    0  501    0  0.00000000000E+00  0.00000000000E+00  0.16314576794E+04  0.16314576794E+04  0.25500000920E-02 0. -1.
       -2   -1    0    0    0  501  0.00000000000E+00  0.00000000000E+00 -0.39613782909E+03  0.39613782910E+03  0.25500000920E-02 0.  1.
    10030    2    1    2    0    0  0.00000000000E+00  0.00000000000E+00  0.12353198503E+04  0.20275955085E+04  0.16078334533E+04 0.  0.
        4    1    3    3  502    0 -0.70932898794E+03  0.17759408595E+03  0.10389285943E+04  0.12704572049E+04  0.12699999809E+01 0. -1.
       -4    1    3    3    0  502  0.70932898794E+03 -0.17759408595E+03  0.19639125605E+03  0.75713830365E+03  0.12699999809E+01 0.  1.
</event>
<event>
 5   0  0.1037321E-03  0.1614423E+04  0.7818609E-02  0.8811736E-01
        2   -1    0    0  501    0  0.00000000000E+00  0.00000000000E+00  0.79402115096E+03  0.79402115096E+03  0.25500000920E-02 0. -1.
       -2   -1    0    0    0  501  0.00000000000E+00  0.00000000000E+00 -0.82062081078E+03  0.82062081078E+03  0.25500000920E-02 0.  1.
    10030    2    1    2    0    0  0.00000000000E+00  0.00000000000E+00 -0.26599659822E+02  0.16146419617E+04  0.16144228451E+04 0.  0.
        5    1    3    3  502    0  0.31777177473E+03 -0.52871866041E+03 -0.53399114740E+03  0.81589886516E+03  0.46999998093E+01 0.  1.
       -5    1    3    3    0  502 -0.31777177473E+03  0.52871866041E+03  0.50739148758E+03  0.79874309658E+03  0.46999998093E+01 0. -1.
</event>
<event>
 5   0  0.9844690E-04  0.1601378E+04  0.7818609E-02  0.8819702E-01
       -2   -1    0    0    0  501  0.00000000000E+00  0.00000000000E+00  0.54781084376E+03  0.54781084377E+03  0.25500000920E-02 0.  1.
        2   -1    0    0  501    0  0.00000000000E+00  0.00000000000E+00 -0.11702991103E+04  0.11702991103E+04  0.25500000920E-02 0. -1.
    10030    2    1    2    0    0  0.00000000000E+00  0.00000000000E+00 -0.62248826653E+03  0.17181099541E+04  0.16013775858E+04 0.  0.
        3    1    3    3  502    0 -0.59194109881E+03  0.38275422801E+03 -0.71867233426E+03  0.10066702527E+04  0.10100000352E+00 0. -1.
       -3    1    3    3    0  502  0.59194109881E+03 -0.38275422801E+03  0.96184067733E+02  0.71143970132E+03  0.10100000352E+00 0.  1.
</event>
<event>
 5   0  0.1037321E-03  0.1570985E+04  0.7818609E-02  0.8838574E-01
        2   -1    0    0  501    0  0.00000000000E+00  0.00000000000E+00  0.11347458092E+04  0.11347458092E+04  0.25500000920E-02 0. -1.
       -2   -1    0    0    0  501  0.00000000000E+00  0.00000000000E+00 -0.54373296688E+03  0.54373296689E+03  0.25500000920E-02 0.  1.
    10030    2    1    2    0    0  0.00000000000E+00  0.00000000000E+00  0.59101284228E+03  0.16784787761E+04  0.15709853029E+04 0.  0.
        5    1    3    3  502    0 -0.52350765513E+03 -0.28883925834E+03  0.83976159545E+03  0.10308782709E+04  0.46999998093E+01 0. -1.
       -5    1    3    3    0  502  0.52350765513E+03  0.28883925834E+03 -0.24874875317E+03  0.64760050520E+03  0.46999998093E+01 0.  1.
</event>
<event>
 5   0  0.1057872E-03  0.1647180E+04  0.7818609E-02  0.8792076E-01
        2   -1    0    0  501    0  0.00000000000E+00  0.00000000000E+00  0.13372593202E+04  0.13372593202E+04  0.25500000920E-02 0.  1.
       -2   -1    0    0    0  501  0.00000000000E+00  0.00000000000E+00 -0.50723184822E+03  0.50723184823E+03  0.25500000920E-02 0. -1.
    10030    2    1    2    0    0  0.00000000000E+00  0.00000000000E+00  0.83002747196E+03  0.18444911684E+04  0.16471800345E+04 0.  0.
        2    1    3    3  502    0 -0.26470316780E+02 -0.41667819009E+03 -0.37993987161E+03  0.56451368257E+03  0.25500000920E-02 0. -1.
       -2    1    3    3    0  502  0.26470316780E+02  0.41667819009E+03  0.12099673436E+04  0.12799774858E+04  0.25500000920E-02 0.  1.
</event>
<event>
 5   0  0.5288658E-04  0.1401491E+04  0.7818609E-02  0.8952740E-01
        1   -1    0    0  501    0  0.00000000000E+00  0.00000000000E+00  0.30699457380E+04  0.30699457380E+04  0.50400001928E-02 0. -1.
       -1   -1    0    0    0  501  0.00000000000E+00  0.00000000000E+00 -0.15995205795E+03  0.15995205803E+03  0.50400001928E-02 0.  1.
    10030    2    1    2    0    0  0.00000000000E+00  0.00000000000E+00  0.29099936800E+04  0.32298977960E+04  0.14014908329E+04 0.  0.
        1    1    3    3  502    0  0.53693903562E+03  0.13440529114E+03  0.46461299718E+03  0.72265728214E+03  0.50400001928E-02 0.  1.
       -1    1    3    3    0  502 -0.53693903562E+03 -0.13440529114E+03  0.24453806829E+04  0.25072405139E+04  0.50400001928E-02 0. -1.
</event>
<event>
 5   0  0.5532881E-04  0.1596425E+04  0.7818609E-02  0.8822747E-01
       -1   -1    0    0    0  501  0.00000000000E+00  0.00000000000E+00  0.58857930214E+03  0.58857930216E+03  0.50400001928E-02 0. -1.
        1   -1    0    0  501    0  0.00000000000E+00  0.00000000000E+00 -0.10825105655E+04  0.10825105655E+04  0.50400001928E-02 0.  1.
    10030    2    1    2    0    0  0.00000000000E+00  0.00000000000E+00 -0.49393126335E+03  0.16710898677E+04  0.15964251479E+04 0.  0.
        4    1    3    3  502    0  0.51812717947E+03 -0.32318490906E+03 -0.78504758027E+03  0.99458814377E+03  0.12699999809E+01 0.  1.
       -4    1    3    3    0  502 -0.51812717947E+03  0.32318490906E+03  0.29111631693E+03  0.67650172389E+03  0.12699999809E+01 0. -1.
</event>
<event>
 5   0  0.1000121E-03  0.1892525E+04  0.7818609E-02  0.8658586E-01
       -2   -1    0    0    0  501  0.00000000000E+00  0.00000000000E+00  0.64307243673E+03  0.64307243673E+03  0.25500000920E-02 0.  1.
        2   -1    0    0  501    0  0.00000000000E+00  0.00000000000E+00 -0.13923984718E+04  0.13923984718E+04  0.25500000920E-02 0. -1.
    10030    2    1    2    0    0  0.00000000000E+00  0.00000000000E+00 -0.74932603506E+03  0.20354709085E+04  0.18925253797E+04 0.  0.
        4    1    3    3  502    0  0.37610468777E+03  0.86814951775E+03 -0.35688763451E+03  0.10111917315E+04  0.12699999809E+01 0.  1.
       -4    1    3    3    0  502 -0.37610468777E+03 -0.86814951775E+03 -0.39243840055E+03  0.10242791770E+04  0.12699999809E+01 0. -1.
</event>
<event>
 5   0  0.1000121E-03  0.1617620E+04  0.7818609E-02  0.8809796E-01
       -2   -1    0    0    0  501  0.00000000000E+00  0.00000000000E+00  0.55853934456E+03  0.55853934456E+03  0.25500000920E-02 0.  1.
        2   -1    0    0  501    0  0.00000000000E+00  0.00000000000E+00 -0.11712213839E+04  0.11712213839E+04  0.25500000920E-02 0. -1.
    10030    2    1    2    0    0  0.00000000000E+00  0.00000000000E+00 -0.61268203938E+03  0.17297607285E+04  0.16176195154E+04 0.  0.
        4    1    3    3  502    0 -0.68728217915E+03 -0.11678372352E+03 -0.74486379540E+03  0.10202053315E+04  0.12699999809E+01 0. -1.
       -4    1    3    3    0  502  0.68728217915E+03  0.11678372352E+03  0.13218175602E+03  0.70955539698E+03  0.12699999809E+01 0.  1.
</event>
<event>
 5   0  0.5281116E-04  0.1584588E+04  0.7818609E-02  0.8830073E-01
       -1   -1    0    0    0  501  0.00000000000E+00  0.00000000000E+00  0.88038289682E+03  0.88038289683E+03  0.50400001928E-02 0.  1.
        1   -1    0    0  501    0  0.00000000000E+00  0.00000000000E+00 -0.71301883227E+03  0.71301883229E+03  0.50400001928E-02 0. -1.
    10030    2    1    2    0    0  0.00000000000E+00  0.00000000000E+00  0.16736406455E+03  0.15934017291E+04  0.15845877509E+04 0.  0.
        2    1    3    3  502    0 -0.21824400117E+03  0.70303371626E+03  0.37830103983E+03  0.82764637798E+03  0.25500000920E-02 0.  1.
       -2    1    3    3    0  502  0.21824400117E+03 -0.70303371626E+03 -0.21093697528E+03  0.76575535113E+03  0.25500000920E-02 0. -1.
</event>
<event>
 5   0  0.5281116E-04  0.1587311E+04  0.7818609E-02  0.8828381E-01
       -1   -1    0    0    0  501  0.00000000000E+00  0.00000000000E+00  0.65452281398E+03  0.65452281400E+03  0.50400001928E-02 0. -1.
        1   -1    0    0  501    0  0.00000000000E+00  0.00000000000E+00 -0.96236394673E+03  0.96236394674E+03  0.50400001928E-02 0.  1.
    10030    2    1    2    0    0  0.00000000000E+00  0.00000000000E+00 -0.30784113275E+03  0.16168867607E+04  0.15873111333E+04 0.  0.
        2    1    3    3  502    0 -0.41179191440E+02  0.78983003047E+03 -0.22119625718E+03  0.82125208496E+03  0.25500000920E-02 0.  1.
       -2    1    3    3    0  502  0.41179191440E+02 -0.78983003047E+03 -0.86644875566E+02  0.79563467579E+03  0.25500000920E-02 0. -1.
</event>
<event>
 5   0  0.1057872E-03  0.1527697E+04  0.7818609E-02  0.8866240E-01
       -2   -1    0    0    0  501  0.00000000000E+00  0.00000000000E+00  0.40218833100E+03  0.40218833101E+03  0.25500000920E-02 0.  1.
        2   -1    0    0  501    0  0.00000000000E+00  0.00000000000E+00 -0.14507255831E+04  0.14507255831E+04  0.25500000920E-02 0. -1.
    10030    2    1    2    0    0  0.00000000000E+00  0.00000000000E+00 -0.10485372521E+04  0.18529139141E+04  0.15276974845E+04 0.  0.
        2    1    3    3  502    0 -0.49532233040E+03 -0.58142758791E+03 -0.53386878689E+03  0.93188954957E+03  0.25500000920E-02 0.  1.
       -2    1    3    3    0  502  0.49532233040E+03  0.58142758791E+03 -0.51466846519E+03  0.92102436452E+03  0.25500000920E-02 0. -1.
</event>
<event>
 5   0  0.9844690E-04  0.1596156E+04  0.7818609E-02  0.8822913E-01
       -2   -1    0    0    0  501  0.00000000000E+00  0.00000000000E+00  0.26463247802E+03  0.26463247803E+03  0.25500000920E-02 0. -1.
        2   -1    0    0  501    0  0.00000000000E+00  0.00000000000E+00 -0.24068408118E+04  0.24068408118E+04  0.25500000920E-02 0.  1.
    10030    2    1    2    0    0  0.00000000000E+00  0.00000000000E+00 -0.21422083338E+04  0.26714732898E+04  0.15961556920E+04 0.  0.
        3    1    3    3  502    0 -0.61439972750E+03  0.44943473023E+03 -0.14722656485E+04  0.16574211148E+04  0.10100000352E+00 0.  1.
       -3    1    3    3    0  502  0.61439972750E+03 -0.44943473023E+03 -0.66994268527E+03  0.10140521750E+04  0.10100000352E+00 0. -1.
</event>
<event>
 5   0  0.1057872E-03  0.1605012E+04  0.7818609E-02  0.8817475E-01
       -2   -1    0    0    0  501  0.00000000000E+00  0.00000000000E+00  0.51121628479E+03  0.51121628479E+03  0.25500000920E-02 0.  1.
        2   -1    0    0  501    0  0.00000000000E+00  0.00000000000E+00 -0.12597712176E+04  0.12597712176E+04  0.25500000920E-02 0. -1.
    10030    2    1    2    0    0  0.00000000000E+00  0.00000000000E+00 -0.74855493279E+03  0.17709875024E+04  0.16050116031E+04 0.  0.
        2    1    3    3  502    0 -0.20734199804E+03  0.31707450498E+03  0.40633309291E+03  0.55554795316E+03  0.25500000920E-02 0.  1.
       -2    1    3    3    0  502  0.20734199804E+03 -0.31707450498E+03 -0.11548880257E+04  0.12154395492E+04  0.25500000920E-02 0. -1.
</event>
<event>
 5   0  0.1030027E-03  0.1862894E+04  0.7818609E-02  0.8673550E-01
       -2   -1    0    0    0  501  0.00000000000E+00  0.00000000000E+00  0.55322722414E+03  0.55322722415E+03  0.25500000920E-02 0.  1.
        2   -1    0    0  501    0  0.00000000000E+00  0.00000000000E+00 -0.15682415755E+04  0.15682415755E+04  0.25500000920E-02 0. -1.
    10030    2    1    2    0    0  0.00000000000E+00  0.00000000000E+00 -0.10150143514E+04  0.21214687997E+04  0.18628944507E+04 0.  0.
        1    1    3    3  502    0 -0.26785550760E+03  0.80372673210E+03 -0.66641011201E+02  0.84980248132E+03  0.50400001928E-02 0.  1.
       -1    1    3    3    0  502  0.26785550760E+03 -0.80372673210E+03 -0.94837334018E+03  0.12716663184E+04  0.50400001928E-02 0. -1.
</event>
<event>
 5   0  0.5623061E-04  0.1031022E+04  0.7818609E-02  0.9275160E-01
        1   -1    0    0  501    0  0.00000000000E+00  0.00000000000E+00  0.35350165048E+03  0.35350165052E+03  0.50400001928E-02 0.  1.
       -1   -1    0    0    0  501  0.00000000000E+00  0.00000000000E+00 -0.75176840619E+03  0.75176840621E+03  0.50400001928E-02 0. -1.
    10030    2    1    2    0    0  0.00000000000E+00  0.00000000000E+00 -0.39826675571E+03  0.11052700567E+04  0.10310215757E+04 0.  0.
        3    1    3    3  502    0 -0.47331667763E+03 -0.14717545590E+03 -0.35097419148E+03  0.60734848763E+03  0.10100000352E+00 0. -1.
       -3    1    3    3    0  502  0.47331667763E+03  0.14717545590E+03 -0.47292564229E+02  0.49792156909E+03  0.10100000352E+00 0.  1.
</event>
<event>
 5   0  0.1037321E-03  0.1570185E+04  0.7818609E-02  0.8839077E-01
        2   -1    0    0  501    0  0.00000000000E+00  0.00000000000E+00  0.10561390775E+04  0.10561390775E+04  0.25500000920E-02 0. -1.
       -2   -1    0    0    0  501  0.00000000000E+00  0.00000000000E+00 -0.58360685793E+03  0.58360685794E+03  0.25500000920E-02 0.  1.
    10030    2    1    2    0    0  0.00000000000E+00  0.00000000000E+00  0.47253221961E+03  0.16397459355E+04  0.15701847135E+04 0.  0.
        5    1    3    3  502    0 -0.33536886950E+03  0.41790804922E+03 -0.36293765215E+03  0.64719799566E+03  0.46999998093E+01 0.  1.
       -5    1    3    3    0  502  0.33536886950E+03 -0.41790804922E+03  0.83546987176E+03  0.99254793982E+03  0.46999998093E+01 0. -1.
</event>
<event>
 5   0  0.1000121E-03  0.1499991E+04  0.7818609E-02  0.8884459E-01
        2   -1    0    0  501    0  0.00000000000E+00  0.00000000000E+00  0.14581665900E+04  0.14581665900E+04  0.25500000920E-02 0. -1.
       -2   -1    0    0    0  501  0.00000000000E+00  0.00000000000E+00 -0.38575360024E+03  0.38575360025E+03  0.25500000920E-02 0.  1.
    10030    2    1    2    0    0  0.00000000000E+00  0.00000000000E+00  0.10724129897E+04  0.18439201902E+04  0.14999906824E+04 0.  0.
        4    1    3    3  502    0 -0.27416690114E+03  0.35940531929E+03 -0.19947034223E+03  0.49409483254E+03  0.12699999809E+01 0.  1.
       -4    1    3    3    0  502  0.27416690114E+03 -0.35940531929E+03  0.12718833320E+04  0.13498253577E+04  0.12699999809E+01 0. -1.
</event>
<event>
 5   0  0.1057872E-03  0.1625557E+04  0.7818609E-02  0.8804999E-01
        2   -1    0    0  501    0  0.00000000000E+00  0.00000000000E+00  0.98169979310E+03  0.98169979310E+03  0.25500000920E-02 0.  1.
       -2   -1    0    0    0  501  0.00000000000E+00  0.00000000000E+00 -0.67292391900E+03  0.67292391900E+03  0.25500000920E-02 0. -1.
    10030    2    1    2    0    0  0.00000000000E+00  0.00000000000E+00  0.30877587410E+03  0.16546237121E+04  0.16255574700E+04 0.  0.
        2    1    3    3  502    0 -0.54775909679E+03  0.24907904275E+03 -0.40175968855E+03  0.72352694836E+03  0.25500000920E-02 0. -1.
       -2    1    3    3    0  502  0.54775909679E+03 -0.24907904275E+03  0.71053556265E+03  0.93109676374E+03  0.25500000920E-02 0.  1.
</event>
<event>
 5   0  0.5623061E-04  0.1468587E+04  0.7818609E-02  0.8905615E-01
       -1   -1    0    0    0  501  0.00000000000E+00  0.00000000000E+00  0.31547072835E+03  0.31547072839E+03  0.50400001928E-02 0. -1.
        1   -1    0    0  501    0  0.00000000000E+00  0.00000000000E+00 -0.17091502205E+04  0.17091502205E+04  0.50400001928E-02 0.  1.
    10030    2    1    2    0    0  0.00000000000E+00  0.00000000000E+00 -0.13936794922E+04  0.20246209489E+04  0.14685868922E+04 0.  0.
        3    1    3    3  502    0  0.17036818242E+03 -0.66151219605E+03 -0.32547373977E+03  0.75667487641E+03  0.10100000352E+00 0. -1.
       -3    1    3    3    0  502 -0.17036818242E+03  0.66151219605E+03 -0.10682057524E+04  0.12679460725E+04  0.10100000352E+00 0.  1.
</event>
<event>
 5   0  0.5425525E-04  0.1629145E+04  0.7818609E-02  0.8802840E-01
        1   -1    0    0  501    0  0.00000000000E+00  0.00000000000E+00  0.13302376173E+04  0.13302376173E+04  0.50400001928E-02 0.  1.
       -1   -1    0    0    0  501  0.00000000000E+00  0.00000000000E+00 -0.49880465107E+03  0.49880465109E+03  0.50400001928E-02 0. -1.
    10030    2    1    2    0    0  0.00000000000E+00  0.00000000000E+00  0.83143296623E+03  0.18290422684E+04  0.16291454331E+04 0.  0.
        5    1    3    3  502    0 -0.55885826296E+03 -0.37057885601E+03  0.93490367572E+03  0.11505295387E+04  0.46999998093E+01 0.  1.
       -5    1    3    3    0  502  0.55885826296E+03  0.37057885601E+03 -0.10347070950E+03  0.67851272967E+03  0.46999998093E+01 0. -1.
</event>
<event>
 5   0  0.1030027E-03  0.1641358E+04  0.7818609E-02  0.8795535E-01
       -2   -1    0    0    0  501  0.00000000000E+00  0.00000000000E+00  0.58832736359E+03  0.58832736359E+03  0.25500000920E-02 0.  1.
        2   -1    0    0  501    0  0.00000000000E+00  0.00000000000E+00 -0.11447949283E+04  0.11447949283E+04  0.25500000920E-02 0. -1.
    10030    2    1    2    0    0  0.00000000000E+00  0.00000000000E+00 -0.55646756469E+03  0.17331222919E+04  0.16413581961E+04 0.  0.
        1    1    3    3  502    0 -0.55451454071E+03  0.49563612404E+03  0.88110763832E+02  0.74893594522E+03  0.50400001928E-02 0.  1.
       -1    1    3    3    0  502  0.55451454071E+03 -0.49563612404E+03 -0.64457832852E+03  0.98418634666E+03  0.50400001928E-02 0. -1.
</event>
<event>
 5   0  0.1037321E-03  0.1570485E+04  0.7818609E-02  0.8838888E-01
       -2   -1    0    0    0  501  0.00000000000E+00  0.00000000000E+00  0.46590000895E+03  0.46590000896E+03  0.25500000920E-02 0. -1.
        2   -1    0    0  501    0  0.00000000000E+00  0.00000000000E+00 -0.13234723612E+04  0.13234723612E+04  0.25500000920E-02 0.  1.
    10030    2    1    2    0    0  0.00000000000E+00  0.00000000000E+00 -0.85757235225E+03  0.17893723702E+04  0.15704850014E+04 0.  0.
        5    1    3    3  502    0 -0.68542173331E+03  0.53686640939E+02 -0.86099641191E+03  0.11018267192E+04  0.46999998093E+01 0.  1.
       -5    1    3    3    0  502  0.68542173331E+03 -0.53686640939E+02  0.34240596666E+01  0.68754565092E+03  0.46999998093E+01 0. -1.
</event>
<event>
 5   0  0.1037321E-03  0.1491479E+04  0.7818609E-02  0.8890139E-01
        2   -1    0    0  501    0  0.00000000000E+00  0.00000000000E+00  0.95117130745E+03  0.95117130745E+03  0.25500000920E-02 0. -1.
       -2   -1    0    0    0  501  0.00000000000E+00  0.00000000000E+00 -0.58467657121E+03  0.58467657122E+03  0.25500000920E-02 0.  1.
    10030    2    1    2    0    0  0.00000000000E+00  0.00000000000E+00  0.36649473624E+03  0.15358478787E+04  0.14914792371E+04 0.  0.
        5    1    3    3  502    0 -0.44069304690E+02  0.70759185260E+03  0.42137793092E+03  0.82474831564E+03  0.46999998093E+01 0. -1.
       -5    1    3    3    0  502  0.44069304690E+02 -0.70759185260E+03 -0.54883194685E+02  0.71109956303E+03  0.46999998093E+01 0.  1.
</event>
<event>
 5   0  0.5532881E-04  0.1617454E+04  0.7818609E-02  0.8809897E-01
       -1   -1    0    0    0  501  0.00000000000E+00  0.00000000000E+00  0.69037829306E+03  0.69037829308E+03  0.50400001928E-02 0. -1.
        1   -1    0    0  501    0  0.00000000000E+00  0.00000000000E+00 -0.94736328199E+03  0.94736328200E+03  0.50400001928E-02 0.  1.
    10030    2    1    2    0    0  0.00000000000E+00  0.00000000000E+00 -0.25698498892E+03  0.16377415751E+04  0.16174536105E+04 0.  0.
        4    1    3    3  502    0 -0.43653862275E+02  0.16406135014E+03 -0.92911622643E+03  0.94450005898E+03  0.12699999809E+01 0.  1.
       -4    1    3    3    0  502  0.43653862275E+02 -0.16406135014E+03  0.67213123751E+03  0.69324151610E+03  0.12699999809E+01 0. -1.
</event>
<event>
 5   0  0.5532881E-04  0.1553541E+04  0.7818609E-02  0.8849609E-01
       -1   -1    0    0    0  501  0.00000000000E+00  0.00000000000E+00  0.70842526497E+03  0.70842526499E+03  0.50400001928E-02 0.  1.
        1   -1    0    0  501    0  0.00000000000E+00  0.00000000000E+00 -0.85170900738E+03  0.85170900739E+03  0.50400001928E-02 0. -1.
    10030    2    1    2    0    0  0.00000000000E+00  0.00000000000E+00 -0.14328374241E+03  0.15601342724E+04  0.15535407034E+04 0.  0.
        4    1    3    3  502    0  0.49334600487E+03 -0.59884552828E+03 -0.10873532899E+03  0.78347382339E+03  0.12699999809E+01 0. -1.
       -4    1    3    3    0  502 -0.49334600487E+03  0.59884552828E+03 -0.34548413415E+02  0.77666044899E+03  0.12699999809E+01 0.  1.
</event>
<event>
 5   0  0.5281116E-04  0.1554663E+04  0.7818609E-02  0.8848895E-01
        1   -1    0    0  501    0  0.00000000000E+00  0.00000000000E+00  0.10395542525E+04  0.10395542525E+04  0.50400001928E-02 0. -1.
       -1   -1    0    0    0  501  0.00000000000E+00  0.00000000000E+00 -0.58125349170E+03  0.58125349172E+03  0.50400001928E-02 0.  1.
    10030    2    1    2    0    0  0.00000000000E+00  0.00000000000E+00  0.45830076082E+03  0.16208077443E+04  0.15546633579E+04 0.  0.
        2    1    3    3  502    0  0.17273081802E+03  0.34354102209E+03 -0.47515714622E+03  0.61125337051E+03  0.25500000920E-02 0.  1.
       -2    1    3    3    0  502 -0.17273081802E+03 -0.34354102209E+03  0.93345790703E+03  0.10095543737E+04  0.25500000920E-02 0. -1.
</event>
<event>
 5   0  0.1030027E-03  0.1320013E+04  0.7818609E-02  0.9013843E-01
        2   -1    0    0  501    0  0.00000000000E+00  0.00000000000E+00  0.60197147081E+03  0.60197147081E+03  0.25500000920E-02 0. -1.
       -2   -1    0    0    0  501  0.00000000000E+00  0.00000000000E+00 -0.72363707106E+03  0.72363707107E+03  0.25500000920E-02 0.  1.
    10030    2    1    2    0    0  0.00000000000E+00  0.00000000000E+00 -0.12166560025E+03  0.13256085419E+04  0.13200134424E+04 0.  0.
        1    1    3    3  502    0  0.60088013183E+03  0.27300557194E+03 -0.65312294600E+02  0.66321540316E+03  0.50400001928E-02 0.  1.
       -1    1    3    3    0  502 -0.60088013183E+03 -0.27300557194E+03 -0.56353305654E+02  0.66239313872E+03  0.50400001928E-02 0. -1.
</event>
<event>
 5   0  0.1037321E-03  0.1578792E+04  0.7818609E-02  0.8833684E-01
        2   -1    0    0  501    0  0.00000000000E+00  0.00000000000E+00  0.14604856834E+04  0.14604856834E+04  0.25500000920E-02 0. -1.
       -2   -1    0    0    0  501  0.00000000000E+00  0.00000000000E+00 -0.42667048431E+03  0.42667048432E+03  0.25500000920E-02 0.  1.
    10030    2    1    2    0    0  0.00000000000E+00  0.00000000000E+00  0.10338151991E+04  0.18871561678E+04  0.15787921128E+04 0.  0.
        5    1    3    3  502    0  0.48992938134E+03  0.90607651848E+02  0.12487727284E+04  0.13445058433E+04  0.46999998093E+01 0. -1.
       -5    1    3    3    0  502 -0.48992938134E+03 -0.90607651848E+02 -0.21495752931E+03  0.54265032450E+03  0.46999998093E+01 0.  1.
</event>
<event>
 5   0  0.9844690E-04  0.1517847E+04  0.7818609E-02  0.8872671E-01
       -2   -1    0    0    0  501  0.00000000000E+00  0.00000000000E+00  0.31705405253E+03  0.31705405254E+03  0.25500000920E-02 0. -1.
        2   -1    0    0  501    0  0.00000000000E+00  0.00000000000E+00 -0.18166145414E+04  0.18166145414E+04  0.25500000920E-02 0.  1.
    10030    2    1    2    0    0  0.00000000000E+00  0.00000000000E+00 -0.14995604889E+04  0.21336685939E+04  0.15178471626E+04 0.  0.
        3    1    3    3  502    0  0.82556553418E+02  0.75426921277E+03 -0.77097644599E+03  0.10817311682E+04  0.10100000352E+00 0.  1.
       -3    1    3    3    0  502 -0.82556553418E+02 -0.75426921277E+03 -0.72858404286E+03  0.10519374257E+04  0.10100000352E+00 0. -1.
</event>
<event>
 5   0  0.5532881E-04  0.1545217E+04  0.7818609E-02  0.8854929E-01
       -1   -1    0    0    0  501  0.00000000000E+00  0.00000000000E+00  0.48965811888E+03  0.48965811891E+03  0.50400001928E-02 0.  1.
        1   -1    0    0  501    0  0.00000000000E+00  0.00000000000E+00 -0.12190619995E+04  0.12190619995E+04  0.50400001928E-02 0. -1.
    10030    2    1    2    0    0  0.00000000000E+00  0.00000000000E+00 -0.72940388064E+03  0.17087201184E+04  0.15452166263E+04 0.  0.
        4    1    3    3  502    0 -0.38692358556E+03  0.16914171172E+02 -0.11039656568E+04  0.11699306537E+04  0.12699999809E+01 0. -1.
       -4    1    3    3    0  502  0.38692358556E+03 -0.16914171172E+02  0.37456177614E+03  0.53878946472E+03  0.12699999809E+01 0.  1.
</event>
<event>
 5   0  0.1030027E-03  0.1602421E+04  0.7818609E-02  0.8819062E-01
       -2   -1    0    0    0  501  0.00000000000E+00  0.00000000000E+00  0.50550401046E+03  0.50550401046E+03  0.25500000920E-02 0.  1.
        2   -1    0    0  501    0  0.00000000000E+00  0.00000000000E+00 -0.12698976798E+04  0.12698976798E+04  0.25500000920E-02 0. -1.
    10030    2    1    2    0    0  0.00000000000E+00  0.00000000000E+00 -0.76439366937E+03  0.17754016903E+04  0.16024211307E+04 0.  0.
        1    1    3    3  502    0 -0.41047626172E+03 -0.45907175258E+03 -0.95006903584E+03  0.11321964531E+04  0.50400001928E-02 0. -1.
       -1    1    3    3    0  502  0.41047626172E+03  0.45907175258E+03  0.18567536647E+03  0.64320523722E+03  0.50400001928E-02 0.  1.
</event>
<event>
 5   0  0.5532881E-04  0.1614151E+04  0.7818609E-02  0.8811901E-01
       -1   -1    0    0    0  501  0.00000000000E+00  0.00000000000E+00  0.41369250698E+03  0.41369250701E+03  0.50400001928E-02 0.  1.
        1   -1    0    0  501    0  0.00000000000E+00  0.00000000000E+00 -0.15745299467E+04  0.15745299467E+04  0.50400001928E-02 0. -1.
    10030    2    1    2    0    0  0.00000000000E+00  0.00000000000E+00 -0.11608374397E+04  0.19882224537E+04  0.16141514687E+04 0.  0.
        4    1    3    3  502    0  0.20337170595E+03  0.69005018188E+03 -0.12979486560E+03  0.73101137086E+03  0.12699999809E+01 0.  1.
       -4    1    3    3    0  502 -0.20337170595E+03 -0.69005018188E+03 -0.10310425741E+04  0.12572110828E+04  0.12699999809E+01 0. -1.
</event>
<event>
 5   0  0.9844690E-04  0.1578359E+04  0.7818609E-02  0.8833954E-01
       -2   -1    0    0    0  501  0.00000000000E+00  0.00000000000E+00  0.10706389070E+04  0.10706389070E+04  0.25500000920E-02 0. -1.
        2   -1    0    0  501    0  0.00000000000E+00  0.00000000000E+00 -0.58171307014E+03  0.58171307014E+03  0.25500000920E-02 0.  1.
    10030    2    1    2    0    0  0.00000000000E+00  0.00000000000E+00  0.48892583691E+03  0.16523519772E+04  0.15783594592E+04 0.  0.
        3    1    3    3  502    0 -0.37298519539E+03 -0.45987141480E+03  0.79065407653E+03  0.98779226210E+03  0.10100000352E+00 0. -1.
       -3    1    3    3    0  502  0.37298519539E+03  0.45987141480E+03 -0.30172823962E+03  0.66455971509E+03  0.10100000352E+00 0.  1.
</event>
<event>
 5   0  0.1000121E-03  0.1542182E+04  0.7818609E-02  0.8856877E-01
       -2   -1    0    0    0  501  0.00000000000E+00  0.00000000000E+00  0.17430243626E+04  0.17430243626E+04  0.25500000920E-02 0. -1.
        2   -1    0    0  501    0  0.00000000000E+00  0.00000000000E+00 -0.34112038873E+03  0.34112038874E+03  0.25500000920E-02 0.  1.
    10030    2    1    2    0    0  0.00000000000E+00  0.00000000000E+00  0.14019039739E+04  0.20841447514E+04  0.15421817638E+04 0.  0.
        4    1    3    3  502    0  0.25695156792E+03 -0.37104758854E+03  0.15458680141E+04  0.16104067657E+04  0.12699999809E+01 0. -1.
       -4    1    3    3    0  502 -0.25695156792E+03  0.37104758854E+03 -0.14396404024E+03  0.47373798560E+03  0.12699999809E+01 0.  1.
</event>
<event>
 5   0  0.5288658E-04  0.1562336E+04  0.7818609E-02  0.8844026E-01
       -1   -1    0    0    0  501  0.00000000000E+00  0.00000000000E+00  0.74446021573E+03  0.74446021575E+03  0.50400001928E-02 0. -1.
        1   -1    0    0  501    0  0.00000000000E+00  0.00000000000E+00 -0.81968609820E+03  0.81968609821E+03  0.50400001928E-02 0.  1.
    10030    2    1    2    0    0  0.00000000000E+00  0.00000000000E+00 -0.75225882468E+02  0.15641463140E+04  0.15623363140E+04 0.  0.
        1    1    3    3  502    0 -0.37627129080E+03  0.28719909783E+03 -0.65975082914E+03  0.81199418880E+03  0.50400001928E-02 0.  1.
       -1    1    3    3    0  502  0.37627129080E+03 -0.28719909783E+03  0.58452494667E+03  0.75215212516E+03  0.50400001928E-02 0. -1.
</event>
<event>
 5   0  0.1030027E-03  0.1566686E+04  0.7818609E-02  0.8841280E-01
        2   -1    0    0  501    0  0.00000000000E+00  0.00000000000E+00  0.77130755172E+03  0.77130755172E+03  0.25500000920E-02 0. -1.
       -2   -1    0    0    0  501  0.00000000000E+00  0.00000000000E+00 -0.79556625514E+03  0.79556625515E+03  0.25500000920E-02 0.  1.
    10030    2    1    2    0    0  0.00000000000E+00  0.00000000000E+00 -0.24258703421E+02  0.15668738069E+04  0.15666860062E+04 0.  0.
        1    1    3    3  502    0 -0.14067902327E+03  0.61160489481E+03 -0.48098734529E+03  0.79069587156E+03  0.50400001928E-02 0.  1.
       -1    1    3    3    0  502  0.14067902327E+03 -0.61160489481E+03  0.45672864187E+03  0.77617793531E+03  0.50400001928E-02 0. -1.
</event>
<event>
 5   0  0.5425525E-04  0.1586626E+04  0.7818609E-02  0.8828806E-01
        1   -1    0    0  501    0  0.00000000000E+00  0.00000000000E+00  0.79445820668E+03  0.79445820669E+03  0.50400001928E-02 0. -1.
       -1   -1    0    0    0  501  0.00000000000E+00  0.00000000000E+00 -0.79216969995E+03  0.79216969996E+03  0.50400001928E-02 0.  1.
    10030    2    1    2    0    0  0.00000000000E+00  0.00000000000E+00  0.22885067322E+01  0.15866279067E+04  0.15866262562E+04 0.  0.
        5    1    3    3  502    0 -0.79122692269E+03  0.41964985159E+02  0.40163853940E+02  0.79337023408E+03  0.46999998093E+01 0. -1.
       -5    1    3    3    0  502  0.79122692269E+03 -0.41964985159E+02 -0.37875347208E+02  0.79325767257E+03  0.46999998093E+01 0.  1.
</event>
<event>
 5   0  0.5425525E-04  0.1586777E+04  0.7818609E-02  0.8828713E-01
        1   -1    0    0  501    0  0.00000000000E+00  0.00000000000E+00  0.68987305867E+03  0.68987305869E+03  0.50400001928E-02 0.  1.
       -1   -1    0    0    0  501  0.00000000000E+00  0.00000000000E+00 -0.91243670091E+03  0.91243670092E+03  0.50400001928E-02 0. -1.
    10030    2    1    2    0    0  0.00000000000E+00  0.00000000000E+00 -0.22256364224E+03  0.16023097596E+04  0.15867772342E+04 0.  0.
        5    1    3    3  502    0 -0.35110226787E+03 -0.46495272401E+03 -0.65505991218E+03  0.87668661254E+03  0.46999998093E+01 0. -1.
       -5    1    3    3    0  502  0.35110226787E+03  0.46495272401E+03  0.43249626993E+03  0.72562314707E+03  0.46999998093E+01 0.  1.
</event>
<event>
 5   0  0.5532881E-04  0.1593805E+04  0.7818609E-02  0.8824363E-01
        1   -1    0    0  501    0  0.00000000000E+00  0.00000000000E+00  0.10400729821E+04  0.10400729821E+04  0.50400001928E-02 0.  1.
       -1   -1    0    0    0  501  0.00000000000E+00  0.00000000000E+00 -0.61058558338E+03  0.61058558340E+03  0.50400001928E-02 0. -1.
    10030    2    1    2    0    0  0.00000000000E+00  0.00000000000E+00  0.42948739868E+03  0.16506585655E+04  0.15938049674E+04 0.  0.
        4    1    3    3  502    0  0.64505980428E+03 -0.20463514808E+03 -0.22106891093E+03  0.71193452733E+03  0.12699999809E+01 0. -1.
       -4    1    3    3    0  502 -0.64505980428E+03  0.20463514808E+03  0.65055630962E+03  0.93872403815E+03  0.12699999809E+01 0.  1.
</event>
<event>
 5   0  0.5623061E-04  0.1600229E+04  0.7818609E-02  0.8820407E-01
       -1   -1    0    0    0  501  0.00000000000E+00  0.00000000000E+00  0.64684633756E+03  0.64684633758E+03  0.50400001928E-02 0.  1.
        1   -1    0    0  501    0  0.00000000000E+00  0.00000000000E+00 -0.98969873773E+03  0.98969873775E+03  0.50400001928E-02 0. -1.
    10030    2    1    2    0    0  0.00000000000E+00  0.00000000000E+00 -0.34285240017E+03  0.16365450753E+04  0.16002287384E+04 0.  0.
        3    1    3    3  502    0 -0.69474758044E+02  0.64139980554E+03  0.31256069134E+03  0.71687840567E+03  0.10100000352E+00 0. -1.
       -3    1    3    3    0  502  0.69474758044E+02 -0.64139980554E+03 -0.65541309151E+03  0.91966666966E+03  0.10100000352E+00 0.  1.
</event>
<event>
 5   0  0.5623061E-04  0.1593078E+04  0.7818609E-02  0.8824812E-01
       -1   -1    0    0    0  501  0.00000000000E+00  0.00000000000E+00  0.11075507612E+04  0.11075507612E+04  0.50400001928E-02 0. -1.
        1   -1    0    0  501    0  0.00000000000E+00  0.00000000000E+00 -0.57286263200E+03  0.57286263202E+03  0.50400001928E-02 0.  1.
    10030    2    1    2    0    0  0.00000000000E+00  0.00000000000E+00  0.53468812915E+03  0.16804133932E+04  0.15930780824E+04 0.  0.
        3    1    3    3  502    0  0.18996353358E+03  0.24299583856E+03 -0.50731554996E+03  0.59371895631E+03  0.10100000352E+00 0.  1.
       -3    1    3    3    0  502 -0.18996353358E+03 -0.24299583856E+03  0.10420036791E+04  0.10866944369E+04  0.10100000352E+00 0. -1.
</event>
<event>
 5   0  0.5532881E-04  0.1616050E+04  0.7818609E-02  0.8810748E-01
        1   -1    0    0  501    0  0.00000000000E+00  0.00000000000E+00  0.11629138363E+04  0.11629138363E+04  0.50400001928E-02 0. -1.
       -1   -1    0    0    0  501  0.00000000000E+00  0.00000000000E+00 -0.56143837158E+03  0.56143837161E+03  0.50400001928E-02 0.  1.
    10030    2    1    2    0    0  0.00000000000E+00  0.00000000000E+00  0.60147546471E+03  0.17243522079E+04  0.16160500618E+04 0.  0.
        4    1    3    3  502    0 -0.78704828500E+03 -0.17940081561E+03  0.26266479087E+03  0.84889578914E+03  0.12699999809E+01 0. -1.
       -4    1    3    3    0  502  0.78704828500E+03  0.17940081561E+03  0.33881067384E+03  0.87545641877E+03  0.12699999809E+01 0.  1.
</event>
<event>
 5   0  0.5623061E-04  0.1595754E+04  0.7818609E-02  0.8823161E-01
       -1   -1    0    0    0  501  0.00000000000E+00  0.00000000000E+00  0.72069482444E+03  0.72069482445E+03  0.50400001928E-02 0.  1.
        1   -1    0    0  501    0  0.00000000000E+00  0.00000000000E+00 -0.88332443554E+03  0.88332443555E+03  0.50400001928E-02 0. -1.
    10030    2    1    2    0    0  0.00000000000E+00  0.00000000000E+00 -0.16262961110E+03  0.16040192600E+04  0.15957535512E+04 0.  0.
        3    1    3    3  502    0  0.29129239648E+03 -0.56572639968E+03  0.40254092017E+03  0.75295207162E+03  0.10100000352E+00 0.  1.
       -3    1    3    3    0  502 -0.29129239648E+03  0.56572639968E+03 -0.56517053127E+03  0.85106718839E+03  0.10100000352E+00 0. -1.
</event>
<event>
 5   0  0.5288658E-04  0.1624221E+04  0.7818609E-02  0.8805805E-01
        1   -1    0    0  501    0  0.00000000000E+00  0.00000000000E+00  0.11154661314E+04  0.11154661314E+04  0.50400001928E-02 0. -1.
       -1   -1    0    0    0  501  0.00000000000E+00  0.00000000000E+00 -0.59125343545E+03  0.59125343548E+03  0.50400001928E-02 0.  1.
    10030    2    1    2    0    0  0.00000000000E+00  0.00000000000E+00  0.52421269596E+03  0.17067195669E+04  0.16242206529E+04 0.  0.
        1    1    3    3  502    0 -0.71589869567E+02  0.54720786496E+03 -0.36394195299E+03  0.66107132903E+03  0.50400001928E-02 0.  1.
       -1    1    3    3    0  502  0.71589869567E+02 -0.54720786496E+03  0.88815464894E+03  0.10456482379E+04  0.50400001928E-02 0. -1.
</event>
<event>
 5   0  0.5425525E-04  0.1632181E+04  0.7818609E-02  0.8801018E-01
       -1   -1    0    0    0  501  0.00000000000E+00  0.00000000000E+00  0.48216921122E+03  0.48216921125E+03  0.50400001928E-02 0. -1.
        1   -1    0    0  501    0  0.00000000000E+00  0.00000000000E+00 -0.13812652547E+04  0.13812652547E+04  0.50400001928E-02 0.  1.
    10030    2    1    2    0    0  0.00000000000E+00  0.00000000000E+00 -0.89909604349E+03  0.18634344660E+04  0.16321808459E+04 0.  0.
        5    1    3    3  502    0 -0.71597498173E+03 -0.18406498729E+03 -0.84418337439E+03  0.11221264428E+04  0.46999998093E+01 0.  1.
       -5    1    3    3    0  502  0.71597498173E+03  0.18406498729E+03 -0.54912669105E+02  0.74130802319E+03  0.46999998093E+01 0. -1.
</event>
<event>
 5   0  0.9844690E-04  0.1615632E+04  0.7818609E-02  0.8811002E-01
        2   -1    0    0  501    0  0.00000000000E+00  0.00000000000E+00  0.17722777226E+04  0.17722777226E+04  0.25500000920E-02 0.  1.
       -2   -1    0    0    0  501  0.00000000000E+00  0.00000000000E+00 -0.36820802973E+03  0.36820802974E+03  0.25500000920E-02 0. -1.
    10030    2    1    2    0    0  0.00000000000E+00  0.00000000000E+00  0.14040696928E+04  0.21404857523E+04  0.16156322457E+04 0.  0.
        3    1    3    3  502    0  0.53000778466E+03 -0.55917734822E+03  0.10237857002E+04  0.12812980639E+04  0.10100000352E+00 0.  1.
       -3    1    3    3    0  502 -0.53000778466E+03  0.55917734822E+03  0.38028399266E+03  0.85918768837E+03  0.10100000352E+00 0. -1.
</event>
<event>
 5   0  0.1057872E-03  0.1590759E+04  0.7818609E-02  0.8826245E-01
        2   -1    0    0  501    0  0.00000000000E+00  0.00000000000E+00  0.85045282207E+03  0.85045282207E+03  0.25500000920E-02 0. -1.
       -2   -1    0    0    0  501  0.00000000000E+00  0.00000000000E+00 -0.74387246772E+03  0.74387246773E+03  0.25500000920E-02 0.  1.
    10030    2    1    2    0    0  0.00000000000E+00  0.00000000000E+00  0.10658035434E+03  0.15943252898E+04  0.15907588622E+04 0.  0.
        2    1    3    3  502    0  0.55499306223E+03  0.10184809539E+03  0.61511640269E+03  0.83472062543E+03  0.25500000920E-02 0. -1.
       -2    1    3    3    0  502 -0.55499306223E+03 -0.10184809539E+03 -0.50853604834E+03  0.75960466437E+03  0.25500000920E-02 0.  1.
</event>
<event>
 5   0  0.5425525E-04  0.1639160E+04  0.7818609E-02  0.8796845E-01
       -1   -1    0    0    0  501  0.00000000000E+00  0.00000000000E+00  0.67000651468E+03  0.67000651470E+03  0.50400001928E-02 0.  1.
        1   -1    0    0  501    0  0.00000000000E+00  0.00000000000E+00 -0.10025443023E+04  0.10025443024E+04  0.50400001928E-02 0. -1.
    10030    2    1    2    0    0  0.00000000000E+00  0.00000000000E+00 -0.33253778767E+03  0.16725508171E+04  0.16391598017E+04 0.  0.
        5    1    3    3  502    0  0.29349623503E+03 -0.11332918944E+03  0.60592032463E+03  0.68274817829E+03  0.46999998093E+01 0.  1.
       -5    1    3    3    0  502 -0.29349623503E+03  0.11332918944E+03 -0.93845811230E+03  0.98980263876E+03  0.46999998093E+01 0. -1.
</event>
<event>
 5   0  0.9844690E-04  0.1619577E+04  0.7818609E-02  0.8808611E-01
        2   -1    0    0  501    0  0.00000000000E+00  0.00000000000E+00  0.12316418277E+04  0.12316418277E+04  0.25500000920E-02 0. -1.
       -2   -1    0    0    0  501  0.00000000000E+00  0.00000000000E+00 -0.53242523200E+03  0.53242523200E+03  0.25500000920E-02 0.  1.
    10030    2    1    2    0    0  0.00000000000E+00  0.00000000000E+00  0.69921659572E+03  0.17640670597E+04  0.16195767174E+04 0.  0.
        3    1    3    3  502    0 -0.69880571832E+03  0.33372150169E+03  0.91720249857E+02  0.77981541859E+03  0.10100000352E+00 0.  1.
       -3    1    3    3    0  502  0.69880571832E+03 -0.33372150169E+03  0.60749634587E+03  0.98425164114E+03  0.10100000352E+00 0. -1.
</event>
<event>
 5   0  0.1030027E-03  0.1383669E+04  0.7818609E-02  0.8965725E-01
        2   -1    0    0  501    0  0.00000000000E+00  0.00000000000E+00  0.13320234983E+04  0.13320234983E+04  0.25500000920E-02 0.  1.
       -2   -1    0    0    0  501  0.00000000000E+00  0.00000000000E+00 -0.35932934205E+03  0.35932934206E+03  0.25500000920E-02 0. -1.
    10030    2    1    2    0    0  0.00000000000E+00  0.00000000000E+00  0.97269415629E+03  0.16913528404E+04  0.13836692195E+04 0.  0.
        1    1    3    3  502    0 -0.68807557802E+03 -0.49048215925E+02  0.55081349922E+03  0.88275094987E+03  0.50400001928E-02 0.  1.
       -1    1    3    3    0  502  0.68807557802E+03  0.49048215925E+02  0.42188065707E+03  0.80860189054E+03  0.50400001928E-02 0. -1.
</event>
<event>
 5   0  0.1000121E-03  0.1588101E+04  0.7818609E-02  0.8827892E-01
        2   -1    0    0  501    0  0.00000000000E+00  0.00000000000E+00  0.17978402798E+04  0.17978402798E+04  0.25500000920E-02 0.  1.
       -2   -1    0    0    0  501  0.00000000000E+00  0.00000000000E+00 -0.35070751080E+03  0.35070751081E+03  0.25500000920E-02 0. -1.
    10030    2    1    2    0    0  0.00000000000E+00  0.00000000000E+00  0.14471327689E+04  0.21485477906E+04  0.15881008650E+04 0.  0.
        4    1    3    3  502    0  0.61726601849E+03  0.45718574330E+02  0.13965010240E+04  0.15275222580E+04  0.12699999809E+01 0.  1.
       -4    1    3    3    0  502 -0.61726601849E+03 -0.45718574330E+02  0.50631744909E+02  0.62102553257E+03  0.12699999809E+01 0. -1.
</event>
<event>
 5   0  0.1057872E-03  0.1572385E+04  0.7818609E-02  0.8837695E-01
        2   -1    0    0  501    0  0.00000000000E+00  0.00000000000E+00  0.10713027143E+04  0.10713027143E+04  0.25500000920E-02 0. -1.
       -2   -1    0    0    0  501  0.00000000000E+00  0.00000000000E+00 -0.57696004528E+03  0.57696004529E+03  0.25500000920E-02 0.  1.
    10030    2    1    2    0    0  0.00000000000E+00  0.00000000000E+00  0.49434266906E+03  0.16482627596E+04  0.15723852741E+04 0.  0.
        2    1    3    3  502    0 -0.37914208962E+03  0.38722334612E+03  0.84422504638E+03  0.10031981723E+04  0.25500000920E-02 0. -1.
       -2    1    3    3    0  502  0.37914208962E+03 -0.38722334612E+03 -0.34988237732E+03  0.64506458736E+03  0.25500000920E-02 0.  1.
</event>
<event>
 5   0  0.5425525E-04  0.1539695E+04  0.7818609E-02  0.8858477E-01
        1   -1    0    0  501    0  0.00000000000E+00  0.00000000000E+00  0.12539972312E+04  0.12539972312E+04  0.50400001928E-02 0.  1.
       -1   -1    0    0    0  501  0.00000000000E+00  0.00000000000E+00 -0.47262105107E+03  0.47262105109E+03  0.50400001928E-02 0. -1.
    10030    2    1    2    0    0  0.00000000000E+00  0.00000000000E+00  0.78137618015E+03  0.17266182823E+04  0.15396954108E+04 0.  0.
        5    1    3    3  502    0  0.42136647701E+03 -0.43500596036E+03 -0.14225956101E+03  0.62212520138E+03  0.46999998093E+01 0. -1.
       -5    1    3    3    0  502 -0.42136647701E+03  0.43500596036E+03  0.92363574117E+03  0.11044930809E+04  0.46999998093E+01 0.  1.
</event>
<event>
 5   0  0.1057872E-03  0.1643001E+04  0.7818609E-02  0.8794558E-01
        2   -1    0    0  501    0  0.00000000000E+00  0.00000000000E+00  0.12681914204E+04  0.12681914204E+04  0.25500000920E-02 0.  1.
       -2   -1    0    0    0  501  0.00000000000E+00  0.00000000000E+00 -0.53214583894E+03  0.53214583895E+03  0.25500000920E-02 0. -1.
    10030    2    1    2    0    0  0.00000000000E+00  0.00000000000E+00  0.73604558141E+03  0.18003372593E+04  0.16430006541E+04 0.  0.
        2    1    3    3  502    0  0.59842619662E+02 -0.72319800067E+03  0.78994983010E+03  0.10726682718E+04  0.25500000920E-02 0. -1.
       -2    1    3    3    0  502 -0.59842619662E+02  0.72319800067E+03 -0.53904248692E+02  0.72766898748E+03  0.25500000920E-02 0.  1.
</event>
<event>
 5   0  0.5425525E-04  0.1594370E+04  0.7818609E-02  0.8824014E-01
       -1   -1    0    0    0  501  0.00000000000E+00  0.00000000000E+00  0.53133800061E+03  0.53133800063E+03  0.50400001928E-02 0. -1.
        1   -1    0    0  501    0  0.00000000000E+00  0.00000000000E+00 -0.11960444776E+04  0.11960444776E+04  0.50400001928E-02 0.  1.
    10030    2    1    2    0    0  0.00000000000E+00  0.00000000000E+00 -0.66470647697E+03  0.17273824782E+04  0.15943699463E+04 0.  0.
        5    1    3    3  502    0 -0.51065668844E+03  0.47373523441E+03  0.87656486389E+02  0.70206913860E+03  0.46999998093E+01 0. -1.
       -5    1    3    3    0  502  0.51065668844E+03 -0.47373523441E+03 -0.75236296336E+03  0.10253133396E+04  0.46999998093E+01 0.  1.
</event>
<event>
 5   0  0.5281116E-04  0.1588267E+04  0.7818609E-02  0.8827789E-01
        1   -1    0    0  501    0  0.00000000000E+00  0.00000000000E+00  0.77033006108E+03  0.77033006109E+03  0.50400001928E-02 0. -1.
       -1   -1    0    0    0  501  0.00000000000E+00  0.00000000000E+00 -0.81867210711E+03  0.81867210712E+03  0.50400001928E-02 0.  1.
    10030    2    1    2    0    0  0.00000000000E+00  0.00000000000E+00 -0.48342046030E+02  0.15890021682E+04  0.15882666455E+04 0.  0.
        2    1    3    3  502    0  0.18871367070E+03  0.52764495036E+02 -0.79410573446E+03  0.81792472695E+03  0.25500000920E-02 0.  1.
       -2    1    3    3    0  502 -0.18871367070E+03 -0.52764495036E+02  0.74576368843E+03  0.77107744127E+03  0.25500000920E-02 0. -1.
</event>
<event>
 5   0  0.5281116E-04  0.1618433E+04  0.7818609E-02  0.8809303E-01
       -1   -1    0    0    0  501  0.00000000000E+00  0.00000000000E+00  0.54072927241E+03  0.54072927243E+03  0.50400001928E-02 0.  1.
        1   -1    0    0  501    0  0.00000000000E+00  0.00000000000E+00 -0.12110146815E+04  0.12110146815E+04  0.50400001928E-02 0. -1.
    10030    2    1    2    0    0  0.00000000000E+00  0.00000000000E+00 -0.67028540911E+03  0.17517439540E+04  0.16184326834E+04 0.  0.
        2    1    3    3  502    0  0.12039494176E+03 -0.40721057871E+03 -0.10807347666E+04  0.11611645160E+04  0.25500000920E-02 0. -1.
       -2    1    3    3    0  502 -0.12039494176E+03  0.40721057871E+03  0.41044935753E+03  0.59057943794E+03  0.25500000920E-02 0.  1.
</event>
<event>
 5   0  0.5281116E-04  0.1540964E+04  0.7818609E-02  0.8857660E-01
       -1   -1    0    0    0  501  0.00000000000E+00  0.00000000000E+00  0.51870477182E+03  0.51870477184E+03  0.50400001928E-02 0.  1.
        1   -1    0    0  501    0  0.00000000000E+00  0.00000000000E+00 -0.11444716056E+04  0.11444716056E+04  0.50400001928E-02 0. -1.
    10030    2    1    2    0    0  0.00000000000E+00  0.00000000000E+00 -0.62576683380E+03  0.16631763775E+04  0.15409644812E+04 0.  0.
        2    1    3    3  502    0  0.53750629817E+03 -0.21842553219E+03  0.23429538649E+03  0.62571324249E+03  0.25500000920E-02 0.  1.
       -2    1    3    3    0  502 -0.53750629817E+03  0.21842553219E+03 -0.86006222029E+03  0.10374631350E+04  0.25500000920E-02 0. -1.
</event>
<event>
 5   0  0.1030027E-03  0.1570379E+04  0.7818609E-02  0.8838955E-01
       -2   -1    0    0    0  501  0.00000000000E+00  0.00000000000E+00  0.49759847954E+03  0.49759847955E+03  0.25500000920E-02 0. -1.
        2   -1    0    0  501    0  0.00000000000E+00  0.00000000000E+00 -0.12389953890E+04  0.12389953890E+04  0.25500000920E-02 0.  1.
    10030    2    1    2    0    0  0.00000000000E+00  0.00000000000E+00 -0.74139690945E+03  0.17365938685E+04  0.15703785808E+04 0.  0.
        1    1    3    3  502    0  0.53524295175E+03  0.85008133069E+02  0.25760282292E+03  0.60005884252E+03  0.50400001928E-02 0. -1.
       -1    1    3    3    0  502 -0.53524295175E+03 -0.85008133069E+02 -0.99899973237E+03  0.11365350260E+04  0.50400001928E-02 0.  1.
</event>
<event>
 5   0  0.1000121E-03  0.1608431E+04  0.7818609E-02  0.8815385E-01
       -2   -1    0    0    0  501  0.00000000000E+00  0.00000000000E+00  0.25366158291E+03  0.25366158292E+03  0.25500000920E-02 0. -1.
        2   -1    0    0  501    0  0.00000000000E+00  0.00000000000E+00 -0.25497052141E+04  0.25497052141E+04  0.25500000920E-02 0.  1.
    10030    2    1    2    0    0  0.00000000000E+00  0.00000000000E+00 -0.22960436312E+04  0.28033667971E+04  0.16084306147E+04 0.  0.
        4    1    3    3  502    0 -0.55224163172E+03 -0.26422086181E+03 -0.23906381850E+03  0.65721884166E+03  0.12699999809E+01 0. -1.
       -4    1    3    3    0  502  0.55224163172E+03  0.26422086181E+03 -0.20569798127E+04  0.21461479554E+04  0.12699999809E+01 0.  1.
</event>
<event>
 5   0  0.5623061E-04  0.1592112E+04  0.7818609E-02  0.8825408E-01
       -1   -1    0    0    0  501  0.00000000000E+00  0.00000000000E+00  0.56758068225E+03  0.56758068227E+03  0.50400001928E-02 0.  1.
        1   -1    0    0  501    0  0.00000000000E+00  0.00000000000E+00 -0.11165025700E+04  0.11165025700E+04  0.50400001928E-02 0. -1.
    10030    2    1    2    0    0  0.00000000000E+00  0.00000000000E+00 -0.54892188774E+03  0.16840832523E+04  0.15921121700E+04 0.  0.
        3    1    3    3  502    0 -0.79097555322E+03 -0.65245747522E+02 -0.33971706510E+03  0.86331166324E+03  0.10100000352E+00 0. -1.
       -3    1    3    3    0  502  0.79097555322E+03  0.65245747522E+02 -0.20920482264E+03  0.82077158904E+03  0.10100000352E+00 0.  1.
</event>
<event>
 5   0  0.9844690E-04  0.1648331E+04  0.7818609E-02  0.8791394E-01
       -2   -1    0    0    0  501  0.00000000000E+00  0.00000000000E+00  0.73358593271E+03  0.73358593272E+03  0.25500000920E-02 0.  1.
        2   -1    0    0  501    0  0.00000000000E+00  0.00000000000E+00 -0.92592950140E+03  0.92592950140E+03  0.25500000920E-02 0. -1.
    10030    2    1    2    0    0  0.00000000000E+00  0.00000000000E+00 -0.19234356868E+03  0.16595154341E+04  0.16483311038E+04 0.  0.
        3    1    3    3  502    0 -0.29176422775E+03 -0.33575389705E+03  0.60236002483E+03  0.74879546853E+03  0.10100000352E+00 0.  1.
       -3    1    3    3    0  502  0.29176422775E+03  0.33575389705E+03 -0.79470359351E+03  0.91071996559E+03  0.10100000352E+00 0. -1.
</event>
<event>
 5   0  0.5623061E-04  0.1594053E+04  0.7818609E-02  0.8824210E-01
       -1   -1    0    0    0  501  0.00000000000E+00  0.00000000000E+00  0.38976133427E+03  0.38976133430E+03  0.50400001928E-02 0. -1.
        1   -1    0    0  501    0  0.00000000000E+00  0.00000000000E+00 -0.16298466136E+04  0.16298466136E+04  0.50400001928E-02 0.  1.
    10030    2    1    2    0    0  0.00000000000E+00  0.00000000000E+00 -0.12400852793E+04  0.20196079479E+04  0.15940529361E+04 0.  0.
        3    1    3    3  502    0 -0.40741160177E+02  0.70601133596E+03 -0.15429011744E+03  0.72382131716E+03  0.10100000352E+00 0. -1.
       -3    1    3    3    0  502  0.40741160177E+02 -0.70601133596E+03 -0.10857951618E+04  0.12957866307E+04  0.10100000352E+00 0.  1.
</event>
<event>
 5   0  0.5281116E-04  0.1586245E+04  0.7818609E-02  0.8829043E-01
       -1   -1    0    0    0  501  0.00000000000E+00  0.00000000000E+00  0.26811267982E+03  0.26811267987E+03  0.50400001928E-02 0. -1.
        1   -1    0    0  501    0  0.00000000000E+00  0.00000000000E+00 -0.23461914074E+04  0.23461914074E+04  0.50400001928E-02 0.  1.
    10030    2    1    2    0    0  0.00000000000E+00  0.00000000000E+00 -0.20780787276E+04  0.26143040872E+04  0.15862454610E+04 0.  0.
        2    1    3    3  502    0 -0.71986499550E+02 -0.56520923123E+03 -0.12973739905E+03  0.58435889991E+03  0.25500000920E-02 0.  1.
       -2    1    3    3    0  502  0.71986499550E+02  0.56520923123E+03 -0.19483413285E+04  0.20299451873E+04  0.25500000920E-02 0. -1.
</event>
<event>
 5   0  0.1057872E-03  0.1605026E+04  0.7818609E-02  0.8817466E-01
        2   -1    0    0  501    0  0.00000000000E+00  0.00000000000E+00  0.65825700835E+03  0.65825700835E+03  0.25500000920E-02 0.  1.
       -2   -1    0    0    0  501  0.00000000000E+00  0.00000000000E+00 -0.97838300340E+03  0.97838300340E+03  0.25500000920E-02 0. -1.
    10030    2    1    2    0    0  0.00000000000E+00  0.00000000000E+00 -0.32012599505E+03  0.16366400118E+04  0.16050264407E+04 0.  0.
        2    1    3    3  502    0  0.20126369377E+02  0.21635515433E+03  0.62768998135E+03  0.66423590406E+03  0.25500000920E-02 0.  1.
       -2    1    3    3    0  502 -0.20126369377E+02 -0.21635515433E+03 -0.94781597640E+03  0.97240410770E+03  0.25500000920E-02 0. -1.
</event>
<event>
 5   0  0.5425525E-04  0.1524239E+04  0.7818609E-02  0.8868492E-01
       -1   -1    0    0    0  501  0.00000000000E+00  0.00000000000E+00  0.78981616145E+03  0.78981616146E+03  0.50400001928E-02 0.  1.
        1   -1    0    0  501    0  0.00000000000E+00  0.00000000000E+00 -0.73539455684E+03  0.73539455686E+03  0.50400001928E-02 0. -1.
    10030    2    1    2    0    0  0.00000000000E+00  0.00000000000E+00  0.54421604600E+02  0.15252107183E+04  0.15242394904E+04 0.  0.
        5    1    3    3  502    0 -0.24801648366E+03 -0.42527095908E+03 -0.55491314052E+03  0.74183438066E+03  0.46999998093E+01 0. -1.
       -5    1    3    3    0  502  0.24801648366E+03  0.42527095908E+03  0.60933474512E+03  0.78337633767E+03  0.46999998093E+01 0.  1.
</event>
<event>
 5   0  0.5288658E-04  0.1628368E+04  0.7818609E-02  0.8803307E-01
        1   -1    0    0  501    0  0.00000000000E+00  0.00000000000E+00  0.19466686984E+04  0.19466686984E+04  0.50400001928E-02 0. -1.
       -1   -1    0    0    0  501  0.00000000000E+00  0.00000000000E+00 -0.34052828389E+03  0.34052828393E+03  0.50400001928E-02 0.  1.
    10030    2    1    2    0    0  0.00000000000E+00  0.00000000000E+00  0.16061404145E+04  0.22871969824E+04  0.16283682031E+04 0.  0.
        1    1    3    3  502    0  0.21937392158E+03 -0.43113245975E+03  0.17229408729E+04  0.17895601043E+04  0.50400001928E-02 0. -1.
       -1    1    3    3    0  502 -0.21937392158E+03  0.43113245975E+03 -0.11680045837E+03  0.49763687808E+03  0.50400001928E-02 0.  1.
</event>
<event>
 5   0  0.1000121E-03  0.1593545E+04  0.7818609E-02  0.8824523E-01
       -2   -1    0    0    0  501  0.00000000000E+00  0.00000000000E+00  0.34795678721E+03  0.34795678722E+03  0.25500000920E-02 0.  1.
        2   -1    0    0  501    0  0.00000000000E+00  0.00000000000E+00 -0.18244981939E+04  0.18244981939E+04  0.25500000920E-02 0. -1.
    10030    2    1    2    0    0  0.00000000000E+00  0.00000000000E+00 -0.14765414067E+04  0.21724549812E+04  0.15935451419E+04 0.  0.
        4    1    3    3  502    0  0.34056577319E+03 -0.45096328967E+03 -0.15040093712E+04  0.16066731889E+04  0.12699999809E+01 0. -1.
       -4    1    3    3    0  502 -0.34056577319E+03  0.45096328967E+03  0.27467964430E+02  0.56578179227E+03  0.12699999809E+01 0.  1.
</event>
<event>
 5   0  0.5288658E-04  0.1575017E+04  0.7818609E-02  0.8836044E-01
        1   -1    0    0  501    0  0.00000000000E+00  0.00000000000E+00  0.65236409402E+03  0.65236409404E+03  0.50400001928E-02 0. -1.
       -1   -1    0    0    0  501  0.00000000000E+00  0.00000000000E+00 -0.95065014790E+03  0.95065014792E+03  0.50400001928E-02 0.  1.
    10030    2    1    2    0    0  0.00000000000E+00  0.00000000000E+00 -0.29828605389E+03  0.16030142420E+04  0.15750174888E+04 0.  0.
        1    1    3    3  502    0  0.54298490231E+03  0.56786952362E+03 -0.20358804792E+03  0.81163815415E+03  0.50400001928E-02 0. -1.
       -1    1    3    3    0  502 -0.54298490231E+03 -0.56786952362E+03 -0.94698005961E+02  0.79137608780E+03  0.50400001928E-02 0.  1.
</event>
<event>
 5   0  0.1000121E-03  0.1606367E+04  0.7818609E-02  0.8816646E-01
       -2   -1    0    0    0  501  0.00000000000E+00  0.00000000000E+00  0.30060018600E+03  0.30060018601E+03  0.25500000920E-02 0. -1.
        2   -1    0    0  501    0  0.00000000000E+00  0.00000000000E+00 -0.21460512014E+04  0.21460512014E+04  0.25500000920E-02 0.  1.
    10030    2    1    2    0    0  0.00000000000E+00  0.00000000000E+00 -0.18454510154E+04  0.24466513874E+04  0.16063665713E+04 0.  0.
        4    1    3    3  502    0 -0.17088934818E+03 -0.76255019978E+03 -0.64016830943E+03  0.10101995119E+04  0.12699999809E+01 0. -1.
       -4    1    3    3    0  502  0.17088934818E+03  0.76255019978E+03 -0.12052827060E+04  0.14364518755E+04  0.12699999809E+01 0.  1.
</event>
<event>
 5   0  0.1037321E-03  0.1613015E+04  0.7818609E-02  0.8812592E-01
        2   -1    0    0  501    0  0.00000000000E+00  0.00000000000E+00  0.16174123843E+04  0.16174123843E+04  0.25500000920E-02 0. -1.
       -2   -1    0    0    0  501  0.00000000000E+00  0.00000000000E+00 -0.40215730090E+03  0.40215730091E+03  0.25500000920E-02 0.  1.
    10030    2    1    2    0    0  0.00000000000E+00  0.00000000000E+00  0.12152550834E+04  0.20195696852E+04  0.16130148157E+04 0.  0.
        5    1    3    3  502    0  0.19081203319E+03 -0.65721723065E+03  0.73356527552E+02  0.68829280863E+03  0.46999998093E+01 0.  1.
       -5    1    3    3    0  502 -0.19081203319E+03  0.65721723065E+03  0.11418985558E+04  0.13312768766E+04  0.46999998093E+01 0. -1.
</event>
<event>
 5   0  0.5532881E-04  0.1556403E+04  0.7818609E-02  0.8847788E-01
       -1   -1    0    0    0  501  0.00000000000E+00  0.00000000000E+00  0.28239771639E+03  0.28239771643E+03  0.50400001928E-02 0.  1.
        1   -1    0    0  501    0  0.00000000000E+00  0.00000000000E+00 -0.21444848497E+04  0.21444848497E+04  0.50400001928E-02 0. -1.
    10030    2    1    2    0    0  0.00000000000E+00  0.00000000000E+00 -0.18620871334E+04  0.24268825662E+04  0.15564030641E+04 0.  0.
        4    1    3    3  502    0 -0.76424327463E+03 -0.12092376029E+02 -0.11590519839E+04  0.13883865177E+04  0.12699999809E+01 0. -1.
       -4    1    3    3    0  502  0.76424327463E+03  0.12092376029E+02 -0.70303514950E+03  0.10384960485E+04  0.12699999809E+01 0.  1.
</event>
<event>
 5   0  0.1037321E-03  0.1606792E+04  0.7818609E-02  0.8816387E-01
       -2   -1    0    0    0  501  0.00000000000E+00  0.00000000000E+00  0.10113435586E+04  0.10113435586E+04  0.25500000920E-02 0.  1.
        2   -1    0    0  501    0  0.00000000000E+00  0.00000000000E+00 -0.63820523503E+03  0.63820523503E+03  0.25500000920E-02 0. -1.
    10030    2    1    2    0    0  0.00000000000E+00  0.00000000000E+00  0.37313832356E+03  0.16495487936E+04  0.16067915279E+04 0.  0.
        5    1    3    3  502    0  0.79497371673E+03 -0.65458902705E+02  0.88343498380E+02  0.80255513327E+03  0.46999998093E+01 0. -1.
       -5    1    3    3    0  502 -0.79497371673E+03  0.65458902705E+02  0.28479482518E+03  0.84699366036E+03  0.46999998093E+01 0.  1.
</event>
<event>
 5   0  0.3832500E-04  0.1576332E+04  0.7818609E-02  0.8835221E-01
        4   -1    0    0  501    0  0.00000000000E+00  0.00000000000E+00  0.16179282891E+04  0.16179287875E+04  0.12699999809E+01 0. -1.
       -4   -1    0    0    0  501  0.00000000000E+00  0.00000000000E+00 -0.38394989758E+03  0.38395199798E+03  0.12699999809E+01 0.  1.
    10030    2    1    2    0    0  0.00000000000E+00  0.00000000000E+00  0.12339783915E+04  0.20018807855E+04  0.15763324550E+04 0.  0.
        3    1    3    3  502    0  0.58335047880E+03 -0.36956331322E+03  0.13451903643E+03  0.70354118924E+03  0.10100000352E+00 0.  1.
       -3    1    3    3    0  502 -0.58335047880E+03  0.36956331322E+03  0.10994593551E+04  0.12983395963E+04  0.10100000352E+00 0. -1.
</event>
<event>
 5   0  0.1057872E-03  0.1565334E+04  0.7818609E-02  0.8842132E-01
       -2   -1    0    0    0  501  0.00000000000E+00  0.00000000000E+00  0.85597878948E+03  0.85597878949E+03  0.25500000920E-02 0.  1.
        2   -1    0    0  501    0  0.00000000000E+00  0.00000000000E+00 -0.71563448275E+03  0.71563448276E+03  0.25500000920E-02 0. -1.
    10030    2    1    2    0    0  0.00000000000E+00  0.00000000000E+00  0.14034430673E+03  0.15716132722E+04  0.15653343902E+04 0.  0.
        2    1    3    3  502    0  0.32918563604E+03  0.67465417335E+03 -0.15218063450E+03  0.76595063948E+03  0.25500000920E-02 0. -1.
       -2    1    3    3    0  502 -0.32918563604E+03 -0.67465417335E+03  0.29252494123E+03  0.80566263277E+03  0.25500000920E-02 0.  1.
</event>
<event>
 5   0  0.5623061E-04  0.1607927E+04  0.7818609E-02  0.8815693E-01
        1   -1    0    0  501    0  0.00000000000E+00  0.00000000000E+00  0.16907325356E+04  0.16907325356E+04  0.50400001928E-02 0. -1.
       -1   -1    0    0    0  501  0.00000000000E+00  0.00000000000E+00 -0.38229422784E+03  0.38229422787E+03  0.50400001928E-02 0.  1.
    10030    2    1    2    0    0  0.00000000000E+00  0.00000000000E+00  0.13084383078E+04  0.20730267635E+04  0.16079269750E+04 0.  0.
        3    1    3    3  502    0 -0.60772854893E+02  0.80041428800E+03  0.71188942694E+03  0.10729132951E+04  0.10100000352E+00 0.  1.
       -3    1    3    3    0  502  0.60772854893E+02 -0.80041428800E+03  0.59654888083E+03  0.10001134684E+04  0.10100000352E+00 0. -1.
</event>
</LesHouchesEvents>
