<LesHouchesEvents version="3.0">
<header>
<!--
#*********************************************************************
#                                                                    *
#                        MadGraph5_aMC@NLO                           *
#                                                                    *
#                           Going Beyond                             *
#                                                                    *
#                   http://madgraph.hep.uiuc.edu                     *
#                   http://madgraph.phys.ucl.ac.be                   *
#                   http://amcatnlo.cern.ch                          *
#                                                                    *
#                     The MadGraph5_aMC@NLO team                     *
#                                                                    *
#....................................................................*
#                                                                    *
# This file contains all the information necessary to reproduce      *
# the events generated:                                              *
#                                                                    *
# 1. software version                                                *
# 2. proc_card          : code generation info including model       *
# 3. param_card         : model primary parameters in the LH format  *
# 4. run_card           : running parameters (collider and cuts)     *
# 5. pythia_card        : present only if pythia has been run        *
# 6. pgs_card           : present only if pgs has been run           *
# 7. delphes_cards      : present only if delphes has been run       *
#                                                                    *
#                                                                    *
#*********************************************************************
-->
<MGVersion>
#5.2.2.3
</MGVersion>
<MG5ProcCard>
#************************************************************
#*                     MadGraph5_aMC@NLO                    *
#*                                                          *
#*                *                       *                 *
#*                  *        * *        *                   *
#*                    * * * * 5 * * * *                     *
#*                  *        * *        *                   *
#*                *                       *                 *
#*                                                          *
#*                                                          *
#*         VERSION 2.2.3                 2015-02-10         *
#*                                                          *
#*    The MadGraph5_aMC@NLO Development Team - Find us at   *
#*    https://server06.fynu.ucl.ac.be/projects/madgraph     *
#*                                                          *
#************************************************************
#*                                                          *
#*               Command File for MadGraph5_aMC@NLO         *
#*                                                          *
#*     run as ./bin/mg5_aMC  filename                       *
#*                                                          *
#************************************************************
set group_subprocesses Auto
set ignore_six_quark_processes False
set loop_optimized_output True
set gauge unitary
set complex_mass_scheme False
import model sm
define p = g u c d s u~ c~ d~ s~
define j = g u c d s u~ c~ d~ s~
define l+ = e+ mu+
define l- = e- mu-
define vl = ve vm vt
define vl~ = ve~ vm~ vt~
import model Zprime_UFO
generate p p > zph, zph > j j
add process p p > zph, zph > b b~
output Dijet_signal
</MG5ProcCard>
<MGProcCard>
#*********************************************************************
#                        MadGraph/MadEvent                           *
#                   http://madgraph.hep.uiuc.edu                     *
#                                                                    *
#                          proc_card.dat                             *
#*********************************************************************
#                                                                    *
#            This Files is generated by MADGRAPH 5                   *
#                                                                    *
# WARNING: This Files is generated for MADEVENT (compatibility issue)*
#          This files is NOT a valid MG4 proc_card.dat               *
#          Running this in MG4 will NEVER reproduce the result of MG5*
#                                                                    *
#*********************************************************************
#*********************************************************************
# Process(es) requested : mg2 input                                  *
#*********************************************************************
# Begin PROCESS # This is TAG. Do not modify this line
p p > zph , zph > j j           #Process
# Be carefull the coupling are here in MG5 convention
          
end_coup           # End the couplings input

done               # this tells MG there are no more procs
# End PROCESS  # This is TAG. Do not modify this line
#*********************************************************************
# Model information                                                  *
#*********************************************************************
# Begin MODEL  # This is TAG. Do not modify this line
Zprime_UFO
# End   MODEL  # This is TAG. Do not modify this line
#*********************************************************************
# Start multiparticle definitions                                    *
#*********************************************************************
# Begin MULTIPARTICLES # This is TAG. Do not modify this line

# End  MULTIPARTICLES # This is TAG. Do not modify this line
</MGProcCard>
<MGRunCard>
#*********************************************************************
#                       MadGraph5_aMC@NLO                            *
#                                                                    *
#                     run_card.dat MadEvent                          *
#                                                                    *
#  This file is used to set the parameters of the run.               *
#                                                                    *
#  Some notation/conventions:                                        *
#                                                                    *
#   Lines starting with a '# ' are info or comments                  *
#                                                                    *
#   mind the format:   value    = variable     ! comment             *
#*********************************************************************
#
#*******************                                                 
# Running parameters
#*******************                                                 
#                                                                    
#*********************************************************************
# Tag name for the run (one word)                                    *
#*********************************************************************
  tag_1     = run_tag ! name of the run 
#*********************************************************************
# Run to generate the grid pack                                      *
#*********************************************************************
  .false.     = gridpack  !True = setting up the grid pack
#*********************************************************************
# Number of events and rnd seed                                      *
# Warning: Do not generate more than 1M events in a single run       *
# If you want to run Pythia, avoid more than 50k events in a run.    *
#*********************************************************************
  2000 = nevents ! Number of unweighted events requested 
 3072 = iseed   ! rnd seed (0=assigned automatically=default))
#*********************************************************************
# Collider type and energy                                           *
# lpp: 0=No PDF, 1=proton, -1=antiproton, 2=photon from proton,      *
#                                         3=photon from electron     *
#*********************************************************************
        1     = lpp1    ! beam 1 type 
        1     = lpp2    ! beam 2 type
     4000     = ebeam1  ! beam 1 total energy in GeV
     4000     = ebeam2  ! beam 2 total energy in GeV
#*********************************************************************
# Beam polarization from -100 (left-handed) to 100 (right-handed)    *
#*********************************************************************
        0     = polbeam1 ! beam polarization for beam 1
        0     = polbeam2 ! beam polarization for beam 2
#*********************************************************************
# PDF CHOICE: this automatically fixes also alpha_s and its evol.    *
#*********************************************************************
 'nn23lo1'    = pdlabel     ! PDF set                                     
 230000    = lhaid     ! if pdlabel=lhapdf, this is the lhapdf number
#*********************************************************************
# Renormalization and factorization scales                           *
#*********************************************************************
 F        = fixed_ren_scale  ! if .true. use fixed ren scale
 F        = fixed_fac_scale  ! if .true. use fixed fac scale
 91.1880  = scale            ! fixed ren scale
 91.1880  = dsqrt_q2fact1    ! fixed fact scale for pdf1
 91.1880  = dsqrt_q2fact2    ! fixed fact scale for pdf2
 1        = scalefact        ! scale factor for event-by-event scales
#*********************************************************************
# Matching - Warning! ickkw > 1 is still beta
#*********************************************************************
 0        = ickkw            ! 0 no matching, 1 MLM, 2 CKKW matching
 1        = highestmult      ! for ickkw=2, highest mult group
 1        = ktscheme         ! for ickkw=1, 1 Durham kT, 2 Pythia pTE
 1        = alpsfact         ! scale factor for QCD emission vx
 F        = chcluster        ! cluster only according to channel diag
 T        = pdfwgt           ! for ickkw=1, perform pdf reweighting
 5        = asrwgtflavor     ! highest quark flavor for a_s reweight
 T        = clusinfo         ! include clustering tag in output
 3.0      = lhe_version       ! Change the way clustering information pass to shower.        
#*********************************************************************
#**********************************************************
#
#**********************************************************
# Automatic ptj and mjj cuts if xqcut > 0
# (turn off for VBF and single top processes)
#**********************************************************
   T  = auto_ptj_mjj  ! Automatic setting of ptj and mjj
#**********************************************************
#                                                                    
#**********************************
# BW cutoff (M+/-bwcutoff*Gamma)
#**********************************
  15  = bwcutoff      ! (M+/-bwcutoff*Gamma)
#**********************************************************
# Apply pt/E/eta/dr/mij cuts on decay products or not
# (note that etmiss/ptll/ptheavy/ht/sorted cuts always apply)
#**********************************************************
   T  = cut_decays    ! Cut decay products 
#*************************************************************
# Number of helicities to sum per event (0 = all helicities)
# 0 gives more stable result, but longer run time (needed for
# long decay chains e.g.).
# Use >=2 if most helicities contribute, e.g. pure QCD.
#*************************************************************
   0  = nhel          ! Number of helicities used per event
#*******************                                                 
# Standard Cuts
#*******************                                                 
#                                                                    
#*********************************************************************
# Minimum and maximum pt's (for max, -1 means no cut)                *
#*********************************************************************
 20  = ptj       ! minimum pt for the jets 
  0  = ptb       ! minimum pt for the b 
 10  = pta       ! minimum pt for the photons 
 10  = ptl       ! minimum pt for the charged leptons 
  0  = misset    ! minimum missing Et (sum of neutrino's momenta)
  0  = ptheavy   ! minimum pt for one heavy final state
 1.0 = ptonium   ! minimum pt for the quarkonium states
 -1  = ptjmax    ! maximum pt for the jets
 -1  = ptbmax    ! maximum pt for the b
 -1  = ptamax    ! maximum pt for the photons
 -1  = ptlmax    ! maximum pt for the charged leptons
 -1  = missetmax ! maximum missing Et (sum of neutrino's momenta)
#*********************************************************************
# Minimum and maximum E's (in the center of mass frame)              *
#*********************************************************************
  0  = ej     ! minimum E for the jets 
  0  = eb     ! minimum E for the b 
  0  = ea     ! minimum E for the photons 
  0  = el     ! minimum E for the charged leptons 
 -1   = ejmax ! maximum E for the jets
 -1   = ebmax ! maximum E for the b
 -1   = eamax ! maximum E for the photons
 -1   = elmax ! maximum E for the charged leptons
#*********************************************************************
# Maximum and minimum absolute rapidity (for max, -1 means no cut)   *
#*********************************************************************
   5  = etaj    ! max rap for the jets 
  -1  = etab    ! max rap for the b
 2.5  = etaa    ! max rap for the photons 
 2.5  = etal    ! max rap for the charged leptons 
 0.6  = etaonium ! max rap for the quarkonium states
   0  = etajmin ! min rap for the jets
   0  = etabmin ! min rap for the b
   0  = etaamin ! min rap for the photons
   0  = etalmin ! main rap for the charged leptons
#*********************************************************************
# Minimum and maximum DeltaR distance                                *
#*********************************************************************
 0.4 = drjj    ! min distance between jets 
 0   = drbb    ! min distance between b's 
 0.4 = drll    ! min distance between leptons 
 0.4 = draa    ! min distance between gammas 
 0   = drbj    ! min distance between b and jet 
 0.4 = draj    ! min distance between gamma and jet 
 0.4 = drjl    ! min distance between jet and lepton 
 0   = drab    ! min distance between gamma and b 
 0   = drbl    ! min distance between b and lepton 
 0.4 = dral    ! min distance between gamma and lepton 
 -1  = drjjmax ! max distance between jets
 -1  = drbbmax ! max distance between b's
 -1  = drllmax ! max distance between leptons
 -1  = draamax ! max distance between gammas
 -1  = drbjmax ! max distance between b and jet
 -1  = drajmax ! max distance between gamma and jet
 -1  = drjlmax ! max distance between jet and lepton
 -1  = drabmax ! max distance between gamma and b
 -1  = drblmax ! max distance between b and lepton
 -1  = dralmax ! maxdistance between gamma and lepton
#*********************************************************************
# Minimum and maximum invariant mass for pairs                       *
# WARNING: for four lepton final state mmll cut require to have      *
#          different lepton masses for each flavor!                  *           
#*********************************************************************
 0   = mmjj    ! min invariant mass of a jet pair 
 0   = mmbb    ! min invariant mass of a b pair 
 0   = mmaa    ! min invariant mass of gamma gamma pair
 0   = mmll    ! min invariant mass of l+l- (same flavour) lepton pair
 -1  = mmjjmax ! max invariant mass of a jet pair
 -1  = mmbbmax ! max invariant mass of a b pair
 -1  = mmaamax ! max invariant mass of gamma gamma pair
 -1  = mmllmax ! max invariant mass of l+l- (same flavour) lepton pair
#*********************************************************************
# Minimum and maximum invariant mass for all letpons                 *
#*********************************************************************
 0   = mmnl    ! min invariant mass for all letpons (l+- and vl) 
 -1  = mmnlmax ! max invariant mass for all letpons (l+- and vl) 
#*********************************************************************
# Minimum and maximum pt for 4-momenta sum of leptons                *
#*********************************************************************
 0   = ptllmin  ! Minimum pt for 4-momenta sum of leptons(l and vl)
 -1  = ptllmax  ! Maximum pt for 4-momenta sum of leptons(l and vl)
#*********************************************************************
# Inclusive cuts                                                     *
#*********************************************************************
 0  = xptj ! minimum pt for at least one jet  
 0  = xptb ! minimum pt for at least one b 
 0  = xpta ! minimum pt for at least one photon 
 0  = xptl ! minimum pt for at least one charged lepton 
#*********************************************************************
# Control the pt's of the jets sorted by pt                          *
#*********************************************************************
 0   = ptj1min ! minimum pt for the leading jet in pt
 0   = ptj2min ! minimum pt for the second jet in pt
 0   = ptj3min ! minimum pt for the third jet in pt
 0   = ptj4min ! minimum pt for the fourth jet in pt
 -1  = ptj1max ! maximum pt for the leading jet in pt 
 -1  = ptj2max ! maximum pt for the second jet in pt
 -1  = ptj3max ! maximum pt for the third jet in pt
 -1  = ptj4max ! maximum pt for the fourth jet in pt
 0   = cutuse  ! reject event if fails any (0) / all (1) jet pt cuts
#*********************************************************************
# Control the pt's of leptons sorted by pt                           *
#*********************************************************************
 0   = ptl1min ! minimum pt for the leading lepton in pt
 0   = ptl2min ! minimum pt for the second lepton in pt
 0   = ptl3min ! minimum pt for the third lepton in pt
 0   = ptl4min ! minimum pt for the fourth lepton in pt
 -1  = ptl1max ! maximum pt for the leading lepton in pt 
 -1  = ptl2max ! maximum pt for the second lepton in pt
 -1  = ptl3max ! maximum pt for the third lepton in pt
 -1  = ptl4max ! maximum pt for the fourth lepton in pt
#*********************************************************************
# Control the Ht(k)=Sum of k leading jets                            *
#*********************************************************************
 0   = htjmin ! minimum jet HT=Sum(jet pt)
 -1  = htjmax ! maximum jet HT=Sum(jet pt)
 0   = ihtmin  !inclusive Ht for all partons (including b)
 -1  = ihtmax  !inclusive Ht for all partons (including b)
 0   = ht2min ! minimum Ht for the two leading jets
 0   = ht3min ! minimum Ht for the three leading jets
 0   = ht4min ! minimum Ht for the four leading jets
 -1  = ht2max ! maximum Ht for the two leading jets
 -1  = ht3max ! maximum Ht for the three leading jets
 -1  = ht4max ! maximum Ht for the four leading jets
#***********************************************************************
# Photon-isolation cuts, according to hep-ph/9801442                   *
# When ptgmin=0, all the other parameters are ignored                  *
# When ptgmin>0, pta and draj are not going to be used                 *
#***********************************************************************
   0 = ptgmin ! Min photon transverse momentum
 0.4 = R0gamma ! Radius of isolation code
 1.0 = xn ! n parameter of eq.(3.4) in hep-ph/9801442
 1.0 = epsgamma ! epsilon_gamma parameter of eq.(3.4) in hep-ph/9801442
 .true. = isoEM ! isolate photons from EM energy (photons and leptons)
#*********************************************************************
# WBF cuts                                                           *
#*********************************************************************
 0   = xetamin ! minimum rapidity for two jets in the WBF case  
 0   = deltaeta ! minimum rapidity for two jets in the WBF case 
#*********************************************************************
# KT DURHAM CUT                                                      *
#*********************************************************************
 -1    =  ktdurham        
 0.4  =  dparameter 
#*********************************************************************
# maximal pdg code for quark to be considered as a light jet         *
# (otherwise b cuts are applied)                                     *
#*********************************************************************
 4 = maxjetflavor    ! Maximum jet pdg code
#*********************************************************************
# Jet measure cuts                                                   *
#*********************************************************************
 0   = xqcut   ! minimum kt jet measure between partons
#*********************************************************************
#
#*********************************************************************
# Store info for systematics studies                                 *
# WARNING: If use_syst is T, matched Pythia output is                *
#          meaningful ONLY if plotted taking matchscale              *
#          reweighting into account!                                 *
#*********************************************************************
   F  = use_syst      ! Enable systematics studies
#
#**************************************
# Parameter of the systematics study
#  will be used by SysCalc (if installed)
#**************************************                                  
#
0.5 1 2 = sys_scalefact  # factorization/renormalization scale factor
0.5 1 2 = sys_alpsfact  # \alpha_s emission scale factors
30 50 = sys_matchscale # variation of merging scale
# PDF sets and number of members (0 or none for all members).
CT10nlo.LHgrid = sys_pdf # matching scales
# MSTW2008nlo68cl.LHgrid 1  = sys_pdf
</MGRunCard>
<slha>
######################################################################
## PARAM_CARD AUTOMATICALY GENERATED BY MG5 FOLLOWING UFO MODEL   ####
######################################################################
##                                                                  ##
##  Width set on Auto will be computed following the information    ##
##        present in the decay.py files of the model.               ##
##        See  arXiv:1402.1178 for more details.                    ##
##                                                                  ##
######################################################################

###################################
## INFORMATION FOR CKMBLOCK
###################################
Block ckmblock 
    1 2.277360e-01 # cabi 

###################################
## INFORMATION FOR FRBLOCK
###################################
Block frblock 
    1 1.600000e+00 # gz 

###################################
## INFORMATION FOR MASS
###################################
Block mass 
    1 5.040000e-03 # MD 
    2 2.550000e-03 # MU 
    3 1.010000e-01 # MS 
    4 1.270000e+00 # MC 
    5 4.700000e+00 # MB 
    6 1.720000e+02 # MT 
   11 5.110000e-04 # Me 
   13 1.056600e-01 # MM 
   15 1.777000e+00 # MTA 
   23 9.118760e+01 # MZ 
   25 1.200000e+02 # MH 
  10030 3.900000e+03 # MZph 
  10031 3.000000e+02 # MZpl 
## Dependent parameters, given by model restrictions.
## Those values should be edited following the 
## analytical expression. MG5 ignores those values 
## but they are important for interfacing the output of MG5
## to external program such as Pythia.
  12 0.000000 # ve : 0.0 
  14 0.000000 # vm : 0.0 
  16 0.000000 # vt : 0.0 
  21 0.000000 # g : 0.0 
  22 0.000000 # a : 0.0 
  24 79.824360 # w+ : cmath.sqrt(MZ__exp__2/2. + cmath.sqrt(MZ__exp__4/4. - (aEW*cmath.pi*MZ__exp__2)/(Gf*sqrt__2))) 

###################################
## INFORMATION FOR SMINPUTS
###################################
Block sminputs 
    1 1.279000e+02 # aEWM1 
    2 1.166370e-05 # Gf 
    3 1.184000e-01 # aS 

###################################
## INFORMATION FOR YUKAWA
###################################
Block yukawa 
    1 5.040000e-03 # ymdo 
    2 2.550000e-03 # ymup 
    3 1.010000e-01 # yms 
    4 1.270000e+00 # ymc 
    5 4.700000e+00 # ymb 
    6 1.720000e+02 # ymt 
   11 5.110000e-04 # yme 
   13 1.056600e-01 # ymm 
   15 1.777000e+00 # ymtau 

###################################
## INFORMATION FOR DECAY
###################################
DECAY   6 1.508336e+00 # WT 
DECAY  23 2.495200e+00 # WZ 
DECAY  24 2.085000e+00 # WW 
DECAY  25 5.753088e-03 # WH 
## Dependent parameters, given by model restrictions.
## Those values should be edited following the 
## analytical expression. MG5 ignores those values 
## but they are important for interfacing the output of MG5
## to external program such as Pythia.
DECAY  1 0.000000 # d : 0.0 
DECAY  2 0.000000 # u : 0.0 
DECAY  3 0.000000 # s : 0.0 
DECAY  4 0.000000 # c : 0.0 
DECAY  5 0.000000 # b : 0.0 
DECAY  11 0.000000 # e- : 0.0 
DECAY  12 0.000000 # ve : 0.0 
DECAY  13 0.000000 # mu- : 0.0 
DECAY  14 0.000000 # vm : 0.0 
DECAY  15 0.000000 # ta- : 0.0 
DECAY  16 0.000000 # vt : 0.0 
DECAY  21 0.000000 # g : 0.0 
DECAY  22 0.000000 # a : 0.0 
DECAY  10030 0.308725 # zph : (gz__exp__2*MZph*(5 + cmath.sqrt(1 - (4*MT__exp__2)/MZph__exp__2)))/(144.*cmath.pi) 
DECAY  10031 0.132629 # zpl : (5*gz__exp__2*MZpl)/(144.*cmath.pi) 
#===========================================================
# QUANTUM NUMBERS OF NEW STATE(S) (NON SM PDG CODE)
#===========================================================

Block QNUMBERS 10030  # zph 
        1 0  # 3 times electric charge
        2 3  # number of spin states (2S+1)
        3 1  # colour rep (1: singlet, 3: triplet, 8: octet)
        4 0  # Particle/Antiparticle distinction (0=own anti)
Block QNUMBERS 10031  # zpl 
        1 0  # 3 times electric charge
        2 3  # number of spin states (2S+1)
        3 1  # colour rep (1: singlet, 3: triplet, 8: octet)
        4 0  # Particle/Antiparticle distinction (0=own anti)
</slha>
## END BANNER##
<MGGenerationInfo>
#  Number of Events        :         3869
#  Integrated weight (pb)  :  0.25534E-03
#  Max wgt                 :  0.19063E-06
#  Average wgt             :  0.65996E-07
</MGGenerationInfo>
</header>
<init>
     2212     2212  0.40000000000E+04  0.40000000000E+04 0 0  247000  247000 2   1
  0.25545773500E-03  0.20052241649E-05  0.19062850000E-06   0
</init>
<event>
 5   0  0.5533705E-07  0.3872044E+04  0.7818609E-02  0.8030869E-01
       -2   -1    0    0    0  501  0.00000000000E+00  0.00000000000E+00  0.18742034400E+04  0.18742034400E+04  0.25500000920E-02 0.  1.
        2   -1    0    0  501    0  0.00000000000E+00  0.00000000000E+00 -0.19998800556E+04  0.19998800556E+04  0.25500000920E-02 0. -1.
    10030    2    1    2    0    0  0.00000000000E+00  0.00000000000E+00 -0.12567661559E+03  0.38740834956E+04  0.38720444624E+04 0.  0.
        1    1    3    3  502    0  0.93402243378E+03 -0.16880666118E+04 -0.22483492691E+03  0.19422969744E+04  0.50400001928E-02 0.  1.
       -1    1    3    3    0  502 -0.93402243378E+03  0.16880666118E+04  0.99158311315E+02  0.19317865211E+04  0.50400001928E-02 0. -1.
</event>
<event>
 5   0  0.5533705E-07  0.3314180E+04  0.7818609E-02  0.8159297E-01
        2   -1    0    0  501    0  0.00000000000E+00  0.00000000000E+00  0.17825416516E+04  0.17825416516E+04  0.25500000920E-02 0.  1.
       -2   -1    0    0    0  501  0.00000000000E+00  0.00000000000E+00 -0.15404678204E+04  0.15404678204E+04  0.25500000920E-02 0. -1.
    10030    2    1    2    0    0  0.00000000000E+00  0.00000000000E+00  0.24207383118E+03  0.33230094720E+04  0.33141804735E+04 0.  0.
        1    1    3    3  502    0  0.12835293581E+04  0.20979103551E+03 -0.90858144645E+03  0.15864993339E+04  0.50400001928E-02 0. -1.
       -1    1    3    3    0  502 -0.12835293581E+04 -0.20979103551E+03  0.11506552776E+04  0.17365101381E+04  0.50400001928E-02 0.  1.
</event>
<event>
 5   0  0.5533705E-07  0.2029277E+04  0.7818609E-02  0.8593054E-01
        2   -1    0    0  501    0  0.00000000000E+00  0.00000000000E+00  0.12934449308E+04  0.12934449308E+04  0.25500000920E-02 0.  1.
       -2   -1    0    0    0  501  0.00000000000E+00  0.00000000000E+00 -0.79592941305E+03  0.79592941306E+03  0.25500000920E-02 0. -1.
    10030    2    1    2    0    0  0.00000000000E+00  0.00000000000E+00  0.49751551777E+03  0.20893743439E+04  0.20292765850E+04 0.  0.
        1    1    3    3  502    0  0.52548898452E+03  0.69727259107E+03  0.78094354507E+03  0.11714096464E+04  0.50400001928E-02 0.  1.
       -1    1    3    3    0  502 -0.52548898452E+03 -0.69727259107E+03 -0.28342802730E+03  0.91796469746E+03  0.50400001928E-02 0. -1.
</event>
<event>
 5   0  0.5533705E-07  0.3742226E+04  0.7818609E-02  0.8058668E-01
       -2   -1    0    0    0  501  0.00000000000E+00  0.00000000000E+00  0.12904057955E+04  0.12904057955E+04  0.25500000920E-02 0. -1.
        2   -1    0    0  501    0  0.00000000000E+00  0.00000000000E+00 -0.27131498330E+04  0.27131498330E+04  0.25500000920E-02 0.  1.
    10030    2    1    2    0    0  0.00000000000E+00  0.00000000000E+00 -0.14227440375E+04  0.40035556284E+04  0.37422262189E+04 0.  0.
        1    1    3    3  502    0 -0.14875806345E+04 -0.68091058194E+03  0.26007422251E+03  0.16565548485E+04  0.50400001928E-02 0. -1.
       -1    1    3    3    0  502  0.14875806345E+04  0.68091058194E+03 -0.16828182600E+04  0.23470007799E+04  0.50400001928E-02 0.  1.
</event>
<event>
 5   0  0.5533705E-07  0.3944616E+04  0.7818609E-02  0.8015813E-01
        2   -1    0    0  501    0  0.00000000000E+00  0.00000000000E+00  0.16193087128E+04  0.16193087128E+04  0.25500000920E-02 0.  1.
       -2   -1    0    0    0  501  0.00000000000E+00  0.00000000000E+00 -0.24022589455E+04  0.24022589455E+04  0.25500000920E-02 0. -1.
    10030    2    1    2    0    0  0.00000000000E+00  0.00000000000E+00 -0.78295023273E+03  0.40215676583E+04  0.39446159969E+04 0.  0.
        1    1    3    3  502    0 -0.57723897949E+03 -0.15494826677E+03  0.15247620270E+04  0.16377158007E+04  0.50400001928E-02 0.  1.
       -1    1    3    3    0  502  0.57723897949E+03  0.15494826677E+03 -0.23077122598E+04  0.23838518575E+04  0.50400001928E-02 0. -1.
</event>
<event>
 5   0  0.4627905E-07  0.3941485E+04  0.7818609E-02  0.8016456E-01
        1   -1    0    0  501    0  0.00000000000E+00  0.00000000000E+00  0.16492338176E+04  0.16492338176E+04  0.50400001928E-02 0. -1.
       -1   -1    0    0    0  501  0.00000000000E+00  0.00000000000E+00 -0.23549271341E+04  0.23549271341E+04  0.50400001928E-02 0.  1.
    10030    2    1    2    0    0  0.00000000000E+00  0.00000000000E+00 -0.70569331649E+03  0.40041609517E+04  0.39414847291E+04 0.  0.
        1    1    3    3  502    0  0.44512578344E+03 -0.85103805635E+03 -0.21010899909E+04  0.23101908766E+04  0.50400001928E-02 0.  1.
       -1    1    3    3    0  502 -0.44512578344E+03  0.85103805635E+03  0.13953966744E+04  0.16939700751E+04  0.50400001928E-02 0. -1.
</event>
<event>
 5   0  0.5385714E-07  0.2301606E+04  0.7818609E-02  0.8477288E-01
        1   -1    0    0  501    0  0.00000000000E+00  0.00000000000E+00  0.21670568191E+04  0.21670568191E+04  0.50400001928E-02 0. -1.
       -1   -1    0    0    0  501  0.00000000000E+00  0.00000000000E+00 -0.61112715838E+03  0.61112715840E+03  0.50400001928E-02 0.  1.
    10030    2    1    2    0    0  0.00000000000E+00  0.00000000000E+00  0.15559296607E+04  0.27781839775E+04  0.23016057664E+04 0.  0.
        3    1    3    3  502    0  0.10165580933E+04 -0.52456621181E+03  0.92962886172E+03  0.14740318512E+04  0.10100000352E+00 0. -1.
       -3    1    3    3    0  502 -0.10165580933E+04  0.52456621181E+03  0.62630079901E+03  0.13041521263E+04  0.10100000352E+00 0.  1.
</event>
<event>
 5   0  0.7424268E-07  0.2155359E+04  0.7818609E-02  0.8537242E-01
       -2   -1    0    0    0  501  0.00000000000E+00  0.00000000000E+00  0.10425454949E+04  0.10425454950E+04  0.25500000920E-02 0. -1.
        2   -1    0    0  501    0  0.00000000000E+00  0.00000000000E+00 -0.11139979814E+04  0.11139979814E+04  0.25500000920E-02 0.  1.
    10030    2    1    2    0    0  0.00000000000E+00  0.00000000000E+00 -0.71452486434E+02  0.21565434763E+04  0.21553594381E+04 0.  0.
        4    1    3    3  502    0 -0.12056662665E+03  0.43791905890E+03  0.94209387330E+03  0.10458737460E+04  0.12699999809E+01 0. -1.
       -4    1    3    3    0  502  0.12056662665E+03 -0.43791905890E+03 -0.10135463597E+04  0.11106697303E+04  0.12699999809E+01 0.  1.
</event>
<event>
 5   0  0.1035864E-06  0.3768080E+04  0.7818609E-02  0.8053040E-01
       -2   -1    0    0    0  501  0.00000000000E+00  0.00000000000E+00  0.27940362373E+04  0.27940362373E+04  0.25500000920E-02 0.  1.
        2   -1    0    0  501    0  0.00000000000E+00  0.00000000000E+00 -0.12704227956E+04  0.12704227956E+04  0.25500000920E-02 0. -1.
    10030    2    1    2    0    0  0.00000000000E+00  0.00000000000E+00  0.15236134417E+04  0.40644590329E+04  0.37680803217E+04 0.  0.
        5    1    3    3  502    0 -0.10338712072E+03 -0.12873076224E+04  0.22414665359E+04  0.25868985548E+04  0.46999998093E+01 0.  1.
       -5    1    3    3    0  502  0.10338712072E+03  0.12873076224E+04 -0.71785309420E+03  0.14775604781E+04  0.46999998093E+01 0. -1.
</event>
<event>
 5   0  0.5533705E-07  0.3236591E+04  0.7818609E-02  0.8179220E-01
        2   -1    0    0  501    0  0.00000000000E+00  0.00000000000E+00  0.18540154859E+04  0.18540154859E+04  0.25500000920E-02 0.  1.
       -2   -1    0    0    0  501  0.00000000000E+00  0.00000000000E+00 -0.14125450472E+04  0.14125450472E+04  0.25500000920E-02 0. -1.
    10030    2    1    2    0    0  0.00000000000E+00  0.00000000000E+00  0.44147043863E+03  0.32665605331E+04  0.32365910412E+04 0.  0.
        1    1    3    3  502    0 -0.33574312325E+03 -0.37644001471E+03  0.17726502435E+04  0.18430191033E+04  0.50400001928E-02 0.  1.
       -1    1    3    3    0  502  0.33574312325E+03  0.37644001471E+03 -0.13311798048E+04  0.14235414298E+04  0.50400001928E-02 0. -1.
</event>
<event>
 5   0  0.1035864E-06  0.2585728E+04  0.7818609E-02  0.8373065E-01
       -2   -1    0    0    0  501  0.00000000000E+00  0.00000000000E+00  0.13350587135E+04  0.13350587135E+04  0.25500000920E-02 0. -1.
        2   -1    0    0  501    0  0.00000000000E+00  0.00000000000E+00 -0.12520031613E+04  0.12520031613E+04  0.25500000920E-02 0.  1.
    10030    2    1    2    0    0  0.00000000000E+00  0.00000000000E+00  0.83055552239E+02  0.25870618748E+04  0.25857283150E+04 0.  0.
        5    1    3    3  502    0  0.17524980607E+03 -0.12182301005E+04  0.43755835512E+03  0.13062451824E+04  0.46999998093E+01 0. -1.
       -5    1    3    3    0  502 -0.17524980607E+03  0.12182301005E+04 -0.35450280288E+03  0.12808166924E+04  0.46999998093E+01 0.  1.
</event>
<event>
 5   0  0.1015219E-06  0.2376337E+04  0.7818609E-02  0.8448416E-01
       -2   -1    0    0    0  501  0.00000000000E+00  0.00000000000E+00  0.12688038972E+04  0.12688038972E+04  0.25500000920E-02 0. -1.
        2   -1    0    0  501    0  0.00000000000E+00  0.00000000000E+00 -0.11126579498E+04  0.11126579498E+04  0.25500000920E-02 0.  1.
    10030    2    1    2    0    0  0.00000000000E+00  0.00000000000E+00  0.15614594743E+03  0.23814618470E+04  0.23763373018E+04 0.  0.
        3    1    3    3  502    0  0.10237546867E+04 -0.59150085936E+03 -0.39644405236E+02  0.11830125165E+04  0.10100000352E+00 0. -1.
       -3    1    3    3    0  502 -0.10237546867E+04  0.59150085936E+03  0.19579035266E+03  0.11984493304E+04  0.10100000352E+00 0.  1.
</event>
<event>
 5   0  0.3471602E-07  0.3824483E+04  0.7818609E-02  0.8040921E-01
       -1   -1    0    0    0  501  0.00000000000E+00  0.00000000000E+00  0.15245974183E+04  0.15245974183E+04  0.50400001928E-02 0.  1.
        1   -1    0    0  501    0  0.00000000000E+00  0.00000000000E+00 -0.23984474174E+04  0.23984474174E+04  0.50400001928E-02 0. -1.
    10030    2    1    2    0    0  0.00000000000E+00  0.00000000000E+00 -0.87384999906E+03  0.39230448357E+04  0.38244825744E+04 0.  0.
        5    1    3    3  502    0 -0.15387256999E+04  0.60087074342E+03 -0.14250374521E+04  0.21816223917E+04  0.46999998093E+01 0. -1.
       -5    1    3    3    0  502  0.15387256999E+04 -0.60087074342E+03  0.55118745308E+03  0.17414224440E+04  0.46999998093E+01 0.  1.
</event>
<event>
 5   0  0.4627905E-07  0.2738488E+04  0.7818609E-02  0.8322624E-01
        1   -1    0    0  501    0  0.00000000000E+00  0.00000000000E+00  0.27986912153E+04  0.27986912153E+04  0.50400001928E-02 0.  1.
       -1   -1    0    0    0  501  0.00000000000E+00  0.00000000000E+00 -0.66989510606E+03  0.66989510608E+03  0.50400001928E-02 0. -1.
    10030    2    1    2    0    0  0.00000000000E+00  0.00000000000E+00  0.21287961092E+04  0.34685863214E+04  0.27384883046E+04 0.  0.
        1    1    3    3  502    0  0.10837250642E+04 -0.83656413637E+03  0.10935569549E+04  0.17521890259E+04  0.50400001928E-02 0. -1.
       -1    1    3    3    0  502 -0.10837250642E+04  0.83656413637E+03  0.10352391544E+04  0.17163972954E+04  0.50400001928E-02 0.  1.
</event>
<event>
 5   0  0.5385714E-07  0.3366380E+04  0.7818609E-02  0.8146207E-01
       -1   -1    0    0    0  501  0.00000000000E+00  0.00000000000E+00  0.15921638930E+04  0.15921638930E+04  0.50400001928E-02 0.  1.
        1   -1    0    0  501    0  0.00000000000E+00  0.00000000000E+00 -0.17794204218E+04  0.17794204218E+04  0.50400001928E-02 0. -1.
    10030    2    1    2    0    0  0.00000000000E+00  0.00000000000E+00 -0.18725652885E+03  0.33715843148E+04  0.33663802198E+04 0.  0.
        3    1    3    3  502    0 -0.71290268763E+03  0.93073210394E+02  0.14306430225E+04  0.16011347016E+04  0.10100000352E+00 0.  1.
       -3    1    3    3    0  502  0.71290268763E+03 -0.93073210394E+02 -0.16178995514E+04  0.17704496133E+04  0.10100000352E+00 0. -1.
</event>
<event>
 5   0  0.5385714E-07  0.3899654E+04  0.7818609E-02  0.8025101E-01
        1   -1    0    0  501    0  0.00000000000E+00  0.00000000000E+00  0.19484301137E+04  0.19484301137E+04  0.50400001928E-02 0. -1.
       -1   -1    0    0    0  501  0.00000000000E+00  0.00000000000E+00 -0.19512247582E+04  0.19512247582E+04  0.50400001928E-02 0.  1.
    10030    2    1    2    0    0  0.00000000000E+00  0.00000000000E+00 -0.27946445268E+01  0.38996548719E+04  0.38996538705E+04 0.  0.
        3    1    3    3  502    0  0.72054255867E+03 -0.93211721444E+03  0.15522442794E+04  0.19487140359E+04  0.10100000352E+00 0. -1.
       -3    1    3    3    0  502 -0.72054255867E+03  0.93211721444E+03 -0.15550389240E+04  0.19509408360E+04  0.10100000352E+00 0.  1.
</event>
<event>
 5   0  0.7268013E-07  0.2628473E+04  0.7818609E-02  0.8358593E-01
        2   -1    0    0  501    0  0.00000000000E+00  0.00000000000E+00  0.96279675862E+03  0.96279675862E+03  0.25500000920E-02 0.  1.
       -2   -1    0    0    0  501  0.00000000000E+00  0.00000000000E+00 -0.17939588282E+04  0.17939588282E+04  0.25500000920E-02 0. -1.
    10030    2    1    2    0    0  0.00000000000E+00  0.00000000000E+00 -0.83116206962E+03  0.27567555869E+04  0.26284731271E+04 0.  0.
        4    1    3    3  502    0  0.65823988863E+03  0.43831270213E+03  0.68532366018E+03  0.10464549240E+04  0.12699999809E+01 0.  1.
       -4    1    3    3    0  502 -0.65823988863E+03 -0.43831270213E+03 -0.15164857298E+04  0.17103006629E+04  0.12699999809E+01 0. -1.
</event>
<event>
 5   0  0.3977376E-07  0.2424070E+04  0.7818609E-02  0.8430547E-01
       -1   -1    0    0    0  501  0.00000000000E+00  0.00000000000E+00  0.11843997234E+04  0.11843997234E+04  0.50400001928E-02 0.  1.
        1   -1    0    0  501    0  0.00000000000E+00  0.00000000000E+00 -0.12403148168E+04  0.12403148168E+04  0.50400001928E-02 0. -1.
    10030    2    1    2    0    0  0.00000000000E+00  0.00000000000E+00 -0.55915093426E+02  0.24247145403E+04  0.24240697399E+04 0.  0.
        4    1    3    3  502    0 -0.25157006340E+03 -0.88267481643E+03 -0.81976433643E+03  0.12306167188E+04  0.12699999809E+01 0. -1.
       -4    1    3    3    0  502  0.25157006340E+03  0.88267481643E+03  0.76384924300E+03  0.11940978215E+04  0.12699999809E+01 0.  1.
</event>
<event>
 5   0  0.4627905E-07  0.2119914E+04  0.7818609E-02  0.8552521E-01
       -1   -1    0    0    0  501  0.00000000000E+00  0.00000000000E+00  0.64366653033E+03  0.64366653035E+03  0.50400001928E-02 0.  1.
        1   -1    0    0  501    0  0.00000000000E+00  0.00000000000E+00 -0.17454827884E+04  0.17454827884E+04  0.50400001928E-02 0. -1.
    10030    2    1    2    0    0  0.00000000000E+00  0.00000000000E+00 -0.11018162581E+04  0.23891493188E+04  0.21199140079E+04 0.  0.
        1    1    3    3  502    0  0.69818426711E+03 -0.57542131714E+03  0.71436208254E+02  0.90756492601E+03  0.50400001928E-02 0.  1.
       -1    1    3    3    0  502 -0.69818426711E+03  0.57542131714E+03 -0.11732524663E+04  0.14815843928E+04  0.50400001928E-02 0. -1.
</event>
<event>
 5   0  0.1034683E-06  0.3885019E+04  0.7818609E-02  0.8028152E-01
       -2   -1    0    0    0  501  0.00000000000E+00  0.00000000000E+00  0.12407116482E+04  0.12407116482E+04  0.25500000920E-02 0. -1.
        2   -1    0    0  501    0  0.00000000000E+00  0.00000000000E+00 -0.30412727732E+04  0.30412727732E+04  0.25500000920E-02 0.  1.
    10030    2    1    2    0    0  0.00000000000E+00  0.00000000000E+00 -0.18005611249E+04  0.42819844214E+04  0.38850186898E+04 0.  0.
        2    1    3    3  502    0  0.45851617174E+03  0.16967980517E+04 -0.18118174714E+04  0.25242906445E+04  0.25500000920E-02 0. -1.
       -2    1    3    3    0  502 -0.45851617174E+03 -0.16967980517E+04  0.11256346449E+02  0.17576937769E+04  0.25500000920E-02 0.  1.
</event>
<event>
 5   0  0.5385714E-07  0.2132893E+04  0.7818609E-02  0.8546891E-01
        1   -1    0    0  501    0  0.00000000000E+00  0.00000000000E+00  0.11517430092E+04  0.11517430092E+04  0.50400001928E-02 0. -1.
       -1   -1    0    0    0  501  0.00000000000E+00  0.00000000000E+00 -0.98746668043E+03  0.98746668045E+03  0.50400001928E-02 0.  1.
    10030    2    1    2    0    0  0.00000000000E+00  0.00000000000E+00  0.16427632879E+03  0.21392096897E+04  0.21328927268E+04 0.  0.
        3    1    3    3  502    0  0.66891522331E+03  0.48810345065E+03 -0.59187543329E+03  0.10178453189E+04  0.10100000352E+00 0.  1.
       -3    1    3    3    0  502 -0.66891522331E+03 -0.48810345065E+03  0.75615176208E+03  0.11213643708E+04  0.10100000352E+00 0. -1.
</event>
<event>
 5   0  0.5533705E-07  0.3789372E+04  0.7818609E-02  0.8048439E-01
       -2   -1    0    0    0  501  0.00000000000E+00  0.00000000000E+00  0.17988776993E+04  0.17988776993E+04  0.25500000920E-02 0. -1.
        2   -1    0    0  501    0  0.00000000000E+00  0.00000000000E+00 -0.19955970277E+04  0.19955970277E+04  0.25500000920E-02 0.  1.
    10030    2    1    2    0    0  0.00000000000E+00  0.00000000000E+00 -0.19671932840E+03  0.37944747270E+04  0.37893719743E+04 0.  0.
        1    1    3    3  502    0 -0.17067468944E+04  0.36790109936E+03  0.63849727675E+03  0.18590360279E+04  0.50400001928E-02 0. -1.
       -1    1    3    3    0  502  0.17067468944E+04 -0.36790109936E+03 -0.83521660515E+03  0.19354386991E+04  0.50400001928E-02 0.  1.
</event>
<event>
 5   0  0.3977376E-07  0.2038971E+04  0.7818609E-02  0.8588614E-01
       -1   -1    0    0    0  501  0.00000000000E+00  0.00000000000E+00  0.16076687936E+04  0.16076687936E+04  0.50400001928E-02 0.  1.
        1   -1    0    0  501    0  0.00000000000E+00  0.00000000000E+00 -0.64649573258E+03  0.64649573260E+03  0.50400001928E-02 0. -1.
    10030    2    1    2    0    0  0.00000000000E+00  0.00000000000E+00  0.96117306104E+03  0.22541645262E+04  0.20389713235E+04 0.  0.
        4    1    3    3  502    0  0.21736789210E+03 -0.86943720862E+03  0.10178602907E+04  0.13561751526E+04  0.12699999809E+01 0.  1.
       -4    1    3    3    0  502 -0.21736789210E+03  0.86943720862E+03 -0.56687229638E+02  0.89798937363E+03  0.12699999809E+01 0. -1.
</event>
<event>
 5   0  0.1034683E-06  0.3867157E+04  0.7818609E-02  0.8031895E-01
       -2   -1    0    0    0  501  0.00000000000E+00  0.00000000000E+00  0.12337457486E+04  0.12337457486E+04  0.25500000920E-02 0.  1.
        2   -1    0    0  501    0  0.00000000000E+00  0.00000000000E+00 -0.30303865647E+04  0.30303865647E+04  0.25500000920E-02 0. -1.
    10030    2    1    2    0    0  0.00000000000E+00  0.00000000000E+00 -0.17966408161E+04  0.42641323133E+04  0.38671573751E+04 0.  0.
        2    1    3    3  502    0  0.19151862211E+04  0.21484712933E+03 -0.72527418303E+03  0.20591552130E+04  0.25500000920E-02 0.  1.
       -2    1    3    3    0  502 -0.19151862211E+04 -0.21484712933E+03 -0.10713666330E+04  0.22049771003E+04  0.25500000920E-02 0. -1.
</event>
<event>
 5   0  0.1035864E-06  0.3656139E+04  0.7818609E-02  0.8077752E-01
       -2   -1    0    0    0  501  0.00000000000E+00  0.00000000000E+00  0.16090633386E+04  0.16090633386E+04  0.25500000920E-02 0. -1.
        2   -1    0    0  501    0  0.00000000000E+00  0.00000000000E+00 -0.20768843338E+04  0.20768843338E+04  0.25500000920E-02 0.  1.
    10030    2    1    2    0    0  0.00000000000E+00  0.00000000000E+00 -0.46782099527E+03  0.36859476724E+04  0.36561391877E+04 0.  0.
        5    1    3    3  502    0 -0.31778425765E+03  0.38402201058E+02  0.15805841973E+04  0.16126779152E+04  0.46999998093E+01 0. -1.
       -5    1    3    3    0  502  0.31778425765E+03 -0.38402201058E+02 -0.20484051925E+04  0.20732697572E+04  0.46999998093E+01 0.  1.
</event>
<event>
 5   0  0.5533705E-07  0.2949900E+04  0.7818609E-02  0.8258184E-01
       -2   -1    0    0    0  501  0.00000000000E+00  0.00000000000E+00  0.67066457127E+03  0.67066457127E+03  0.25500000920E-02 0.  1.
        2   -1    0    0  501    0  0.00000000000E+00  0.00000000000E+00 -0.32437637136E+04  0.32437637136E+04  0.25500000920E-02 0. -1.
    10030    2    1    2    0    0  0.00000000000E+00  0.00000000000E+00 -0.25730991423E+04  0.39144282849E+04  0.29498999307E+04 0.  0.
        1    1    3    3  502    0 -0.10103402924E+04 -0.71487501066E+02  0.13620683411E+03  0.10219834983E+04  0.50400001928E-02 0.  1.
       -1    1    3    3    0  502  0.10103402924E+04  0.71487501066E+02 -0.27093059764E+04  0.28924447865E+04  0.50400001928E-02 0. -1.
</event>
<event>
 5   0  0.1015219E-06  0.1984776E+04  0.7818609E-02  0.8613772E-01
        2   -1    0    0  501    0  0.00000000000E+00  0.00000000000E+00  0.10752552241E+04  0.10752552241E+04  0.25500000920E-02 0.  1.
       -2   -1    0    0    0  501  0.00000000000E+00  0.00000000000E+00 -0.91590724097E+03  0.91590724097E+03  0.25500000920E-02 0. -1.
    10030    2    1    2    0    0  0.00000000000E+00  0.00000000000E+00  0.15934798310E+03  0.19911624650E+04  0.19847761039E+04 0.  0.
        3    1    3    3  502    0  0.14535584289E+03 -0.44458439595E+03 -0.79838532340E+03  0.92531223974E+03  0.10100000352E+00 0. -1.
       -3    1    3    3    0  502 -0.14535584289E+03  0.44458439595E+03  0.95773330651E+03  0.10658502253E+04  0.10100000352E+00 0.  1.
</event>
<event>
 5   0  0.1035864E-06  0.3341637E+04  0.7818609E-02  0.8152381E-01
        2   -1    0    0  501    0  0.00000000000E+00  0.00000000000E+00  0.19710728911E+04  0.19710728911E+04  0.25500000920E-02 0.  1.
       -2   -1    0    0    0  501  0.00000000000E+00  0.00000000000E+00 -0.14163017232E+04  0.14163017232E+04  0.25500000920E-02 0. -1.
    10030    2    1    2    0    0  0.00000000000E+00  0.00000000000E+00  0.55477116788E+03  0.33873746142E+04  0.33416366841E+04 0.  0.
        5    1    3    3  502    0  0.14791757455E+04  0.71521023409E+03 -0.30290261169E+02  0.16432973422E+04  0.46999998093E+01 0.  1.
       -5    1    3    3    0  502 -0.14791757455E+04 -0.71521023409E+03  0.58506142905E+03  0.17440772720E+04  0.46999998093E+01 0. -1.
</event>
<event>
 5   0  0.5533705E-07  0.3894562E+04  0.7818609E-02  0.8026161E-01
       -2   -1    0    0    0  501  0.00000000000E+00  0.00000000000E+00  0.29247213490E+04  0.29247213490E+04  0.25500000920E-02 0. -1.
        2   -1    0    0  501    0  0.00000000000E+00  0.00000000000E+00 -0.12965004613E+04  0.12965004613E+04  0.25500000920E-02 0.  1.
    10030    2    1    2    0    0  0.00000000000E+00  0.00000000000E+00  0.16282208877E+04  0.42212218103E+04  0.38945616329E+04 0.  0.
        1    1    3    3  502    0  0.15791261709E+04  0.10437230231E+04  0.13095086044E+04  0.23016971994E+04  0.50400001928E-02 0. -1.
       -1    1    3    3    0  502 -0.15791261709E+04 -0.10437230231E+04  0.31871228330E+03  0.19195246109E+04  0.50400001928E-02 0.  1.
</event>
<event>
 5   0  0.5533705E-07  0.3866488E+04  0.7818609E-02  0.8032035E-01
        2   -1    0    0  501    0  0.00000000000E+00  0.00000000000E+00  0.25377951515E+04  0.25377951515E+04  0.25500000920E-02 0.  1.
       -2   -1    0    0    0  501  0.00000000000E+00  0.00000000000E+00 -0.14727088147E+04  0.14727088147E+04  0.25500000920E-02 0. -1.
    10030    2    1    2    0    0  0.00000000000E+00  0.00000000000E+00  0.10650863368E+04  0.40105039662E+04  0.38664884790E+04 0.  0.
        1    1    3    3  502    0  0.65667329926E+03  0.75271986219E+02  0.24169524283E+04  0.25057024433E+04  0.50400001928E-02 0.  1.
       -1    1    3    3    0  502 -0.65667329926E+03 -0.75271986219E+02 -0.13518660915E+04  0.15048015229E+04  0.50400001928E-02 0. -1.
</event>
<event>
 5   0  0.3471602E-07  0.3590390E+04  0.7818609E-02  0.8092696E-01
       -1   -1    0    0    0  501  0.00000000000E+00  0.00000000000E+00  0.13388118786E+04  0.13388118786E+04  0.50400001928E-02 0. -1.
        1   -1    0    0  501    0  0.00000000000E+00  0.00000000000E+00 -0.24071534687E+04  0.24071534687E+04  0.50400001928E-02 0.  1.
    10030    2    1    2    0    0  0.00000000000E+00  0.00000000000E+00 -0.10683415901E+04  0.37459653474E+04  0.35903903173E+04 0.  0.
        5    1    3    3  502    0  0.59566547306E+03 -0.78200861648E+03  0.10330320216E+04  0.14260196631E+04  0.46999998093E+01 0. -1.
       -5    1    3    3    0  502 -0.59566547306E+03  0.78200861648E+03 -0.21013736117E+04  0.23199456842E+04  0.46999998093E+01 0.  1.
</event>
<event>
 5   0  0.5533705E-07  0.3931759E+04  0.7818609E-02  0.8018456E-01
        2   -1    0    0  501    0  0.00000000000E+00  0.00000000000E+00  0.13487683313E+04  0.13487683313E+04  0.25500000920E-02 0. -1.
       -2   -1    0    0    0  501  0.00000000000E+00  0.00000000000E+00 -0.28653416363E+04  0.28653416363E+04  0.25500000920E-02 0.  1.
    10030    2    1    2    0    0  0.00000000000E+00  0.00000000000E+00 -0.15165733051E+04  0.42141099676E+04  0.39317589231E+04 0.  0.
        1    1    3    3  502    0 -0.75475734208E+03  0.10026524525E+04 -0.23801317160E+04  0.26907243582E+04  0.50400001928E-02 0.  1.
       -1    1    3    3    0  502  0.75475734208E+03 -0.10026524525E+04  0.86355841096E+03  0.15233856094E+04  0.50400001928E-02 0. -1.
</event>
<event>
 5   0  0.4316671E-07  0.2401878E+04  0.7818609E-02  0.8438801E-01
       -1   -1    0    0    0  501  0.00000000000E+00  0.00000000000E+00  0.23227730489E+04  0.23227730489E+04  0.50400001928E-02 0.  1.
        1   -1    0    0  501    0  0.00000000000E+00  0.00000000000E+00 -0.62091916242E+03  0.62091916244E+03  0.50400001928E-02 0. -1.
    10030    2    1    2    0    0  0.00000000000E+00  0.00000000000E+00  0.17018538865E+04  0.29436922113E+04  0.24018778454E+04 0.  0.
        2    1    3    3  502    0  0.43774553489E+03  0.61583577061E+03 -0.29312340694E+03  0.81042962766E+03  0.25500000920E-02 0. -1.
       -2    1    3    3    0  502 -0.43774553489E+03 -0.61583577061E+03  0.19949772934E+04  0.21332625837E+04  0.25500000920E-02 0.  1.
</event>
<event>
 5   0  0.3977376E-07  0.3945629E+04  0.7818609E-02  0.8015606E-01
        1   -1    0    0  501    0  0.00000000000E+00  0.00000000000E+00  0.21161337055E+04  0.21161337055E+04  0.50400001928E-02 0. -1.
       -1   -1    0    0    0  501  0.00000000000E+00  0.00000000000E+00 -0.18392015829E+04  0.18392015829E+04  0.50400001928E-02 0.  1.
    10030    2    1    2    0    0  0.00000000000E+00  0.00000000000E+00  0.27693212262E+03  0.39553352883E+04  0.39456287006E+04 0.  0.
        4    1    3    3  502    0  0.15916709704E+04  0.76547056255E+02  0.13043917518E+04  0.20592997317E+04  0.12699999809E+01 0. -1.
       -4    1    3    3    0  502 -0.15916709704E+04 -0.76547056255E+02 -0.10274596292E+04  0.18960355567E+04  0.12699999809E+01 0.  1.
</event>
<event>
 5   0  0.5385714E-07  0.2542442E+04  0.7818609E-02  0.8388019E-01
        1   -1    0    0  501    0  0.00000000000E+00  0.00000000000E+00  0.21710439292E+04  0.21710439292E+04  0.50400001928E-02 0.  1.
       -1   -1    0    0    0  501  0.00000000000E+00  0.00000000000E+00 -0.74434371999E+03  0.74434372001E+03  0.50400001928E-02 0. -1.
    10030    2    1    2    0    0  0.00000000000E+00  0.00000000000E+00  0.14267002092E+04  0.29153876492E+04  0.25424420658E+04 0.  0.
        3    1    3    3  502    0 -0.10643851701E+04  0.45823132284E+03  0.13126096693E+04  0.17509528519E+04  0.10100000352E+00 0.  1.
       -3    1    3    3    0  502  0.10643851701E+04 -0.45823132284E+03  0.11409053987E+03  0.11644347972E+04  0.10100000352E+00 0. -1.
</event>
<event>
 5   0  0.1250964E-06  0.1958198E+04  0.7818609E-02  0.8626418E-01
        2   -1    0    0  501    0  0.00000000000E+00  0.00000000000E+00  0.19010214691E+04  0.19010214691E+04  0.25500000920E-02 0. -1.
       -2   -1    0    0    0  501  0.00000000000E+00  0.00000000000E+00 -0.50427359512E+03  0.50427359513E+03  0.25500000920E-02 0.  1.
    10030    2    1    2    0    0  0.00000000000E+00  0.00000000000E+00  0.13967478740E+04  0.24052950642E+04  0.19581980805E+04 0.  0.
        4    1    3    3  502    0 -0.13955710635E+03  0.34378402415E+03 -0.41457515039E+03  0.55636122206E+03  0.12699999809E+01 0.  1.
       -4    1    3    3    0  502  0.13955710635E+03 -0.34378402415E+03  0.18113230244E+04  0.18489338421E+04  0.12699999809E+01 0. -1.
</event>
<event>
 5   0  0.7268013E-07  0.3961591E+04  0.7818609E-02  0.8012340E-01
        2   -1    0    0  501    0  0.00000000000E+00  0.00000000000E+00  0.25991831313E+04  0.25991831313E+04  0.25500000920E-02 0.  1.
       -2   -1    0    0    0  501  0.00000000000E+00  0.00000000000E+00 -0.15095323959E+04  0.15095323960E+04  0.25500000920E-02 0. -1.
    10030    2    1    2    0    0  0.00000000000E+00  0.00000000000E+00  0.10896507353E+04  0.41087155272E+04  0.39615911650E+04 0.  0.
        4    1    3    3  502    0  0.14090404214E+04 -0.59511335444E+03 -0.76048348282E+03  0.17081837004E+04  0.12699999809E+01 0. -1.
       -4    1    3    3    0  502 -0.14090404214E+04  0.59511335444E+03  0.18501342182E+04  0.24005318269E+04  0.12699999809E+01 0.  1.
</event>
<event>
 5   0  0.1035864E-06  0.3891431E+04  0.7818609E-02  0.8026814E-01
       -2   -1    0    0    0  501  0.00000000000E+00  0.00000000000E+00  0.15943259445E+04  0.15943259445E+04  0.25500000920E-02 0. -1.
        2   -1    0    0  501    0  0.00000000000E+00  0.00000000000E+00 -0.23745509330E+04  0.23745509330E+04  0.25500000920E-02 0.  1.
    10030    2    1    2    0    0  0.00000000000E+00  0.00000000000E+00 -0.78022498852E+03  0.39688768775E+04  0.38914306670E+04 0.  0.
        5    1    3    3  502    0 -0.72839047191E+03 -0.18037999735E+04 -0.43012391599E+03  0.19923041176E+04  0.46999998093E+01 0.  1.
       -5    1    3    3    0  502  0.72839047191E+03  0.18037999735E+04 -0.35010107253E+03  0.19765727598E+04  0.46999998093E+01 0. -1.
</event>
<event>
 5   0  0.3471602E-07  0.3891421E+04  0.7818609E-02  0.8026816E-01
        1   -1    0    0  501    0  0.00000000000E+00  0.00000000000E+00  0.15485449116E+04  0.15485449116E+04  0.50400001928E-02 0. -1.
       -1   -1    0    0    0  501  0.00000000000E+00  0.00000000000E+00 -0.24447400438E+04  0.24447400438E+04  0.50400001928E-02 0.  1.
    10030    2    1    2    0    0  0.00000000000E+00  0.00000000000E+00 -0.89619513219E+03  0.39932849554E+04  0.38914212083E+04 0.  0.
        5    1    3    3  502    0  0.93686970160E+03 -0.45292192955E+02  0.13012222917E+04  0.16040504241E+04  0.46999998093E+01 0. -1.
       -5    1    3    3    0  502 -0.93686970160E+03  0.45292192955E+02 -0.21974174239E+04  0.23892345313E+04  0.46999998093E+01 0.  1.
</event>
<event>
 5   0  0.3471602E-07  0.2346273E+04  0.7818609E-02  0.8459897E-01
       -1   -1    0    0    0  501  0.00000000000E+00  0.00000000000E+00  0.75205200228E+03  0.75205200229E+03  0.50400001928E-02 0.  1.
        1   -1    0    0  501    0  0.00000000000E+00  0.00000000000E+00 -0.18299922144E+04  0.18299922144E+04  0.50400001928E-02 0. -1.
    10030    2    1    2    0    0  0.00000000000E+00  0.00000000000E+00 -0.10779402121E+04  0.25820442167E+04  0.23462730523E+04 0.  0.
        5    1    3    3  502    0 -0.11122463723E+04 -0.18130373759E+03 -0.18023112341E+03  0.11412573706E+04  0.46999998093E+01 0. -1.
       -5    1    3    3    0  502  0.11122463723E+04  0.18130373759E+03 -0.89770908866E+03  0.14407868461E+04  0.46999998093E+01 0.  1.
</event>
<event>
 5   0  0.1034683E-06  0.4042858E+04  0.7818609E-02  0.7995956E-01
        2   -1    0    0  501    0  0.00000000000E+00  0.00000000000E+00  0.22578805854E+04  0.22578805854E+04  0.25500000920E-02 0.  1.
       -2   -1    0    0    0  501  0.00000000000E+00  0.00000000000E+00 -0.18097391141E+04  0.18097391141E+04  0.25500000920E-02 0. -1.
    10030    2    1    2    0    0  0.00000000000E+00  0.00000000000E+00  0.44814147130E+03  0.40676196995E+04  0.40428578063E+04 0.  0.
        2    1    3    3  502    0 -0.11140136345E+04 -0.16299010890E+04 -0.21283644304E+03  0.19856745175E+04  0.25500000920E-02 0.  1.
       -2    1    3    3    0  502  0.11140136345E+04  0.16299010890E+04  0.66097791434E+03  0.20819451821E+04  0.25500000920E-02 0. -1.
</event>
<event>
 5   0  0.5533705E-07  0.2444025E+04  0.7818609E-02  0.8423203E-01
       -2   -1    0    0    0  501  0.00000000000E+00  0.00000000000E+00  0.63410236492E+03  0.63410236492E+03  0.25500000920E-02 0.  1.
        2   -1    0    0  501    0  0.00000000000E+00  0.00000000000E+00 -0.23550053390E+04  0.23550053390E+04  0.25500000920E-02 0. -1.
    10030    2    1    2    0    0  0.00000000000E+00  0.00000000000E+00 -0.17209029740E+04  0.29891077039E+04  0.24440249220E+04 0.  0.
        1    1    3    3  502    0  0.95133021444E+03 -0.66016119941E+03 -0.13380155625E+04  0.17694992602E+04  0.50400001928E-02 0.  1.
       -1    1    3    3    0  502 -0.95133021444E+03  0.66016119941E+03 -0.38288741152E+03  0.12196084437E+04  0.50400001928E-02 0. -1.
</event>
<event>
 5   0  0.7268013E-07  0.3827801E+04  0.7818609E-02  0.8040215E-01
        2   -1    0    0  501    0  0.00000000000E+00  0.00000000000E+00  0.16873054230E+04  0.16873054230E+04  0.25500000920E-02 0.  1.
       -2   -1    0    0    0  501  0.00000000000E+00  0.00000000000E+00 -0.21709258196E+04  0.21709258196E+04  0.25500000920E-02 0. -1.
    10030    2    1    2    0    0  0.00000000000E+00  0.00000000000E+00 -0.48362039656E+03  0.38582312426E+04  0.38278008874E+04 0.  0.
        4    1    3    3  502    0 -0.11478029941E+04 -0.88052354944E+03  0.10212437874E+04  0.17707947144E+04  0.12699999809E+01 0.  1.
       -4    1    3    3    0  502  0.11478029941E+04  0.88052354944E+03 -0.15048641839E+04  0.20874365282E+04  0.12699999809E+01 0. -1.
</event>
<event>
 5   0  0.1034683E-06  0.3726177E+04  0.7818609E-02  0.8062185E-01
       -2   -1    0    0    0  501  0.00000000000E+00  0.00000000000E+00  0.21785071803E+04  0.21785071803E+04  0.25500000920E-02 0. -1.
        2   -1    0    0  501    0  0.00000000000E+00  0.00000000000E+00 -0.15933379621E+04  0.15933379621E+04  0.25500000920E-02 0.  1.
    10030    2    1    2    0    0  0.00000000000E+00  0.00000000000E+00  0.58516921822E+03  0.37718451425E+04  0.37261766953E+04 0.  0.
        2    1    3    3  502    0  0.10127649096E+04 -0.45708723452E+03 -0.12212296671E+04  0.16510673523E+04  0.25500000920E-02 0.  1.
       -2    1    3    3    0  502 -0.10127649096E+04  0.45708723452E+03  0.18063988853E+04  0.21207777901E+04  0.25500000920E-02 0. -1.
</event>
<event>
 5   0  0.5533705E-07  0.2398223E+04  0.7818609E-02  0.8440169E-01
       -2   -1    0    0    0  501  0.00000000000E+00  0.00000000000E+00  0.10359678550E+04  0.10359678550E+04  0.25500000920E-02 0. -1.
        2   -1    0    0  501    0  0.00000000000E+00  0.00000000000E+00 -0.13879463668E+04  0.13879463668E+04  0.25500000920E-02 0.  1.
    10030    2    1    2    0    0  0.00000000000E+00  0.00000000000E+00 -0.35197851184E+03  0.24239142218E+04  0.23982225255E+04 0.  0.
        1    1    3    3  502    0  0.30230753975E+03  0.11421766172E+04 -0.38290304480E+03  0.12420032267E+04  0.50400001928E-02 0. -1.
       -1    1    3    3    0  502 -0.30230753975E+03 -0.11421766172E+04  0.30924532963E+02  0.11819109951E+04  0.50400001928E-02 0.  1.
</event>
<event>
 5   0  0.3471602E-07  0.2004039E+04  0.7818609E-02  0.8604735E-01
       -1   -1    0    0    0  501  0.00000000000E+00  0.00000000000E+00  0.46804410782E+03  0.46804410784E+03  0.50400001928E-02 0. -1.
        1   -1    0    0  501    0  0.00000000000E+00  0.00000000000E+00 -0.21451895412E+04  0.21451895413E+04  0.50400001928E-02 0.  1.
    10030    2    1    2    0    0  0.00000000000E+00  0.00000000000E+00 -0.16771454334E+04  0.26132336491E+04  0.20040392461E+04 0.  0.
        5    1    3    3  502    0 -0.12659244316E+02  0.92352582010E+03 -0.33192690563E+03  0.98145695654E+03  0.46999998093E+01 0. -1.
       -5    1    3    3    0  502  0.12659244316E+02 -0.92352582010E+03 -0.13452185278E+04  0.16317766926E+04  0.46999998093E+01 0.  1.
</event>
<event>
 5   0  0.1015219E-06  0.3918195E+04  0.7818609E-02  0.8021256E-01
        2   -1    0    0  501    0  0.00000000000E+00  0.00000000000E+00  0.20617246574E+04  0.20617246574E+04  0.25500000920E-02 0. -1.
       -2   -1    0    0    0  501  0.00000000000E+00  0.00000000000E+00 -0.18615788441E+04  0.18615788441E+04  0.25500000920E-02 0.  1.
    10030    2    1    2    0    0  0.00000000000E+00  0.00000000000E+00  0.20014581331E+03  0.39233035015E+04  0.39181949949E+04 0.  0.
        3    1    3    3  502    0  0.29520227844E+03  0.39675882169E+03  0.19981976397E+04  0.20584838511E+04  0.10100000352E+00 0. -1.
       -3    1    3    3    0  502 -0.29520227844E+03 -0.39675882169E+03 -0.17980518264E+04  0.18648196504E+04  0.10100000352E+00 0.  1.
</event>
<event>
 5   0  0.3471602E-07  0.2498305E+04  0.7818609E-02  0.8403590E-01
       -1   -1    0    0    0  501  0.00000000000E+00  0.00000000000E+00  0.11828324501E+04  0.11828324502E+04  0.50400001928E-02 0.  1.
        1   -1    0    0  501    0  0.00000000000E+00  0.00000000000E+00 -0.13191912625E+04  0.13191912625E+04  0.50400001928E-02 0. -1.
    10030    2    1    2    0    0  0.00000000000E+00  0.00000000000E+00 -0.13635881237E+03  0.25020237127E+04  0.24983052122E+04 0.  0.
        5    1    3    3  502    0  0.29974816696E+03  0.28294453932E+03 -0.12491094530E+04  0.13153718454E+04  0.46999998093E+01 0. -1.
       -5    1    3    3    0  502 -0.29974816696E+03 -0.28294453932E+03  0.11127506407E+04  0.11866518673E+04  0.46999998093E+01 0.  1.
</event>
<event>
 5   0  0.5385714E-07  0.3304447E+04  0.7818609E-02  0.8161765E-01
       -1   -1    0    0    0  501  0.00000000000E+00  0.00000000000E+00  0.11062851550E+04  0.11062851550E+04  0.50400001928E-02 0. -1.
        1   -1    0    0  501    0  0.00000000000E+00  0.00000000000E+00 -0.24675756131E+04  0.24675756131E+04  0.50400001928E-02 0.  1.
    10030    2    1    2    0    0  0.00000000000E+00  0.00000000000E+00 -0.13612904581E+04  0.35738607681E+04  0.33044468642E+04 0.  0.
        3    1    3    3  502    0 -0.11652454843E+04  0.80198242996E+02 -0.19445162353E+04  0.22683412875E+04  0.10100000352E+00 0.  1.
       -3    1    3    3    0  502  0.11652454843E+04 -0.80198242996E+02  0.58322577723E+03  0.13055194806E+04  0.10100000352E+00 0. -1.
</event>
<event>
 5   0  0.5533705E-07  0.3955357E+04  0.7818609E-02  0.8013614E-01
       -2   -1    0    0    0  501  0.00000000000E+00  0.00000000000E+00  0.18391242706E+04  0.18391242706E+04  0.25500000920E-02 0.  1.
        2   -1    0    0  501    0  0.00000000000E+00  0.00000000000E+00 -0.21266707172E+04  0.21266707172E+04  0.25500000920E-02 0. -1.
    10030    2    1    2    0    0  0.00000000000E+00  0.00000000000E+00 -0.28754644654E+03  0.39657949878E+04  0.39553567382E+04 0.  0.
        1    1    3    3  502    0  0.35453936678E+03 -0.52739197240E+03  0.17339668335E+04  0.18467488825E+04  0.50400001928E-02 0.  1.
       -1    1    3    3    0  502 -0.35453936678E+03  0.52739197240E+03 -0.20215132800E+04  0.21190461053E+04  0.50400001928E-02 0. -1.
</event>
<event>
 5   0  0.4627905E-07  0.3189944E+04  0.7818609E-02  0.8191478E-01
        1   -1    0    0  501    0  0.00000000000E+00  0.00000000000E+00  0.16462870131E+04  0.16462870131E+04  0.50400001928E-02 0.  1.
       -1   -1    0    0    0  501  0.00000000000E+00  0.00000000000E+00 -0.15452566795E+04  0.15452566795E+04  0.50400001928E-02 0. -1.
    10030    2    1    2    0    0  0.00000000000E+00  0.00000000000E+00  0.10103033356E+03  0.31915436926E+04  0.31899442022E+04 0.  0.
        1    1    3    3  502    0 -0.75292870788E+03  0.64123587782E+03 -0.12014519229E+04  0.15561400365E+04  0.50400001928E-02 0. -1.
       -1    1    3    3    0  502  0.75292870788E+03 -0.64123587782E+03  0.13024822564E+04  0.16354036561E+04  0.50400001928E-02 0.  1.
</event>
<event>
 5   0  0.5385714E-07  0.3784756E+04  0.7818609E-02  0.8049434E-01
       -1   -1    0    0    0  501  0.00000000000E+00  0.00000000000E+00  0.15953548466E+04  0.15953548466E+04  0.50400001928E-02 0.  1.
        1   -1    0    0  501    0  0.00000000000E+00  0.00000000000E+00 -0.22447013597E+04  0.22447013597E+04  0.50400001928E-02 0. -1.
    10030    2    1    2    0    0  0.00000000000E+00  0.00000000000E+00 -0.64934651314E+03  0.38400562063E+04  0.37847563691E+04 0.  0.
        3    1    3    3  502    0 -0.94394983143E+03  0.70131003141E+03 -0.18289753026E+04  0.21744028403E+04  0.10100000352E+00 0. -1.
       -3    1    3    3    0  502  0.94394983143E+03 -0.70131003141E+03  0.11796287895E+04  0.16656533660E+04  0.10100000352E+00 0.  1.
</event>
<event>
 5   0  0.4316671E-07  0.3931263E+04  0.7818609E-02  0.8018558E-01
        1   -1    0    0  501    0  0.00000000000E+00  0.00000000000E+00  0.24983442817E+04  0.24983442817E+04  0.50400001928E-02 0.  1.
       -1   -1    0    0    0  501  0.00000000000E+00  0.00000000000E+00 -0.15465072427E+04  0.15465072427E+04  0.50400001928E-02 0. -1.
    10030    2    1    2    0    0  0.00000000000E+00  0.00000000000E+00  0.95183703898E+03  0.40448515245E+04  0.39312631693E+04 0.  0.
        2    1    3    3  502    0  0.10239392372E+04  0.18663355888E+03 -0.12397207241E+04  0.16187004419E+04  0.25500000920E-02 0. -1.
       -2    1    3    3    0  502 -0.10239392372E+04 -0.18663355888E+03  0.21915577630E+04  0.24261510826E+04  0.25500000920E-02 0.  1.
</event>
<event>
 5   0  0.3471602E-07  0.3168332E+04  0.7818609E-02  0.8197231E-01
        1   -1    0    0  501    0  0.00000000000E+00  0.00000000000E+00  0.23143284610E+04  0.23143284610E+04  0.50400001928E-02 0. -1.
       -1   -1    0    0    0  501  0.00000000000E+00  0.00000000000E+00 -0.10843674296E+04  0.10843674296E+04  0.50400001928E-02 0.  1.
    10030    2    1    2    0    0  0.00000000000E+00  0.00000000000E+00  0.12299610314E+04  0.33986958905E+04  0.31683323086E+04 0.  0.
        5    1    3    3  502    0 -0.12462996995E+04 -0.77156639397E+03  0.12594832418E+04  0.19325883596E+04  0.46999998093E+01 0. -1.
       -5    1    3    3    0  502  0.12462996995E+04  0.77156639397E+03 -0.29522210365E+02  0.14661075309E+04  0.46999998093E+01 0.  1.
</event>
<event>
 5   0  0.7268013E-07  0.3636693E+04  0.7818609E-02  0.8082138E-01
        2   -1    0    0  501    0  0.00000000000E+00  0.00000000000E+00  0.28300902398E+04  0.28300902398E+04  0.25500000920E-02 0.  1.
       -2   -1    0    0    0  501  0.00000000000E+00  0.00000000000E+00 -0.11682961813E+04  0.11682961813E+04  0.25500000920E-02 0. -1.
    10030    2    1    2    0    0  0.00000000000E+00  0.00000000000E+00  0.16617940585E+04  0.39983864212E+04  0.36366927943E+04 0.  0.
        4    1    3    3  502    0  0.17523860358E+04 -0.36106027419E+03  0.11874341999E+04  0.21473758246E+04  0.12699999809E+01 0.  1.
       -4    1    3    3    0  502 -0.17523860358E+04  0.36106027419E+03  0.47435985866E+03  0.18510105966E+04  0.12699999809E+01 0. -1.
</event>
<event>
 5   0  0.5533705E-07  0.3870795E+04  0.7818609E-02  0.8031131E-01
        2   -1    0    0  501    0  0.00000000000E+00  0.00000000000E+00  0.12209496191E+04  0.12209496191E+04  0.25500000920E-02 0. -1.
       -2   -1    0    0    0  501  0.00000000000E+00  0.00000000000E+00 -0.30679098909E+04  0.30679098909E+04  0.25500000920E-02 0.  1.
    10030    2    1    2    0    0  0.00000000000E+00  0.00000000000E+00 -0.18469602718E+04  0.42888595100E+04  0.38707949637E+04 0.  0.
        1    1    3    3  502    0  0.28948474263E+02  0.15654988197E+04  0.33698863295E+03  0.16016197762E+04  0.50400001928E-02 0. -1.
       -1    1    3    3    0  502 -0.28948474263E+02 -0.15654988197E+04 -0.21839489048E+04  0.26872397339E+04  0.50400001928E-02 0.  1.
</event>
<event>
 5   0  0.3977376E-07  0.3974407E+04  0.7818609E-02  0.8009729E-01
       -1   -1    0    0    0  501  0.00000000000E+00  0.00000000000E+00  0.13334398731E+04  0.13334398731E+04  0.50400001928E-02 0. -1.
        1   -1    0    0  501    0  0.00000000000E+00  0.00000000000E+00 -0.29614974089E+04  0.29614974089E+04  0.50400001928E-02 0.  1.
    10030    2    1    2    0    0  0.00000000000E+00  0.00000000000E+00 -0.16280575358E+04  0.42949372820E+04  0.39744074925E+04 0.  0.
        4    1    3    3  502    0  0.19818141853E+04 -0.13175919065E+03 -0.88262370270E+03  0.21734705342E+04  0.12699999809E+01 0. -1.
       -4    1    3    3    0  502 -0.19818141853E+04  0.13175919065E+03 -0.74543383314E+03  0.21214667478E+04  0.12699999809E+01 0.  1.
</event>
<event>
 5   0  0.1034683E-06  0.3876102E+04  0.7818609E-02  0.8030018E-01
        2   -1    0    0  501    0  0.00000000000E+00  0.00000000000E+00  0.18401579916E+04  0.18401579917E+04  0.25500000920E-02 0. -1.
       -2   -1    0    0    0  501  0.00000000000E+00  0.00000000000E+00 -0.20411518133E+04  0.20411518133E+04  0.25500000920E-02 0.  1.
    10030    2    1    2    0    0  0.00000000000E+00  0.00000000000E+00 -0.20099382164E+03  0.38813098049E+04  0.38761020737E+04 0.  0.
        2    1    3    3  502    0  0.28122089715E+03 -0.16664045676E+04 -0.10504824888E+04  0.19898499530E+04  0.25500000920E-02 0.  1.
       -2    1    3    3    0  502 -0.28122089715E+03  0.16664045676E+04  0.84948866717E+03  0.18914598520E+04  0.25500000920E-02 0. -1.
</event>
<event>
 5   0  0.3471602E-07  0.2516957E+04  0.7818609E-02  0.8396969E-01
       -1   -1    0    0    0  501  0.00000000000E+00  0.00000000000E+00  0.16316138900E+04  0.16316138901E+04  0.50400001928E-02 0. -1.
        1   -1    0    0  501    0  0.00000000000E+00  0.00000000000E+00 -0.97067558233E+03  0.97067558235E+03  0.50400001928E-02 0.  1.
    10030    2    1    2    0    0  0.00000000000E+00  0.00000000000E+00  0.66093830771E+03  0.26022894724E+04  0.25169567043E+04 0.  0.
        5    1    3    3  502    0 -0.46420624542E+03  0.11693134715E+04  0.36257413735E+03  0.13092988688E+04  0.46999998093E+01 0. -1.
       -5    1    3    3    0  502  0.46420624542E+03 -0.11693134715E+04  0.29836417036E+03  0.12929906036E+04  0.46999998093E+01 0.  1.
</event>
<event>
 5   0  0.1034683E-06  0.3771014E+04  0.7818609E-02  0.8052404E-01
        2   -1    0    0  501    0  0.00000000000E+00  0.00000000000E+00  0.27644082073E+04  0.27644082073E+04  0.25500000920E-02 0.  1.
       -2   -1    0    0    0  501  0.00000000000E+00  0.00000000000E+00 -0.12860389250E+04  0.12860389250E+04  0.25500000920E-02 0. -1.
    10030    2    1    2    0    0  0.00000000000E+00  0.00000000000E+00  0.14783692823E+04  0.40504471324E+04  0.37710139534E+04 0.  0.
        2    1    3    3  502    0  0.17721606582E+04 -0.54062728891E+02  0.50033681734E+02  0.17736909388E+04  0.25500000920E-02 0. -1.
       -2    1    3    3    0  502 -0.17721606582E+04  0.54062728891E+02  0.14283356006E+04  0.22767561936E+04  0.25500000920E-02 0.  1.
</event>
<event>
 5   0  0.4316671E-07  0.2027890E+04  0.7818609E-02  0.8593691E-01
        1   -1    0    0  501    0  0.00000000000E+00  0.00000000000E+00  0.78838055146E+03  0.78838055147E+03  0.50400001928E-02 0. -1.
       -1   -1    0    0    0  501  0.00000000000E+00  0.00000000000E+00 -0.13040462725E+04  0.13040462725E+04  0.50400001928E-02 0.  1.
    10030    2    1    2    0    0  0.00000000000E+00  0.00000000000E+00 -0.51566572104E+03  0.20924268240E+04  0.20278902529E+04 0.  0.
        2    1    3    3  502    0 -0.63918428282E+03 -0.70721591277E+03 -0.61433355940E+03  0.11340708165E+04  0.25500000920E-02 0.  1.
       -2    1    3    3    0  502  0.63918428282E+03  0.70721591277E+03  0.98667838362E+02  0.95835600745E+03  0.25500000920E-02 0. -1.
</event>
<event>
 5   0  0.4316671E-07  0.3874682E+04  0.7818609E-02  0.8030316E-01
       -1   -1    0    0    0  501  0.00000000000E+00  0.00000000000E+00  0.14517256371E+04  0.14517256371E+04  0.50400001928E-02 0. -1.
        1   -1    0    0  501    0  0.00000000000E+00  0.00000000000E+00 -0.25853985796E+04  0.25853985796E+04  0.50400001928E-02 0.  1.
    10030    2    1    2    0    0  0.00000000000E+00  0.00000000000E+00 -0.11336729425E+04  0.40371242167E+04  0.38746816128E+04 0.  0.
        2    1    3    3  502    0  0.10491656442E+04 -0.11299374504E+04  0.65527532195E+03  0.16753784463E+04  0.25500000920E-02 0. -1.
       -2    1    3    3    0  502 -0.10491656442E+04  0.11299374504E+04 -0.17889482645E+04  0.23617457704E+04  0.25500000920E-02 0.  1.
</event>
<event>
 5   0  0.4316671E-07  0.2588279E+04  0.7818609E-02  0.8372193E-01
       -1   -1    0    0    0  501  0.00000000000E+00  0.00000000000E+00  0.10968374737E+04  0.10968374738E+04  0.50400001928E-02 0. -1.
        1   -1    0    0  501    0  0.00000000000E+00  0.00000000000E+00 -0.15269330438E+04  0.15269330438E+04  0.50400001928E-02 0.  1.
    10030    2    1    2    0    0  0.00000000000E+00  0.00000000000E+00 -0.43009557000E+03  0.26237705175E+04  0.25882792603E+04 0.  0.
        2    1    3    3  502    0  0.11528323275E+04 -0.46212851224E+03  0.15354816198E+03  0.12514640128E+04  0.25500000920E-02 0.  1.
       -2    1    3    3    0  502 -0.11528323275E+04  0.46212851224E+03 -0.58364373198E+03  0.13723065048E+04  0.25500000920E-02 0. -1.
</event>
<event>
 5   0  0.7268013E-07  0.3926390E+04  0.7818609E-02  0.8019563E-01
        2   -1    0    0  501    0  0.00000000000E+00  0.00000000000E+00  0.17031339960E+04  0.17031339960E+04  0.25500000920E-02 0.  1.
       -2   -1    0    0    0  501  0.00000000000E+00  0.00000000000E+00 -0.22629660712E+04  0.22629660712E+04  0.25500000920E-02 0. -1.
    10030    2    1    2    0    0  0.00000000000E+00  0.00000000000E+00 -0.55983207514E+03  0.39661000672E+04  0.39263899183E+04 0.  0.
        4    1    3    3  502    0  0.62026469831E+03 -0.85027993670E+03  0.13940798840E+04  0.17467583126E+04  0.12699999809E+01 0.  1.
       -4    1    3    3    0  502 -0.62026469831E+03  0.85027993670E+03 -0.19539119592E+04  0.22193417546E+04  0.12699999809E+01 0. -1.
</event>
<event>
 5   0  0.3191750E-07  0.1974105E+04  0.7818609E-02  0.8618824E-01
       -3   -1    0    0    0  501  0.00000000000E+00  0.00000000000E+00  0.60127772518E+03  0.60127773366E+03  0.10100000352E+00 0. -1.
        3   -1    0    0  501    0  0.00000000000E+00  0.00000000000E+00 -0.16203378713E+04  0.16203378745E+04  0.10100000352E+00 0.  1.
    10030    2    1    2    0    0  0.00000000000E+00  0.00000000000E+00 -0.10190601462E+04  0.22216156082E+04  0.19741054503E+04 0.  0.
        5    1    3    3  502    0  0.69613789215E+03  0.54941180677E+03 -0.21850632204E+02  0.88710813232E+03  0.46999998093E+01 0.  1.
       -5    1    3    3    0  502 -0.69613789215E+03 -0.54941180677E+03 -0.99720951396E+03  0.13345074758E+04  0.46999998093E+01 0. -1.
</event>
<event>
 5   0  0.1015219E-06  0.3443528E+04  0.7818609E-02  0.8127305E-01
        2   -1    0    0  501    0  0.00000000000E+00  0.00000000000E+00  0.20774553155E+04  0.20774553155E+04  0.25500000920E-02 0. -1.
       -2   -1    0    0    0  501  0.00000000000E+00  0.00000000000E+00 -0.14269726387E+04  0.14269726387E+04  0.25500000920E-02 0.  1.
    10030    2    1    2    0    0  0.00000000000E+00  0.00000000000E+00  0.65048267683E+03  0.35044279543E+04  0.34435283611E+04 0.  0.
        3    1    3    3  502    0  0.18353375271E+03 -0.82925192965E+03 -0.11989537109E+04  0.14692969109E+04  0.10100000352E+00 0.  1.
       -3    1    3    3    0  502 -0.18353375271E+03  0.82925192965E+03  0.18494363877E+04  0.20351310434E+04  0.10100000352E+00 0. -1.
</event>
<event>
 5   0  0.1015219E-06  0.2411659E+04  0.7818609E-02  0.8435152E-01
       -2   -1    0    0    0  501  0.00000000000E+00  0.00000000000E+00  0.59946540911E+03  0.59946540912E+03  0.25500000920E-02 0. -1.
        2   -1    0    0  501    0  0.00000000000E+00  0.00000000000E+00 -0.24255353303E+04  0.24255353303E+04  0.25500000920E-02 0.  1.
    10030    2    1    2    0    0  0.00000000000E+00  0.00000000000E+00 -0.18260699212E+04  0.30250007394E+04  0.24116587894E+04 0.  0.
        3    1    3    3  502    0  0.64568589511E+03 -0.10073631257E+04 -0.72558268873E+03  0.13993430568E+04  0.10100000352E+00 0. -1.
       -3    1    3    3    0  502 -0.64568589511E+03  0.10073631257E+04 -0.11004872324E+04  0.16256576826E+04  0.10100000352E+00 0.  1.
</event>
<event>
 5   0  0.7268013E-07  0.3951200E+04  0.7818609E-02  0.8014464E-01
       -2   -1    0    0    0  501  0.00000000000E+00  0.00000000000E+00  0.15668498989E+04  0.15668498989E+04  0.25500000920E-02 0. -1.
        2   -1    0    0  501    0  0.00000000000E+00  0.00000000000E+00 -0.24909818853E+04  0.24909818853E+04  0.25500000920E-02 0.  1.
    10030    2    1    2    0    0  0.00000000000E+00  0.00000000000E+00 -0.92413198635E+03  0.40578317842E+04  0.39511996736E+04 0.  0.
        4    1    3    3  502    0 -0.45933371424E+03 -0.17112155669E+04  0.43544504728E+03  0.18245164234E+04  0.12699999809E+01 0. -1.
       -4    1    3    3    0  502  0.45933371424E+03  0.17112155669E+04 -0.13595770336E+04  0.22333153608E+04  0.12699999809E+01 0.  1.
</event>
<event>
 5   0  0.3977376E-07  0.3852278E+04  0.7818609E-02  0.8035028E-01
        1   -1    0    0  501    0  0.00000000000E+00  0.00000000000E+00  0.21635800465E+04  0.21635800465E+04  0.50400001928E-02 0.  1.
       -1   -1    0    0    0  501  0.00000000000E+00  0.00000000000E+00 -0.17147556575E+04  0.17147556575E+04  0.50400001928E-02 0. -1.
    10030    2    1    2    0    0  0.00000000000E+00  0.00000000000E+00  0.44882438905E+03  0.38783357040E+04  0.38522778328E+04 0.  0.
        4    1    3    3  502    0 -0.11286721141E+04 -0.15213608611E+04  0.57543944257E+03  0.19797908414E+04  0.12699999809E+01 0.  1.
       -4    1    3    3    0  502  0.11286721141E+04  0.15213608611E+04 -0.12661505352E+03  0.18985448626E+04  0.12699999809E+01 0. -1.
</event>
<event>
 5   0  0.1035864E-06  0.2958951E+04  0.7818609E-02  0.8255551E-01
       -2   -1    0    0    0  501  0.00000000000E+00  0.00000000000E+00  0.12551153506E+04  0.12551153506E+04  0.25500000920E-02 0.  1.
        2   -1    0    0  501    0  0.00000000000E+00  0.00000000000E+00 -0.17439414975E+04  0.17439414975E+04  0.25500000920E-02 0. -1.
    10030    2    1    2    0    0  0.00000000000E+00  0.00000000000E+00 -0.48882614688E+03  0.29990568482E+04  0.29589509926E+04 0.  0.
        5    1    3    3  502    0 -0.10320002333E+04  0.98805762392E+02  0.82537325642E+03  0.13251604290E+04  0.46999998093E+01 0.  1.
       -5    1    3    3    0  502  0.10320002333E+04 -0.98805762392E+02 -0.13141994033E+04  0.16738964191E+04  0.46999998093E+01 0. -1.
</event>
<event>
 5   0  0.1034683E-06  0.2043838E+04  0.7818609E-02  0.8586395E-01
       -2   -1    0    0    0  501  0.00000000000E+00  0.00000000000E+00  0.45872909245E+03  0.45872909245E+03  0.25500000920E-02 0. -1.
        2   -1    0    0  501    0  0.00000000000E+00  0.00000000000E+00 -0.22765483035E+04  0.22765483035E+04  0.25500000920E-02 0.  1.
    10030    2    1    2    0    0  0.00000000000E+00  0.00000000000E+00 -0.18178192111E+04  0.27352773960E+04  0.20438384840E+04 0.  0.
        2    1    3    3  502    0  0.83635931969E+02  0.48693860615E+03 -0.21060858307E+04  0.21632618199E+04  0.25500000920E-02 0.  1.
       -2    1    3    3    0  502 -0.83635931969E+02 -0.48693860615E+03  0.28826661961E+03  0.57201557606E+03  0.25500000920E-02 0. -1.
</event>
<event>
 5   0  0.1035864E-06  0.2435656E+04  0.7818609E-02  0.8426274E-01
       -2   -1    0    0    0  501  0.00000000000E+00  0.00000000000E+00  0.10479599263E+04  0.10479599263E+04  0.25500000920E-02 0.  1.
        2   -1    0    0  501    0  0.00000000000E+00  0.00000000000E+00 -0.14152303164E+04  0.14152303164E+04  0.25500000920E-02 0. -1.
    10030    2    1    2    0    0  0.00000000000E+00  0.00000000000E+00 -0.36727039009E+03  0.24631902426E+04  0.24356556883E+04 0.  0.
        5    1    3    3  502    0  0.87022569469E+03 -0.69048727156E+03 -0.68829263176E+03  0.13068413327E+04  0.46999998093E+01 0. -1.
       -5    1    3    3    0  502 -0.87022569469E+03  0.69048727156E+03  0.32102224167E+03  0.11563489099E+04  0.46999998093E+01 0.  1.
</event>
<event>
 5   0  0.5533705E-07  0.2844030E+04  0.7818609E-02  0.8289728E-01
       -2   -1    0    0    0  501  0.00000000000E+00  0.00000000000E+00  0.12154491965E+04  0.12154491965E+04  0.25500000920E-02 0. -1.
        2   -1    0    0  501    0  0.00000000000E+00  0.00000000000E+00 -0.16636861514E+04  0.16636861514E+04  0.25500000920E-02 0.  1.
    10030    2    1    2    0    0  0.00000000000E+00  0.00000000000E+00 -0.44823695492E+03  0.28791353478E+04  0.28440295328E+04 0.  0.
        1    1    3    3  502    0  0.10784242005E+04 -0.42035370371E+03  0.61217177715E+03  0.13093701834E+04  0.50400001928E-02 0. -1.
       -1    1    3    3    0  502 -0.10784242005E+04  0.42035370371E+03 -0.10604087321E+04  0.15697651644E+04  0.50400001928E-02 0.  1.
</event>
<event>
 5   0  0.1015219E-06  0.3735522E+04  0.7818609E-02  0.8060135E-01
        2   -1    0    0  501    0  0.00000000000E+00  0.00000000000E+00  0.16903394924E+04  0.16903394924E+04  0.25500000920E-02 0. -1.
       -2   -1    0    0    0  501  0.00000000000E+00  0.00000000000E+00 -0.20638055010E+04  0.20638055011E+04  0.25500000920E-02 0.  1.
    10030    2    1    2    0    0  0.00000000000E+00  0.00000000000E+00 -0.37346600863E+03  0.37541449935E+04  0.37355224230E+04 0.  0.
        3    1    3    3  502    0 -0.14353603059E+04  0.48232809539E+03 -0.12856338812E+04  0.19863922287E+04  0.10100000352E+00 0.  1.
       -3    1    3    3    0  502  0.14353603059E+04 -0.48232809539E+03  0.91216787257E+03  0.17677527648E+04  0.10100000352E+00 0. -1.
</event>
<event>
 5   0  0.3471602E-07  0.3950895E+04  0.7818609E-02  0.8014526E-01
       -1   -1    0    0    0  501  0.00000000000E+00  0.00000000000E+00  0.16067264592E+04  0.16067264592E+04  0.50400001928E-02 0. -1.
        1   -1    0    0  501    0  0.00000000000E+00  0.00000000000E+00 -0.24287852019E+04  0.24287852019E+04  0.50400001928E-02 0.  1.
    10030    2    1    2    0    0  0.00000000000E+00  0.00000000000E+00 -0.82205874267E+03  0.40355116611E+04  0.39508953151E+04 0.  0.
        5    1    3    3  502    0  0.12560392515E+04 -0.13404844540E+04  0.33105534386E+03  0.18665885737E+04  0.46999998093E+01 0. -1.
       -5    1    3    3    0  502 -0.12560392515E+04  0.13404844540E+04 -0.11531140865E+04  0.21689230874E+04  0.46999998093E+01 0.  1.
</event>
<event>
 5   0  0.5385714E-07  0.3793198E+04  0.7818609E-02  0.8047616E-01
        1   -1    0    0  501    0  0.00000000000E+00  0.00000000000E+00  0.11159949710E+04  0.11159949710E+04  0.50400001928E-02 0. -1.
       -1   -1    0    0    0  501  0.00000000000E+00  0.00000000000E+00 -0.32232116003E+04  0.32232116003E+04  0.50400001928E-02 0.  1.
    10030    2    1    2    0    0  0.00000000000E+00  0.00000000000E+00 -0.21072166293E+04  0.43392065713E+04  0.37931980894E+04 0.  0.
        3    1    3    3  502    0 -0.16714767831E+04 -0.83303930101E+03 -0.67541615221E+03  0.19859446373E+04  0.10100000352E+00 0. -1.
       -3    1    3    3    0  502  0.16714767831E+04  0.83303930101E+03 -0.14318004771E+04  0.23532619340E+04  0.10100000352E+00 0.  1.
</event>
<event>
 5   0  0.5533705E-07  0.3009923E+04  0.7818609E-02  0.8240903E-01
       -2   -1    0    0    0  501  0.00000000000E+00  0.00000000000E+00  0.15725831606E+04  0.15725831606E+04  0.25500000920E-02 0. -1.
        2   -1    0    0  501    0  0.00000000000E+00  0.00000000000E+00 -0.14402478950E+04  0.14402478950E+04  0.25500000920E-02 0.  1.
    10030    2    1    2    0    0  0.00000000000E+00  0.00000000000E+00  0.13233526561E+03  0.30128310555E+04  0.30099233124E+04 0.  0.
        1    1    3    3  502    0 -0.54725488158E+03 -0.12992374618E+04 -0.46103245352E+03  0.14832588482E+04  0.50400001928E-02 0.  1.
       -1    1    3    3    0  502  0.54725488158E+03  0.12992374618E+04  0.59336771913E+03  0.15295722074E+04  0.50400001928E-02 0. -1.
</event>
<event>
 5   0  0.7268013E-07  0.3898367E+04  0.7818609E-02  0.8025369E-01
       -2   -1    0    0    0  501  0.00000000000E+00  0.00000000000E+00  0.28430360309E+04  0.28430360309E+04  0.25500000920E-02 0.  1.
        2   -1    0    0  501    0  0.00000000000E+00  0.00000000000E+00 -0.13363587439E+04  0.13363587439E+04  0.25500000920E-02 0. -1.
    10030    2    1    2    0    0  0.00000000000E+00  0.00000000000E+00  0.15066772869E+04  0.41793947748E+04  0.38983668679E+04 0.  0.
        4    1    3    3  502    0 -0.12474120256E+04  0.90817685352E+03 -0.52352407898E+03  0.16293867046E+04  0.12699999809E+01 0. -1.
       -4    1    3    3    0  502  0.12474120256E+04 -0.90817685352E+03  0.20302013659E+04  0.25500080702E+04  0.12699999809E+01 0.  1.
</event>
<event>
 5   0  0.7268013E-07  0.2478019E+04  0.7818609E-02  0.8410858E-01
       -2   -1    0    0    0  501  0.00000000000E+00  0.00000000000E+00  0.10510442437E+04  0.10510442437E+04  0.25500000920E-02 0. -1.
        2   -1    0    0  501    0  0.00000000000E+00  0.00000000000E+00 -0.14605900127E+04  0.14605900127E+04  0.25500000920E-02 0.  1.
    10030    2    1    2    0    0  0.00000000000E+00  0.00000000000E+00 -0.40954576897E+03  0.25116342564E+04  0.24780191486E+04 0.  0.
        4    1    3    3  502    0 -0.66129283484E+03 -0.61191262255E+03  0.65729277251E+03  0.11152491528E+04  0.12699999809E+01 0. -1.
       -4    1    3    3    0  502  0.66129283484E+03  0.61191262255E+03 -0.10668385415E+04  0.13963851036E+04  0.12699999809E+01 0.  1.
</event>
<event>
 5   0  0.1034683E-06  0.3759939E+04  0.7818609E-02  0.8054807E-01
        2   -1    0    0  501    0  0.00000000000E+00  0.00000000000E+00  0.17062298697E+04  0.17062298697E+04  0.25500000920E-02 0. -1.
       -2   -1    0    0    0  501  0.00000000000E+00  0.00000000000E+00 -0.20714002700E+04  0.20714002700E+04  0.25500000920E-02 0.  1.
    10030    2    1    2    0    0  0.00000000000E+00  0.00000000000E+00 -0.36517040027E+03  0.37776301397E+04  0.37599388361E+04 0.  0.
        2    1    3    3  502    0 -0.24285360285E+03  0.53932875134E+03 -0.19754792240E+04  0.20621279152E+04  0.25500000920E-02 0.  1.
       -2    1    3    3    0  502  0.24285360285E+03 -0.53932875134E+03  0.16103088237E+04  0.17155022244E+04  0.25500000920E-02 0. -1.
</event>
<event>
 5   0  0.3977376E-07  0.2771621E+04  0.7818609E-02  0.8312133E-01
        1   -1    0    0  501    0  0.00000000000E+00  0.00000000000E+00  0.19787006572E+04  0.19787006572E+04  0.50400001928E-02 0. -1.
       -1   -1    0    0    0  501  0.00000000000E+00  0.00000000000E+00 -0.97057171838E+03  0.97057171839E+03  0.50400001928E-02 0.  1.
    10030    2    1    2    0    0  0.00000000000E+00  0.00000000000E+00  0.10081289388E+04  0.29492723756E+04  0.27716211119E+04 0.  0.
        4    1    3    3  502    0 -0.55978358976E+03  0.53806690897E+03  0.17255043426E+04  0.18921523499E+04  0.12699999809E+01 0. -1.
       -4    1    3    3    0  502  0.55978358976E+03 -0.53806690897E+03 -0.71737540379E+03  0.10571200257E+04  0.12699999809E+01 0.  1.
</event>
<event>
 5   0  0.7268013E-07  0.2531238E+04  0.7818609E-02  0.8391941E-01
       -2   -1    0    0    0  501  0.00000000000E+00  0.00000000000E+00  0.10883391112E+04  0.10883391112E+04  0.25500000920E-02 0. -1.
        2   -1    0    0  501    0  0.00000000000E+00  0.00000000000E+00 -0.14717756710E+04  0.14717756710E+04  0.25500000920E-02 0.  1.
    10030    2    1    2    0    0  0.00000000000E+00  0.00000000000E+00 -0.38343655976E+03  0.25601147822E+04  0.25312376622E+04 0.  0.
        4    1    3    3  502    0 -0.11261823596E+04  0.14254050058E+03 -0.75773196111E+03  0.13648310662E+04  0.12699999809E+01 0.  1.
       -4    1    3    3    0  502  0.11261823596E+04 -0.14254050058E+03  0.37429540135E+03  0.11952837160E+04  0.12699999809E+01 0. -1.
</event>
<event>
 5   0  0.7268013E-07  0.3962194E+04  0.7818609E-02  0.8012217E-01
       -2   -1    0    0    0  501  0.00000000000E+00  0.00000000000E+00  0.23355988134E+04  0.23355988134E+04  0.25500000920E-02 0.  1.
        2   -1    0    0  501    0  0.00000000000E+00  0.00000000000E+00 -0.16804020251E+04  0.16804020251E+04  0.25500000920E-02 0. -1.
    10030    2    1    2    0    0  0.00000000000E+00  0.00000000000E+00  0.65519678828E+03  0.40160008386E+04  0.39621938246E+04 0.  0.
        4    1    3    3  502    0  0.27085221293E+03  0.12188101306E+04  0.18866296779E+04  0.22623510360E+04  0.12699999809E+01 0.  1.
       -4    1    3    3    0  502 -0.27085221293E+03 -0.12188101306E+04 -0.12314328896E+04  0.17536498026E+04  0.12699999809E+01 0. -1.
</event>
<event>
 5   0  0.5533705E-07  0.3016559E+04  0.7818609E-02  0.8239018E-01
       -2   -1    0    0    0  501  0.00000000000E+00  0.00000000000E+00  0.80364988204E+03  0.80364988204E+03  0.25500000920E-02 0.  1.
        2   -1    0    0  501    0  0.00000000000E+00  0.00000000000E+00 -0.28307184930E+04  0.28307184930E+04  0.25500000920E-02 0. -1.
    10030    2    1    2    0    0  0.00000000000E+00  0.00000000000E+00 -0.20270686110E+04  0.36343683751E+04  0.30165586903E+04 0.  0.
        1    1    3    3  502    0 -0.15407215609E+03  0.68159398201E+01 -0.28211939871E+04  0.28254062008E+04  0.50400001928E-02 0. -1.
       -1    1    3    3    0  502  0.15407215609E+03 -0.68159398201E+01  0.79412537616E+03  0.80896217427E+03  0.50400001928E-02 0.  1.
</event>
<event>
 5   0  0.3471602E-07  0.3859406E+04  0.7818609E-02  0.8033525E-01
        1   -1    0    0  501    0  0.00000000000E+00  0.00000000000E+00  0.11842156556E+04  0.11842156557E+04  0.50400001928E-02 0.  1.
       -1   -1    0    0    0  501  0.00000000000E+00  0.00000000000E+00 -0.31444888304E+04  0.31444888304E+04  0.50400001928E-02 0. -1.
    10030    2    1    2    0    0  0.00000000000E+00  0.00000000000E+00 -0.19602731748E+04  0.43287044861E+04  0.38594056030E+04 0.  0.
        5    1    3    3  502    0 -0.16888589280E+04  0.44699230667E+03 -0.18993579000E+04  0.25806257232E+04  0.46999998093E+01 0. -1.
       -5    1    3    3    0  502  0.16888589280E+04 -0.44699230667E+03 -0.60915274793E+02  0.17480787629E+04  0.46999998093E+01 0.  1.
</event>
<event>
 5   0  0.1035864E-06  0.4004719E+04  0.7818609E-02  0.8003595E-01
        2   -1    0    0  501    0  0.00000000000E+00  0.00000000000E+00  0.13477447778E+04  0.13477447778E+04  0.25500000920E-02 0. -1.
       -2   -1    0    0    0  501  0.00000000000E+00  0.00000000000E+00 -0.29749285000E+04  0.29749285000E+04  0.25500000920E-02 0.  1.
    10030    2    1    2    0    0  0.00000000000E+00  0.00000000000E+00 -0.16271837222E+04  0.43226732778E+04  0.40047193910E+04 0.  0.
        5    1    3    3  502    0 -0.12040748134E+04  0.15997094133E+04 -0.83904125045E+03  0.21709165515E+04  0.46999998093E+01 0. -1.
       -5    1    3    3    0  502  0.12040748134E+04 -0.15997094133E+04 -0.78814247173E+03  0.21517567263E+04  0.46999998093E+01 0.  1.
</event>
<event>
 5   0  0.5533705E-07  0.2420750E+04  0.7818609E-02  0.8431776E-01
       -2   -1    0    0    0  501  0.00000000000E+00  0.00000000000E+00  0.59355367505E+03  0.59355367506E+03  0.25500000920E-02 0.  1.
        2   -1    0    0  501    0  0.00000000000E+00  0.00000000000E+00 -0.24681973835E+04  0.24681973835E+04  0.25500000920E-02 0. -1.
    10030    2    1    2    0    0  0.00000000000E+00  0.00000000000E+00 -0.18746437085E+04  0.30617510586E+04  0.24207499894E+04 0.  0.
        1    1    3    3  502    0 -0.11244074325E+04  0.33776855265E+03 -0.56505962187E+03  0.13029474455E+04  0.50400001928E-02 0.  1.
       -1    1    3    3    0  502  0.11244074325E+04 -0.33776855265E+03 -0.13095840866E+04  0.17588036131E+04  0.50400001928E-02 0. -1.
</event>
<event>
 5   0  0.7268013E-07  0.3920715E+04  0.7818609E-02  0.8020735E-01
       -2   -1    0    0    0  501  0.00000000000E+00  0.00000000000E+00  0.12903446246E+04  0.12903446246E+04  0.25500000920E-02 0. -1.
        2   -1    0    0  501    0  0.00000000000E+00  0.00000000000E+00 -0.29782749988E+04  0.29782749988E+04  0.25500000920E-02 0.  1.
    10030    2    1    2    0    0  0.00000000000E+00  0.00000000000E+00 -0.16879303741E+04  0.42686196234E+04  0.39207147998E+04 0.  0.
        4    1    3    3  502    0  0.48796385489E+03  0.16419740704E+04  0.19394367284E+03  0.17238919144E+04  0.12699999809E+01 0. -1.
       -4    1    3    3    0  502 -0.48796385489E+03 -0.16419740704E+04 -0.18818740470E+04  0.25447277090E+04  0.12699999809E+01 0.  1.
</event>
<event>
 5   0  0.5533705E-07  0.2958625E+04  0.7818609E-02  0.8255646E-01
        2   -1    0    0  501    0  0.00000000000E+00  0.00000000000E+00  0.17503826702E+04  0.17503826702E+04  0.25500000920E-02 0.  1.
       -2   -1    0    0    0  501  0.00000000000E+00  0.00000000000E+00 -0.12502208258E+04  0.12502208258E+04  0.25500000920E-02 0. -1.
    10030    2    1    2    0    0  0.00000000000E+00  0.00000000000E+00  0.50016184447E+03  0.30006034960E+04  0.29586245909E+04 0.  0.
        1    1    3    3  502    0 -0.11196137258E+01 -0.93533148107E+03  0.14124307818E+04  0.16940504557E+04  0.50400001928E-02 0.  1.
       -1    1    3    3    0  502  0.11196137258E+01  0.93533148107E+03 -0.91226893736E+03  0.13065530403E+04  0.50400001928E-02 0. -1.
</event>
<event>
 5   0  0.4627905E-07  0.3948464E+04  0.7818609E-02  0.8015024E-01
        1   -1    0    0  501    0  0.00000000000E+00  0.00000000000E+00  0.26260310993E+04  0.26260310993E+04  0.50400001928E-02 0.  1.
       -1   -1    0    0    0  501  0.00000000000E+00  0.00000000000E+00 -0.14842138328E+04  0.14842138328E+04  0.50400001928E-02 0. -1.
    10030    2    1    2    0    0  0.00000000000E+00  0.00000000000E+00  0.11418172664E+04  0.41102449321E+04  0.39484638446E+04 0.  0.
        1    1    3    3  502    0 -0.63077335521E+03  0.16214761064E+04  0.15421605311E+04  0.23249341696E+04  0.50400001928E-02 0.  1.
       -1    1    3    3    0  502  0.63077335521E+03 -0.16214761064E+04 -0.40034326465E+03  0.17853107625E+04  0.50400001928E-02 0. -1.
</event>
<event>
 5   0  0.1034683E-06  0.2170172E+04  0.7818609E-02  0.8530947E-01
       -2   -1    0    0    0  501  0.00000000000E+00  0.00000000000E+00  0.62615380035E+03  0.62615380035E+03  0.25500000920E-02 0.  1.
        2   -1    0    0  501    0  0.00000000000E+00  0.00000000000E+00 -0.18803870805E+04  0.18803870805E+04  0.25500000920E-02 0. -1.
    10030    2    1    2    0    0  0.00000000000E+00  0.00000000000E+00 -0.12542332802E+04  0.25065408809E+04  0.21701718979E+04 0.  0.
        2    1    3    3  502    0  0.10233485676E+04  0.36007420664E+03 -0.60088546548E+03  0.12401447769E+04  0.25500000920E-02 0.  1.
       -2    1    3    3    0  502 -0.10233485676E+04 -0.36007420664E+03 -0.65334781468E+03  0.12663961039E+04  0.25500000920E-02 0. -1.
</event>
<event>
 5   0  0.3977376E-07  0.2421246E+04  0.7818609E-02  0.8431592E-01
        1   -1    0    0  501    0  0.00000000000E+00  0.00000000000E+00  0.12582918052E+04  0.12582918052E+04  0.50400001928E-02 0. -1.
       -1   -1    0    0    0  501  0.00000000000E+00  0.00000000000E+00 -0.11647598591E+04  0.11647598591E+04  0.50400001928E-02 0.  1.
    10030    2    1    2    0    0  0.00000000000E+00  0.00000000000E+00  0.93531946120E+02  0.24230516643E+04  0.24212457833E+04 0.  0.
        4    1    3    3  502    0 -0.53220079198E+03  0.61879355486E+03  0.94155981897E+03  0.12460656693E+04  0.12699999809E+01 0. -1.
       -4    1    3    3    0  502  0.53220079198E+03 -0.61879355486E+03 -0.84802787285E+03  0.11769859951E+04  0.12699999809E+01 0.  1.
</event>
<event>
 5   0  0.1035864E-06  0.3843573E+04  0.7818609E-02  0.8036868E-01
       -2   -1    0    0    0  501  0.00000000000E+00  0.00000000000E+00  0.21277602203E+04  0.21277602203E+04  0.25500000920E-02 0.  1.
        2   -1    0    0  501    0  0.00000000000E+00  0.00000000000E+00 -0.17357514185E+04  0.17357514185E+04  0.25500000920E-02 0. -1.
    10030    2    1    2    0    0  0.00000000000E+00  0.00000000000E+00  0.39200880179E+03  0.38635116389E+04  0.38435727238E+04 0.  0.
        5    1    3    3  502    0  0.17293384793E+04  0.83199973084E+03  0.93467369634E+02  0.19213519634E+04  0.46999998093E+01 0.  1.
       -5    1    3    3    0  502 -0.17293384793E+04 -0.83199973084E+03  0.29854143215E+03  0.19421596754E+04  0.46999998093E+01 0. -1.
</event>
<event>
 5   0  0.1015219E-06  0.3133787E+04  0.7818609E-02  0.8206526E-01
        2   -1    0    0  501    0  0.00000000000E+00  0.00000000000E+00  0.21117681277E+04  0.21117681277E+04  0.25500000920E-02 0. -1.
       -2   -1    0    0    0  501  0.00000000000E+00  0.00000000000E+00 -0.11626062045E+04  0.11626062045E+04  0.25500000920E-02 0.  1.
    10030    2    1    2    0    0  0.00000000000E+00  0.00000000000E+00  0.94916192321E+03  0.32743743323E+04  0.31337866729E+04 0.  0.
        3    1    3    3  502    0  0.41702989909E+03 -0.14306951475E+04 -0.31236005087E+02  0.14905630614E+04  0.10100000352E+00 0. -1.
       -3    1    3    3    0  502 -0.41702989909E+03  0.14306951475E+04  0.98039792830E+03  0.17838112708E+04  0.10100000352E+00 0.  1.
</event>
<event>
 5   0  0.3977376E-07  0.2171769E+04  0.7818609E-02  0.8530271E-01
       -1   -1    0    0    0  501  0.00000000000E+00  0.00000000000E+00  0.10151236852E+04  0.10151236852E+04  0.50400001928E-02 0. -1.
        1   -1    0    0  501    0  0.00000000000E+00  0.00000000000E+00 -0.11615777786E+04  0.11615777786E+04  0.50400001928E-02 0.  1.
    10030    2    1    2    0    0  0.00000000000E+00  0.00000000000E+00 -0.14645409337E+03  0.21767014639E+04  0.21717689705E+04 0.  0.
        4    1    3    3  502    0 -0.44056785346E+03  0.67401486711E+03 -0.80340580484E+03  0.11374790436E+04  0.12699999809E+01 0.  1.
       -4    1    3    3    0  502  0.44056785346E+03 -0.67401486711E+03  0.65695171147E+03  0.10392224202E+04  0.12699999809E+01 0. -1.
</event>
<event>
 5   0  0.7268013E-07  0.3308490E+04  0.7818609E-02  0.8160738E-01
       -2   -1    0    0    0  501  0.00000000000E+00  0.00000000000E+00  0.15971554303E+04  0.15971554303E+04  0.25500000920E-02 0.  1.
        2   -1    0    0  501    0  0.00000000000E+00  0.00000000000E+00 -0.17133755945E+04  0.17133755945E+04  0.25500000920E-02 0. -1.
    10030    2    1    2    0    0  0.00000000000E+00  0.00000000000E+00 -0.11622016426E+03  0.33105310248E+04  0.33084903717E+04 0.  0.
        4    1    3    3  502    0 -0.60557011877E+03 -0.55862236196E+03  0.13772611609E+04  0.16048750825E+04  0.12699999809E+01 0.  1.
       -4    1    3    3    0  502  0.60557011877E+03  0.55862236196E+03 -0.14934813252E+04  0.17056559423E+04  0.12699999809E+01 0. -1.
</event>
<event>
 5   0  0.5533705E-07  0.2944675E+04  0.7818609E-02  0.8259708E-01
        2   -1    0    0  501    0  0.00000000000E+00  0.00000000000E+00  0.16852193951E+04  0.16852193951E+04  0.25500000920E-02 0. -1.
       -2   -1    0    0    0  501  0.00000000000E+00  0.00000000000E+00 -0.12863477360E+04  0.12863477360E+04  0.25500000920E-02 0.  1.
    10030    2    1    2    0    0  0.00000000000E+00  0.00000000000E+00  0.39887165912E+03  0.29715671311E+04  0.29446752986E+04 0.  0.
        1    1    3    3  502    0  0.69811265925E+02 -0.91658540779E+03  0.13600590141E+04  0.16415733138E+04  0.50400001928E-02 0. -1.
       -1    1    3    3    0  502 -0.69811265925E+02  0.91658540779E+03 -0.96118735502E+03  0.13299938173E+04  0.50400001928E-02 0.  1.
</event>
<event>
 5   0  0.5533705E-07  0.3960545E+04  0.7818609E-02  0.8012554E-01
        2   -1    0    0  501    0  0.00000000000E+00  0.00000000000E+00  0.23307352788E+04  0.23307352788E+04  0.25500000920E-02 0.  1.
       -2   -1    0    0    0  501  0.00000000000E+00  0.00000000000E+00 -0.16825070906E+04  0.16825070906E+04  0.25500000920E-02 0. -1.
    10030    2    1    2    0    0  0.00000000000E+00  0.00000000000E+00  0.64822818819E+03  0.40132423694E+04  0.39605447267E+04 0.  0.
        1    1    3    3  502    0  0.47031295018E+03 -0.15121826599E+04  0.15288778284E+04  0.22012174091E+04  0.50400001928E-02 0.  1.
       -1    1    3    3    0  502 -0.47031295018E+03  0.15121826599E+04 -0.88064964020E+03  0.18120249603E+04  0.50400001928E-02 0. -1.
</event>
<event>
 5   0  0.5385714E-07  0.3266716E+04  0.7818609E-02  0.8171416E-01
       -1   -1    0    0    0  501  0.00000000000E+00  0.00000000000E+00  0.14398995727E+04  0.14398995727E+04  0.50400001928E-02 0. -1.
        1   -1    0    0  501    0  0.00000000000E+00  0.00000000000E+00 -0.18528090148E+04  0.18528090148E+04  0.50400001928E-02 0.  1.
    10030    2    1    2    0    0  0.00000000000E+00  0.00000000000E+00 -0.41290944210E+03  0.32927085876E+04  0.32667163383E+04 0.  0.
        3    1    3    3  502    0 -0.14255978202E+04 -0.56791112235E+03 -0.77037627726E+03  0.17170707052E+04  0.10100000352E+00 0.  1.
       -3    1    3    3    0  502  0.14255978202E+04  0.56791112235E+03  0.35746683517E+03  0.15756378824E+04  0.10100000352E+00 0. -1.
</event>
<event>
 5   0  0.1034683E-06  0.3806158E+04  0.7818609E-02  0.8044835E-01
       -2   -1    0    0    0  501  0.00000000000E+00  0.00000000000E+00  0.15880716918E+04  0.15880716918E+04  0.25500000920E-02 0.  1.
        2   -1    0    0  501    0  0.00000000000E+00  0.00000000000E+00 -0.22805710498E+04  0.22805710498E+04  0.25500000920E-02 0. -1.
    10030    2    1    2    0    0  0.00000000000E+00  0.00000000000E+00 -0.69249935794E+03  0.38686427416E+04  0.38061583390E+04 0.  0.
        2    1    3    3  502    0  0.11840244915E+04 -0.82003064573E+03 -0.16105944080E+04  0.21606430995E+04  0.25500000920E-02 0. -1.
       -2    1    3    3    0  502 -0.11840244915E+04  0.82003064573E+03  0.91809505003E+03  0.17079996421E+04  0.25500000920E-02 0.  1.
</event>
<event>
 5   0  0.7268013E-07  0.3747937E+04  0.7818609E-02  0.8057421E-01
        2   -1    0    0  501    0  0.00000000000E+00  0.00000000000E+00  0.23982649847E+04  0.23982649847E+04  0.25500000920E-02 0.  1.
       -2   -1    0    0    0  501  0.00000000000E+00  0.00000000000E+00 -0.14642910305E+04  0.14642910305E+04  0.25500000920E-02 0. -1.
    10030    2    1    2    0    0  0.00000000000E+00  0.00000000000E+00  0.93397395420E+03  0.38625560151E+04  0.37479369823E+04 0.  0.
        4    1    3    3  502    0  0.15599041486E+04 -0.90536983985E+03 -0.57254945081E+02  0.18045152372E+04  0.12699999809E+01 0. -1.
       -4    1    3    3    0  502 -0.15599041486E+04  0.90536983985E+03  0.99122889928E+03  0.20580407779E+04  0.12699999809E+01 0.  1.
</event>
<event>
 5   0  0.7268013E-07  0.3426934E+04  0.7818609E-02  0.8131327E-01
       -2   -1    0    0    0  501  0.00000000000E+00  0.00000000000E+00  0.14138783514E+04  0.14138783514E+04  0.25500000920E-02 0.  1.
        2   -1    0    0  501    0  0.00000000000E+00  0.00000000000E+00 -0.20765361545E+04  0.20765361545E+04  0.25500000920E-02 0. -1.
    10030    2    1    2    0    0  0.00000000000E+00  0.00000000000E+00 -0.66265780307E+03  0.34904145060E+04  0.34269342070E+04 0.  0.
        4    1    3    3  502    0 -0.13184780837E+04  0.40780591471E+03  0.70300097331E+03  0.15488389531E+04  0.12699999809E+01 0.  1.
       -4    1    3    3    0  502  0.13184780837E+04 -0.40780591471E+03 -0.13656587764E+04  0.19415755529E+04  0.12699999809E+01 0. -1.
</event>
<event>
 5   0  0.4316671E-07  0.2702370E+04  0.7818609E-02  0.8334236E-01
       -1   -1    0    0    0  501  0.00000000000E+00  0.00000000000E+00  0.13924925246E+04  0.13924925246E+04  0.50400001928E-02 0. -1.
        1   -1    0    0  501    0  0.00000000000E+00  0.00000000000E+00 -0.13111028798E+04  0.13111028799E+04  0.50400001928E-02 0.  1.
    10030    2    1    2    0    0  0.00000000000E+00  0.00000000000E+00  0.81389644748E+02  0.27035954045E+04  0.27023700407E+04 0.  0.
        2    1    3    3  502    0  0.87071503668E+03  0.36748344249E+03 -0.92540976448E+03  0.13227138722E+04  0.25500000920E-02 0.  1.
       -2    1    3    3    0  502 -0.87071503668E+03 -0.36748344249E+03  0.10067994092E+04  0.13808815322E+04  0.25500000920E-02 0. -1.
</event>
<event>
 5   0  0.3471602E-07  0.2168432E+04  0.7818609E-02  0.8531683E-01
        1   -1    0    0  501    0  0.00000000000E+00  0.00000000000E+00  0.68063140713E+03  0.68063140715E+03  0.50400001928E-02 0.  1.
       -1   -1    0    0    0  501  0.00000000000E+00  0.00000000000E+00 -0.17271086634E+04  0.17271086634E+04  0.50400001928E-02 0. -1.
    10030    2    1    2    0    0  0.00000000000E+00  0.00000000000E+00 -0.10464772563E+04  0.24077400706E+04  0.21684320602E+04 0.  0.
        5    1    3    3  502    0 -0.95885272446E+03 -0.10206275787E+03  0.27131470369E+02  0.96466240749E+03  0.46999998093E+01 0.  1.
       -5    1    3    3    0  502  0.95885272446E+03  0.10206275787E+03 -0.10736087266E+04  0.14430776631E+04  0.46999998093E+01 0. -1.
</event>
<event>
 5   0  0.3977376E-07  0.3793834E+04  0.7818609E-02  0.8047479E-01
       -1   -1    0    0    0  501  0.00000000000E+00  0.00000000000E+00  0.24274430159E+04  0.24274430159E+04  0.50400001928E-02 0.  1.
        1   -1    0    0  501    0  0.00000000000E+00  0.00000000000E+00 -0.14823389840E+04  0.14823389840E+04  0.50400001928E-02 0. -1.
    10030    2    1    2    0    0  0.00000000000E+00  0.00000000000E+00  0.94510403197E+03  0.39097819999E+04  0.37938336357E+04 0.  0.
        4    1    3    3  502    0 -0.13353203088E+04  0.35306207076E+03 -0.86740041535E+03  0.16309868934E+04  0.12699999809E+01 0. -1.
       -4    1    3    3    0  502  0.13353203088E+04 -0.35306207076E+03  0.18125044473E+04  0.22787951065E+04  0.12699999809E+01 0.  1.
</event>
<event>
 5   0  0.4316671E-07  0.3911029E+04  0.7818609E-02  0.8022739E-01
        1   -1    0    0  501    0  0.00000000000E+00  0.00000000000E+00  0.15924596065E+04  0.15924596065E+04  0.50400001928E-02 0. -1.
       -1   -1    0    0    0  501  0.00000000000E+00  0.00000000000E+00 -0.24013398101E+04  0.24013398101E+04  0.50400001928E-02 0.  1.
    10030    2    1    2    0    0  0.00000000000E+00  0.00000000000E+00 -0.80888020361E+03  0.39937994166E+04  0.39110288411E+04 0.  0.
        2    1    3    3  502    0 -0.14584565845E+04 -0.24990938034E+03 -0.17099671634E+04  0.22613133368E+04  0.25500000920E-02 0.  1.
       -2    1    3    3    0  502  0.14584565845E+04  0.24990938034E+03  0.90108695979E+03  0.17324860797E+04  0.25500000920E-02 0. -1.
</event>
<event>
 5   0  0.3977376E-07  0.2207619E+04  0.7818609E-02  0.8515264E-01
       -1   -1    0    0    0  501  0.00000000000E+00  0.00000000000E+00  0.43671345757E+03  0.43671345760E+03  0.50400001928E-02 0.  1.
        1   -1    0    0  501    0  0.00000000000E+00  0.00000000000E+00 -0.27899188438E+04  0.27899188438E+04  0.50400001928E-02 0. -1.
    10030    2    1    2    0    0  0.00000000000E+00  0.00000000000E+00 -0.23532053863E+04  0.32266323014E+04  0.22076187213E+04 0.  0.
        4    1    3    3  502    0  0.37315743858E+03 -0.66967850597E+03 -0.23373271948E+04  0.24598406054E+04  0.12699999809E+01 0. -1.
       -4    1    3    3    0  502 -0.37315743858E+03  0.66967850597E+03 -0.15878191469E+02  0.76679169609E+03  0.12699999809E+01 0.  1.
</event>
<event>
 5   0  0.1034683E-06  0.3794558E+04  0.7818609E-02  0.8047324E-01
       -2   -1    0    0    0  501  0.00000000000E+00  0.00000000000E+00  0.20934873746E+04  0.20934873746E+04  0.25500000920E-02 0.  1.
        2   -1    0    0  501    0  0.00000000000E+00  0.00000000000E+00 -0.17194596411E+04  0.17194596411E+04  0.25500000920E-02 0. -1.
    10030    2    1    2    0    0  0.00000000000E+00  0.00000000000E+00  0.37402773357E+03  0.38129470157E+04  0.37945577080E+04 0.  0.
        2    1    3    3  502    0 -0.32223117487E+02  0.15104892441E+03  0.20871600096E+04  0.20928666973E+04  0.25500000920E-02 0.  1.
       -2    1    3    3    0  502  0.32223117487E+02 -0.15104892441E+03 -0.17131322760E+04  0.17200803185E+04  0.25500000920E-02 0. -1.
</event>
<event>
 5   0  0.4541466E-07  0.2140217E+04  0.7818609E-02  0.8543731E-01
        1   -1    0    0  501    0  0.00000000000E+00  0.00000000000E+00  0.13113092942E+04  0.13113092942E+04  0.50400001928E-02 0.  1.
       -1   -1    0    0    0  501  0.00000000000E+00  0.00000000000E+00 -0.87327400708E+03  0.87327400710E+03  0.50400001928E-02 0. -1.
    10030    2    1    2    0    0  0.00000000000E+00  0.00000000000E+00  0.43803528715E+03  0.21845833013E+04  0.21402171123E+04 0.  0.
        2    1    3    3  502    0  0.31883572300E+03 -0.10154805457E+04  0.10592665942E+03  0.10696155450E+04  0.25500000920E-02 0.  1.
       -2    1    3    3    0  502 -0.31883572300E+03  0.10154805457E+04  0.33210862773E+03  0.11149677563E+04  0.25500000920E-02 0. -1.
</event>
<event>
 5   0  0.7268013E-07  0.3060407E+04  0.7818609E-02  0.8226689E-01
        2   -1    0    0  501    0  0.00000000000E+00  0.00000000000E+00  0.24627831177E+04  0.24627831177E+04  0.25500000920E-02 0.  1.
       -2   -1    0    0    0  501  0.00000000000E+00  0.00000000000E+00 -0.95076289425E+03  0.95076289425E+03  0.25500000920E-02 0. -1.
    10030    2    1    2    0    0  0.00000000000E+00  0.00000000000E+00  0.15120202234E+04  0.34135460119E+04  0.30604070349E+04 0.  0.
        4    1    3    3  502    0 -0.14037058398E+04 -0.39608937170E+03  0.23973495794E+03  0.14780904364E+04  0.12699999809E+01 0.  1.
       -4    1    3    3    0  502  0.14037058398E+04  0.39608937170E+03  0.12722852655E+04  0.19354555755E+04  0.12699999809E+01 0. -1.
</event>
<event>
 5   0  0.3977376E-07  0.3859462E+04  0.7818609E-02  0.8033514E-01
       -1   -1    0    0    0  501  0.00000000000E+00  0.00000000000E+00  0.31349158870E+04  0.31349158870E+04  0.50400001928E-02 0. -1.
        1   -1    0    0  501    0  0.00000000000E+00  0.00000000000E+00 -0.11878663595E+04  0.11878663595E+04  0.50400001928E-02 0.  1.
    10030    2    1    2    0    0  0.00000000000E+00  0.00000000000E+00  0.19470495275E+04  0.43227822465E+04  0.38594616837E+04 0.  0.
        4    1    3    3  502    0  0.15334406322E+04  0.89956517176E+03  0.18140846440E+04  0.25399925943E+04  0.12699999809E+01 0. -1.
       -4    1    3    3    0  502 -0.15334406322E+04 -0.89956517176E+03  0.13296488347E+03  0.17827896521E+04  0.12699999809E+01 0.  1.
</event>
<event>
 5   0  0.5385714E-07  0.3866275E+04  0.7818609E-02  0.8032080E-01
        1   -1    0    0  501    0  0.00000000000E+00  0.00000000000E+00  0.24747345532E+04  0.24747345533E+04  0.50400001928E-02 0. -1.
       -1   -1    0    0    0  501  0.00000000000E+00  0.00000000000E+00 -0.15100691488E+04  0.15100691488E+04  0.50400001928E-02 0.  1.
    10030    2    1    2    0    0  0.00000000000E+00  0.00000000000E+00  0.96466540448E+03  0.39848037020E+04  0.38662748481E+04 0.  0.
        3    1    3    3  502    0 -0.39223970073E+03  0.56339472364E+03  0.23448743292E+04  0.24432972040E+04  0.10100000352E+00 0. -1.
       -3    1    3    3    0  502  0.39223970073E+03 -0.56339472364E+03 -0.13802089247E+04  0.15415064980E+04  0.10100000352E+00 0.  1.
</event>
<event>
 5   0  0.1034683E-06  0.3300671E+04  0.7818609E-02  0.8162725E-01
       -2   -1    0    0    0  501  0.00000000000E+00  0.00000000000E+00  0.12541070548E+04  0.12541070548E+04  0.25500000920E-02 0. -1.
        2   -1    0    0  501    0  0.00000000000E+00  0.00000000000E+00 -0.21717505775E+04  0.21717505775E+04  0.25500000920E-02 0.  1.
    10030    2    1    2    0    0  0.00000000000E+00  0.00000000000E+00 -0.91764352263E+03  0.34258576323E+04  0.33006712775E+04 0.  0.
        2    1    3    3  502    0  0.24293738077E+03 -0.17307930305E+03 -0.21435392198E+04  0.21641939384E+04  0.25500000920E-02 0.  1.
       -2    1    3    3    0  502 -0.24293738077E+03  0.17307930305E+03  0.12258956972E+04  0.12616636939E+04  0.25500000920E-02 0. -1.
</event>
<event>
 5   0  0.5533705E-07  0.3843559E+04  0.7818609E-02  0.8036871E-01
        2   -1    0    0  501    0  0.00000000000E+00  0.00000000000E+00  0.18812766798E+04  0.18812766798E+04  0.25500000920E-02 0. -1.
       -2   -1    0    0    0  501  0.00000000000E+00  0.00000000000E+00 -0.19631543088E+04  0.19631543088E+04  0.25500000920E-02 0.  1.
    10030    2    1    2    0    0  0.00000000000E+00  0.00000000000E+00 -0.81877628993E+02  0.38444309885E+04  0.38435589861E+04 0.  0.
        1    1    3    3  502    0 -0.37972792772E+03 -0.57727520626E+03 -0.18346098495E+04  0.19604166044E+04  0.50400001928E-02 0.  1.
       -1    1    3    3    0  502  0.37972792772E+03  0.57727520626E+03  0.17527322205E+04  0.18840143842E+04  0.50400001928E-02 0. -1.
</event>
<event>
 5   0  0.1015219E-06  0.2141840E+04  0.7818609E-02  0.8543033E-01
        2   -1    0    0  501    0  0.00000000000E+00  0.00000000000E+00  0.11430209083E+04  0.11430209083E+04  0.25500000920E-02 0.  1.
       -2   -1    0    0    0  501  0.00000000000E+00  0.00000000000E+00 -0.10033674161E+04  0.10033674162E+04  0.25500000920E-02 0. -1.
    10030    2    1    2    0    0  0.00000000000E+00  0.00000000000E+00  0.13965349214E+03  0.21463883244E+04  0.21418402698E+04 0.  0.
        3    1    3    3  502    0 -0.98989265730E+03 -0.37972161527E+03 -0.81470486888E+02  0.10633500969E+04  0.10100000352E+00 0.  1.
       -3    1    3    3    0  502  0.98989265730E+03  0.37972161527E+03  0.22112397902E+03  0.10830382276E+04  0.10100000352E+00 0. -1.
</event>
<event>
 5   0  0.4316671E-07  0.3963577E+04  0.7818609E-02  0.8011935E-01
        1   -1    0    0  501    0  0.00000000000E+00  0.00000000000E+00  0.19986653522E+04  0.19986653522E+04  0.50400001928E-02 0. -1.
       -1   -1    0    0    0  501  0.00000000000E+00  0.00000000000E+00 -0.19650544313E+04  0.19650544313E+04  0.50400001928E-02 0.  1.
    10030    2    1    2    0    0  0.00000000000E+00  0.00000000000E+00  0.33610920855E+02  0.39637197835E+04  0.39635772766E+04 0.  0.
        2    1    3    3  502    0 -0.92926249221E+02  0.13802688732E+04  0.14359085439E+04  0.19938933764E+04  0.25500000920E-02 0. -1.
       -2    1    3    3    0  502  0.92926249221E+02 -0.13802688732E+04 -0.14022976230E+04  0.19698264070E+04  0.25500000920E-02 0.  1.
</event>
<event>
 5   0  0.4627905E-07  0.3919431E+04  0.7818609E-02  0.8021000E-01
        1   -1    0    0  501    0  0.00000000000E+00  0.00000000000E+00  0.19278688241E+04  0.19278688241E+04  0.50400001928E-02 0.  1.
       -1   -1    0    0    0  501  0.00000000000E+00  0.00000000000E+00 -0.19920880410E+04  0.19920880410E+04  0.50400001928E-02 0. -1.
    10030    2    1    2    0    0  0.00000000000E+00  0.00000000000E+00 -0.64219216870E+02  0.39199568651E+04  0.39194307898E+04 0.  0.
        1    1    3    3  502    0  0.56085588224E+03  0.67612445136E+03 -0.17841383433E+04  0.19886812773E+04  0.50400001928E-02 0. -1.
       -1    1    3    3    0  502 -0.56085588224E+03 -0.67612445136E+03  0.17199191265E+04  0.19312755878E+04  0.50400001928E-02 0.  1.
</event>
<event>
 5   0  0.3471602E-07  0.2366028E+04  0.7818609E-02  0.8452333E-01
       -1   -1    0    0    0  501  0.00000000000E+00  0.00000000000E+00  0.95930637274E+03  0.95930637276E+03  0.50400001928E-02 0. -1.
        1   -1    0    0  501    0  0.00000000000E+00  0.00000000000E+00 -0.14588898954E+04  0.14588898954E+04  0.50400001928E-02 0.  1.
    10030    2    1    2    0    0  0.00000000000E+00  0.00000000000E+00 -0.49958352264E+03  0.24181962682E+04  0.23660282110E+04 0.  0.
        5    1    3    3  502    0 -0.18183723088E+03 -0.65456074883E+03 -0.12396425741E+04  0.14135948337E+04  0.46999998093E+01 0.  1.
       -5    1    3    3    0  502  0.18183723088E+03  0.65456074883E+03  0.74005905144E+03  0.10046014344E+04  0.46999998093E+01 0. -1.
</event>
<event>
 5   0  0.5533705E-07  0.3928090E+04  0.7818609E-02  0.8019212E-01
        2   -1    0    0  501    0  0.00000000000E+00  0.00000000000E+00  0.25406729229E+04  0.25406729229E+04  0.25500000920E-02 0.  1.
       -2   -1    0    0    0  501  0.00000000000E+00  0.00000000000E+00 -0.15182881804E+04  0.15182881804E+04  0.25500000920E-02 0. -1.
    10030    2    1    2    0    0  0.00000000000E+00  0.00000000000E+00  0.10223847424E+04  0.40589611033E+04  0.39280904619E+04 0.  0.
        1    1    3    3  502    0  0.32932725785E+03 -0.22800562765E+03 -0.14756340873E+04  0.15290320365E+04  0.50400001928E-02 0. -1.
       -1    1    3    3    0  502 -0.32932725785E+03  0.22800562765E+03  0.24980188298E+04  0.25299290668E+04  0.50400001928E-02 0.  1.
</event>
<event>
 5   0  0.1034683E-06  0.3693259E+04  0.7818609E-02  0.8069457E-01
       -2   -1    0    0    0  501  0.00000000000E+00  0.00000000000E+00  0.17071072205E+04  0.17071072205E+04  0.25500000920E-02 0. -1.
        2   -1    0    0  501    0  0.00000000000E+00  0.00000000000E+00 -0.19975553798E+04  0.19975553798E+04  0.25500000920E-02 0.  1.
    10030    2    1    2    0    0  0.00000000000E+00  0.00000000000E+00 -0.29044815925E+03  0.37046626003E+04  0.36932593801E+04 0.  0.
        2    1    3    3  502    0 -0.16273214964E+04 -0.84622114330E+03 -0.35983732412E+03  0.18691571298E+04  0.25500000920E-02 0.  1.
       -2    1    3    3    0  502  0.16273214964E+04  0.84622114330E+03  0.69389164865E+02  0.18355054705E+04  0.25500000920E-02 0. -1.
</event>
<event>
 5   0  0.1035864E-06  0.1935513E+04  0.7818609E-02  0.8637379E-01
       -2   -1    0    0    0  501  0.00000000000E+00  0.00000000000E+00  0.20726880375E+04  0.20726880375E+04  0.25500000920E-02 0.  1.
        2   -1    0    0  501    0  0.00000000000E+00  0.00000000000E+00 -0.45185397477E+03  0.45185397478E+03  0.25500000920E-02 0. -1.
    10030    2    1    2    0    0  0.00000000000E+00  0.00000000000E+00  0.16208340627E+04  0.25245420122E+04  0.19355126744E+04 0.  0.
        5    1    3    3  502    0  0.59576304765E+03 -0.60309636894E+03  0.14192339236E+04  0.16531502833E+04  0.46999998093E+01 0. -1.
       -5    1    3    3    0  502 -0.59576304765E+03  0.60309636894E+03  0.20160013904E+03  0.87139172892E+03  0.46999998093E+01 0.  1.
</event>
<event>
 5   0  0.1035864E-06  0.3709292E+04  0.7818609E-02  0.8065906E-01
        2   -1    0    0  501    0  0.00000000000E+00  0.00000000000E+00  0.26364373347E+04  0.26364373347E+04  0.25500000920E-02 0.  1.
       -2   -1    0    0    0  501  0.00000000000E+00  0.00000000000E+00 -0.13046819367E+04  0.13046819367E+04  0.25500000920E-02 0. -1.
    10030    2    1    2    0    0  0.00000000000E+00  0.00000000000E+00  0.13317553980E+04  0.39411192715E+04  0.37092922063E+04 0.  0.
        5    1    3    3  502    0 -0.74957423955E+03  0.11624628678E+04  0.19786160150E+04  0.24141509655E+04  0.46999998093E+01 0.  1.
       -5    1    3    3    0  502  0.74957423955E+03 -0.11624628678E+04 -0.64686061697E+03  0.15269683059E+04  0.46999998093E+01 0. -1.
</event>
<event>
 5   0  0.7268013E-07  0.3698398E+04  0.7818609E-02  0.8068317E-01
       -2   -1    0    0    0  501  0.00000000000E+00  0.00000000000E+00  0.23641207239E+04  0.23641207239E+04  0.25500000920E-02 0. -1.
        2   -1    0    0  501    0  0.00000000000E+00  0.00000000000E+00 -0.14464309410E+04  0.14464309410E+04  0.25500000920E-02 0.  1.
    10030    2    1    2    0    0  0.00000000000E+00  0.00000000000E+00  0.91768978285E+03  0.38105516649E+04  0.36983982281E+04 0.  0.
        4    1    3    3  502    0 -0.96004250695E+03 -0.71655522734E+03 -0.99256170031E+03  0.15557356301E+04  0.12699999809E+01 0.  1.
       -4    1    3    3    0  502  0.96004250695E+03  0.71655522734E+03  0.19102514832E+04  0.22548160348E+04  0.12699999809E+01 0. -1.
</event>
<event>
 5   0  0.5385714E-07  0.3918740E+04  0.7818609E-02  0.8021143E-01
        1   -1    0    0  501    0  0.00000000000E+00  0.00000000000E+00  0.25587665043E+04  0.25587665043E+04  0.50400001928E-02 0. -1.
       -1   -1    0    0    0  501  0.00000000000E+00  0.00000000000E+00 -0.15003832452E+04  0.15003832452E+04  0.50400001928E-02 0.  1.
    10030    2    1    2    0    0  0.00000000000E+00  0.00000000000E+00  0.10583832591E+04  0.40591497494E+04  0.39187397930E+04 0.  0.
        3    1    3    3  502    0 -0.19134901959E+04 -0.20981917353E+03  0.15049458263E+03  0.19308333551E+04  0.10100000352E+00 0.  1.
       -3    1    3    3    0  502  0.19134901959E+04  0.20981917353E+03  0.90788867647E+03  0.21283163944E+04  0.10100000352E+00 0. -1.
</event>
<event>
 5   0  0.5533705E-07  0.3582302E+04  0.7818609E-02  0.8094558E-01
       -2   -1    0    0    0  501  0.00000000000E+00  0.00000000000E+00  0.16626125507E+04  0.16626125507E+04  0.25500000920E-02 0.  1.
        2   -1    0    0  501    0  0.00000000000E+00  0.00000000000E+00 -0.19296270231E+04  0.19296270231E+04  0.25500000920E-02 0. -1.
    10030    2    1    2    0    0  0.00000000000E+00  0.00000000000E+00 -0.26701447235E+03  0.35922395739E+04  0.35823021128E+04 0.  0.
        1    1    3    3  502    0  0.72005634448E+03  0.43326955634E+03  0.14526576758E+04  0.16782186898E+04  0.50400001928E-02 0.  1.
       -1    1    3    3    0  502 -0.72005634448E+03 -0.43326955634E+03 -0.17196721481E+04  0.19140208841E+04  0.50400001928E-02 0. -1.
</event>
<event>
 5   0  0.1035864E-06  0.3685181E+04  0.7818609E-02  0.8071254E-01
       -2   -1    0    0    0  501  0.00000000000E+00  0.00000000000E+00  0.15280996183E+04  0.15280996183E+04  0.25500000920E-02 0.  1.
        2   -1    0    0  501    0  0.00000000000E+00  0.00000000000E+00 -0.22218051563E+04  0.22218051563E+04  0.25500000920E-02 0. -1.
    10030    2    1    2    0    0  0.00000000000E+00  0.00000000000E+00 -0.69370553801E+03  0.37499047746E+04  0.36851809244E+04 0.  0.
        5    1    3    3  502    0 -0.13054275576E+04 -0.35075789197E+03  0.92731577934E+03  0.16392403276E+04  0.46999998093E+01 0.  1.
       -5    1    3    3    0  502  0.13054275576E+04  0.35075789197E+03 -0.16210213173E+04  0.21106644471E+04  0.46999998093E+01 0. -1.
</event>
<event>
 5   0  0.4316671E-07  0.2915301E+04  0.7818609E-02  0.8268340E-01
       -1   -1    0    0    0  501  0.00000000000E+00  0.00000000000E+00  0.10043484166E+04  0.10043484166E+04  0.50400001928E-02 0. -1.
        1   -1    0    0  501    0  0.00000000000E+00  0.00000000000E+00 -0.21155454101E+04  0.21155454101E+04  0.50400001928E-02 0.  1.
    10030    2    1    2    0    0  0.00000000000E+00  0.00000000000E+00 -0.11111969935E+04  0.31198938267E+04  0.29153007961E+04 0.  0.
        2    1    3    3  502    0  0.15486185765E+03  0.64150724836E+03 -0.19465146699E+04  0.20553425760E+04  0.25500000920E-02 0.  1.
       -2    1    3    3    0  502 -0.15486185765E+03 -0.64150724836E+03  0.83531767646E+03  0.10645512507E+04  0.25500000920E-02 0. -1.
</event>
<event>
 5   0  0.7268013E-07  0.3891318E+04  0.7818609E-02  0.8026837E-01
       -2   -1    0    0    0  501  0.00000000000E+00  0.00000000000E+00  0.15839505711E+04  0.15839505711E+04  0.25500000920E-02 0.  1.
        2   -1    0    0  501    0  0.00000000000E+00  0.00000000000E+00 -0.23899671950E+04  0.23899671950E+04  0.25500000920E-02 0. -1.
    10030    2    1    2    0    0  0.00000000000E+00  0.00000000000E+00 -0.80601662386E+03  0.39739177661E+04  0.38913184929E+04 0.  0.
        4    1    3    3  502    0 -0.56871495980E+03  0.61493342802E+03  0.13904028916E+04  0.16232072081E+04  0.12699999809E+01 0.  1.
       -4    1    3    3    0  502  0.56871495980E+03 -0.61493342802E+03 -0.21964195155E+04  0.23507105580E+04  0.12699999809E+01 0. -1.
</event>
<event>
 5   0  0.1034683E-06  0.2216395E+04  0.7818609E-02  0.8511635E-01
       -2   -1    0    0    0  501  0.00000000000E+00  0.00000000000E+00  0.85498083662E+03  0.85498083662E+03  0.25500000920E-02 0. -1.
        2   -1    0    0  501    0  0.00000000000E+00  0.00000000000E+00 -0.14364086292E+04  0.14364086292E+04  0.25500000920E-02 0.  1.
    10030    2    1    2    0    0  0.00000000000E+00  0.00000000000E+00 -0.58142779256E+03  0.22913894658E+04  0.22163951376E+04 0.  0.
        2    1    3    3  502    0  0.50820787663E+03  0.50034630326E+03 -0.11676362513E+04  0.13682090792E+04  0.25500000920E-02 0.  1.
       -2    1    3    3    0  502 -0.50820787663E+03 -0.50034630326E+03  0.58620845876E+03  0.92318038659E+03  0.25500000920E-02 0. -1.
</event>
<event>
 5   0  0.3471602E-07  0.3222946E+04  0.7818609E-02  0.8182783E-01
        1   -1    0    0  501    0  0.00000000000E+00  0.00000000000E+00  0.11739871976E+04  0.11739871977E+04  0.50400001928E-02 0. -1.
       -1   -1    0    0    0  501  0.00000000000E+00  0.00000000000E+00 -0.22119879690E+04  0.22119879691E+04  0.50400001928E-02 0.  1.
    10030    2    1    2    0    0  0.00000000000E+00  0.00000000000E+00 -0.10380007714E+04  0.33859751667E+04  0.32229462031E+04 0.  0.
        5    1    3    3  502    0  0.15422375999E+03 -0.16016515061E+04 -0.42650752030E+03  0.16646330737E+04  0.46999998093E+01 0. -1.
       -5    1    3    3    0  502 -0.15422375999E+03  0.16016515061E+04 -0.61149325111E+03  0.17213420930E+04  0.46999998093E+01 0.  1.
</event>
<event>
 5   0  0.1015219E-06  0.4058745E+04  0.7818609E-02  0.7992800E-01
       -2   -1    0    0    0  501  0.00000000000E+00  0.00000000000E+00  0.20487468475E+04  0.20487468475E+04  0.25500000920E-02 0. -1.
        2   -1    0    0  501    0  0.00000000000E+00  0.00000000000E+00 -0.20101815932E+04  0.20101815932E+04  0.25500000920E-02 0.  1.
    10030    2    1    2    0    0  0.00000000000E+00  0.00000000000E+00  0.38565254325E+02  0.40589284406E+04  0.40587452257E+04 0.  0.
        3    1    3    3  502    0 -0.10410433336E+04  0.83041286795E+03  0.15506898730E+04  0.20440146394E+04  0.10100000352E+00 0. -1.
       -3    1    3    3    0  502  0.10410433336E+04 -0.83041286795E+03 -0.15121246187E+04  0.20149138012E+04  0.10100000352E+00 0.  1.
</event>
<event>
 5   0  0.1034683E-06  0.2862998E+04  0.7818609E-02  0.8283972E-01
       -2   -1    0    0    0  501  0.00000000000E+00  0.00000000000E+00  0.74696779043E+03  0.74696779043E+03  0.25500000920E-02 0. -1.
        2   -1    0    0  501    0  0.00000000000E+00  0.00000000000E+00 -0.27433444793E+04  0.27433444793E+04  0.25500000920E-02 0.  1.
    10030    2    1    2    0    0  0.00000000000E+00  0.00000000000E+00 -0.19963766888E+04  0.34903122697E+04  0.28629984031E+04 0.  0.
        2    1    3    3  502    0  0.78091135993E+03 -0.97669532036E+03 -0.14879642881E+03  0.12593238972E+04  0.25500000920E-02 0. -1.
       -2    1    3    3    0  502 -0.78091135993E+03  0.97669532036E+03 -0.18475802600E+04  0.22309883725E+04  0.25500000920E-02 0.  1.
</event>
<event>
 5   0  0.1035864E-06  0.2491435E+04  0.7818609E-02  0.8406043E-01
       -2   -1    0    0    0  501  0.00000000000E+00  0.00000000000E+00  0.64499790400E+03  0.64499790400E+03  0.25500000920E-02 0.  1.
        2   -1    0    0  501    0  0.00000000000E+00  0.00000000000E+00 -0.24059178440E+04  0.24059178440E+04  0.25500000920E-02 0. -1.
    10030    2    1    2    0    0  0.00000000000E+00  0.00000000000E+00 -0.17609199400E+04  0.30509157480E+04  0.24914349011E+04 0.  0.
        5    1    3    3  502    0 -0.38555494573E+03  0.11944662799E+03 -0.23236098323E+04  0.23584115111E+04  0.46999998093E+01 0. -1.
       -5    1    3    3    0  502  0.38555494573E+03 -0.11944662799E+03  0.56268989232E+03  0.69250423684E+03  0.46999998093E+01 0.  1.
</event>
<event>
 5   0  0.5385714E-07  0.2219828E+04  0.7818609E-02  0.8510221E-01
       -1   -1    0    0    0  501  0.00000000000E+00  0.00000000000E+00  0.14934415530E+04  0.14934415530E+04  0.50400001928E-02 0.  1.
        1   -1    0    0  501    0  0.00000000000E+00  0.00000000000E+00 -0.82487901209E+03  0.82487901210E+03  0.50400001928E-02 0. -1.
    10030    2    1    2    0    0  0.00000000000E+00  0.00000000000E+00  0.66856254087E+03  0.23183205651E+04  0.22198275544E+04 0.  0.
        3    1    3    3  502    0  0.63896065249E+03  0.87241907814E+03  0.59542134657E+03  0.12344684498E+04  0.10100000352E+00 0.  1.
       -3    1    3    3    0  502 -0.63896065249E+03 -0.87241907814E+03  0.73141194303E+02  0.10838521153E+04  0.10100000352E+00 0. -1.
</event>
<event>
 5   0  0.5533705E-07  0.3815774E+04  0.7818609E-02  0.8042778E-01
       -2   -1    0    0    0  501  0.00000000000E+00  0.00000000000E+00  0.23122296991E+04  0.23122296991E+04  0.25500000920E-02 0. -1.
        2   -1    0    0  501    0  0.00000000000E+00  0.00000000000E+00 -0.15742519743E+04  0.15742519743E+04  0.25500000920E-02 0.  1.
    10030    2    1    2    0    0  0.00000000000E+00  0.00000000000E+00  0.73797772477E+03  0.38864816734E+04  0.38157736667E+04 0.  0.
        1    1    3    3  502    0  0.34821022585E+03 -0.54761014730E+03 -0.14583878787E+04  0.15962526240E+04  0.50400001928E-02 0.  1.
       -1    1    3    3    0  502 -0.34821022585E+03  0.54761014730E+03  0.21963656035E+04  0.22902290495E+04  0.50400001928E-02 0. -1.
</event>
<event>
 5   0  0.5385714E-07  0.3648433E+04  0.7818609E-02  0.8079487E-01
       -1   -1    0    0    0  501  0.00000000000E+00  0.00000000000E+00  0.16175748288E+04  0.16175748288E+04  0.50400001928E-02 0.  1.
        1   -1    0    0  501    0  0.00000000000E+00  0.00000000000E+00 -0.20572566268E+04  0.20572566268E+04  0.50400001928E-02 0. -1.
    10030    2    1    2    0    0  0.00000000000E+00  0.00000000000E+00 -0.43968179797E+03  0.36748314556E+04  0.36484333821E+04 0.  0.
        3    1    3    3  502    0  0.98604120730E+03  0.15340743331E+04 -0.26605537872E+03  0.18429451421E+04  0.10100000352E+00 0.  1.
       -3    1    3    3    0  502 -0.98604120730E+03 -0.15340743331E+04 -0.17362641924E+03  0.18318863135E+04  0.10100000352E+00 0. -1.
</event>
<event>
 5   0  0.1034683E-06  0.2609126E+04  0.7818609E-02  0.8365108E-01
       -2   -1    0    0    0  501  0.00000000000E+00  0.00000000000E+00  0.53061921335E+03  0.53061921336E+03  0.25500000920E-02 0.  1.
        2   -1    0    0  501    0  0.00000000000E+00  0.00000000000E+00 -0.32073546297E+04  0.32073546297E+04  0.25500000920E-02 0. -1.
    10030    2    1    2    0    0  0.00000000000E+00  0.00000000000E+00 -0.26767354164E+04  0.37379738431E+04  0.26091255168E+04 0.  0.
        2    1    3    3  502    0 -0.73486694001E+03 -0.10637906667E+04 -0.10893825652E+04  0.16906905026E+04  0.25500000920E-02 0.  1.
       -2    1    3    3    0  502  0.73486694001E+03  0.10637906667E+04 -0.15873528512E+04  0.20472833405E+04  0.25500000920E-02 0. -1.
</event>
<event>
 5   0  0.5533705E-07  0.1923086E+04  0.7818609E-02  0.8643449E-01
       -2   -1    0    0    0  501  0.00000000000E+00  0.00000000000E+00  0.11289894347E+04  0.11289894347E+04  0.25500000920E-02 0.  1.
        2   -1    0    0  501    0  0.00000000000E+00  0.00000000000E+00 -0.81893169492E+03  0.81893169492E+03  0.25500000920E-02 0. -1.
    10030    2    1    2    0    0  0.00000000000E+00  0.00000000000E+00  0.31005773978E+03  0.19479211296E+04  0.19230863021E+04 0.  0.
        1    1    3    3  502    0 -0.87498447222E+03  0.29567591101E+03  0.42595859372E+03  0.10170854411E+04  0.50400001928E-02 0.  1.
       -1    1    3    3    0  502  0.87498447222E+03 -0.29567591101E+03 -0.11590085394E+03  0.93083568848E+03  0.50400001928E-02 0. -1.
</event>
<event>
 5   0  0.5533705E-07  0.3879603E+04  0.7818609E-02  0.8029285E-01
       -2   -1    0    0    0  501  0.00000000000E+00  0.00000000000E+00  0.15768356647E+04  0.15768356647E+04  0.25500000920E-02 0.  1.
        2   -1    0    0  501    0  0.00000000000E+00  0.00000000000E+00 -0.23863166987E+04  0.23863166987E+04  0.25500000920E-02 0. -1.
    10030    2    1    2    0    0  0.00000000000E+00  0.00000000000E+00 -0.80948103398E+03  0.39631523634E+04  0.38796027001E+04 0.  0.
        1    1    3    3  502    0  0.61393865317E+03  0.10471561607E+04 -0.19503926407E+04  0.22972784219E+04  0.50400001928E-02 0. -1.
       -1    1    3    3    0  502 -0.61393865317E+03 -0.10471561607E+04  0.11409116067E+04  0.16658739415E+04  0.50400001928E-02 0.  1.
</event>
<event>
 5   0  0.1015219E-06  0.2013909E+04  0.7818609E-02  0.8600145E-01
       -2   -1    0    0    0  501  0.00000000000E+00  0.00000000000E+00  0.12516451843E+04  0.12516451843E+04  0.25500000920E-02 0.  1.
        2   -1    0    0  501    0  0.00000000000E+00  0.00000000000E+00 -0.81009965331E+03  0.81009965331E+03  0.25500000920E-02 0. -1.
    10030    2    1    2    0    0  0.00000000000E+00  0.00000000000E+00  0.44154553094E+03  0.20617448376E+04  0.20139089650E+04 0.  0.
        3    1    3    3  502    0  0.88057036109E+03 -0.44815444986E+03  0.21967605037E+02  0.98829608804E+03  0.10100000352E+00 0. -1.
       -3    1    3    3    0  502 -0.88057036109E+03  0.44815444986E+03  0.41957792591E+03  0.10734487495E+04  0.10100000352E+00 0.  1.
</event>
<event>
 5   0  0.4316671E-07  0.3962312E+04  0.7818609E-02  0.8012193E-01
        1   -1    0    0  501    0  0.00000000000E+00  0.00000000000E+00  0.26659273230E+04  0.26659273230E+04  0.50400001928E-02 0. -1.
       -1   -1    0    0    0  501  0.00000000000E+00  0.00000000000E+00 -0.14722750924E+04  0.14722750924E+04  0.50400001928E-02 0.  1.
    10030    2    1    2    0    0  0.00000000000E+00  0.00000000000E+00  0.11936522306E+04  0.41382024155E+04  0.39623116465E+04 0.  0.
        2    1    3    3  502    0  0.11577474782E+04  0.88844577250E+02  0.22732950782E+04  0.25526737149E+04  0.25500000920E-02 0. -1.
       -2    1    3    3    0  502 -0.11577474782E+04 -0.88844577250E+02 -0.10796428476E+04  0.15855287006E+04  0.25500000920E-02 0.  1.
</event>
<event>
 5   0  0.3471602E-07  0.2552732E+04  0.7818609E-02  0.8384437E-01
        1   -1    0    0  501    0  0.00000000000E+00  0.00000000000E+00  0.12351418674E+04  0.12351418674E+04  0.50400001928E-02 0. -1.
       -1   -1    0    0    0  501  0.00000000000E+00  0.00000000000E+00 -0.13189656792E+04  0.13189656792E+04  0.50400001928E-02 0.  1.
    10030    2    1    2    0    0  0.00000000000E+00  0.00000000000E+00 -0.83823811786E+02  0.25541075466E+04  0.25527316601E+04 0.  0.
        5    1    3    3  502    0 -0.64843550320E+03  0.35281603130E+03 -0.10836934932E+04  0.13112442301E+04  0.46999998093E+01 0.  1.
       -5    1    3    3    0  502  0.64843550320E+03 -0.35281603130E+03  0.99986968142E+03  0.12428633165E+04  0.46999998093E+01 0. -1.
</event>
<event>
 5   0  0.7268013E-07  0.3898919E+04  0.7818609E-02  0.8025254E-01
        2   -1    0    0  501    0  0.00000000000E+00  0.00000000000E+00  0.19719245050E+04  0.19719245050E+04  0.25500000920E-02 0. -1.
       -2   -1    0    0    0  501  0.00000000000E+00  0.00000000000E+00 -0.19272505230E+04  0.19272505230E+04  0.25500000920E-02 0.  1.
    10030    2    1    2    0    0  0.00000000000E+00  0.00000000000E+00  0.44673982046E+02  0.38991750280E+04  0.38989190982E+04 0.  0.
        4    1    3    3  502    0  0.12187885574E+04  0.15178016038E+04 -0.83611762171E+02  0.19483736284E+04  0.12699999809E+01 0.  1.
       -4    1    3    3    0  502 -0.12187885574E+04 -0.15178016038E+04  0.12828574422E+03  0.19508013997E+04  0.12699999809E+01 0. -1.
</event>
<event>
 5   0  0.4316671E-07  0.2343334E+04  0.7818609E-02  0.8461028E-01
        1   -1    0    0  501    0  0.00000000000E+00  0.00000000000E+00  0.13381590407E+04  0.13381590407E+04  0.50400001928E-02 0. -1.
       -1   -1    0    0    0  501  0.00000000000E+00  0.00000000000E+00 -0.10258900637E+04  0.10258900637E+04  0.50400001928E-02 0.  1.
    10030    2    1    2    0    0  0.00000000000E+00  0.00000000000E+00  0.31226897699E+03  0.23640491044E+04  0.23433344307E+04 0.  0.
        2    1    3    3  502    0  0.55247728762E+03 -0.10109957105E+04 -0.58965170804E+02  0.11536118807E+04  0.25500000920E-02 0.  1.
       -2    1    3    3    0  502 -0.55247728762E+03  0.10109957105E+04  0.37123414780E+03  0.12104372237E+04  0.25500000920E-02 0. -1.
</event>
<event>
 5   0  0.4627905E-07  0.3806249E+04  0.7818609E-02  0.8044815E-01
       -1   -1    0    0    0  501  0.00000000000E+00  0.00000000000E+00  0.18206403713E+04  0.18206403713E+04  0.50400001928E-02 0.  1.
        1   -1    0    0  501    0  0.00000000000E+00  0.00000000000E+00 -0.19893455378E+04  0.19893455378E+04  0.50400001928E-02 0. -1.
    10030    2    1    2    0    0  0.00000000000E+00  0.00000000000E+00 -0.16870516655E+03  0.38099859092E+04  0.38062489665E+04 0.  0.
        1    1    3    3  502    0  0.95784281798E+03 -0.65578668429E+03 -0.15939326088E+04  0.19718367581E+04  0.50400001928E-02 0. -1.
       -1    1    3    3    0  502 -0.95784281798E+03  0.65578668429E+03  0.14252274423E+04  0.18381491510E+04  0.50400001928E-02 0.  1.
</event>
<event>
 5   0  0.5533705E-07  0.3517639E+04  0.7818609E-02  0.8109622E-01
       -2   -1    0    0    0  501  0.00000000000E+00  0.00000000000E+00  0.12691200098E+04  0.12691200098E+04  0.25500000920E-02 0.  1.
        2   -1    0    0  501    0  0.00000000000E+00  0.00000000000E+00 -0.24374735867E+04  0.24374735867E+04  0.25500000920E-02 0. -1.
    10030    2    1    2    0    0  0.00000000000E+00  0.00000000000E+00 -0.11683535769E+04  0.37065935964E+04  0.35176392664E+04 0.  0.
        1    1    3    3  502    0 -0.17578163337E+04 -0.93332363799E+01 -0.64598898597E+03  0.18727805911E+04  0.50400001928E-02 0. -1.
       -1    1    3    3    0  502  0.17578163337E+04  0.93332363799E+01 -0.52236459095E+03  0.18338130053E+04  0.50400001928E-02 0.  1.
</event>
<event>
 5   0  0.3471602E-07  0.3993913E+04  0.7818609E-02  0.8005776E-01
        1   -1    0    0  501    0  0.00000000000E+00  0.00000000000E+00  0.21636420482E+04  0.21636420482E+04  0.50400001928E-02 0. -1.
       -1   -1    0    0    0  501  0.00000000000E+00  0.00000000000E+00 -0.18431123657E+04  0.18431123657E+04  0.50400001928E-02 0.  1.
    10030    2    1    2    0    0  0.00000000000E+00  0.00000000000E+00  0.32052968253E+03  0.40067544139E+04  0.39939130757E+04 0.  0.
        5    1    3    3  502    0 -0.31080619299E+03 -0.11450726131E+04  0.17716738296E+04  0.21322856346E+04  0.46999998093E+01 0. -1.
       -5    1    3    3    0  502  0.31080619299E+03  0.11450726131E+04 -0.14511441471E+04  0.18744687793E+04  0.46999998093E+01 0.  1.
</event>
<event>
 5   0  0.8172962E-07  0.1922506E+04  0.7818609E-02  0.8643734E-01
        2   -1    0    0  501    0  0.00000000000E+00  0.00000000000E+00  0.23125247806E+04  0.23125247806E+04  0.25500000920E-02 0.  1.
       -2   -1    0    0    0  501  0.00000000000E+00  0.00000000000E+00 -0.39956651700E+03  0.39956651700E+03  0.25500000920E-02 0. -1.
    10030    2    1    2    0    0  0.00000000000E+00  0.00000000000E+00  0.19129582636E+04  0.27120912976E+04  0.19225061478E+04 0.  0.
        4    1    3    3  502    0 -0.82151829214E+03  0.29532108431E+03  0.15241004097E+04  0.17564141080E+04  0.12699999809E+01 0. -1.
       -4    1    3    3    0  502  0.82151829214E+03 -0.29532108431E+03  0.38885785384E+03  0.95567718951E+03  0.12699999809E+01 0.  1.
</event>
<event>
 5   0  0.5533705E-07  0.3814266E+04  0.7818609E-02  0.8043100E-01
       -2   -1    0    0    0  501  0.00000000000E+00  0.00000000000E+00  0.20438545252E+04  0.20438545252E+04  0.25500000920E-02 0. -1.
        2   -1    0    0  501    0  0.00000000000E+00  0.00000000000E+00 -0.17795569990E+04  0.17795569990E+04  0.25500000920E-02 0.  1.
    10030    2    1    2    0    0  0.00000000000E+00  0.00000000000E+00  0.26429752618E+03  0.38234115242E+04  0.38142656569E+04 0.  0.
        1    1    3    3  502    0 -0.59606910766E+03  0.45321229720E+03  0.18903373285E+04  0.20332424802E+04  0.50400001928E-02 0. -1.
       -1    1    3    3    0  502  0.59606910766E+03 -0.45321229720E+03 -0.16260398024E+04  0.17901690441E+04  0.50400001928E-02 0.  1.
</event>
<event>
 5   0  0.5533705E-07  0.3914876E+04  0.7818609E-02  0.8021942E-01
       -2   -1    0    0    0  501  0.00000000000E+00  0.00000000000E+00  0.18906817399E+04  0.18906817399E+04  0.25500000920E-02 0. -1.
        2   -1    0    0  501    0  0.00000000000E+00  0.00000000000E+00 -0.20265514527E+04  0.20265514527E+04  0.25500000920E-02 0.  1.
    10030    2    1    2    0    0  0.00000000000E+00  0.00000000000E+00 -0.13586971282E+03  0.39172331925E+04  0.39148761546E+04 0.  0.
        1    1    3    3  502    0  0.12294547316E+04 -0.12352962869E+03  0.14511179411E+04  0.19059280640E+04  0.50400001928E-02 0. -1.
       -1    1    3    3    0  502 -0.12294547316E+04  0.12352962869E+03 -0.15869876539E+04  0.20113051285E+04  0.50400001928E-02 0.  1.
</event>
<event>
 5   0  0.1034683E-06  0.3918044E+04  0.7818609E-02  0.8021287E-01
       -2   -1    0    0    0  501  0.00000000000E+00  0.00000000000E+00  0.15410050113E+04  0.15410050113E+04  0.25500000920E-02 0.  1.
        2   -1    0    0  501    0  0.00000000000E+00  0.00000000000E+00 -0.24904315347E+04  0.24904315347E+04  0.25500000920E-02 0. -1.
    10030    2    1    2    0    0  0.00000000000E+00  0.00000000000E+00 -0.94942652335E+03  0.40314365460E+04  0.39180441423E+04 0.  0.
        2    1    3    3  502    0 -0.15563730165E+04 -0.44036032855E+03 -0.16119390848E+04  0.22835415035E+04  0.25500000920E-02 0. -1.
       -2    1    3    3    0  502  0.15563730165E+04  0.44036032855E+03  0.66251256143E+03  0.17478950424E+04  0.25500000920E-02 0.  1.
</event>
<event>
 5   0  0.5533705E-07  0.3934673E+04  0.7818609E-02  0.8017856E-01
       -2   -1    0    0    0  501  0.00000000000E+00  0.00000000000E+00  0.27787543876E+04  0.27787543876E+04  0.25500000920E-02 0.  1.
        2   -1    0    0  501    0  0.00000000000E+00  0.00000000000E+00 -0.13928590807E+04  0.13928590807E+04  0.25500000920E-02 0. -1.
    10030    2    1    2    0    0  0.00000000000E+00  0.00000000000E+00  0.13858953069E+04  0.41716134683E+04  0.39346731920E+04 0.  0.
        1    1    3    3  502    0 -0.12898770889E+04  0.11969746719E+04 -0.23973257566E+03  0.17759512880E+04  0.50400001928E-02 0. -1.
       -1    1    3    3    0  502  0.12898770889E+04 -0.11969746719E+04  0.16256278825E+04  0.23956621803E+04  0.50400001928E-02 0.  1.
</event>
<event>
 5   0  0.1015219E-06  0.3794464E+04  0.7818609E-02  0.8047344E-01
       -2   -1    0    0    0  501  0.00000000000E+00  0.00000000000E+00  0.29716641916E+04  0.29716641916E+04  0.25500000920E-02 0. -1.
        2   -1    0    0  501    0  0.00000000000E+00  0.00000000000E+00 -0.12112702382E+04  0.12112702382E+04  0.25500000920E-02 0.  1.
    10030    2    1    2    0    0  0.00000000000E+00  0.00000000000E+00  0.17603939534E+04  0.41829344299E+04  0.37944635422E+04 0.  0.
        3    1    3    3  502    0 -0.11697166914E+04 -0.14181852972E+04  0.36313369468E+03  0.18738603912E+04  0.10100000352E+00 0.  1.
       -3    1    3    3    0  502  0.11697166914E+04  0.14181852972E+04  0.13972602587E+04  0.23090740387E+04  0.10100000352E+00 0. -1.
</event>
<event>
 5   0  0.1034683E-06  0.3504472E+04  0.7818609E-02  0.8112731E-01
        2   -1    0    0  501    0  0.00000000000E+00  0.00000000000E+00  0.25792936265E+04  0.25792936266E+04  0.25500000920E-02 0.  1.
       -2   -1    0    0    0  501  0.00000000000E+00  0.00000000000E+00 -0.11903766000E+04  0.11903766000E+04  0.25500000920E-02 0. -1.
    10030    2    1    2    0    0  0.00000000000E+00  0.00000000000E+00  0.13889170266E+04  0.37696702265E+04  0.35044718732E+04 0.  0.
        2    1    3    3  502    0  0.10656723852E+03 -0.11839991777E+04 -0.69024814240E+03  0.13746465463E+04  0.25500000920E-02 0.  1.
       -2    1    3    3    0  502 -0.10656723852E+03  0.11839991777E+04  0.20791651690E+04  0.23950236803E+04  0.25500000920E-02 0. -1.
</event>
<event>
 5   0  0.5385714E-07  0.3754609E+04  0.7818609E-02  0.8055966E-01
       -1   -1    0    0    0  501  0.00000000000E+00  0.00000000000E+00  0.15399195660E+04  0.15399195660E+04  0.50400001928E-02 0.  1.
        1   -1    0    0  501    0  0.00000000000E+00  0.00000000000E+00 -0.22886084423E+04  0.22886084423E+04  0.50400001928E-02 0. -1.
    10030    2    1    2    0    0  0.00000000000E+00  0.00000000000E+00 -0.74868887631E+03  0.38285280084E+04  0.37546093908E+04 0.  0.
        3    1    3    3  502    0 -0.48616722840E+03  0.94525895506E+03 -0.19521933122E+04  0.22228206865E+04  0.10100000352E+00 0. -1.
       -3    1    3    3    0  502  0.48616722840E+03 -0.94525895506E+03  0.12035044359E+04  0.16057073218E+04  0.10100000352E+00 0.  1.
</event>
<event>
 5   0  0.4627905E-07  0.3788388E+04  0.7818609E-02  0.8048651E-01
       -1   -1    0    0    0  501  0.00000000000E+00  0.00000000000E+00  0.16462467072E+04  0.16462467072E+04  0.50400001928E-02 0.  1.
        1   -1    0    0  501    0  0.00000000000E+00  0.00000000000E+00 -0.21794856972E+04  0.21794856972E+04  0.50400001928E-02 0. -1.
    10030    2    1    2    0    0  0.00000000000E+00  0.00000000000E+00 -0.53323899003E+03  0.38257324045E+04  0.37883881282E+04 0.  0.
        1    1    3    3  502    0 -0.26956101040E+03 -0.16704988198E+04 -0.11263290427E+04  0.20326944083E+04  0.50400001928E-02 0. -1.
       -1    1    3    3    0  502  0.26956101040E+03  0.16704988198E+04  0.59309005263E+03  0.17930379962E+04  0.50400001928E-02 0.  1.
</event>
<event>
 5   0  0.1169772E-06  0.1931694E+04  0.7818609E-02  0.8639239E-01
       -2   -1    0    0    0  501  0.00000000000E+00  0.00000000000E+00  0.68970149879E+03  0.68970149879E+03  0.25500000920E-02 0.  1.
        2   -1    0    0  501    0  0.00000000000E+00  0.00000000000E+00 -0.13525574170E+04  0.13525574170E+04  0.25500000920E-02 0. -1.
    10030    2    1    2    0    0  0.00000000000E+00  0.00000000000E+00 -0.66285591819E+03  0.20422589158E+04  0.19316944662E+04 0.  0.
        4    1    3    3  502    0  0.34825834932E+03  0.25320890098E+03 -0.12454707528E+04  0.13178003014E+04  0.12699999809E+01 0. -1.
       -4    1    3    3    0  502 -0.34825834932E+03 -0.25320890098E+03  0.58261483466E+03  0.72445861432E+03  0.12699999809E+01 0.  1.
</event>
<event>
 5   0  0.1015219E-06  0.3817118E+04  0.7818609E-02  0.8042491E-01
       -2   -1    0    0    0  501  0.00000000000E+00  0.00000000000E+00  0.15465934675E+04  0.15465934676E+04  0.25500000920E-02 0. -1.
        2   -1    0    0  501    0  0.00000000000E+00  0.00000000000E+00 -0.23552391625E+04  0.23552391625E+04  0.25500000920E-02 0.  1.
    10030    2    1    2    0    0  0.00000000000E+00  0.00000000000E+00 -0.80864569490E+03  0.39018326300E+04  0.38171180245E+04 0.  0.
        3    1    3    3  502    0  0.35837681909E+03 -0.18332404123E+04 -0.39763661387E+01  0.18679454423E+04  0.10100000352E+00 0. -1.
       -3    1    3    3    0  502 -0.35837681909E+03  0.18332404123E+04 -0.80466932876E+03  0.20338871877E+04  0.10100000352E+00 0.  1.
</event>
<event>
 5   0  0.1015219E-06  0.4381831E+04  0.7818609E-02  0.7931658E-01
        2   -1    0    0  501    0  0.00000000000E+00  0.00000000000E+00  0.27283147558E+04  0.27283147558E+04  0.25500000920E-02 0.  1.
       -2   -1    0    0    0  501  0.00000000000E+00  0.00000000000E+00 -0.17593686691E+04  0.17593686691E+04  0.25500000920E-02 0. -1.
    10030    2    1    2    0    0  0.00000000000E+00  0.00000000000E+00  0.96894608667E+03  0.44876834249E+04  0.43818313527E+04 0.  0.
        3    1    3    3  502    0  0.65032055533E+03 -0.15960418036E+04  0.18698684174E+04  0.25429656254E+04  0.10100000352E+00 0.  1.
       -3    1    3    3    0  502 -0.65032055533E+03  0.15960418036E+04 -0.90092233070E+03  0.19447177995E+04  0.10100000352E+00 0. -1.
</event>
<event>
 5   0  0.4316671E-07  0.3402874E+04  0.7818609E-02  0.8137201E-01
        1   -1    0    0  501    0  0.00000000000E+00  0.00000000000E+00  0.14935650060E+04  0.14935650061E+04  0.50400001928E-02 0.  1.
       -1   -1    0    0    0  501  0.00000000000E+00  0.00000000000E+00 -0.19382407240E+04  0.19382407240E+04  0.50400001928E-02 0. -1.
    10030    2    1    2    0    0  0.00000000000E+00  0.00000000000E+00 -0.44467571791E+03  0.34318057300E+04  0.34028743842E+04 0.  0.
        2    1    3    3  502    0  0.12519342889E+04  0.22643775638E+03  0.91699050169E+03  0.15682745618E+04  0.25500000920E-02 0.  1.
       -2    1    3    3    0  502 -0.12519342889E+04 -0.22643775638E+03 -0.13616662196E+04  0.18635311682E+04  0.25500000920E-02 0. -1.
</event>
<event>
 5   0  0.3191750E-07  0.3913869E+04  0.7818609E-02  0.8022151E-01
       -3   -1    0    0    0  501  0.00000000000E+00  0.00000000000E+00  0.15325908864E+04  0.15325908897E+04  0.10100000352E+00 0. -1.
        3   -1    0    0  501    0  0.00000000000E+00  0.00000000000E+00 -0.24987698586E+04  0.24987698607E+04  0.10100000352E+00 0.  1.
    10030    2    1    2    0    0  0.00000000000E+00  0.00000000000E+00 -0.96617897225E+03  0.40313607504E+04  0.39138686351E+04 0.  0.
        2    1    3    3  502    0 -0.41900666533E+03 -0.19097244362E+04 -0.39704792700E+03  0.19950591631E+04  0.25500000920E-02 0. -1.
       -2    1    3    3    0  502  0.41900666533E+03  0.19097244362E+04 -0.56913104525E+03  0.20363015873E+04  0.25500000920E-02 0.  1.
</event>
<event>
 5   0  0.5533705E-07  0.3360637E+04  0.7818609E-02  0.8147635E-01
       -2   -1    0    0    0  501  0.00000000000E+00  0.00000000000E+00  0.17106473878E+04  0.17106473878E+04  0.25500000920E-02 0.  1.
        2   -1    0    0  501    0  0.00000000000E+00  0.00000000000E+00 -0.16505276187E+04  0.16505276187E+04  0.25500000920E-02 0. -1.
    10030    2    1    2    0    0  0.00000000000E+00  0.00000000000E+00  0.60119769096E+02  0.33611750064E+04  0.33606372963E+04 0.  0.
        1    1    3    3  502    0  0.11691863152E+04  0.11822676876E+04 -0.21229528015E+03  0.16762526095E+04  0.50400001928E-02 0.  1.
       -1    1    3    3    0  502 -0.11691863152E+04 -0.11822676876E+04  0.27241504925E+03  0.16849223970E+04  0.50400001928E-02 0. -1.
</event>
<event>
 5   0  0.7268013E-07  0.3862935E+04  0.7818609E-02  0.8032782E-01
       -2   -1    0    0    0  501  0.00000000000E+00  0.00000000000E+00  0.20339768097E+04  0.20339768097E+04  0.25500000920E-02 0.  1.
        2   -1    0    0  501    0  0.00000000000E+00  0.00000000000E+00 -0.18341248319E+04  0.18341248319E+04  0.25500000920E-02 0. -1.
    10030    2    1    2    0    0  0.00000000000E+00  0.00000000000E+00  0.19985197787E+03  0.38681016416E+04  0.38629353472E+04 0.  0.
        4    1    3    3  502    0 -0.13033467697E+04 -0.13125505105E+04  0.65660485034E+03  0.19628125706E+04  0.12699999809E+01 0.  1.
       -4    1    3    3    0  502  0.13033467697E+04  0.13125505105E+04 -0.45675287247E+03  0.19052890710E+04  0.12699999809E+01 0. -1.
</event>
<event>
 5   0  0.7268013E-07  0.3961617E+04  0.7818609E-02  0.8012335E-01
       -2   -1    0    0    0  501  0.00000000000E+00  0.00000000000E+00  0.12800547158E+04  0.12800547158E+04  0.25500000920E-02 0. -1.
        2   -1    0    0  501    0  0.00000000000E+00  0.00000000000E+00 -0.30651829159E+04  0.30651829159E+04  0.25500000920E-02 0.  1.
    10030    2    1    2    0    0  0.00000000000E+00  0.00000000000E+00 -0.17851282001E+04  0.43452376317E+04  0.39616167641E+04 0.  0.
        4    1    3    3  502    0 -0.16007541679E+04 -0.10256630757E+04 -0.28265947705E+03  0.19220553176E+04  0.12699999809E+01 0.  1.
       -4    1    3    3    0  502  0.16007541679E+04  0.10256630757E+04 -0.15024687231E+04  0.24231823142E+04  0.12699999809E+01 0. -1.
</event>
<event>
 5   0  0.1034683E-06  0.2290030E+04  0.7818609E-02  0.8481863E-01
       -2   -1    0    0    0  501  0.00000000000E+00  0.00000000000E+00  0.13186407711E+04  0.13186407711E+04  0.25500000920E-02 0.  1.
        2   -1    0    0  501    0  0.00000000000E+00  0.00000000000E+00 -0.99425016782E+03  0.99425016782E+03  0.25500000920E-02 0. -1.
    10030    2    1    2    0    0  0.00000000000E+00  0.00000000000E+00  0.32439060328E+03  0.23128909389E+04  0.22900295264E+04 0.  0.
        2    1    3    3  502    0 -0.10596061686E+04 -0.41752730868E+03  0.42844013945E+02  0.11397060566E+04  0.25500000920E-02 0. -1.
       -2    1    3    3    0  502  0.10596061686E+04  0.41752730868E+03  0.28154658933E+03  0.11731848823E+04  0.25500000920E-02 0.  1.
</event>
<event>
 5   0  0.1035864E-06  0.2970633E+04  0.7818609E-02  0.8252167E-01
        2   -1    0    0  501    0  0.00000000000E+00  0.00000000000E+00  0.27329045772E+04  0.27329045772E+04  0.25500000920E-02 0. -1.
       -2   -1    0    0    0  501  0.00000000000E+00  0.00000000000E+00 -0.80726013971E+03  0.80726013972E+03  0.25500000920E-02 0.  1.
    10030    2    1    2    0    0  0.00000000000E+00  0.00000000000E+00  0.19256444375E+04  0.35401647169E+04  0.29706328826E+04 0.  0.
        5    1    3    3  502    0  0.67259206450E+03  0.85192928511E+03 -0.24545520041E+03  0.11128494676E+04  0.46999998093E+01 0.  1.
       -5    1    3    3    0  502 -0.67259206450E+03 -0.85192928511E+03  0.21710996379E+04  0.24273152493E+04  0.46999998093E+01 0. -1.
</event>
<event>
 5   0  0.4627905E-07  0.1931527E+04  0.7818609E-02  0.8639321E-01
       -1   -1    0    0    0  501  0.00000000000E+00  0.00000000000E+00  0.10496559742E+04  0.10496559742E+04  0.50400001928E-02 0. -1.
        1   -1    0    0  501    0  0.00000000000E+00  0.00000000000E+00 -0.88857594202E+03  0.88857594204E+03  0.50400001928E-02 0.  1.
    10030    2    1    2    0    0  0.00000000000E+00  0.00000000000E+00  0.16108003219E+03  0.19382319163E+04  0.19315269049E+04 0.  0.
        1    1    3    3  502    0  0.58392162851E+03 -0.30583700986E+03  0.78882184477E+03  0.10279789140E+04  0.50400001928E-02 0. -1.
       -1    1    3    3    0  502 -0.58392162851E+03  0.30583700986E+03 -0.62774181258E+03  0.91025300226E+03  0.50400001928E-02 0.  1.
</event>
<event>
 5   0  0.1015219E-06  0.2054324E+04  0.7818609E-02  0.8581635E-01
        2   -1    0    0  501    0  0.00000000000E+00  0.00000000000E+00  0.19627378758E+04  0.19627378758E+04  0.25500000920E-02 0. -1.
       -2   -1    0    0    0  501  0.00000000000E+00  0.00000000000E+00 -0.53754611376E+03  0.53754611377E+03  0.25500000920E-02 0.  1.
    10030    2    1    2    0    0  0.00000000000E+00  0.00000000000E+00  0.14251917620E+04  0.25002839896E+04  0.20543243342E+04 0.  0.
        3    1    3    3  502    0  0.37302274791E+03  0.84193324340E+03  0.15877005193E+03  0.93445465186E+03  0.10100000352E+00 0.  1.
       -3    1    3    3    0  502 -0.37302274791E+03 -0.84193324340E+03  0.12664217101E+04  0.15658293377E+04  0.10100000352E+00 0. -1.
</event>
<event>
 5   0  0.5533705E-07  0.2338387E+04  0.7818609E-02  0.8462938E-01
        2   -1    0    0  501    0  0.00000000000E+00  0.00000000000E+00  0.85625935136E+03  0.85625935136E+03  0.25500000920E-02 0. -1.
       -2   -1    0    0    0  501  0.00000000000E+00  0.00000000000E+00 -0.15964943773E+04  0.15964943773E+04  0.25500000920E-02 0.  1.
    10030    2    1    2    0    0  0.00000000000E+00  0.00000000000E+00 -0.74023502593E+03  0.24527537287E+04  0.23383868285E+04 0.  0.
        1    1    3    3  502    0 -0.44531425382E+03  0.42079097963E+03  0.67439910250E+03  0.91114432593E+03  0.50400001928E-02 0. -1.
       -1    1    3    3    0  502  0.44531425382E+03 -0.42079097963E+03 -0.14146341284E+04  0.15416094027E+04  0.50400001928E-02 0.  1.
</event>
<event>
 5   0  0.4316671E-07  0.2292331E+04  0.7818609E-02  0.8480951E-01
        1   -1    0    0  501    0  0.00000000000E+00  0.00000000000E+00  0.11359165450E+04  0.11359165450E+04  0.50400001928E-02 0.  1.
       -1   -1    0    0    0  501  0.00000000000E+00  0.00000000000E+00 -0.11565066434E+04  0.11565066434E+04  0.50400001928E-02 0. -1.
    10030    2    1    2    0    0  0.00000000000E+00  0.00000000000E+00 -0.20590098424E+02  0.22924231884E+04  0.22923307185E+04 0.  0.
        2    1    3    3  502    0  0.73235068092E+03  0.20448399658E+03 -0.86796815079E+03  0.11539150469E+04  0.25500000920E-02 0. -1.
       -2    1    3    3    0  502 -0.73235068092E+03 -0.20448399658E+03  0.84737805236E+03  0.11385081415E+04  0.25500000920E-02 0.  1.
</event>
<event>
 5   0  0.5385714E-07  0.3960804E+04  0.7818609E-02  0.8012501E-01
       -1   -1    0    0    0  501  0.00000000000E+00  0.00000000000E+00  0.22472812619E+04  0.22472812619E+04  0.50400001928E-02 0.  1.
        1   -1    0    0  501    0  0.00000000000E+00  0.00000000000E+00 -0.17452160033E+04  0.17452160033E+04  0.50400001928E-02 0. -1.
    10030    2    1    2    0    0  0.00000000000E+00  0.00000000000E+00  0.50206525863E+03  0.39924972652E+04  0.39608035661E+04 0.  0.
        3    1    3    3  502    0  0.12931798103E+03 -0.17660482881E+03 -0.17329850987E+04  0.17467540663E+04  0.10100000352E+00 0. -1.
       -3    1    3    3    0  502 -0.12931798103E+03  0.17660482881E+03  0.22350503573E+04  0.22457431989E+04  0.10100000352E+00 0.  1.
</event>
<event>
 5   0  0.1015219E-06  0.3727371E+04  0.7818609E-02  0.8061923E-01
        2   -1    0    0  501    0  0.00000000000E+00  0.00000000000E+00  0.16263665777E+04  0.16263665777E+04  0.25500000920E-02 0.  1.
       -2   -1    0    0    0  501  0.00000000000E+00  0.00000000000E+00 -0.21356340681E+04  0.21356340681E+04  0.25500000920E-02 0. -1.
    10030    2    1    2    0    0  0.00000000000E+00  0.00000000000E+00 -0.50926749041E+03  0.37620006458E+04  0.37273711221E+04 0.  0.
        3    1    3    3  502    0 -0.12226658904E+04 -0.10866572302E+03  0.11607514875E+04  0.16893975686E+04  0.10100000352E+00 0.  1.
       -3    1    3    3    0  502  0.12226658904E+04  0.10866572302E+03 -0.16700189779E+04  0.20726030772E+04  0.10100000352E+00 0. -1.
</event>
<event>
 5   0  0.1015219E-06  0.2846051E+04  0.7818609E-02  0.8289112E-01
       -2   -1    0    0    0  501  0.00000000000E+00  0.00000000000E+00  0.82952496691E+03  0.82952496691E+03  0.25500000920E-02 0. -1.
        2   -1    0    0  501    0  0.00000000000E+00  0.00000000000E+00 -0.24411584433E+04  0.24411584433E+04  0.25500000920E-02 0.  1.
    10030    2    1    2    0    0  0.00000000000E+00  0.00000000000E+00 -0.16116334764E+04  0.32706834102E+04  0.28460512131E+04 0.  0.
        3    1    3    3  502    0  0.24791958085E+03  0.90048981713E+03 -0.20396191771E+04  0.22432994511E+04  0.10100000352E+00 0.  1.
       -3    1    3    3    0  502 -0.24791958085E+03 -0.90048981713E+03  0.42798570070E+03  0.10273839592E+04  0.10100000352E+00 0. -1.
</event>
<event>
 5   0  0.1034683E-06  0.4324344E+04  0.7818609E-02  0.7942132E-01
        2   -1    0    0  501    0  0.00000000000E+00  0.00000000000E+00  0.18228772042E+04  0.18228772042E+04  0.25500000920E-02 0.  1.
       -2   -1    0    0    0  501  0.00000000000E+00  0.00000000000E+00 -0.25646196524E+04  0.25646196524E+04  0.25500000920E-02 0. -1.
    10030    2    1    2    0    0  0.00000000000E+00  0.00000000000E+00 -0.74174244827E+03  0.43874968566E+04  0.43243435117E+04 0.  0.
        2    1    3    3  502    0 -0.80790081791E+03 -0.10498975416E+04  0.13628845435E+04  0.19006427487E+04  0.25500000920E-02 0.  1.
       -2    1    3    3    0  502  0.80790081791E+03  0.10498975416E+04 -0.21046269917E+04  0.24868541079E+04  0.25500000920E-02 0. -1.
</event>
<event>
 5   0  0.7268013E-07  0.3881317E+04  0.7818609E-02  0.8028926E-01
        2   -1    0    0  501    0  0.00000000000E+00  0.00000000000E+00  0.19336213829E+04  0.19336213829E+04  0.25500000920E-02 0.  1.
       -2   -1    0    0    0  501  0.00000000000E+00  0.00000000000E+00 -0.19477210289E+04  0.19477210289E+04  0.25500000920E-02 0. -1.
    10030    2    1    2    0    0  0.00000000000E+00  0.00000000000E+00 -0.14099645971E+02  0.38813424118E+04  0.38813168021E+04 0.  0.
        4    1    3    3  502    0 -0.18249865791E+03 -0.19616978047E+02 -0.19390208595E+04  0.19476894240E+04  0.12699999809E+01 0. -1.
       -4    1    3    3    0  502  0.18249865791E+03  0.19616978047E+02  0.19249212136E+04  0.19336529878E+04  0.12699999809E+01 0.  1.
</event>
<event>
 5   0  0.3977376E-07  0.3801654E+04  0.7818609E-02  0.8045800E-01
        1   -1    0    0  501    0  0.00000000000E+00  0.00000000000E+00  0.21469964131E+04  0.21469964131E+04  0.50400001928E-02 0. -1.
       -1   -1    0    0    0  501  0.00000000000E+00  0.00000000000E+00 -0.16828823521E+04  0.16828823521E+04  0.50400001928E-02 0.  1.
    10030    2    1    2    0    0  0.00000000000E+00  0.00000000000E+00  0.46411406102E+03  0.38298787653E+04  0.38016535212E+04 0.  0.
        4    1    3    3  502    0 -0.11063716390E+03 -0.18972462126E+04  0.19494621993E+03  0.19104422040E+04  0.12699999809E+01 0.  1.
       -4    1    3    3    0  502  0.11063716390E+03  0.18972462126E+04  0.26916784109E+03  0.19194365613E+04  0.12699999809E+01 0. -1.
</event>
<event>
 5   0  0.4627905E-07  0.1964772E+04  0.7818609E-02  0.8623270E-01
       -1   -1    0    0    0  501  0.00000000000E+00  0.00000000000E+00  0.94387351428E+03  0.94387351430E+03  0.50400001928E-02 0. -1.
        1   -1    0    0  501    0  0.00000000000E+00  0.00000000000E+00 -0.10224695357E+04  0.10224695357E+04  0.50400001928E-02 0.  1.
    10030    2    1    2    0    0  0.00000000000E+00  0.00000000000E+00 -0.78596021451E+02  0.19663430500E+04  0.19647716549E+04 0.  0.
        1    1    3    3  502    0  0.85497247050E+03  0.48302003057E+03 -0.67527638537E+02  0.98429988176E+03  0.50400001928E-02 0. -1.
       -1    1    3    3    0  502 -0.85497247050E+03 -0.48302003057E+03 -0.11068382914E+02  0.98204316828E+03  0.50400001928E-02 0.  1.
</event>
<event>
 5   0  0.3471602E-07  0.3648519E+04  0.7818609E-02  0.8079467E-01
        1   -1    0    0  501    0  0.00000000000E+00  0.00000000000E+00  0.20435088071E+04  0.20435088072E+04  0.50400001928E-02 0. -1.
       -1   -1    0    0    0  501  0.00000000000E+00  0.00000000000E+00 -0.16285338963E+04  0.16285338963E+04  0.50400001928E-02 0.  1.
    10030    2    1    2    0    0  0.00000000000E+00  0.00000000000E+00  0.41497491087E+03  0.36720427034E+04  0.36485193489E+04 0.  0.
        5    1    3    3  502    0 -0.51731691583E+03 -0.95326668602E+03 -0.12687918000E+04  0.16691880924E+04  0.46999998093E+01 0.  1.
       -5    1    3    3    0  502  0.51731691583E+03  0.95326668602E+03  0.16837667109E+04  0.20028546110E+04  0.46999998093E+01 0. -1.
</event>
<event>
 5   0  0.5533705E-07  0.3871397E+04  0.7818609E-02  0.8031004E-01
        2   -1    0    0  501    0  0.00000000000E+00  0.00000000000E+00  0.13425044114E+04  0.13425044114E+04  0.25500000920E-02 0.  1.
       -2   -1    0    0    0  501  0.00000000000E+00  0.00000000000E+00 -0.27909993985E+04  0.27909993985E+04  0.25500000920E-02 0. -1.
    10030    2    1    2    0    0  0.00000000000E+00  0.00000000000E+00 -0.14484949871E+04  0.41335038098E+04  0.38713971662E+04 0.  0.
        1    1    3    3  502    0  0.40073894098E+02  0.10863141099E+04  0.98582695325E+03  0.14674941377E+04  0.50400001928E-02 0.  1.
       -1    1    3    3    0  502 -0.40073894098E+02 -0.10863141099E+04 -0.24343219403E+04  0.26660096721E+04  0.50400001928E-02 0. -1.
</event>
<event>
 5   0  0.7268013E-07  0.3555421E+04  0.7818609E-02  0.8100780E-01
       -2   -1    0    0    0  501  0.00000000000E+00  0.00000000000E+00  0.14167658988E+04  0.14167658988E+04  0.25500000920E-02 0. -1.
        2   -1    0    0  501    0  0.00000000000E+00  0.00000000000E+00 -0.22306122526E+04  0.22306122526E+04  0.25500000920E-02 0.  1.
    10030    2    1    2    0    0  0.00000000000E+00  0.00000000000E+00 -0.81384635378E+03  0.36473781515E+04  0.35554214226E+04 0.  0.
        4    1    3    3  502    0  0.13786808293E+04  0.86087701833E+03  0.33168714404E+03  0.16588815643E+04  0.12699999809E+01 0. -1.
       -4    1    3    3    0  502 -0.13786808293E+04 -0.86087701833E+03 -0.11455334978E+04  0.19884965872E+04  0.12699999809E+01 0.  1.
</event>
<event>
 5   0  0.4316671E-07  0.3836204E+04  0.7818609E-02  0.8038430E-01
        1   -1    0    0  501    0  0.00000000000E+00  0.00000000000E+00  0.22182945304E+04  0.22182945305E+04  0.50400001928E-02 0. -1.
       -1   -1    0    0    0  501  0.00000000000E+00  0.00000000000E+00 -0.16585336252E+04  0.16585336252E+04  0.50400001928E-02 0.  1.
    10030    2    1    2    0    0  0.00000000000E+00  0.00000000000E+00  0.55976090526E+03  0.38768281556E+04  0.38362044103E+04 0.  0.
        2    1    3    3  502    0  0.18907141787E+03 -0.77065001152E+03 -0.14848840238E+04  0.16836062501E+04  0.25500000920E-02 0.  1.
       -2    1    3    3    0  502 -0.18907141787E+03  0.77065001152E+03  0.20446449290E+04  0.21932219056E+04  0.25500000920E-02 0. -1.
</event>
<event>
 5   0  0.3471602E-07  0.3917534E+04  0.7818609E-02  0.8021392E-01
       -1   -1    0    0    0  501  0.00000000000E+00  0.00000000000E+00  0.13293443873E+04  0.13293443873E+04  0.50400001928E-02 0. -1.
        1   -1    0    0  501    0  0.00000000000E+00  0.00000000000E+00 -0.28862101955E+04  0.28862101955E+04  0.50400001928E-02 0.  1.
    10030    2    1    2    0    0  0.00000000000E+00  0.00000000000E+00 -0.15568658082E+04  0.42155545829E+04  0.39175335731E+04 0.  0.
        5    1    3    3  502    0  0.41599584585E+03  0.50451556191E+01 -0.28381140818E+04  0.28684475991E+04  0.46999998093E+01 0.  1.
       -5    1    3    3    0  502 -0.41599584585E+03 -0.50451556191E+01  0.12812482735E+04  0.13471069838E+04  0.46999998093E+01 0. -1.
</event>
<event>
 5   0  0.5533705E-07  0.3948665E+04  0.7818609E-02  0.8014983E-01
       -2   -1    0    0    0  501  0.00000000000E+00  0.00000000000E+00  0.19607641731E+04  0.19607641732E+04  0.25500000920E-02 0.  1.
        2   -1    0    0  501    0  0.00000000000E+00  0.00000000000E+00 -0.19879945779E+04  0.19879945779E+04  0.25500000920E-02 0. -1.
    10030    2    1    2    0    0  0.00000000000E+00  0.00000000000E+00 -0.27230404728E+02  0.39487587510E+04  0.39486648603E+04 0.  0.
        1    1    3    3  502    0 -0.85401453749E+03  0.12067619983E+04  0.12949926946E+04  0.19653552935E+04  0.50400001928E-02 0.  1.
       -1    1    3    3    0  502  0.85401453749E+03 -0.12067619983E+04 -0.13222230993E+04  0.19834034575E+04  0.50400001928E-02 0. -1.
</event>
<event>
 5   0  0.5908832E-07  0.2124478E+04  0.7818609E-02  0.8550537E-01
        1   -1    0    0  501    0  0.00000000000E+00  0.00000000000E+00  0.11367065837E+04  0.11367065837E+04  0.50400001928E-02 0.  1.
       -1   -1    0    0    0  501  0.00000000000E+00  0.00000000000E+00 -0.99264968623E+03  0.99264968624E+03  0.50400001928E-02 0. -1.
    10030    2    1    2    0    0  0.00000000000E+00  0.00000000000E+00  0.14405689744E+03  0.21293562699E+04  0.21244777557E+04 0.  0.
        3    1    3    3  502    0  0.11089220056E+03 -0.41094848170E+02 -0.98603078775E+03  0.99309747321E+03  0.10100000352E+00 0. -1.
       -3    1    3    3    0  502 -0.11089220056E+03  0.41094848170E+02  0.11300876852E+04  0.11362587967E+04  0.10100000352E+00 0.  1.
</event>
<event>
 5   0  0.1034683E-06  0.2429823E+04  0.7818609E-02  0.8428422E-01
       -2   -1    0    0    0  501  0.00000000000E+00  0.00000000000E+00  0.73483640283E+03  0.73483640284E+03  0.25500000920E-02 0. -1.
        2   -1    0    0  501    0  0.00000000000E+00  0.00000000000E+00 -0.20086239346E+04  0.20086239346E+04  0.25500000920E-02 0.  1.
    10030    2    1    2    0    0  0.00000000000E+00  0.00000000000E+00 -0.12737875318E+04  0.27434603375E+04  0.24298230279E+04 0.  0.
        2    1    3    3  502    0 -0.84974544602E+03 -0.52130414133E+03  0.14713272210E+03  0.10077069855E+04  0.25500000920E-02 0. -1.
       -2    1    3    3    0  502  0.84974544602E+03  0.52130414133E+03 -0.14209202539E+04  0.17357533519E+04  0.25500000920E-02 0.  1.
</event>
<event>
 5   0  0.1034683E-06  0.2558840E+04  0.7818609E-02  0.8382318E-01
       -2   -1    0    0    0  501  0.00000000000E+00  0.00000000000E+00  0.85609326172E+03  0.85609326172E+03  0.25500000920E-02 0. -1.
        2   -1    0    0  501    0  0.00000000000E+00  0.00000000000E+00 -0.19120761584E+04  0.19120761584E+04  0.25500000920E-02 0.  1.
    10030    2    1    2    0    0  0.00000000000E+00  0.00000000000E+00 -0.10559828967E+04  0.27681694201E+04  0.25588399834E+04 0.  0.
        2    1    3    3  502    0  0.94535990094E+02  0.72147445914E+03 -0.16664368402E+04  0.18183713017E+04  0.25500000920E-02 0.  1.
       -2    1    3    3    0  502 -0.94535990094E+02 -0.72147445914E+03  0.61045394349E+03  0.94979811841E+03  0.25500000920E-02 0. -1.
</event>
<event>
 5   0  0.7268013E-07  0.4046562E+04  0.7818609E-02  0.7995219E-01
       -2   -1    0    0    0  501  0.00000000000E+00  0.00000000000E+00  0.24361679093E+04  0.24361679093E+04  0.25500000920E-02 0.  1.
        2   -1    0    0  501    0  0.00000000000E+00  0.00000000000E+00 -0.16803711974E+04  0.16803711974E+04  0.25500000920E-02 0. -1.
    10030    2    1    2    0    0  0.00000000000E+00  0.00000000000E+00  0.75579671190E+03  0.41165391067E+04  0.40465621887E+04 0.  0.
        4    1    3    3  502    0 -0.59492544123E+03 -0.92922975039E+03 -0.13473838366E+04  0.17415076875E+04  0.12699999809E+01 0. -1.
       -4    1    3    3    0  502  0.59492544123E+03  0.92922975039E+03  0.21031805485E+04  0.23750314192E+04  0.12699999809E+01 0.  1.
</event>
<event>
 5   0  0.5533705E-07  0.2736926E+04  0.7818609E-02  0.8323122E-01
        2   -1    0    0  501    0  0.00000000000E+00  0.00000000000E+00  0.10988936820E+04  0.10988936820E+04  0.25500000920E-02 0.  1.
       -2   -1    0    0    0  501  0.00000000000E+00  0.00000000000E+00 -0.17041608790E+04  0.17041608790E+04  0.25500000920E-02 0. -1.
    10030    2    1    2    0    0  0.00000000000E+00  0.00000000000E+00 -0.60526719704E+03  0.28030545610E+04  0.27369264681E+04 0.  0.
        1    1    3    3  502    0 -0.12680669143E+04 -0.36791957052E+03 -0.67095189051E+03  0.14810587257E+04  0.50400001928E-02 0.  1.
       -1    1    3    3    0  502  0.12680669143E+04  0.36791957052E+03  0.65684693470E+02  0.13219958353E+04  0.50400001928E-02 0. -1.
</event>
<event>
 5   0  0.5533705E-07  0.3742001E+04  0.7818609E-02  0.8058717E-01
        2   -1    0    0  501    0  0.00000000000E+00  0.00000000000E+00  0.22490683835E+04  0.22490683835E+04  0.25500000920E-02 0. -1.
       -2   -1    0    0    0  501  0.00000000000E+00  0.00000000000E+00 -0.15564859635E+04  0.15564859635E+04  0.25500000920E-02 0.  1.
    10030    2    1    2    0    0  0.00000000000E+00  0.00000000000E+00  0.69258242007E+03  0.38055543470E+04  0.37420012666E+04 0.  0.
        1    1    3    3  502    0 -0.86126211454E+00 -0.16288608851E+04  0.12824990675E+04  0.20731599994E+04  0.50400001928E-02 0. -1.
       -1    1    3    3    0  502  0.86126211454E+00  0.16288608851E+04 -0.58991664747E+03  0.17323943476E+04  0.50400001928E-02 0.  1.
</event>
<event>
 5   0  0.1133301E-06  0.2075960E+04  0.7818609E-02  0.8571908E-01
        2   -1    0    0  501    0  0.00000000000E+00  0.00000000000E+00  0.11563533394E+04  0.11563533394E+04  0.25500000920E-02 0. -1.
       -2   -1    0    0    0  501  0.00000000000E+00  0.00000000000E+00 -0.93172472035E+03  0.93172472035E+03  0.25500000920E-02 0.  1.
    10030    2    1    2    0    0  0.00000000000E+00  0.00000000000E+00  0.22462861901E+03  0.20880780597E+04  0.20759604926E+04 0.  0.
        3    1    3    3  502    0  0.10338303171E+04  0.59515446966E+02  0.40795340952E+02  0.10363452528E+04  0.10100000352E+00 0.  1.
       -3    1    3    3    0  502 -0.10338303171E+04 -0.59515446966E+02  0.18383327805E+03  0.10517328069E+04  0.10100000352E+00 0. -1.
</event>
<event>
 5   0  0.4316671E-07  0.3950151E+04  0.7818609E-02  0.8014679E-01
       -1   -1    0    0    0  501  0.00000000000E+00  0.00000000000E+00  0.20057410387E+04  0.20057410387E+04  0.50400001928E-02 0.  1.
        1   -1    0    0  501    0  0.00000000000E+00  0.00000000000E+00 -0.19448783680E+04  0.19448783680E+04  0.50400001928E-02 0. -1.
    10030    2    1    2    0    0  0.00000000000E+00  0.00000000000E+00  0.60862670690E+02  0.39506194067E+04  0.39501505582E+04 0.  0.
        2    1    3    3  502    0 -0.18730573595E+04  0.33911981473E+03  0.55734891251E+03  0.19834273193E+04  0.25500000920E-02 0.  1.
       -2    1    3    3    0  502  0.18730573595E+04 -0.33911981473E+03 -0.49648624182E+03  0.19671920874E+04  0.25500000920E-02 0. -1.
</event>
<event>
 5   0  0.3471602E-07  0.4186624E+04  0.7818609E-02  0.7967922E-01
       -1   -1    0    0    0  501  0.00000000000E+00  0.00000000000E+00  0.31150497367E+04  0.31150497367E+04  0.50400001928E-02 0.  1.
        1   -1    0    0  501    0  0.00000000000E+00  0.00000000000E+00 -0.14067043882E+04  0.14067043882E+04  0.50400001928E-02 0. -1.
    10030    2    1    2    0    0  0.00000000000E+00  0.00000000000E+00  0.17083453485E+04  0.45217541249E+04  0.41866235246E+04 0.  0.
        5    1    3    3  502    0 -0.19829955303E+04  0.40643907823E+03  0.14302221417E+04  0.24785119451E+04  0.46999998093E+01 0.  1.
       -5    1    3    3    0  502  0.19829955303E+04 -0.40643907823E+03  0.27812320684E+03  0.20432421798E+04  0.46999998093E+01 0. -1.
</event>
<event>
 5   0  0.7268013E-07  0.3783748E+04  0.7818609E-02  0.8049651E-01
       -2   -1    0    0    0  501  0.00000000000E+00  0.00000000000E+00  0.17764183427E+04  0.17764183427E+04  0.25500000920E-02 0.  1.
        2   -1    0    0  501    0  0.00000000000E+00  0.00000000000E+00 -0.20148338579E+04  0.20148338579E+04  0.25500000920E-02 0. -1.
    10030    2    1    2    0    0  0.00000000000E+00  0.00000000000E+00 -0.23841551520E+03  0.37912522006E+04  0.37837483123E+04 0.  0.
        4    1    3    3  502    0  0.19742172031E+03 -0.57413342641E+03  0.16761553508E+04  0.17827234502E+04  0.12699999809E+01 0.  1.
       -4    1    3    3    0  502 -0.19742172031E+03  0.57413342641E+03 -0.19145708660E+04  0.20085287503E+04  0.12699999809E+01 0. -1.
</event>
<event>
 5   0  0.1034683E-06  0.3757236E+04  0.7818609E-02  0.8055395E-01
        2   -1    0    0  501    0  0.00000000000E+00  0.00000000000E+00  0.21206308665E+04  0.21206308665E+04  0.25500000920E-02 0. -1.
       -2   -1    0    0    0  501  0.00000000000E+00  0.00000000000E+00 -0.16642242022E+04  0.16642242022E+04  0.25500000920E-02 0.  1.
    10030    2    1    2    0    0  0.00000000000E+00  0.00000000000E+00  0.45640666428E+03  0.37848550688E+04  0.37572357989E+04 0.  0.
        2    1    3    3  502    0  0.84051639961E+03 -0.10980719126E+04 -0.10527476705E+04  0.17379607018E+04  0.25500000920E-02 0.  1.
       -2    1    3    3    0  502 -0.84051639961E+03  0.10980719126E+04  0.15091543348E+04  0.20468943670E+04  0.25500000920E-02 0. -1.
</event>
<event>
 5   0  0.3471602E-07  0.2543607E+04  0.7818609E-02  0.8387613E-01
        1   -1    0    0  501    0  0.00000000000E+00  0.00000000000E+00  0.23108729870E+04  0.23108729870E+04  0.50400001928E-02 0.  1.
       -1   -1    0    0    0  501  0.00000000000E+00  0.00000000000E+00 -0.69994488261E+03  0.69994488262E+03  0.50400001928E-02 0. -1.
    10030    2    1    2    0    0  0.00000000000E+00  0.00000000000E+00  0.16109281044E+04  0.30108178697E+04  0.25436066690E+04 0.  0.
        5    1    3    3  502    0  0.34269590924E+03  0.39711860730E+03 -0.56592990043E+03  0.77164915387E+03  0.46999998093E+01 0. -1.
       -5    1    3    3    0  502 -0.34269590924E+03 -0.39711860730E+03  0.21768580049E+04  0.22391687158E+04  0.46999998093E+01 0.  1.
</event>
<event>
 5   0  0.4316671E-07  0.2336671E+04  0.7818609E-02  0.8463601E-01
        1   -1    0    0  501    0  0.00000000000E+00  0.00000000000E+00  0.10574354801E+04  0.10574354801E+04  0.50400001928E-02 0. -1.
       -1   -1    0    0    0  501  0.00000000000E+00  0.00000000000E+00 -0.12908665198E+04  0.12908665198E+04  0.50400001928E-02 0.  1.
    10030    2    1    2    0    0  0.00000000000E+00  0.00000000000E+00 -0.23343103965E+03  0.23483019999E+04  0.23366711863E+04 0.  0.
        2    1    3    3  502    0 -0.81679790728E+03 -0.78213365289E+03  0.17820075383E+03  0.11448350890E+04  0.25500000920E-02 0. -1.
       -2    1    3    3    0  502  0.81679790728E+03  0.78213365289E+03 -0.41163179348E+03  0.12034669109E+04  0.25500000920E-02 0.  1.
</event>
<event>
 5   0  0.1015219E-06  0.3519373E+04  0.7818609E-02  0.8109214E-01
        2   -1    0    0  501    0  0.00000000000E+00  0.00000000000E+00  0.16629265838E+04  0.16629265838E+04  0.25500000920E-02 0.  1.
       -2   -1    0    0    0  501  0.00000000000E+00  0.00000000000E+00 -0.18620769519E+04  0.18620769519E+04  0.25500000920E-02 0. -1.
    10030    2    1    2    0    0  0.00000000000E+00  0.00000000000E+00 -0.19915036806E+03  0.35250035358E+04  0.35193733900E+04 0.  0.
        3    1    3    3  502    0 -0.11251617024E+03 -0.12811138576E+04  0.11034227021E+04  0.16945365958E+04  0.10100000352E+00 0.  1.
       -3    1    3    3    0  502  0.11251617024E+03  0.12811138576E+04 -0.13025730702E+04  0.18304669399E+04  0.10100000352E+00 0. -1.
</event>
<event>
 5   0  0.1035864E-06  0.3698118E+04  0.7818609E-02  0.8068379E-01
        2   -1    0    0  501    0  0.00000000000E+00  0.00000000000E+00  0.23230028922E+04  0.23230028922E+04  0.25500000920E-02 0.  1.
       -2   -1    0    0    0  501  0.00000000000E+00  0.00000000000E+00 -0.14718102325E+04  0.14718102325E+04  0.25500000920E-02 0. -1.
    10030    2    1    2    0    0  0.00000000000E+00  0.00000000000E+00  0.85119265970E+03  0.37948131247E+04  0.36981181306E+04 0.  0.
        5    1    3    3  502    0  0.82432342184E+03  0.19302915354E+02 -0.12727051857E+04  0.15164703380E+04  0.46999998093E+01 0. -1.
       -5    1    3    3    0  502 -0.82432342184E+03 -0.19302915354E+02  0.21238978454E+04  0.22783427867E+04  0.46999998093E+01 0.  1.
</event>
<event>
 5   0  0.4627905E-07  0.2311806E+04  0.7818609E-02  0.8473280E-01
        1   -1    0    0  501    0  0.00000000000E+00  0.00000000000E+00  0.19179428813E+04  0.19179428813E+04  0.50400001928E-02 0.  1.
       -1   -1    0    0    0  501  0.00000000000E+00  0.00000000000E+00 -0.69663821107E+03  0.69663821109E+03  0.50400001928E-02 0. -1.
    10030    2    1    2    0    0  0.00000000000E+00  0.00000000000E+00  0.12213046702E+04  0.26145810924E+04  0.23118064779E+04 0.  0.
        1    1    3    3  502    0  0.15129446094E+03 -0.18085610870E+03  0.18904540727E+04  0.19051025030E+04  0.50400001928E-02 0.  1.
       -1    1    3    3    0  502 -0.15129446094E+03  0.18085610870E+03 -0.66914940246E+03  0.70947858939E+03  0.50400001928E-02 0. -1.
</event>
<event>
 5   0  0.3977376E-07  0.3880676E+04  0.7818609E-02  0.8029060E-01
        1   -1    0    0  501    0  0.00000000000E+00  0.00000000000E+00  0.23430952824E+04  0.23430952824E+04  0.50400001928E-02 0. -1.
       -1   -1    0    0    0  501  0.00000000000E+00  0.00000000000E+00 -0.16068107337E+04  0.16068107337E+04  0.50400001928E-02 0.  1.
    10030    2    1    2    0    0  0.00000000000E+00  0.00000000000E+00  0.73628454872E+03  0.39499060161E+04  0.38806755339E+04 0.  0.
        4    1    3    3  502    0 -0.11383238275E+04  0.15676009463E+04  0.25778678127E+03  0.19543821276E+04  0.12699999809E+01 0. -1.
       -4    1    3    3    0  502  0.11383238275E+04 -0.15676009463E+04  0.47849776745E+03  0.19955238885E+04  0.12699999809E+01 0.  1.
</event>
<event>
 5   0  0.5533705E-07  0.2750517E+04  0.7818609E-02  0.8318798E-01
        2   -1    0    0  501    0  0.00000000000E+00  0.00000000000E+00  0.18731693989E+04  0.18731693989E+04  0.25500000920E-02 0. -1.
       -2   -1    0    0    0  501  0.00000000000E+00  0.00000000000E+00 -0.10096980441E+04  0.10096980441E+04  0.25500000920E-02 0.  1.
    10030    2    1    2    0    0  0.00000000000E+00  0.00000000000E+00  0.86347135472E+03  0.28828674430E+04  0.27505166630E+04 0.  0.
        1    1    3    3  502    0 -0.70345806036E+03  0.11404352720E+04  0.10717477248E+03  0.13442218136E+04  0.50400001928E-02 0.  1.
       -1    1    3    3    0  502  0.70345806036E+03 -0.11404352720E+04  0.75629658224E+03  0.15386456293E+04  0.50400001928E-02 0. -1.
</event>
<event>
 5   0  0.5533705E-07  0.2159231E+04  0.7818609E-02  0.8535591E-01
       -2   -1    0    0    0  501  0.00000000000E+00  0.00000000000E+00  0.69048951945E+03  0.69048951945E+03  0.25500000920E-02 0.  1.
        2   -1    0    0  501    0  0.00000000000E+00  0.00000000000E+00 -0.16880336583E+04  0.16880336583E+04  0.25500000920E-02 0. -1.
    10030    2    1    2    0    0  0.00000000000E+00  0.00000000000E+00 -0.99754413887E+03  0.23785231778E+04  0.21592309275E+04 0.  0.
        1    1    3    3  502    0 -0.67498959517E+03  0.42201062960E+03 -0.13021303169E+04  0.15261871731E+04  0.50400001928E-02 0. -1.
       -1    1    3    3    0  502  0.67498959517E+03 -0.42201062960E+03  0.30458617799E+03  0.85233600472E+03  0.50400001928E-02 0.  1.
</event>
<event>
 5   0  0.1015219E-06  0.3863385E+04  0.7818609E-02  0.8032688E-01
       -2   -1    0    0    0  501  0.00000000000E+00  0.00000000000E+00  0.16947368623E+04  0.16947368623E+04  0.25500000920E-02 0.  1.
        2   -1    0    0  501    0  0.00000000000E+00  0.00000000000E+00 -0.22017786125E+04  0.22017786125E+04  0.25500000920E-02 0. -1.
    10030    2    1    2    0    0  0.00000000000E+00  0.00000000000E+00 -0.50704175021E+03  0.38965154747E+04  0.38633847218E+04 0.  0.
        3    1    3    3  502    0 -0.13888562703E+03  0.42529336135E+03 -0.21488036462E+04  0.21948851406E+04  0.10100000352E+00 0. -1.
       -3    1    3    3    0  502  0.13888562703E+03 -0.42529336135E+03  0.16417618960E+04  0.17016303341E+04  0.10100000352E+00 0.  1.
</event>
<event>
 5   0  0.7268013E-07  0.2426500E+04  0.7818609E-02  0.8429649E-01
       -2   -1    0    0    0  501  0.00000000000E+00  0.00000000000E+00  0.14931788320E+04  0.14931788320E+04  0.25500000920E-02 0.  1.
        2   -1    0    0  501    0  0.00000000000E+00  0.00000000000E+00 -0.98579981341E+03  0.98579981341E+03  0.25500000920E-02 0. -1.
    10030    2    1    2    0    0  0.00000000000E+00  0.00000000000E+00  0.50737901855E+03  0.24789786454E+04  0.24264998775E+04 0.  0.
        4    1    3    3  502    0  0.54233019692E+03  0.72455408435E+03 -0.57179116802E+03  0.10705360416E+04  0.12699999809E+01 0. -1.
       -4    1    3    3    0  502 -0.54233019692E+03 -0.72455408435E+03  0.10791701866E+04  0.14084426038E+04  0.12699999809E+01 0.  1.
</event>
<event>
 5   0  0.7268013E-07  0.3832237E+04  0.7818609E-02  0.8039272E-01
        2   -1    0    0  501    0  0.00000000000E+00  0.00000000000E+00  0.13002951605E+04  0.13002951605E+04  0.25500000920E-02 0. -1.
       -2   -1    0    0    0  501  0.00000000000E+00  0.00000000000E+00 -0.28235975604E+04  0.28235975604E+04  0.25500000920E-02 0.  1.
    10030    2    1    2    0    0  0.00000000000E+00  0.00000000000E+00 -0.15233024000E+04  0.41238927209E+04  0.38322370714E+04 0.  0.
        4    1    3    3  502    0 -0.13922796220E+04  0.11826864177E+04 -0.13838590269E+04  0.22917803402E+04  0.12699999809E+01 0. -1.
       -4    1    3    3    0  502  0.13922796220E+04 -0.11826864177E+04 -0.13944337308E+03  0.18321123807E+04  0.12699999809E+01 0.  1.
</event>
<event>
 5   0  0.3191750E-07  0.1925460E+04  0.7818609E-02  0.8642286E-01
        4   -1    0    0  501    0  0.00000000000E+00  0.00000000000E+00  0.93537907694E+03  0.93537993911E+03  0.12699999809E+01 0. -1.
       -4   -1    0    0    0  501  0.00000000000E+00  0.00000000000E+00 -0.99087852048E+03  0.99087933435E+03  0.12699999809E+01 0.  1.
    10030    2    1    2    0    0  0.00000000000E+00  0.00000000000E+00 -0.55499443534E+02  0.19262592735E+04  0.19254595816E+04 0.  0.
        2    1    3    3  502    0  0.46186919122E+03  0.77226259917E+02  0.81376644767E+03  0.93888384605E+03  0.25500000920E-02 0. -1.
       -2    1    3    3    0  502 -0.46186919122E+03 -0.77226259917E+02 -0.86926589120E+03  0.98737542740E+03  0.25500000920E-02 0.  1.
</event>
<event>
 5   0  0.5385714E-07  0.3893244E+04  0.7818609E-02  0.8026436E-01
        1   -1    0    0  501    0  0.00000000000E+00  0.00000000000E+00  0.15151176437E+04  0.15151176437E+04  0.50400001928E-02 0. -1.
       -1   -1    0    0    0  501  0.00000000000E+00  0.00000000000E+00 -0.25010182981E+04  0.25010182982E+04  0.50400001928E-02 0.  1.
    10030    2    1    2    0    0  0.00000000000E+00  0.00000000000E+00 -0.98590065445E+03  0.40161359419E+04  0.38932438664E+04 0.  0.
        3    1    3    3  502    0 -0.25452258906E+03 -0.57517707479E+03 -0.23933074288E+04  0.24745769082E+04  0.10100000352E+00 0.  1.
       -3    1    3    3    0  502  0.25452258906E+03  0.57517707479E+03  0.14074067743E+04  0.15415590337E+04  0.10100000352E+00 0. -1.
</event>
<event>
 5   0  0.5533705E-07  0.3905557E+04  0.7818609E-02  0.8023874E-01
        2   -1    0    0  501    0  0.00000000000E+00  0.00000000000E+00  0.26820395859E+04  0.26820395859E+04  0.25500000920E-02 0. -1.
       -2   -1    0    0    0  501  0.00000000000E+00  0.00000000000E+00 -0.14218076655E+04  0.14218076655E+04  0.25500000920E-02 0.  1.
    10030    2    1    2    0    0  0.00000000000E+00  0.00000000000E+00  0.12602319205E+04  0.41038472514E+04  0.39055572931E+04 0.  0.
        1    1    3    3  502    0 -0.18688182188E+04  0.12079046894E+03  0.12116327065E+04  0.22304989773E+04  0.50400001928E-02 0.  1.
       -1    1    3    3    0  502  0.18688182188E+04 -0.12079046894E+03  0.48599213929E+02  0.18733482741E+04  0.50400001928E-02 0. -1.
</event>
<event>
 5   0  0.5533705E-07  0.3869361E+04  0.7818609E-02  0.8031432E-01
       -2   -1    0    0    0  501  0.00000000000E+00  0.00000000000E+00  0.17961585232E+04  0.17961585232E+04  0.25500000920E-02 0. -1.
        2   -1    0    0  501    0  0.00000000000E+00  0.00000000000E+00 -0.20838855967E+04  0.20838855967E+04  0.25500000920E-02 0.  1.
    10030    2    1    2    0    0  0.00000000000E+00  0.00000000000E+00 -0.28772707348E+03  0.38800441200E+04  0.38693611235E+04 0.  0.
        1    1    3    3  502    0 -0.16733630800E+04  0.54324202266E+03 -0.95090417923E+03  0.19998686584E+04  0.50400001928E-02 0.  1.
       -1    1    3    3    0  502  0.16733630800E+04 -0.54324202266E+03  0.66317710575E+03  0.18801754616E+04  0.50400001928E-02 0. -1.
</event>
<event>
 5   0  0.4316671E-07  0.3848657E+04  0.7818609E-02  0.8035793E-01
       -1   -1    0    0    0  501  0.00000000000E+00  0.00000000000E+00  0.20899060917E+04  0.20899060917E+04  0.50400001928E-02 0. -1.
        1   -1    0    0  501    0  0.00000000000E+00  0.00000000000E+00 -0.17718691774E+04  0.17718691775E+04  0.50400001928E-02 0.  1.
    10030    2    1    2    0    0  0.00000000000E+00  0.00000000000E+00  0.31803691423E+03  0.38617752691E+04  0.38486570061E+04 0.  0.
        2    1    3    3  502    0 -0.93667113538E+03  0.11003667498E+04 -0.11160924738E+04  0.18258757378E+04  0.25500000920E-02 0.  1.
       -2    1    3    3    0  502  0.93667113538E+03 -0.11003667498E+04  0.14341293880E+04  0.20358995313E+04  0.25500000920E-02 0. -1.
</event>
<event>
 5   0  0.4627905E-07  0.3900561E+04  0.7818609E-02  0.8024913E-01
       -1   -1    0    0    0  501  0.00000000000E+00  0.00000000000E+00  0.14607516460E+04  0.14607516460E+04  0.50400001928E-02 0.  1.
        1   -1    0    0  501    0  0.00000000000E+00  0.00000000000E+00 -0.26038604473E+04  0.26038604473E+04  0.50400001928E-02 0. -1.
    10030    2    1    2    0    0  0.00000000000E+00  0.00000000000E+00 -0.11431088013E+04  0.40646120933E+04  0.39005606953E+04 0.  0.
        1    1    3    3  502    0  0.58842130560E+03  0.14608354305E+04  0.62718135711E+03  0.16951802980E+04  0.50400001928E-02 0.  1.
       -1    1    3    3    0  502 -0.58842130560E+03 -0.14608354305E+04 -0.17702901584E+04  0.23694317954E+04  0.50400001928E-02 0. -1.
</event>
<event>
 5   0  0.1015219E-06  0.3899066E+04  0.7818609E-02  0.8025224E-01
       -2   -1    0    0    0  501  0.00000000000E+00  0.00000000000E+00  0.19694831392E+04  0.19694831392E+04  0.25500000920E-02 0. -1.
        2   -1    0    0  501    0  0.00000000000E+00  0.00000000000E+00 -0.19297847518E+04  0.19297847518E+04  0.25500000920E-02 0.  1.
    10030    2    1    2    0    0  0.00000000000E+00  0.00000000000E+00  0.39698387417E+02  0.38992678910E+04  0.38990658014E+04 0.  0.
        3    1    3    3  502    0 -0.41545996051E+03  0.48350928854E+03 -0.18226062801E+04  0.19308759342E+04  0.10100000352E+00 0.  1.
       -3    1    3    3    0  502  0.41545996051E+03 -0.48350928854E+03  0.18623046675E+04  0.19683919568E+04  0.10100000352E+00 0. -1.
</event>
<event>
 5   0  0.3977376E-07  0.3832625E+04  0.7818609E-02  0.8039190E-01
       -1   -1    0    0    0  501  0.00000000000E+00  0.00000000000E+00  0.14653555326E+04  0.14653555326E+04  0.50400001928E-02 0.  1.
        1   -1    0    0  501    0  0.00000000000E+00  0.00000000000E+00 -0.25060500092E+04  0.25060500092E+04  0.50400001928E-02 0. -1.
    10030    2    1    2    0    0  0.00000000000E+00  0.00000000000E+00 -0.10406944766E+04  0.39714055418E+04  0.38326253383E+04 0.  0.
        4    1    3    3  502    0 -0.69950957587E+03  0.14510382225E+03 -0.23629037996E+04  0.24685389900E+04  0.12699999809E+01 0. -1.
       -4    1    3    3    0  502  0.69950957587E+03 -0.14510382225E+03  0.13222093230E+04  0.15028665518E+04  0.12699999809E+01 0.  1.
</event>
<event>
 5   0  0.3977376E-07  0.3958407E+04  0.7818609E-02  0.8012990E-01
       -1   -1    0    0    0  501  0.00000000000E+00  0.00000000000E+00  0.27130916511E+04  0.27130916511E+04  0.50400001928E-02 0.  1.
        1   -1    0    0  501    0  0.00000000000E+00  0.00000000000E+00 -0.14438314321E+04  0.14438314321E+04  0.50400001928E-02 0. -1.
    10030    2    1    2    0    0  0.00000000000E+00  0.00000000000E+00  0.12692602190E+04  0.41569230832E+04  0.39584072574E+04 0.  0.
        4    1    3    3  502    0 -0.29043590044E+03  0.19369127168E+04  0.93399023248E+03  0.21698671047E+04  0.12699999809E+01 0. -1.
       -4    1    3    3    0  502  0.29043590044E+03 -0.19369127168E+04  0.33526998656E+03  0.19870559785E+04  0.12699999809E+01 0.  1.
</event>
<event>
 5   0  0.7268013E-07  0.3064258E+04  0.7818609E-02  0.8225616E-01
       -2   -1    0    0    0  501  0.00000000000E+00  0.00000000000E+00  0.19206228007E+04  0.19206228007E+04  0.25500000920E-02 0. -1.
        2   -1    0    0  501    0  0.00000000000E+00  0.00000000000E+00 -0.12222174603E+04  0.12222174603E+04  0.25500000920E-02 0.  1.
    10030    2    1    2    0    0  0.00000000000E+00  0.00000000000E+00  0.69840534040E+03  0.31428402610E+04  0.30642576403E+04 0.  0.
        4    1    3    3  502    0 -0.57098433877E+03 -0.35019031974E+03  0.17624954860E+04  0.18854835789E+04  0.12699999809E+01 0. -1.
       -4    1    3    3    0  502  0.57098433877E+03  0.35019031974E+03 -0.10640901456E+04  0.12573566821E+04  0.12699999809E+01 0.  1.
</event>
<event>
 5   0  0.4627905E-07  0.4038575E+04  0.7818609E-02  0.7996810E-01
        1   -1    0    0  501    0  0.00000000000E+00  0.00000000000E+00  0.28615798635E+04  0.28615798635E+04  0.50400001928E-02 0.  1.
       -1   -1    0    0    0  501  0.00000000000E+00  0.00000000000E+00 -0.14249195355E+04  0.14249195355E+04  0.50400001928E-02 0. -1.
    10030    2    1    2    0    0  0.00000000000E+00  0.00000000000E+00  0.14366603280E+04  0.42864993989E+04  0.40385745256E+04 0.  0.
        1    1    3    3  502    0 -0.56790244839E+03  0.97313387801E+03  0.24969151982E+04  0.27393590934E+04  0.50400001928E-02 0.  1.
       -1    1    3    3    0  502  0.56790244839E+03 -0.97313387801E+03 -0.10602548702E+04  0.15471403056E+04  0.50400001928E-02 0. -1.
</event>
<event>
 5   0  0.4627905E-07  0.2347840E+04  0.7818609E-02  0.8459294E-01
        1   -1    0    0  501    0  0.00000000000E+00  0.00000000000E+00  0.15992863245E+04  0.15992863246E+04  0.50400001928E-02 0.  1.
       -1   -1    0    0    0  501  0.00000000000E+00  0.00000000000E+00 -0.86168954279E+03  0.86168954281E+03  0.50400001928E-02 0. -1.
    10030    2    1    2    0    0  0.00000000000E+00  0.00000000000E+00  0.73759678176E+03  0.24609758674E+04  0.23478401154E+04 0.  0.
        1    1    3    3  502    0 -0.41854536939E+03 -0.60986354774E+03  0.13243027928E+04  0.15168690320E+04  0.50400001928E-02 0.  1.
       -1    1    3    3    0  502  0.41854536939E+03  0.60986354774E+03 -0.58670601108E+03  0.94410683536E+03  0.50400001928E-02 0. -1.
</event>
<event>
 5   0  0.4627905E-07  0.1951741E+04  0.7818609E-02  0.8629522E-01
       -1   -1    0    0    0  501  0.00000000000E+00  0.00000000000E+00  0.50972794049E+03  0.50972794051E+03  0.50400001928E-02 0.  1.
        1   -1    0    0  501    0  0.00000000000E+00  0.00000000000E+00 -0.18682962042E+04  0.18682962042E+04  0.50400001928E-02 0. -1.
    10030    2    1    2    0    0  0.00000000000E+00  0.00000000000E+00 -0.13585682637E+04  0.23780241447E+04  0.19517405324E+04 0.  0.
        1    1    3    3  502    0  0.73812234622E+03  0.27082187106E+03 -0.13835997368E+04  0.15913884867E+04  0.50400001928E-02 0. -1.
       -1    1    3    3    0  502 -0.73812234622E+03 -0.27082187106E+03  0.25031473084E+02  0.78663565804E+03  0.50400001928E-02 0.  1.
</event>
<event>
 5   0  0.3471602E-07  0.3963312E+04  0.7818609E-02  0.8011989E-01
       -1   -1    0    0    0  501  0.00000000000E+00  0.00000000000E+00  0.23003797659E+04  0.23003797659E+04  0.50400001928E-02 0.  1.
        1   -1    0    0  501    0  0.00000000000E+00  0.00000000000E+00 -0.17070918495E+04  0.17070918495E+04  0.50400001928E-02 0. -1.
    10030    2    1    2    0    0  0.00000000000E+00  0.00000000000E+00  0.59328791641E+03  0.40074716153E+04  0.39633115189E+04 0.  0.
        5    1    3    3  502    0 -0.31987108291E+02  0.76677432207E+03  0.21440125369E+04  0.22772303100E+04  0.46999998093E+01 0.  1.
       -5    1    3    3    0  502  0.31987108291E+02 -0.76677432207E+03 -0.15507246205E+04  0.17302413054E+04  0.46999998093E+01 0. -1.
</event>
<event>
 5   0  0.3471602E-07  0.2655719E+04  0.7818609E-02  0.8349517E-01
       -1   -1    0    0    0  501  0.00000000000E+00  0.00000000000E+00  0.84601257686E+03  0.84601257687E+03  0.50400001928E-02 0.  1.
        1   -1    0    0  501    0  0.00000000000E+00  0.00000000000E+00 -0.20841425086E+04  0.20841425087E+04  0.50400001928E-02 0. -1.
    10030    2    1    2    0    0  0.00000000000E+00  0.00000000000E+00 -0.12381299318E+04  0.29301550855E+04  0.26557189417E+04 0.  0.
        5    1    3    3  502    0  0.30016833507E+03 -0.94946254202E+03  0.35012075647E+03  0.10555504641E+04  0.46999998093E+01 0.  1.
       -5    1    3    3    0  502 -0.30016833507E+03  0.94946254202E+03 -0.15882506883E+04  0.18746046215E+04  0.46999998093E+01 0. -1.
</event>
<event>
 5   0  0.1035864E-06  0.3192221E+04  0.7818609E-02  0.8190875E-01
       -2   -1    0    0    0  501  0.00000000000E+00  0.00000000000E+00  0.18233720603E+04  0.18233720603E+04  0.25500000920E-02 0.  1.
        2   -1    0    0  501    0  0.00000000000E+00  0.00000000000E+00 -0.13971741085E+04  0.13971741085E+04  0.25500000920E-02 0. -1.
    10030    2    1    2    0    0  0.00000000000E+00  0.00000000000E+00  0.42619795181E+03  0.32205461688E+04  0.31922206896E+04 0.  0.
        5    1    3    3  502    0 -0.34911673722E+03 -0.38491535262E+03 -0.13094321442E+04  0.14087856314E+04  0.46999998093E+01 0. -1.
       -5    1    3    3    0  502  0.34911673722E+03  0.38491535262E+03  0.17356300960E+04  0.18117605375E+04  0.46999998093E+01 0.  1.
</event>
<event>
 5   0  0.1035864E-06  0.3771718E+04  0.7818609E-02  0.8052252E-01
       -2   -1    0    0    0  501  0.00000000000E+00  0.00000000000E+00  0.16459994963E+04  0.16459994963E+04  0.25500000920E-02 0.  1.
        2   -1    0    0  501    0  0.00000000000E+00  0.00000000000E+00 -0.21606713577E+04  0.21606713577E+04  0.25500000920E-02 0. -1.
    10030    2    1    2    0    0  0.00000000000E+00  0.00000000000E+00 -0.51467186138E+03  0.38066708540E+04  0.37717178932E+04 0.  0.
        5    1    3    3  502    0  0.36010385703E+03 -0.10425676298E+04  0.12864864518E+04  0.16946066007E+04  0.46999998093E+01 0.  1.
       -5    1    3    3    0  502 -0.36010385703E+03  0.10425676298E+04 -0.18011583132E+04  0.21120642532E+04  0.46999998093E+01 0. -1.
</event>
<event>
 5   0  0.1035864E-06  0.2944128E+04  0.7818609E-02  0.8259868E-01
        2   -1    0    0  501    0  0.00000000000E+00  0.00000000000E+00  0.22887088480E+04  0.22887088480E+04  0.25500000920E-02 0.  1.
       -2   -1    0    0    0  501  0.00000000000E+00  0.00000000000E+00 -0.94681002910E+03  0.94681002910E+03  0.25500000920E-02 0. -1.
    10030    2    1    2    0    0  0.00000000000E+00  0.00000000000E+00  0.13418988189E+04  0.32355188771E+04  0.29441280481E+04 0.  0.
        5    1    3    3  502    0 -0.97427973441E+03  0.70535610032E+03 -0.26169148954E+03  0.12309560329E+04  0.46999998093E+01 0. -1.
       -5    1    3    3    0  502  0.97427973441E+03 -0.70535610032E+03  0.16035903084E+04  0.20045628442E+04  0.46999998093E+01 0.  1.
</event>
<event>
 5   0  0.1015219E-06  0.3911689E+04  0.7818609E-02  0.8022602E-01
       -2   -1    0    0    0  501  0.00000000000E+00  0.00000000000E+00  0.15468693751E+04  0.15468693751E+04  0.25500000920E-02 0.  1.
        2   -1    0    0  501    0  0.00000000000E+00  0.00000000000E+00 -0.24729484059E+04  0.24729484059E+04  0.25500000920E-02 0. -1.
    10030    2    1    2    0    0  0.00000000000E+00  0.00000000000E+00 -0.92607903077E+03  0.40198177810E+04  0.39116892286E+04 0.  0.
        3    1    3    3  502    0 -0.68259380674E+03 -0.14420216869E+04  0.69959030800E+03  0.17420641377E+04  0.10100000352E+00 0.  1.
       -3    1    3    3    0  502  0.68259380674E+03  0.14420216869E+04 -0.16256693388E+04  0.22777536433E+04  0.10100000352E+00 0. -1.
</event>
<event>
 5   0  0.4627905E-07  0.2289887E+04  0.7818609E-02  0.8481919E-01
        1   -1    0    0  501    0  0.00000000000E+00  0.00000000000E+00  0.15559562684E+04  0.15559562684E+04  0.50400001928E-02 0.  1.
       -1   -1    0    0    0  501  0.00000000000E+00  0.00000000000E+00 -0.84250170559E+03  0.84250170560E+03  0.50400001928E-02 0. -1.
    10030    2    1    2    0    0  0.00000000000E+00  0.00000000000E+00  0.71345456278E+03  0.23984579740E+04  0.22898871675E+04 0.  0.
        1    1    3    3  502    0 -0.85183030457E+03  0.36167088026E+03  0.10628384562E+04  0.14092715414E+04  0.50400001928E-02 0.  1.
       -1    1    3    3    0  502  0.85183030457E+03 -0.36167088026E+03 -0.34938389341E+03  0.98918643258E+03  0.50400001928E-02 0. -1.
</event>
<event>
 5   0  0.5533705E-07  0.3555118E+04  0.7818609E-02  0.8100851E-01
       -2   -1    0    0    0  501  0.00000000000E+00  0.00000000000E+00  0.98518053381E+03  0.98518053382E+03  0.25500000920E-02 0.  1.
        2   -1    0    0  501    0  0.00000000000E+00  0.00000000000E+00 -0.32072456481E+04  0.32072456482E+04  0.25500000920E-02 0. -1.
    10030    2    1    2    0    0  0.00000000000E+00  0.00000000000E+00 -0.22220651143E+04  0.41924261820E+04  0.35551179894E+04 0.  0.
        1    1    3    3  502    0  0.83446760382E+03  0.92859879806E+03 -0.26032031398E+04  0.28870917022E+04  0.50400001928E-02 0. -1.
       -1    1    3    3    0  502 -0.83446760382E+03 -0.92859879806E+03  0.38113802549E+03  0.13053344798E+04  0.50400001928E-02 0.  1.
</event>
<event>
 5   0  0.4316671E-07  0.2523200E+04  0.7818609E-02  0.8394767E-01
        1   -1    0    0  501    0  0.00000000000E+00  0.00000000000E+00  0.14084720051E+04  0.14084720052E+04  0.50400001928E-02 0.  1.
       -1   -1    0    0    0  501  0.00000000000E+00  0.00000000000E+00 -0.11300431301E+04  0.11300431301E+04  0.50400001928E-02 0. -1.
    10030    2    1    2    0    0  0.00000000000E+00  0.00000000000E+00  0.27842887506E+03  0.25385151352E+04  0.25231996460E+04 0.  0.
        2    1    3    3  502    0  0.76296362557E+03 -0.92209369847E+03 -0.26228664510E+03  0.12252202116E+04  0.25500000920E-02 0. -1.
       -2    1    3    3    0  502 -0.76296362557E+03  0.92209369847E+03  0.54071552017E+03  0.13132949236E+04  0.25500000920E-02 0.  1.
</event>
<event>
 5   0  0.7268013E-07  0.3979112E+04  0.7818609E-02  0.8008774E-01
       -2   -1    0    0    0  501  0.00000000000E+00  0.00000000000E+00  0.28918591355E+04  0.28918591355E+04  0.25500000920E-02 0. -1.
        2   -1    0    0  501    0  0.00000000000E+00  0.00000000000E+00 -0.13687850716E+04  0.13687850716E+04  0.25500000920E-02 0.  1.
    10030    2    1    2    0    0  0.00000000000E+00  0.00000000000E+00  0.15230740639E+04  0.42606442072E+04  0.39791122698E+04 0.  0.
        4    1    3    3  502    0 -0.61150519780E+03 -0.64195039771E+03 -0.11455729018E+04  0.14485778565E+04  0.12699999809E+01 0.  1.
       -4    1    3    3    0  502  0.61150519780E+03  0.64195039771E+03  0.26686469657E+04  0.28120663507E+04  0.12699999809E+01 0. -1.
</event>
<event>
 5   0  0.5533705E-07  0.2067680E+04  0.7818609E-02  0.8575616E-01
        2   -1    0    0  501    0  0.00000000000E+00  0.00000000000E+00  0.62337744483E+03  0.62337744483E+03  0.25500000920E-02 0.  1.
       -2   -1    0    0    0  501  0.00000000000E+00  0.00000000000E+00 -0.17145714833E+04  0.17145714833E+04  0.25500000920E-02 0. -1.
    10030    2    1    2    0    0  0.00000000000E+00  0.00000000000E+00 -0.10911940385E+04  0.23379489282E+04  0.20676800432E+04 0.  0.
        1    1    3    3  502    0  0.56735246071E+03 -0.65701602361E+03  0.89281265402E+02  0.87265687090E+03  0.50400001928E-02 0. -1.
       -1    1    3    3    0  502 -0.56735246071E+03  0.65701602361E+03 -0.11804753039E+04  0.14652920573E+04  0.50400001928E-02 0.  1.
</event>
<event>
 5   0  0.5385714E-07  0.3923429E+04  0.7818609E-02  0.8020174E-01
       -1   -1    0    0    0  501  0.00000000000E+00  0.00000000000E+00  0.16987601868E+04  0.16987601868E+04  0.50400001928E-02 0.  1.
        1   -1    0    0  501    0  0.00000000000E+00  0.00000000000E+00 -0.22653719684E+04  0.22653719684E+04  0.50400001928E-02 0. -1.
    10030    2    1    2    0    0  0.00000000000E+00  0.00000000000E+00 -0.56661178164E+03  0.39641321552E+04  0.39234289637E+04 0.  0.
        3    1    3    3  502    0 -0.73769386807E+03  0.10842063763E+04 -0.17574237737E+04  0.21927685788E+04  0.10100000352E+00 0. -1.
       -3    1    3    3    0  502  0.73769386807E+03 -0.10842063763E+04  0.11908119921E+04  0.17713635765E+04  0.10100000352E+00 0.  1.
</event>
<event>
 5   0  0.5533705E-07  0.3880984E+04  0.7818609E-02  0.8028996E-01
       -2   -1    0    0    0  501  0.00000000000E+00  0.00000000000E+00  0.14878383939E+04  0.14878383939E+04  0.25500000920E-02 0. -1.
        2   -1    0    0  501    0  0.00000000000E+00  0.00000000000E+00 -0.25308594163E+04  0.25308594163E+04  0.25500000920E-02 0.  1.
    10030    2    1    2    0    0  0.00000000000E+00  0.00000000000E+00 -0.10430210224E+04  0.40186978103E+04  0.38809843129E+04 0.  0.
        1    1    3    3  502    0 -0.12136929506E+04 -0.53675287497E+03 -0.19874999713E+04  0.23898347982E+04  0.50400001928E-02 0.  1.
       -1    1    3    3    0  502  0.12136929506E+04  0.53675287497E+03  0.94447894888E+03  0.16288630120E+04  0.50400001928E-02 0. -1.
</event>
<event>
 5   0  0.3977376E-07  0.3683561E+04  0.7818609E-02  0.8071615E-01
       -1   -1    0    0    0  501  0.00000000000E+00  0.00000000000E+00  0.25981781223E+04  0.25981781223E+04  0.50400001928E-02 0.  1.
        1   -1    0    0  501    0  0.00000000000E+00  0.00000000000E+00 -0.13055899557E+04  0.13055899557E+04  0.50400001928E-02 0. -1.
    10030    2    1    2    0    0  0.00000000000E+00  0.00000000000E+00  0.12925881667E+04  0.39037680780E+04  0.36835609182E+04 0.  0.
        4    1    3    3  502    0 -0.75845052669E+02  0.15125700549E+04 -0.46447224590E+03  0.15840949223E+04  0.12699999809E+01 0. -1.
       -4    1    3    3    0  502  0.75845052669E+02 -0.15125700549E+04  0.17570604126E+04  0.23196731557E+04  0.12699999809E+01 0.  1.
</event>
<event>
 5   0  0.1034683E-06  0.3947392E+04  0.7818609E-02  0.8015244E-01
        2   -1    0    0  501    0  0.00000000000E+00  0.00000000000E+00  0.29512109428E+04  0.29512109428E+04  0.25500000920E-02 0.  1.
       -2   -1    0    0    0  501  0.00000000000E+00  0.00000000000E+00 -0.13199584310E+04  0.13199584310E+04  0.25500000920E-02 0. -1.
    10030    2    1    2    0    0  0.00000000000E+00  0.00000000000E+00  0.16312525118E+04  0.42711693738E+04  0.39473919318E+04 0.  0.
        2    1    3    3  502    0  0.63327096029E+02  0.69264490995E+03  0.28142106951E+04  0.28988875675E+04  0.25500000920E-02 0.  1.
       -2    1    3    3    0  502 -0.63327096029E+02 -0.69264490995E+03 -0.11829581834E+04  0.13722818063E+04  0.25500000920E-02 0. -1.
</event>
<event>
 5   0  0.4316671E-07  0.2447795E+04  0.7818609E-02  0.8421823E-01
        1   -1    0    0  501    0  0.00000000000E+00  0.00000000000E+00  0.23614658593E+04  0.23614658593E+04  0.50400001928E-02 0. -1.
       -1   -1    0    0    0  501  0.00000000000E+00  0.00000000000E+00 -0.63432016681E+03  0.63432016683E+03  0.50400001928E-02 0.  1.
    10030    2    1    2    0    0  0.00000000000E+00  0.00000000000E+00  0.17271456925E+04  0.29957860261E+04  0.24477952674E+04 0.  0.
        2    1    3    3  502    0 -0.52287474860E+03  0.99528092629E+03  0.27161470319E+03  0.11566143143E+04  0.25500000920E-02 0.  1.
       -2    1    3    3    0  502  0.52287474860E+03 -0.99528092629E+03  0.14555309893E+04  0.18391717119E+04  0.25500000920E-02 0. -1.
</event>
<event>
 5   0  0.3977376E-07  0.3532326E+04  0.7818609E-02  0.8106171E-01
        1   -1    0    0  501    0  0.00000000000E+00  0.00000000000E+00  0.28315751859E+04  0.28315751859E+04  0.50400001928E-02 0. -1.
       -1   -1    0    0    0  501  0.00000000000E+00  0.00000000000E+00 -0.11016244336E+04  0.11016244336E+04  0.50400001928E-02 0.  1.
    10030    2    1    2    0    0  0.00000000000E+00  0.00000000000E+00  0.17299507523E+04  0.39331996196E+04  0.35323263782E+04 0.  0.
        4    1    3    3  502    0 -0.14380902177E+04 -0.86745894132E+03  0.25637315878E+03  0.16989165072E+04  0.12699999809E+01 0.  1.
       -4    1    3    3    0  502  0.14380902177E+04  0.86745894132E+03  0.14735775935E+04  0.22342831124E+04  0.12699999809E+01 0. -1.
</event>
<event>
 5   0  0.1035864E-06  0.3880861E+04  0.7818609E-02  0.8029022E-01
       -2   -1    0    0    0  501  0.00000000000E+00  0.00000000000E+00  0.13409712252E+04  0.13409712252E+04  0.25500000920E-02 0.  1.
        2   -1    0    0  501    0  0.00000000000E+00  0.00000000000E+00 -0.28078676913E+04  0.28078676913E+04  0.25500000920E-02 0. -1.
    10030    2    1    2    0    0  0.00000000000E+00  0.00000000000E+00 -0.14668964661E+04  0.41488389165E+04  0.38808606150E+04 0.  0.
        5    1    3    3  502    0 -0.58227875545E+03 -0.37551312205E+03  0.12042168377E+04  0.13893231935E+04  0.46999998093E+01 0.  1.
       -5    1    3    3    0  502  0.58227875545E+03  0.37551312205E+03 -0.26711133038E+04  0.27595157230E+04  0.46999998093E+01 0. -1.
</event>
<event>
 5   0  0.1034683E-06  0.3744043E+04  0.7818609E-02  0.8058271E-01
       -2   -1    0    0    0  501  0.00000000000E+00  0.00000000000E+00  0.12867716012E+04  0.12867716012E+04  0.25500000920E-02 0. -1.
        2   -1    0    0  501    0  0.00000000000E+00  0.00000000000E+00 -0.27234549197E+04  0.27234549197E+04  0.25500000920E-02 0.  1.
    10030    2    1    2    0    0  0.00000000000E+00  0.00000000000E+00 -0.14366833185E+04  0.40102265209E+04  0.37440429741E+04 0.  0.
        2    1    3    3  502    0 -0.12397802084E+04 -0.12402567817E+04 -0.16653621991E+02  0.17537300798E+04  0.25500000920E-02 0. -1.
       -2    1    3    3    0  502  0.12397802084E+04  0.12402567817E+04 -0.14200296965E+04  0.22564964411E+04  0.25500000920E-02 0.  1.
</event>
<event>
 5   0  0.7268013E-07  0.3081353E+04  0.7818609E-02  0.8220874E-01
       -2   -1    0    0    0  501  0.00000000000E+00  0.00000000000E+00  0.14854622215E+04  0.14854622215E+04  0.25500000920E-02 0. -1.
        2   -1    0    0  501    0  0.00000000000E+00  0.00000000000E+00 -0.15979428939E+04  0.15979428939E+04  0.25500000920E-02 0.  1.
    10030    2    1    2    0    0  0.00000000000E+00  0.00000000000E+00 -0.11248067240E+03  0.30834051155E+04  0.30813528205E+04 0.  0.
        4    1    3    3  502    0  0.19772634864E+03 -0.14836898911E+04  0.30903811289E+03  0.15283774305E+04  0.12699999809E+01 0.  1.
       -4    1    3    3    0  502 -0.19772634864E+03  0.14836898911E+04 -0.42151878530E+03  0.15550276850E+04  0.12699999809E+01 0. -1.
</event>
<event>
 5   0  0.1035864E-06  0.4141549E+04  0.7818609E-02  0.7976585E-01
       -2   -1    0    0    0  501  0.00000000000E+00  0.00000000000E+00  0.19677506886E+04  0.19677506886E+04  0.25500000920E-02 0.  1.
        2   -1    0    0  501    0  0.00000000000E+00  0.00000000000E+00 -0.21791926807E+04  0.21791926807E+04  0.25500000920E-02 0. -1.
    10030    2    1    2    0    0  0.00000000000E+00  0.00000000000E+00 -0.21144199216E+03  0.41469433693E+04  0.41415494193E+04 0.  0.
        5    1    3    3  502    0  0.71354550640E+03 -0.60430387833E+03  0.17443204562E+04  0.19791428223E+04  0.46999998093E+01 0.  1.
       -5    1    3    3    0  502 -0.71354550640E+03  0.60430387833E+03 -0.19557624484E+04  0.21678005470E+04  0.46999998093E+01 0. -1.
</event>
<event>
 5   0  0.7268013E-07  0.3330696E+04  0.7818609E-02  0.8155128E-01
       -2   -1    0    0    0  501  0.00000000000E+00  0.00000000000E+00  0.20835197510E+04  0.20835197510E+04  0.25500000920E-02 0.  1.
        2   -1    0    0  501    0  0.00000000000E+00  0.00000000000E+00 -0.13311052876E+04  0.13311052876E+04  0.25500000920E-02 0. -1.
    10030    2    1    2    0    0  0.00000000000E+00  0.00000000000E+00  0.75241446337E+03  0.34146250386E+04  0.33306961179E+04 0.  0.
        4    1    3    3  502    0  0.74156545716E+03 -0.14810191557E+04  0.55391138044E+03  0.17464697240E+04  0.12699999809E+01 0.  1.
       -4    1    3    3    0  502 -0.74156545716E+03  0.14810191557E+04  0.19850308294E+03  0.16681553146E+04  0.12699999809E+01 0. -1.
</event>
<event>
 5   0  0.4627905E-07  0.2937667E+04  0.7818609E-02  0.8261758E-01
       -1   -1    0    0    0  501  0.00000000000E+00  0.00000000000E+00  0.13235900323E+04  0.13235900323E+04  0.50400001928E-02 0.  1.
        1   -1    0    0  501    0  0.00000000000E+00  0.00000000000E+00 -0.16300147472E+04  0.16300147472E+04  0.50400001928E-02 0. -1.
    10030    2    1    2    0    0  0.00000000000E+00  0.00000000000E+00 -0.30642471489E+03  0.29536047795E+04  0.29376666059E+04 0.  0.
        1    1    3    3  502    0  0.10181682138E+04  0.98033479301E+03 -0.55506627605E+03  0.15184931309E+04  0.50400001928E-02 0. -1.
       -1    1    3    3    0  502 -0.10181682138E+04 -0.98033479301E+03  0.24864156116E+03  0.14351116486E+04  0.50400001928E-02 0.  1.
</event>
<event>
 5   0  0.1015219E-06  0.2292422E+04  0.7818609E-02  0.8480915E-01
       -2   -1    0    0    0  501  0.00000000000E+00  0.00000000000E+00  0.13874797037E+04  0.13874797037E+04  0.25500000920E-02 0.  1.
        2   -1    0    0  501    0  0.00000000000E+00  0.00000000000E+00 -0.94689667851E+03  0.94689667851E+03  0.25500000920E-02 0. -1.
    10030    2    1    2    0    0  0.00000000000E+00  0.00000000000E+00  0.44058302516E+03  0.23343763822E+04  0.22924222324E+04 0.  0.
        3    1    3    3  502    0  0.11269163061E+04  0.43645283588E+02  0.42886844404E+03  0.12065543602E+04  0.10100000352E+00 0.  1.
       -3    1    3    3    0  502 -0.11269163061E+04 -0.43645283588E+02  0.11714581118E+02  0.11278220220E+04  0.10100000352E+00 0. -1.
</event>
<event>
 5   0  0.7268013E-07  0.2150478E+04  0.7818609E-02  0.8539328E-01
        2   -1    0    0  501    0  0.00000000000E+00  0.00000000000E+00  0.97324877314E+03  0.97324877315E+03  0.25500000920E-02 0. -1.
       -2   -1    0    0    0  501  0.00000000000E+00  0.00000000000E+00 -0.11879173462E+04  0.11879173462E+04  0.25500000920E-02 0.  1.
    10030    2    1    2    0    0  0.00000000000E+00  0.00000000000E+00 -0.21466857308E+03  0.21611661194E+04  0.21504781792E+04 0.  0.
        4    1    3    3  502    0  0.12099500754E+03 -0.40697598451E+03  0.88543584611E+03  0.98197122885E+03  0.12699999809E+01 0. -1.
       -4    1    3    3    0  502 -0.12099500754E+03  0.40697598451E+03 -0.11001044192E+04  0.11791948905E+04  0.12699999809E+01 0.  1.
</event>
<event>
 5   0  0.7268013E-07  0.2140757E+04  0.7818609E-02  0.8543499E-01
        2   -1    0    0  501    0  0.00000000000E+00  0.00000000000E+00  0.85468837621E+03  0.85468837622E+03  0.25500000920E-02 0. -1.
       -2   -1    0    0    0  501  0.00000000000E+00  0.00000000000E+00 -0.13405007643E+04  0.13405007643E+04  0.25500000920E-02 0.  1.
    10030    2    1    2    0    0  0.00000000000E+00  0.00000000000E+00 -0.48581238807E+03  0.21951891405E+04  0.21407572693E+04 0.  0.
        4    1    3    3  502    0  0.50913725278E+03  0.82642383306E+02  0.71884231414E+03  0.88475216371E+03  0.12699999809E+01 0. -1.
       -4    1    3    3    0  502 -0.50913725278E+03 -0.82642383306E+02 -0.12046547022E+04  0.13104369768E+04  0.12699999809E+01 0.  1.
</event>
<event>
 5   0  0.1035864E-06  0.3926364E+04  0.7818609E-02  0.8019568E-01
       -2   -1    0    0    0  501  0.00000000000E+00  0.00000000000E+00  0.14853419014E+04  0.14853419014E+04  0.25500000920E-02 0.  1.
        2   -1    0    0  501    0  0.00000000000E+00  0.00000000000E+00 -0.25947456931E+04  0.25947456931E+04  0.25500000920E-02 0. -1.
    10030    2    1    2    0    0  0.00000000000E+00  0.00000000000E+00 -0.11094037917E+04  0.40800875944E+04  0.39263644768E+04 0.  0.
        5    1    3    3  502    0  0.13765664499E+04 -0.10667903935E+04  0.38691243652E+03  0.17840124041E+04  0.46999998093E+01 0.  1.
       -5    1    3    3    0  502 -0.13765664499E+04  0.10667903935E+04 -0.14963162282E+04  0.22960751903E+04  0.46999998093E+01 0. -1.
</event>
<event>
 5   0  0.4627905E-07  0.3917222E+04  0.7818609E-02  0.8021457E-01
       -1   -1    0    0    0  501  0.00000000000E+00  0.00000000000E+00  0.20189932236E+04  0.20189932236E+04  0.50400001928E-02 0. -1.
        1   -1    0    0  501    0  0.00000000000E+00  0.00000000000E+00 -0.19000346975E+04  0.19000346975E+04  0.50400001928E-02 0.  1.
    10030    2    1    2    0    0  0.00000000000E+00  0.00000000000E+00  0.11895852617E+03  0.39190279211E+04  0.39172220662E+04 0.  0.
        1    1    3    3  502    0  0.19204922440E+04 -0.38422869153E+03  0.74817085565E+02  0.19599795262E+04  0.50400001928E-02 0.  1.
       -1    1    3    3    0  502 -0.19204922440E+04  0.38422869153E+03  0.44141440604E+02  0.19590483949E+04  0.50400001928E-02 0. -1.
</event>
<event>
 5   0  0.3471602E-07  0.3994175E+04  0.7818609E-02  0.8005723E-01
        1   -1    0    0  501    0  0.00000000000E+00  0.00000000000E+00  0.16717730250E+04  0.16717730250E+04  0.50400001928E-02 0. -1.
       -1   -1    0    0    0  501  0.00000000000E+00  0.00000000000E+00 -0.23857052207E+04  0.23857052207E+04  0.50400001928E-02 0.  1.
    10030    2    1    2    0    0  0.00000000000E+00  0.00000000000E+00 -0.71393219576E+03  0.40574782457E+04  0.39941745748E+04 0.  0.
        5    1    3    3  502    0 -0.10598868437E+04 -0.84596736902E+03  0.11323234958E+04  0.17666916822E+04  0.46999998093E+01 0. -1.
       -5    1    3    3    0  502  0.10598868437E+04  0.84596736902E+03 -0.18462556916E+04  0.22907865635E+04  0.46999998093E+01 0.  1.
</event>
<event>
 5   0  0.7268013E-07  0.3366501E+04  0.7818609E-02  0.8146177E-01
       -2   -1    0    0    0  501  0.00000000000E+00  0.00000000000E+00  0.15216412948E+04  0.15216412948E+04  0.25500000920E-02 0. -1.
        2   -1    0    0  501    0  0.00000000000E+00  0.00000000000E+00 -0.18620238844E+04  0.18620238844E+04  0.25500000920E-02 0.  1.
    10030    2    1    2    0    0  0.00000000000E+00  0.00000000000E+00 -0.34038258959E+03  0.33836651791E+04  0.33665011120E+04 0.  0.
        4    1    3    3  502    0 -0.42999043280E+03 -0.90366818492E+03  0.11901577537E+04  0.15549871550E+04  0.12699999809E+01 0. -1.
       -4    1    3    3    0  502  0.42999043280E+03  0.90366818492E+03 -0.15305403433E+04  0.18286780241E+04  0.12699999809E+01 0.  1.
</event>
<event>
 5   0  0.1015219E-06  0.3801851E+04  0.7818609E-02  0.8045758E-01
       -2   -1    0    0    0  501  0.00000000000E+00  0.00000000000E+00  0.23724595857E+04  0.23724595857E+04  0.25500000920E-02 0.  1.
        2   -1    0    0  501    0  0.00000000000E+00  0.00000000000E+00 -0.15231099970E+04  0.15231099970E+04  0.25500000920E-02 0. -1.
    10030    2    1    2    0    0  0.00000000000E+00  0.00000000000E+00  0.84934958869E+03  0.38955695826E+04  0.38018505559E+04 0.  0.
        3    1    3    3  502    0  0.29642542290E+03 -0.43014274486E+03  0.22974681457E+04  0.23561092299E+04  0.10100000352E+00 0.  1.
       -3    1    3    3    0  502 -0.29642542290E+03  0.43014274486E+03 -0.14481185570E+04  0.15394603528E+04  0.10100000352E+00 0. -1.
</event>
<event>
 5   0  0.5533705E-07  0.3975204E+04  0.7818609E-02  0.8009567E-01
       -2   -1    0    0    0  501  0.00000000000E+00  0.00000000000E+00  0.17806117713E+04  0.17806117713E+04  0.25500000920E-02 0.  1.
        2   -1    0    0  501    0  0.00000000000E+00  0.00000000000E+00 -0.22186542487E+04  0.22186542487E+04  0.25500000920E-02 0. -1.
    10030    2    1    2    0    0  0.00000000000E+00  0.00000000000E+00 -0.43804247735E+03  0.39992660200E+04  0.39752040812E+04 0.  0.
        1    1    3    3  502    0 -0.19199963580E+04  0.47580506579E+03 -0.41458251120E+03  0.20210529765E+04  0.50400001928E-02 0. -1.
       -1    1    3    3    0  502  0.19199963580E+04 -0.47580506579E+03 -0.23459966144E+02  0.19782130435E+04  0.50400001928E-02 0.  1.
</event>
<event>
 5   0  0.5533705E-07  0.3910885E+04  0.7818609E-02  0.8022769E-01
        2   -1    0    0  501    0  0.00000000000E+00  0.00000000000E+00  0.18898113085E+04  0.18898113085E+04  0.25500000920E-02 0.  1.
       -2   -1    0    0    0  501  0.00000000000E+00  0.00000000000E+00 -0.20233526279E+04  0.20233526279E+04  0.25500000920E-02 0. -1.
    10030    2    1    2    0    0  0.00000000000E+00  0.00000000000E+00 -0.13354131938E+03  0.39131639364E+04  0.39108846454E+04 0.  0.
        1    1    3    3  502    0  0.49325529644E+03  0.18922085914E+04 -0.66037730266E+02  0.19565569561E+04  0.50400001928E-02 0.  1.
       -1    1    3    3    0  502 -0.49325529644E+03 -0.18922085914E+04 -0.67503589114E+02  0.19566069803E+04  0.50400001928E-02 0. -1.
</event>
<event>
 5   0  0.3191750E-07  0.3953302E+04  0.7818609E-02  0.8014034E-01
        3   -1    0    0  501    0  0.00000000000E+00  0.00000000000E+00  0.20351565009E+04  0.20351565034E+04  0.10100000352E+00 0.  1.
       -3   -1    0    0    0  501  0.00000000000E+00  0.00000000000E+00 -0.19198278033E+04  0.19198278060E+04  0.10100000352E+00 0. -1.
    10030    2    1    2    0    0  0.00000000000E+00  0.00000000000E+00  0.11532869756E+03  0.39549843093E+04  0.39533024396E+04 0.  0.
        3    1    3    3  502    0 -0.60199000215E+03 -0.44262157512E+03  0.18884276443E+04  0.20308778396E+04  0.10100000352E+00 0.  1.
       -3    1    3    3    0  502  0.60199000215E+03  0.44262157512E+03 -0.17730989468E+04  0.19241064697E+04  0.10100000352E+00 0. -1.
</event>
<event>
 5   0  0.3191750E-07  0.3883955E+04  0.7818609E-02  0.8028375E-01
       -3   -1    0    0    0  501  0.00000000000E+00  0.00000000000E+00  0.22999329181E+04  0.22999329204E+04  0.10100000352E+00 0. -1.
        3   -1    0    0  501    0  0.00000000000E+00  0.00000000000E+00 -0.16397330280E+04  0.16397330311E+04  0.10100000352E+00 0.  1.
    10030    2    1    2    0    0  0.00000000000E+00  0.00000000000E+00  0.66019989020E+03  0.39396659514E+04  0.38839546745E+04 0.  0.
        5    1    3    3  502    0  0.69124007503E+03 -0.10718836793E+03  0.21677014537E+04  0.22777738847E+04  0.46999998093E+01 0. -1.
       -5    1    3    3    0  502 -0.69124007503E+03  0.10718836793E+03 -0.15075015635E+04  0.16618920667E+04  0.46999998093E+01 0.  1.
</event>
<event>
 5   0  0.7268013E-07  0.3864442E+04  0.7818609E-02  0.8032466E-01
       -2   -1    0    0    0  501  0.00000000000E+00  0.00000000000E+00  0.13693664420E+04  0.13693664420E+04  0.25500000920E-02 0. -1.
        2   -1    0    0  501    0  0.00000000000E+00  0.00000000000E+00 -0.27264267933E+04  0.27264267933E+04  0.25500000920E-02 0.  1.
    10030    2    1    2    0    0  0.00000000000E+00  0.00000000000E+00 -0.13570603513E+04  0.40957932353E+04  0.38644416711E+04 0.  0.
        4    1    3    3  502    0  0.16527231668E+04 -0.92202112166E+03 -0.10915505110E+04  0.21847427642E+04  0.12699999809E+01 0.  1.
       -4    1    3    3    0  502 -0.16527231668E+04  0.92202112166E+03 -0.26550984031E+03  0.19110504711E+04  0.12699999809E+01 0. -1.
</event>
<event>
 5   0  0.3977376E-07  0.3669186E+04  0.7818609E-02  0.8074825E-01
        1   -1    0    0  501    0  0.00000000000E+00  0.00000000000E+00  0.26290250883E+04  0.26290250883E+04  0.50400001928E-02 0. -1.
       -1   -1    0    0    0  501  0.00000000000E+00  0.00000000000E+00 -0.12802201147E+04  0.12802201147E+04  0.50400001928E-02 0.  1.
    10030    2    1    2    0    0  0.00000000000E+00  0.00000000000E+00  0.13488049736E+04  0.39092452030E+04  0.36691856318E+04 0.  0.
        4    1    3    3  502    0  0.24130703314E+03 -0.71902188555E+03  0.24541763923E+04  0.25686971276E+04  0.12699999809E+01 0. -1.
       -4    1    3    3    0  502 -0.24130703314E+03  0.71902188555E+03 -0.11053714187E+04  0.13405480754E+04  0.12699999809E+01 0.  1.
</event>
<event>
 5   0  0.7268013E-07  0.2079179E+04  0.7818609E-02  0.8570471E-01
        2   -1    0    0  501    0  0.00000000000E+00  0.00000000000E+00  0.14962706294E+04  0.14962706294E+04  0.25500000920E-02 0.  1.
       -2   -1    0    0    0  501  0.00000000000E+00  0.00000000000E+00 -0.72229305920E+03  0.72229305920E+03  0.25500000920E-02 0. -1.
    10030    2    1    2    0    0  0.00000000000E+00  0.00000000000E+00  0.77397757023E+03  0.22185636886E+04  0.20791785785E+04 0.  0.
        4    1    3    3  502    0  0.72976465570E+03  0.76544369505E+01  0.11769787806E+04  0.13848811162E+04  0.12699999809E+01 0.  1.
       -4    1    3    3    0  502 -0.72976465570E+03 -0.76544369505E+01 -0.40300121037E+03  0.83368257243E+03  0.12699999809E+01 0. -1.
</event>
<event>
 5   0  0.5385714E-07  0.2537626E+04  0.7818609E-02  0.8389702E-01
        1   -1    0    0  501    0  0.00000000000E+00  0.00000000000E+00  0.17921123843E+04  0.17921123843E+04  0.50400001928E-02 0.  1.
       -1   -1    0    0    0  501  0.00000000000E+00  0.00000000000E+00 -0.89831756263E+03  0.89831756264E+03  0.50400001928E-02 0. -1.
    10030    2    1    2    0    0  0.00000000000E+00  0.00000000000E+00  0.89379482163E+03  0.26904299469E+04  0.25376256848E+04 0.  0.
        3    1    3    3  502    0  0.60851690731E+02 -0.51075707707E+03 -0.78282010890E+03  0.93668727607E+03  0.10100000352E+00 0. -1.
       -3    1    3    3    0  502 -0.60851690731E+02  0.51075707707E+03  0.16766149305E+04  0.17537426708E+04  0.10100000352E+00 0.  1.
</event>
<event>
 5   0  0.4316671E-07  0.3683831E+04  0.7818609E-02  0.8071555E-01
       -1   -1    0    0    0  501  0.00000000000E+00  0.00000000000E+00  0.16350648879E+04  0.16350648879E+04  0.50400001928E-02 0.  1.
        1   -1    0    0  501    0  0.00000000000E+00  0.00000000000E+00 -0.20749344705E+04  0.20749344705E+04  0.50400001928E-02 0. -1.
    10030    2    1    2    0    0  0.00000000000E+00  0.00000000000E+00 -0.43986958259E+03  0.37099993584E+04  0.36838308850E+04 0.  0.
        2    1    3    3  502    0 -0.52668607864E+03  0.82747049740E+03  0.13501609948E+04  0.16688440195E+04  0.25500000920E-02 0.  1.
       -2    1    3    3    0  502  0.52668607864E+03 -0.82747049740E+03 -0.17900305774E+04  0.20411553389E+04  0.25500000920E-02 0. -1.
</event>
<event>
 5   0  0.1035864E-06  0.3905551E+04  0.7818609E-02  0.8023876E-01
        2   -1    0    0  501    0  0.00000000000E+00  0.00000000000E+00  0.20715306259E+04  0.20715306259E+04  0.25500000920E-02 0. -1.
       -2   -1    0    0    0  501  0.00000000000E+00  0.00000000000E+00 -0.18408284917E+04  0.18408284917E+04  0.25500000920E-02 0.  1.
    10030    2    1    2    0    0  0.00000000000E+00  0.00000000000E+00  0.23070213422E+03  0.39123591176E+04  0.39055512274E+04 0.  0.
        5    1    3    3  502    0  0.13605964108E+04  0.16728025211E+03 -0.12777942622E+04  0.18740292267E+04  0.46999998093E+01 0.  1.
       -5    1    3    3    0  502 -0.13605964108E+04 -0.16728025211E+03  0.15084963964E+04  0.20383298909E+04  0.46999998093E+01 0. -1.
</event>
<event>
 5   0  0.5533705E-07  0.3405002E+04  0.7818609E-02  0.8136680E-01
       -2   -1    0    0    0  501  0.00000000000E+00  0.00000000000E+00  0.15609413673E+04  0.15609413673E+04  0.25500000920E-02 0.  1.
        2   -1    0    0  501    0  0.00000000000E+00  0.00000000000E+00 -0.18568984065E+04  0.18568984065E+04  0.25500000920E-02 0. -1.
    10030    2    1    2    0    0  0.00000000000E+00  0.00000000000E+00 -0.29595703919E+03  0.34178397738E+04  0.34050019311E+04 0.  0.
        1    1    3    3  502    0  0.65315813703E+03  0.12610936731E+04  0.79446328847E+03  0.16273121155E+04  0.50400001928E-02 0.  1.
       -1    1    3    3    0  502 -0.65315813703E+03 -0.12610936731E+04 -0.10904203277E+04  0.17905276584E+04  0.50400001928E-02 0. -1.
</event>
<event>
 5   0  0.4627905E-07  0.3771717E+04  0.7818609E-02  0.8052252E-01
        1   -1    0    0  501    0  0.00000000000E+00  0.00000000000E+00  0.21568820585E+04  0.21568820585E+04  0.50400001928E-02 0. -1.
       -1   -1    0    0    0  501  0.00000000000E+00  0.00000000000E+00 -0.16488906467E+04  0.16488906467E+04  0.50400001928E-02 0.  1.
    10030    2    1    2    0    0  0.00000000000E+00  0.00000000000E+00  0.50799141178E+03  0.38057727053E+04  0.37717171964E+04 0.  0.
        1    1    3    3  502    0 -0.65449584369E+03 -0.94097703400E+02  0.20360804903E+04  0.21407575645E+04  0.50400001928E-02 0. -1.
       -1    1    3    3    0  502  0.65449584369E+03  0.94097703400E+02 -0.15280890785E+04  0.16650151408E+04  0.50400001928E-02 0.  1.
</event>
<event>
 5   0  0.5533705E-07  0.3974373E+04  0.7818609E-02  0.8009736E-01
       -2   -1    0    0    0  501  0.00000000000E+00  0.00000000000E+00  0.28975796311E+04  0.28975796311E+04  0.25500000920E-02 0. -1.
        2   -1    0    0  501    0  0.00000000000E+00  0.00000000000E+00 -0.13628304070E+04  0.13628304070E+04  0.25500000920E-02 0.  1.
    10030    2    1    2    0    0  0.00000000000E+00  0.00000000000E+00  0.15347492241E+04  0.42604100380E+04  0.39743727192E+04 0.  0.
        1    1    3    3  502    0  0.16934827925E+04  0.61819506397E+03 -0.12876992226E+03  0.18073823056E+04  0.50400001928E-02 0.  1.
       -1    1    3    3    0  502 -0.16934827925E+04 -0.61819506397E+03  0.16635191463E+04  0.24530277324E+04  0.50400001928E-02 0. -1.
</event>
<event>
 5   0  0.1034683E-06  0.4140976E+04  0.7818609E-02  0.7976696E-01
       -2   -1    0    0    0  501  0.00000000000E+00  0.00000000000E+00  0.17432759224E+04  0.17432759224E+04  0.25500000920E-02 0.  1.
        2   -1    0    0  501    0  0.00000000000E+00  0.00000000000E+00 -0.24591172878E+04  0.24591172878E+04  0.25500000920E-02 0. -1.
    10030    2    1    2    0    0  0.00000000000E+00  0.00000000000E+00 -0.71584136543E+03  0.42023932102E+04  0.41409757102E+04 0.  0.
        2    1    3    3  502    0  0.81431720249E+03 -0.82412855708E+03 -0.20993610218E+04  0.23978359170E+04  0.25500000920E-02 0. -1.
       -2    1    3    3    0  502 -0.81431720249E+03  0.82412855708E+03  0.13835196564E+04  0.18045572932E+04  0.25500000920E-02 0.  1.
</event>
<event>
 5   0  0.7268013E-07  0.2213144E+04  0.7818609E-02  0.8512977E-01
        2   -1    0    0  501    0  0.00000000000E+00  0.00000000000E+00  0.14238197634E+04  0.14238197634E+04  0.25500000920E-02 0.  1.
       -2   -1    0    0    0  501  0.00000000000E+00  0.00000000000E+00 -0.86001153755E+03  0.86001153756E+03  0.25500000920E-02 0. -1.
    10030    2    1    2    0    0  0.00000000000E+00  0.00000000000E+00  0.56380822581E+03  0.22838313009E+04  0.22131438488E+04 0.  0.
        4    1    3    3  502    0  0.23945484516E+03 -0.67445117954E+02  0.13945881123E+04  0.14166033611E+04  0.12699999809E+01 0.  1.
       -4    1    3    3    0  502 -0.23945484516E+03  0.67445117954E+02 -0.83077988652E+03  0.86722793979E+03  0.12699999809E+01 0. -1.
</event>
<event>
 5   0  0.4316671E-07  0.2029462E+04  0.7818609E-02  0.8592969E-01
       -1   -1    0    0    0  501  0.00000000000E+00  0.00000000000E+00  0.32064405351E+03  0.32064405355E+03  0.50400001928E-02 0.  1.
        1   -1    0    0  501    0  0.00000000000E+00  0.00000000000E+00 -0.32112826225E+04  0.32112826225E+04  0.50400001928E-02 0. -1.
    10030    2    1    2    0    0  0.00000000000E+00  0.00000000000E+00 -0.28906385690E+04  0.35319266760E+04  0.20294616795E+04 0.  0.
        2    1    3    3  502    0 -0.85210600393E+03 -0.49445222205E+03 -0.18684407970E+04  0.21122591350E+04  0.25500000920E-02 0.  1.
       -2    1    3    3    0  502  0.85210600393E+03  0.49445222205E+03 -0.10221977720E+04  0.14196675410E+04  0.25500000920E-02 0. -1.
</event>
<event>
 5   0  0.4627905E-07  0.3802496E+04  0.7818609E-02  0.8045619E-01
       -1   -1    0    0    0  501  0.00000000000E+00  0.00000000000E+00  0.32720809458E+04  0.32720809458E+04  0.50400001928E-02 0.  1.
        1   -1    0    0  501    0  0.00000000000E+00  0.00000000000E+00 -0.11047232722E+04  0.11047232722E+04  0.50400001928E-02 0. -1.
    10030    2    1    2    0    0  0.00000000000E+00  0.00000000000E+00  0.21673576735E+04  0.43768042180E+04  0.38024960063E+04 0.  0.
        1    1    3    3  502    0 -0.49121620515E+03  0.11697550773E+04 -0.54621356596E+03  0.13812927136E+04  0.50400001928E-02 0. -1.
       -1    1    3    3    0  502  0.49121620515E+03 -0.11697550773E+04  0.27135712395E+04  0.29955115044E+04  0.50400001928E-02 0.  1.
</event>
<event>
 5   0  0.7268013E-07  0.4150937E+04  0.7818609E-02  0.7974771E-01
        2   -1    0    0  501    0  0.00000000000E+00  0.00000000000E+00  0.26972235007E+04  0.26972235007E+04  0.25500000920E-02 0. -1.
       -2   -1    0    0    0  501  0.00000000000E+00  0.00000000000E+00 -0.15970382468E+04  0.15970382468E+04  0.25500000920E-02 0.  1.
    10030    2    1    2    0    0  0.00000000000E+00  0.00000000000E+00  0.11001852539E+04  0.42942617475E+04  0.41509368055E+04 0.  0.
        4    1    3    3  502    0 -0.88096203189E+03  0.17259845348E+04 -0.21884157593E+03  0.19501307557E+04  0.12699999809E+01 0.  1.
       -4    1    3    3    0  502  0.88096203189E+03 -0.17259845348E+04  0.13190268298E+04  0.23441309918E+04  0.12699999809E+01 0. -1.
</event>
<event>
 5   0  0.1015219E-06  0.2676035E+04  0.7818609E-02  0.8342823E-01
       -2   -1    0    0    0  501  0.00000000000E+00  0.00000000000E+00  0.22556669595E+04  0.22556669595E+04  0.25500000920E-02 0. -1.
        2   -1    0    0  501    0  0.00000000000E+00  0.00000000000E+00 -0.79368580922E+03  0.79368580923E+03  0.25500000920E-02 0.  1.
    10030    2    1    2    0    0  0.00000000000E+00  0.00000000000E+00  0.14619811503E+04  0.30493527688E+04  0.26760350193E+04 0.  0.
        3    1    3    3  502    0 -0.79423038288E+03  0.55545390109E+03  0.17821544487E+04  0.20286462054E+04  0.10100000352E+00 0. -1.
       -3    1    3    3    0  502  0.79423038288E+03 -0.55545390109E+03 -0.32017329840E+03  0.10207065634E+04  0.10100000352E+00 0.  1.
</event>
<event>
 5   0  0.1035864E-06  0.3998078E+04  0.7818609E-02  0.8004934E-01
        2   -1    0    0  501    0  0.00000000000E+00  0.00000000000E+00  0.24194288827E+04  0.24194288827E+04  0.25500000920E-02 0. -1.
       -2   -1    0    0    0  501  0.00000000000E+00  0.00000000000E+00 -0.16516946770E+04  0.16516946770E+04  0.25500000920E-02 0.  1.
    10030    2    1    2    0    0  0.00000000000E+00  0.00000000000E+00  0.76773420564E+03  0.40711235597E+04  0.39980784419E+04 0.  0.
        5    1    3    3  502    0 -0.60396898008E+02  0.18011052843E+04  0.12648370737E+04  0.22016954702E+04  0.46999998093E+01 0. -1.
       -5    1    3    3    0  502  0.60396898008E+02 -0.18011052843E+04 -0.49710286803E+03  0.18694280895E+04  0.46999998093E+01 0.  1.
</event>
<event>
 5   0  0.5385714E-07  0.3784564E+04  0.7818609E-02  0.8049476E-01
        1   -1    0    0  501    0  0.00000000000E+00  0.00000000000E+00  0.19047872632E+04  0.19047872632E+04  0.50400001928E-02 0. -1.
       -1   -1    0    0    0  501  0.00000000000E+00  0.00000000000E+00 -0.18798584973E+04  0.18798584973E+04  0.50400001928E-02 0.  1.
    10030    2    1    2    0    0  0.00000000000E+00  0.00000000000E+00  0.24928765922E+02  0.37846457606E+04  0.37845636591E+04 0.  0.
        3    1    3    3  502    0 -0.11820889361E+04  0.88316312545E+03  0.11971500142E+04  0.19001261868E+04  0.10100000352E+00 0. -1.
       -3    1    3    3    0  502  0.11820889361E+04 -0.88316312545E+03 -0.11722212482E+04  0.18845195738E+04  0.10100000352E+00 0.  1.
</event>
<event>
 5   0  0.1034683E-06  0.3829494E+04  0.7818609E-02  0.8039855E-01
        2   -1    0    0  501    0  0.00000000000E+00  0.00000000000E+00  0.21683966481E+04  0.21683966481E+04  0.25500000920E-02 0. -1.
       -2   -1    0    0    0  501  0.00000000000E+00  0.00000000000E+00 -0.16907683548E+04  0.16907683548E+04  0.25500000920E-02 0.  1.
    10030    2    1    2    0    0  0.00000000000E+00  0.00000000000E+00  0.47762829330E+03  0.38591650030E+04  0.38294941877E+04 0.  0.
        2    1    3    3  502    0 -0.14774351701E+03  0.60230418245E+03  0.20643845645E+04  0.21555236266E+04  0.25500000920E-02 0. -1.
       -2    1    3    3    0  502  0.14774351701E+03 -0.60230418245E+03 -0.15867562712E+04  0.17036413763E+04  0.25500000920E-02 0.  1.
</event>
<event>
 5   0  0.9408245E-07  0.2006029E+04  0.7818609E-02  0.8603807E-01
        2   -1    0    0  501    0  0.00000000000E+00  0.00000000000E+00  0.10333504024E+04  0.10333504024E+04  0.25500000920E-02 0.  1.
       -2   -1    0    0    0  501  0.00000000000E+00  0.00000000000E+00 -0.97356908783E+03  0.97356908783E+03  0.25500000920E-02 0. -1.
    10030    2    1    2    0    0  0.00000000000E+00  0.00000000000E+00  0.59781314532E+02  0.20069194902E+04  0.20060289217E+04 0.  0.
        4    1    3    3  502    0 -0.65414792238E+03  0.89826810104E+02 -0.72546640923E+03  0.98095947112E+03  0.12699999809E+01 0. -1.
       -4    1    3    3    0  502  0.65414792238E+03 -0.89826810104E+02  0.78524772376E+03  0.10259600191E+04  0.12699999809E+01 0.  1.
</event>
<event>
 5   0  0.3977376E-07  0.3801666E+04  0.7818609E-02  0.8045797E-01
       -1   -1    0    0    0  501  0.00000000000E+00  0.00000000000E+00  0.19370103874E+04  0.19370103874E+04  0.50400001928E-02 0.  1.
        1   -1    0    0  501    0  0.00000000000E+00  0.00000000000E+00 -0.18653313843E+04  0.18653313843E+04  0.50400001928E-02 0. -1.
    10030    2    1    2    0    0  0.00000000000E+00  0.00000000000E+00  0.71679003138E+02  0.38023417718E+04  0.38016660913E+04 0.  0.
        4    1    3    3  502    0 -0.20997764795E+03  0.14407683151E+03 -0.18481926967E+04  0.18656544705E+04  0.12699999809E+01 0. -1.
       -4    1    3    3    0  502  0.20997764795E+03 -0.14407683151E+03  0.19198716999E+04  0.19366873013E+04  0.12699999809E+01 0.  1.
</event>
<event>
 5   0  0.3977376E-07  0.3216041E+04  0.7818609E-02  0.8184594E-01
       -1   -1    0    0    0  501  0.00000000000E+00  0.00000000000E+00  0.13153578558E+04  0.13153578558E+04  0.50400001928E-02 0. -1.
        1   -1    0    0  501    0  0.00000000000E+00  0.00000000000E+00 -0.19657993971E+04  0.19657993971E+04  0.50400001928E-02 0.  1.
    10030    2    1    2    0    0  0.00000000000E+00  0.00000000000E+00 -0.65044154127E+03  0.32811572529E+04  0.32160408454E+04 0.  0.
        4    1    3    3  502    0 -0.94862478071E+03 -0.12790131793E+04 -0.55327374374E+03  0.16857868002E+04  0.12699999809E+01 0.  1.
       -4    1    3    3    0  502  0.94862478071E+03  0.12790131793E+04 -0.97167797530E+02  0.15953704527E+04  0.12699999809E+01 0. -1.
</event>
<event>
 5   0  0.5533705E-07  0.3760521E+04  0.7818609E-02  0.8054681E-01
       -2   -1    0    0    0  501  0.00000000000E+00  0.00000000000E+00  0.17605599287E+04  0.17605599287E+04  0.25500000920E-02 0.  1.
        2   -1    0    0  501    0  0.00000000000E+00  0.00000000000E+00 -0.20080991170E+04  0.20080991170E+04  0.25500000920E-02 0. -1.
    10030    2    1    2    0    0  0.00000000000E+00  0.00000000000E+00 -0.24753918828E+03  0.37686590457E+04  0.37605206226E+04 0.  0.
        1    1    3    3  502    0  0.13795985178E+04 -0.11622535653E+04  0.40771144800E+03  0.18494199213E+04  0.50400001928E-02 0.  1.
       -1    1    3    3    0  502 -0.13795985178E+04  0.11622535653E+04 -0.65525063628E+03  0.19192391244E+04  0.50400001928E-02 0. -1.
</event>
<event>
 5   0  0.3977376E-07  0.3984918E+04  0.7818609E-02  0.8007596E-01
        1   -1    0    0  501    0  0.00000000000E+00  0.00000000000E+00  0.15773680106E+04  0.15773680106E+04  0.50400001928E-02 0. -1.
       -1   -1    0    0    0  501  0.00000000000E+00  0.00000000000E+00 -0.25167825461E+04  0.25167825461E+04  0.50400001928E-02 0.  1.
    10030    2    1    2    0    0  0.00000000000E+00  0.00000000000E+00 -0.93941453551E+03  0.40941505567E+04  0.39849177044E+04 0.  0.
        4    1    3    3  502    0 -0.90571042763E+03  0.17318189638E+04 -0.71285640858E+02  0.19556562984E+04  0.12699999809E+01 0.  1.
       -4    1    3    3    0  502  0.90571042763E+03 -0.17318189638E+04 -0.86812889466E+03  0.21384942583E+04  0.12699999809E+01 0. -1.
</event>
<event>
 5   0  0.4627905E-07  0.2418670E+04  0.7818609E-02  0.8432547E-01
        1   -1    0    0  501    0  0.00000000000E+00  0.00000000000E+00  0.12092055512E+04  0.12092055513E+04  0.50400001928E-02 0.  1.
       -1   -1    0    0    0  501  0.00000000000E+00  0.00000000000E+00 -0.12094641118E+04  0.12094641119E+04  0.50400001928E-02 0. -1.
    10030    2    1    2    0    0  0.00000000000E+00  0.00000000000E+00 -0.25856059529E+00  0.24186696631E+04  0.24186696493E+04 0.  0.
        1    1    3    3  502    0 -0.12402636526E+03 -0.11903130854E+04 -0.17409174160E+03  0.12093534285E+04  0.50400001928E-02 0.  1.
       -1    1    3    3    0  502  0.12402636526E+03  0.11903130854E+04  0.17383318100E+03  0.12093162346E+04  0.50400001928E-02 0. -1.
</event>
<event>
 5   0  0.4627905E-07  0.3847462E+04  0.7818609E-02  0.8036046E-01
        1   -1    0    0  501    0  0.00000000000E+00  0.00000000000E+00  0.14019819391E+04  0.14019819391E+04  0.50400001928E-02 0. -1.
       -1   -1    0    0    0  501  0.00000000000E+00  0.00000000000E+00 -0.26396501384E+04  0.26396501384E+04  0.50400001928E-02 0.  1.
    10030    2    1    2    0    0  0.00000000000E+00  0.00000000000E+00 -0.12376681993E+04  0.40416320775E+04  0.38474624466E+04 0.  0.
        1    1    3    3  502    0 -0.35194862535E+03  0.16179077715E+04  0.41000612172E+03  0.17057544993E+04  0.50400001928E-02 0. -1.
       -1    1    3    3    0  502  0.35194862535E+03 -0.16179077715E+04 -0.16476743210E+04  0.23358775782E+04  0.50400001928E-02 0.  1.
</event>
<event>
 5   0  0.5385714E-07  0.3863221E+04  0.7818609E-02  0.8032722E-01
       -1   -1    0    0    0  501  0.00000000000E+00  0.00000000000E+00  0.15884386473E+04  0.15884386473E+04  0.50400001928E-02 0. -1.
        1   -1    0    0  501    0  0.00000000000E+00  0.00000000000E+00 -0.23489219038E+04  0.23489219038E+04  0.50400001928E-02 0.  1.
    10030    2    1    2    0    0  0.00000000000E+00  0.00000000000E+00 -0.76048325641E+03  0.39373605511E+04  0.38632205899E+04 0.  0.
        3    1    3    3  502    0  0.15369836425E+03 -0.18816900996E+04  0.35929861871E+02  0.18882986478E+04  0.10100000352E+00 0. -1.
       -3    1    3    3    0  502 -0.15369836425E+03  0.18816900996E+04 -0.79641311829E+03  0.20490619033E+04  0.10100000352E+00 0.  1.
</event>
<event>
 5   0  0.1015219E-06  0.2442453E+04  0.7818609E-02  0.8423778E-01
        2   -1    0    0  501    0  0.00000000000E+00  0.00000000000E+00  0.18407304891E+04  0.18407304891E+04  0.25500000920E-02 0. -1.
       -2   -1    0    0    0  501  0.00000000000E+00  0.00000000000E+00 -0.81021892486E+03  0.81021892487E+03  0.25500000920E-02 0.  1.
    10030    2    1    2    0    0  0.00000000000E+00  0.00000000000E+00  0.10305115642E+04  0.26509494140E+04  0.24424534205E+04 0.  0.
        3    1    3    3  502    0  0.11813065702E+04 -0.16105915398E+03  0.22815839690E+03  0.12138704742E+04  0.10100000352E+00 0. -1.
       -3    1    3    3    0  502 -0.11813065702E+04  0.16105915398E+03  0.80235316733E+03  0.14370789398E+04  0.10100000352E+00 0.  1.
</event>
<event>
 5   0  0.4316671E-07  0.3943572E+04  0.7818609E-02  0.8016028E-01
       -1   -1    0    0    0  501  0.00000000000E+00  0.00000000000E+00  0.22830466526E+04  0.22830466526E+04  0.50400001928E-02 0. -1.
        1   -1    0    0  501    0  0.00000000000E+00  0.00000000000E+00 -0.17029615851E+04  0.17029615851E+04  0.50400001928E-02 0.  1.
    10030    2    1    2    0    0  0.00000000000E+00  0.00000000000E+00  0.58008506752E+03  0.39860082376E+04  0.39435723634E+04 0.  0.
        2    1    3    3  502    0  0.11204318551E+04  0.18573077846E+03 -0.13391574992E+04  0.17559061113E+04  0.25500000920E-02 0.  1.
       -2    1    3    3    0  502 -0.11204318551E+04 -0.18573077846E+03  0.19192425667E+04  0.22301021263E+04  0.25500000920E-02 0. -1.
</event>
<event>
 5   0  0.3977376E-07  0.2002556E+04  0.7818609E-02  0.8605427E-01
        1   -1    0    0  501    0  0.00000000000E+00  0.00000000000E+00  0.13032935047E+04  0.13032935047E+04  0.50400001928E-02 0. -1.
       -1   -1    0    0    0  501  0.00000000000E+00  0.00000000000E+00 -0.76924940484E+03  0.76924940486E+03  0.50400001928E-02 0.  1.
    10030    2    1    2    0    0  0.00000000000E+00  0.00000000000E+00  0.53404409982E+03  0.20725429095E+04  0.20025561194E+04 0.  0.
        4    1    3    3  502    0  0.76101983242E+03  0.57305268988E+03 -0.51996710020E+02  0.95406804865E+03  0.12699999809E+01 0.  1.
       -4    1    3    3    0  502 -0.76101983242E+03 -0.57305268988E+03  0.58604080984E+03  0.11184748609E+04  0.12699999809E+01 0. -1.
</event>
<event>
 5   0  0.4627905E-07  0.2269538E+04  0.7818609E-02  0.8490029E-01
        1   -1    0    0  501    0  0.00000000000E+00  0.00000000000E+00  0.19083741398E+04  0.19083741398E+04  0.50400001928E-02 0. -1.
       -1   -1    0    0    0  501  0.00000000000E+00  0.00000000000E+00 -0.67476346130E+03  0.67476346132E+03  0.50400001928E-02 0.  1.
    10030    2    1    2    0    0  0.00000000000E+00  0.00000000000E+00  0.12336106785E+04  0.25831376012E+04  0.22695384025E+04 0.  0.
        1    1    3    3  502    0  0.14726565462E+03 -0.39464831172E+03  0.18160938086E+04  0.18643044774E+04  0.50400001928E-02 0. -1.
       -1    1    3    3    0  502 -0.14726565462E+03  0.39464831172E+03 -0.58248313004E+03  0.71883312373E+03  0.50400001928E-02 0.  1.
</event>
<event>
 5   0  0.1015219E-06  0.2795475E+04  0.7818609E-02  0.8304674E-01
       -2   -1    0    0    0  501  0.00000000000E+00  0.00000000000E+00  0.14565988795E+04  0.14565988795E+04  0.25500000920E-02 0.  1.
        2   -1    0    0  501    0  0.00000000000E+00  0.00000000000E+00 -0.13412550544E+04  0.13412550545E+04  0.25500000920E-02 0. -1.
    10030    2    1    2    0    0  0.00000000000E+00  0.00000000000E+00  0.11534382509E+03  0.27978539340E+04  0.27954753510E+04 0.  0.
        3    1    3    3  502    0  0.11443960835E+04  0.53627320816E+03 -0.53986141184E+03  0.13742931652E+04  0.10100000352E+00 0. -1.
       -3    1    3    3    0  502 -0.11443960835E+04 -0.53627320816E+03  0.65520523693E+03  0.14235607688E+04  0.10100000352E+00 0.  1.
</event>
<event>
 5   0  0.7268013E-07  0.3878244E+04  0.7818609E-02  0.8029569E-01
        2   -1    0    0  501    0  0.00000000000E+00  0.00000000000E+00  0.25722872116E+04  0.25722872116E+04  0.25500000920E-02 0. -1.
       -2   -1    0    0    0  501  0.00000000000E+00  0.00000000000E+00 -0.14618096736E+04  0.14618096737E+04  0.25500000920E-02 0.  1.
    10030    2    1    2    0    0  0.00000000000E+00  0.00000000000E+00  0.11104775379E+04  0.40340968852E+04  0.38782441023E+04 0.  0.
        4    1    3    3  502    0  0.85520662329E+03  0.16862375035E+04  0.10031443373E+04  0.21403447062E+04  0.12699999809E+01 0. -1.
       -4    1    3    3    0  502 -0.85520662329E+03 -0.16862375035E+04  0.10733320062E+03  0.18937521791E+04  0.12699999809E+01 0.  1.
</event>
<event>
 5   0  0.3471602E-07  0.4127131E+04  0.7818609E-02  0.7979380E-01
        1   -1    0    0  501    0  0.00000000000E+00  0.00000000000E+00  0.13789738424E+04  0.13789738424E+04  0.50400001928E-02 0.  1.
       -1   -1    0    0    0  501  0.00000000000E+00  0.00000000000E+00 -0.30880230792E+04  0.30880230792E+04  0.50400001928E-02 0. -1.
    10030    2    1    2    0    0  0.00000000000E+00  0.00000000000E+00 -0.17090492368E+04  0.44669969217E+04  0.41271312318E+04 0.  0.
        5    1    3    3  502    0 -0.72338927615E+03 -0.81533489284E+03 -0.27510208165E+04  0.29590878079E+04  0.46999998093E+01 0. -1.
       -5    1    3    3    0  502  0.72338927615E+03  0.81533489284E+03  0.10419715797E+04  0.15079091137E+04  0.46999998093E+01 0.  1.
</event>
<event>
 5   0  0.7268013E-07  0.3892846E+04  0.7818609E-02  0.8026519E-01
       -2   -1    0    0    0  501  0.00000000000E+00  0.00000000000E+00  0.21310352603E+04  0.21310352603E+04  0.25500000920E-02 0.  1.
        2   -1    0    0  501    0  0.00000000000E+00  0.00000000000E+00 -0.17778041061E+04  0.17778041061E+04  0.25500000920E-02 0. -1.
    10030    2    1    2    0    0  0.00000000000E+00  0.00000000000E+00  0.35323115413E+03  0.39088393664E+04  0.38928463808E+04 0.  0.
        4    1    3    3  502    0  0.20581404084E+03  0.19315282640E+04  0.30122525207E+03  0.19656803197E+04  0.12699999809E+01 0. -1.
       -4    1    3    3    0  502 -0.20581404084E+03 -0.19315282640E+04  0.52005902061E+02  0.19431590467E+04  0.12699999809E+01 0.  1.
</event>
<event>
 5   0  0.5385714E-07  0.2105233E+04  0.7818609E-02  0.8558942E-01
       -1   -1    0    0    0  501  0.00000000000E+00  0.00000000000E+00  0.52651253946E+03  0.52651253949E+03  0.50400001928E-02 0.  1.
        1   -1    0    0  501    0  0.00000000000E+00  0.00000000000E+00 -0.21044158163E+04  0.21044158163E+04  0.50400001928E-02 0. -1.
    10030    2    1    2    0    0  0.00000000000E+00  0.00000000000E+00 -0.15779032769E+04  0.26309283558E+04  0.21052328285E+04 0.  0.
        3    1    3    3  502    0 -0.99281151584E+03  0.21987115565E+03 -0.44903246493E+03  0.11115971374E+04  0.10100000352E+00 0.  1.
       -3    1    3    3    0  502  0.99281151584E+03 -0.21987115565E+03 -0.11288708119E+04  0.15193312184E+04  0.10100000352E+00 0. -1.
</event>
<event>
 5   0  0.1034683E-06  0.3621773E+04  0.7818609E-02  0.8085522E-01
       -2   -1    0    0    0  501  0.00000000000E+00  0.00000000000E+00  0.18572637319E+04  0.18572637319E+04  0.25500000920E-02 0. -1.
        2   -1    0    0  501    0  0.00000000000E+00  0.00000000000E+00 -0.17656678086E+04  0.17656678086E+04  0.25500000920E-02 0.  1.
    10030    2    1    2    0    0  0.00000000000E+00  0.00000000000E+00  0.91595923353E+02  0.36229315405E+04  0.36217734791E+04 0.  0.
        2    1    3    3  502    0  0.12157877528E+03  0.16692502874E+04 -0.64589465603E+03  0.17939782126E+04  0.25500000920E-02 0. -1.
       -2    1    3    3    0  502 -0.12157877528E+03 -0.16692502874E+04  0.73749057938E+03  0.18289533278E+04  0.25500000920E-02 0.  1.
</event>
<event>
 5   0  0.5533705E-07  0.3868206E+04  0.7818609E-02  0.8031674E-01
        2   -1    0    0  501    0  0.00000000000E+00  0.00000000000E+00  0.16901767553E+04  0.16901767553E+04  0.25500000920E-02 0.  1.
       -2   -1    0    0    0  501  0.00000000000E+00  0.00000000000E+00 -0.22132325426E+04  0.22132325426E+04  0.25500000920E-02 0. -1.
    10030    2    1    2    0    0  0.00000000000E+00  0.00000000000E+00 -0.52305578730E+03  0.39034092979E+04  0.38682058877E+04 0.  0.
        1    1    3    3  502    0  0.93383060273E+03  0.51384511864E+03 -0.18901169594E+04  0.21699351421E+04  0.50400001928E-02 0. -1.
       -1    1    3    3    0  502 -0.93383060273E+03 -0.51384511864E+03  0.13670611721E+04  0.17334741558E+04  0.50400001928E-02 0.  1.
</event>
<event>
 5   0  0.7806088E-07  0.2043111E+04  0.7818609E-02  0.8586726E-01
       -1   -1    0    0    0  501  0.00000000000E+00  0.00000000000E+00  0.95808734980E+03  0.95808734982E+03  0.50400001928E-02 0.  1.
        1   -1    0    0  501    0  0.00000000000E+00  0.00000000000E+00 -0.10892285226E+04  0.10892285226E+04  0.50400001928E-02 0. -1.
    10030    2    1    2    0    0  0.00000000000E+00  0.00000000000E+00 -0.13114117283E+03  0.20473158725E+04  0.20431114200E+04 0.  0.
        2    1    3    3  502    0 -0.52042123051E+03  0.33906889483E+03  0.74712867461E+03  0.97160034430E+03  0.25500000920E-02 0.  1.
       -2    1    3    3    0  502  0.52042123051E+03 -0.33906889483E+03 -0.87826984744E+03  0.10757155282E+04  0.25500000920E-02 0. -1.
</event>
<event>
 5   0  0.5533705E-07  0.3886716E+04  0.7818609E-02  0.8027798E-01
       -2   -1    0    0    0  501  0.00000000000E+00  0.00000000000E+00  0.14586643333E+04  0.14586643333E+04  0.25500000920E-02 0.  1.
        2   -1    0    0  501    0  0.00000000000E+00  0.00000000000E+00 -0.25891085733E+04  0.25891085733E+04  0.25500000920E-02 0. -1.
    10030    2    1    2    0    0  0.00000000000E+00  0.00000000000E+00 -0.11304442401E+04  0.40477729066E+04  0.38867160076E+04 0.  0.
        1    1    3    3  502    0  0.26244863184E+03  0.11733160121E+04 -0.21552798962E+04  0.24679508057E+04  0.50400001928E-02 0. -1.
       -1    1    3    3    0  502 -0.26244863184E+03 -0.11733160121E+04  0.10248356561E+04  0.15798221009E+04  0.50400001928E-02 0.  1.
</event>
<event>
 5   0  0.1035864E-06  0.2311955E+04  0.7818609E-02  0.8473222E-01
        2   -1    0    0  501    0  0.00000000000E+00  0.00000000000E+00  0.13391105024E+04  0.13391105024E+04  0.25500000920E-02 0.  1.
       -2   -1    0    0    0  501  0.00000000000E+00  0.00000000000E+00 -0.99788886460E+03  0.99788886461E+03  0.25500000920E-02 0. -1.
    10030    2    1    2    0    0  0.00000000000E+00  0.00000000000E+00  0.34122163779E+03  0.23369993670E+04  0.23119545487E+04 0.  0.
        5    1    3    3  502    0  0.23349575811E+03  0.95673541197E+03 -0.44125489418E+03  0.10791621237E+04  0.46999998093E+01 0. -1.
       -5    1    3    3    0  502 -0.23349575811E+03 -0.95673541197E+03  0.78247653196E+03  0.12578372433E+04  0.46999998093E+01 0.  1.
</event>
<event>
 5   0  0.7268013E-07  0.3963938E+04  0.7818609E-02  0.8011861E-01
       -2   -1    0    0    0  501  0.00000000000E+00  0.00000000000E+00  0.14899669711E+04  0.14899669711E+04  0.25500000920E-02 0.  1.
        2   -1    0    0  501    0  0.00000000000E+00  0.00000000000E+00 -0.26364354012E+04  0.26364354012E+04  0.25500000920E-02 0. -1.
    10030    2    1    2    0    0  0.00000000000E+00  0.00000000000E+00 -0.11464684301E+04  0.41264023722E+04  0.39639382786E+04 0.  0.
        4    1    3    3  502    0 -0.12202788810E+04 -0.11409279623E+04  0.53696740131E+03  0.17547457837E+04  0.12699999809E+01 0.  1.
       -4    1    3    3    0  502  0.12202788810E+04  0.11409279623E+04 -0.16834358314E+04  0.23716565885E+04  0.12699999809E+01 0. -1.
</event>
<event>
 5   0  0.5533705E-07  0.2328040E+04  0.7818609E-02  0.8466947E-01
        2   -1    0    0  501    0  0.00000000000E+00  0.00000000000E+00  0.13380767834E+04  0.13380767834E+04  0.25500000920E-02 0. -1.
       -2   -1    0    0    0  501  0.00000000000E+00  0.00000000000E+00 -0.10126040834E+04  0.10126040834E+04  0.25500000920E-02 0.  1.
    10030    2    1    2    0    0  0.00000000000E+00  0.00000000000E+00  0.32547270000E+03  0.23506808668E+04  0.23280395313E+04 0.  0.
        1    1    3    3  502    0 -0.79978262338E+03  0.70726251959E+03  0.63100246591E+03  0.12401760473E+04  0.50400001928E-02 0. -1.
       -1    1    3    3    0  502  0.79978262338E+03 -0.70726251959E+03 -0.30552976591E+03  0.11105048195E+04  0.50400001928E-02 0.  1.
</event>
<event>
 5   0  0.1035864E-06  0.3769353E+04  0.7818609E-02  0.8052764E-01
        2   -1    0    0  501    0  0.00000000000E+00  0.00000000000E+00  0.14535846309E+04  0.14535846309E+04  0.25500000920E-02 0. -1.
       -2   -1    0    0    0  501  0.00000000000E+00  0.00000000000E+00 -0.24436184428E+04  0.24436184428E+04  0.25500000920E-02 0.  1.
    10030    2    1    2    0    0  0.00000000000E+00  0.00000000000E+00 -0.99003381191E+03  0.38972030736E+04  0.37693533727E+04 0.  0.
        5    1    3    3  502    0  0.59532315671E+03 -0.17425523286E+04 -0.90998515651E+03  0.20540188300E+04  0.46999998093E+01 0.  1.
       -5    1    3    3    0  502 -0.59532315671E+03  0.17425523286E+04 -0.80048655397E+02  0.18431842436E+04  0.46999998093E+01 0. -1.
</event>
<event>
 5   0  0.3977376E-07  0.2840793E+04  0.7818609E-02  0.8290714E-01
       -1   -1    0    0    0  501  0.00000000000E+00  0.00000000000E+00  0.10257393803E+04  0.10257393803E+04  0.50400001928E-02 0. -1.
        1   -1    0    0  501    0  0.00000000000E+00  0.00000000000E+00 -0.19668996099E+04  0.19668996099E+04  0.50400001928E-02 0.  1.
    10030    2    1    2    0    0  0.00000000000E+00  0.00000000000E+00 -0.94116022963E+03  0.29926389903E+04  0.28407931196E+04 0.  0.
        4    1    3    3  502    0 -0.19920462623E+03 -0.14050655112E+04 -0.53407801820E+03  0.15162890610E+04  0.12699999809E+01 0. -1.
       -4    1    3    3    0  502  0.19920462623E+03  0.14050655112E+04 -0.40708221144E+03  0.14763499293E+04  0.12699999809E+01 0.  1.
</event>
<event>
 5   0  0.5385714E-07  0.3122184E+04  0.7818609E-02  0.8209676E-01
        1   -1    0    0  501    0  0.00000000000E+00  0.00000000000E+00  0.14744984660E+04  0.14744984660E+04  0.50400001928E-02 0.  1.
       -1   -1    0    0    0  501  0.00000000000E+00  0.00000000000E+00 -0.16527706382E+04  0.16527706382E+04  0.50400001928E-02 0. -1.
    10030    2    1    2    0    0  0.00000000000E+00  0.00000000000E+00 -0.17827217219E+03  0.31272691042E+04  0.31221837042E+04 0.  0.
        3    1    3    3  502    0 -0.14996360325E+04 -0.25039010145E+03  0.26556544523E+03  0.15434145421E+04  0.10100000352E+00 0.  1.
       -3    1    3    3    0  502  0.14996360325E+04  0.25039010145E+03 -0.44383761742E+03  0.15838545621E+04  0.10100000352E+00 0. -1.
</event>
<event>
 5   0  0.5385714E-07  0.3843903E+04  0.7818609E-02  0.8036798E-01
        1   -1    0    0  501    0  0.00000000000E+00  0.00000000000E+00  0.24573161410E+04  0.24573161410E+04  0.50400001928E-02 0.  1.
       -1   -1    0    0    0  501  0.00000000000E+00  0.00000000000E+00 -0.15032247243E+04  0.15032247243E+04  0.50400001928E-02 0. -1.
    10030    2    1    2    0    0  0.00000000000E+00  0.00000000000E+00  0.95409141667E+03  0.39605408653E+04  0.38439034216E+04 0.  0.
        3    1    3    3  502    0 -0.29284374992E+03 -0.16971098274E+04  0.13561401478E+04  0.21920436444E+04  0.10100000352E+00 0.  1.
       -3    1    3    3    0  502  0.29284374992E+03  0.16971098274E+04 -0.40204873108E+03  0.17684972210E+04  0.10100000352E+00 0. -1.
</event>
<event>
 5   0  0.5533705E-07  0.3628545E+04  0.7818609E-02  0.8083984E-01
       -2   -1    0    0    0  501  0.00000000000E+00  0.00000000000E+00  0.15732563588E+04  0.15732563588E+04  0.25500000920E-02 0.  1.
        2   -1    0    0  501    0  0.00000000000E+00  0.00000000000E+00 -0.20922110619E+04  0.20922110619E+04  0.25500000920E-02 0. -1.
    10030    2    1    2    0    0  0.00000000000E+00  0.00000000000E+00 -0.51895470311E+03  0.36654674208E+04  0.36285448087E+04 0.  0.
        1    1    3    3  502    0 -0.52711916629E+03  0.13874287409E+04  0.79458230574E+03  0.16835005694E+04  0.50400001928E-02 0.  1.
       -1    1    3    3    0  502  0.52711916629E+03 -0.13874287409E+04 -0.13135370088E+04  0.19819668514E+04  0.50400001928E-02 0. -1.
</event>
<event>
 5   0  0.1015219E-06  0.3808706E+04  0.7818609E-02  0.8044289E-01
        2   -1    0    0  501    0  0.00000000000E+00  0.00000000000E+00  0.12628629684E+04  0.12628629684E+04  0.25500000920E-02 0. -1.
       -2   -1    0    0    0  501  0.00000000000E+00  0.00000000000E+00 -0.28716969034E+04  0.28716969034E+04  0.25500000920E-02 0.  1.
    10030    2    1    2    0    0  0.00000000000E+00  0.00000000000E+00 -0.16088339350E+04  0.41345598717E+04  0.38087056466E+04 0.  0.
        3    1    3    3  502    0  0.15914768533E+04 -0.30368571808E+03  0.28197156843E+03  0.16445460059E+04  0.10100000352E+00 0. -1.
       -3    1    3    3    0  502 -0.15914768533E+04  0.30368571808E+03 -0.18908055034E+04  0.24900138658E+04  0.10100000352E+00 0.  1.
</event>
<event>
 5   0  0.1034683E-06  0.3983105E+04  0.7818609E-02  0.8007963E-01
        2   -1    0    0  501    0  0.00000000000E+00  0.00000000000E+00  0.16155416328E+04  0.16155416328E+04  0.25500000920E-02 0. -1.
       -2   -1    0    0    0  501  0.00000000000E+00  0.00000000000E+00 -0.24550784033E+04  0.24550784033E+04  0.25500000920E-02 0.  1.
    10030    2    1    2    0    0  0.00000000000E+00  0.00000000000E+00 -0.83953677056E+03  0.40706200361E+04  0.39831050061E+04 0.  0.
        2    1    3    3  502    0 -0.79516043354E+03  0.82156322357E+03  0.12467144600E+04  0.16916096447E+04  0.25500000920E-02 0. -1.
       -2    1    3    3    0  502  0.79516043354E+03 -0.82156322357E+03 -0.20862512305E+04  0.23790103914E+04  0.25500000920E-02 0.  1.
</event>
<event>
 5   0  0.4627905E-07  0.3104494E+04  0.7818609E-02  0.8214506E-01
        1   -1    0    0  501    0  0.00000000000E+00  0.00000000000E+00  0.21953274199E+04  0.21953274199E+04  0.50400001928E-02 0. -1.
       -1   -1    0    0    0  501  0.00000000000E+00  0.00000000000E+00 -0.10975449839E+04  0.10975449840E+04  0.50400001928E-02 0.  1.
    10030    2    1    2    0    0  0.00000000000E+00  0.00000000000E+00  0.10977824360E+04  0.32928724039E+04  0.31044939026E+04 0.  0.
        1    1    3    3  502    0 -0.12609199456E+04  0.90240710944E+03  0.47230975149E+03  0.16209053649E+04  0.50400001928E-02 0.  1.
       -1    1    3    3    0  502  0.12609199456E+04 -0.90240710944E+03  0.62547268448E+03  0.16719670390E+04  0.50400001928E-02 0. -1.
</event>
<event>
 5   0  0.1034683E-06  0.3639814E+04  0.7818609E-02  0.8081432E-01
        2   -1    0    0  501    0  0.00000000000E+00  0.00000000000E+00  0.26849090830E+04  0.26849090830E+04  0.25500000920E-02 0. -1.
       -2   -1    0    0    0  501  0.00000000000E+00  0.00000000000E+00 -0.12335842638E+04  0.12335842638E+04  0.25500000920E-02 0.  1.
    10030    2    1    2    0    0  0.00000000000E+00  0.00000000000E+00  0.14513248192E+04  0.39184933468E+04  0.36398140582E+04 0.  0.
        2    1    3    3  502    0  0.19945927452E+03  0.12398927370E+04  0.21436831904E+04  0.24844507688E+04  0.25500000920E-02 0. -1.
       -2    1    3    3    0  502 -0.19945927452E+03 -0.12398927370E+04 -0.69235837124E+03  0.14340425781E+04  0.25500000920E-02 0.  1.
</event>
<event>
 5   0  0.4627905E-07  0.3385202E+04  0.7818609E-02  0.8141548E-01
        1   -1    0    0  501    0  0.00000000000E+00  0.00000000000E+00  0.24101927283E+04  0.24101927283E+04  0.50400001928E-02 0. -1.
       -1   -1    0    0    0  501  0.00000000000E+00  0.00000000000E+00 -0.11886596857E+04  0.11886596857E+04  0.50400001928E-02 0.  1.
    10030    2    1    2    0    0  0.00000000000E+00  0.00000000000E+00  0.12215330426E+04  0.35988524140E+04  0.33852024642E+04 0.  0.
        1    1    3    3  502    0  0.31298840933E+03  0.42173777761E+03  0.23213790822E+04  0.23800473401E+04  0.50400001928E-02 0. -1.
       -1    1    3    3    0  502 -0.31298840933E+03 -0.42173777761E+03 -0.10998460396E+04  0.12188050740E+04  0.50400001928E-02 0.  1.
</event>
<event>
 5   0  0.3471602E-07  0.2153954E+04  0.7818609E-02  0.8537842E-01
       -1   -1    0    0    0  501  0.00000000000E+00  0.00000000000E+00  0.14164046166E+04  0.14164046166E+04  0.50400001928E-02 0. -1.
        1   -1    0    0  501    0  0.00000000000E+00  0.00000000000E+00 -0.81888972161E+03  0.81888972162E+03  0.50400001928E-02 0.  1.
    10030    2    1    2    0    0  0.00000000000E+00  0.00000000000E+00  0.59751489496E+03  0.22352943382E+04  0.21539537434E+04 0.  0.
        5    1    3    3  502    0 -0.21638449641E+03  0.79255601910E+03  0.10213939065E+04  0.13108145925E+04  0.46999998093E+01 0. -1.
       -5    1    3    3    0  502  0.21638449641E+03 -0.79255601910E+03 -0.42387901157E+03  0.92447974567E+03  0.46999998093E+01 0.  1.
</event>
<event>
 5   0  0.7268013E-07  0.4017079E+04  0.7818609E-02  0.8001110E-01
        2   -1    0    0  501    0  0.00000000000E+00  0.00000000000E+00  0.31240081094E+04  0.31240081094E+04  0.25500000920E-02 0. -1.
       -2   -1    0    0    0  501  0.00000000000E+00  0.00000000000E+00 -0.12913640755E+04  0.12913640755E+04  0.25500000920E-02 0.  1.
    10030    2    1    2    0    0  0.00000000000E+00  0.00000000000E+00  0.18326440339E+04  0.44153721849E+04  0.40170794586E+04 0.  0.
        4    1    3    3  502    0 -0.67205044798E+03  0.18646600785E+04  0.55910471857E+03  0.20594195085E+04  0.12699999809E+01 0.  1.
       -4    1    3    3    0  502  0.67205044798E+03 -0.18646600785E+04  0.12735393153E+04  0.23559526764E+04  0.12699999809E+01 0. -1.
</event>
<event>
 5   0  0.4627905E-07  0.1916157E+04  0.7818609E-02  0.8646856E-01
       -1   -1    0    0    0  501  0.00000000000E+00  0.00000000000E+00  0.53525648769E+03  0.53525648772E+03  0.50400001928E-02 0.  1.
        1   -1    0    0  501    0  0.00000000000E+00  0.00000000000E+00 -0.17149051832E+04  0.17149051832E+04  0.50400001928E-02 0. -1.
    10030    2    1    2    0    0  0.00000000000E+00  0.00000000000E+00 -0.11796486955E+04  0.22501616709E+04  0.19161567004E+04 0.  0.
        1    1    3    3  502    0  0.34471623843E+00  0.95736019082E+03 -0.54627231146E+03  0.11022486526E+04  0.50400001928E-02 0.  1.
       -1    1    3    3    0  502 -0.34471623843E+00 -0.95736019082E+03 -0.63337638403E+03  0.11479130183E+04  0.50400001928E-02 0. -1.
</event>
<event>
 5   0  0.4627905E-07  0.3889316E+04  0.7818609E-02  0.8027255E-01
        1   -1    0    0  501    0  0.00000000000E+00  0.00000000000E+00  0.16806843403E+04  0.16806843403E+04  0.50400001928E-02 0.  1.
       -1   -1    0    0    0  501  0.00000000000E+00  0.00000000000E+00 -0.22500926314E+04  0.22500926314E+04  0.50400001928E-02 0. -1.
    10030    2    1    2    0    0  0.00000000000E+00  0.00000000000E+00 -0.56940829111E+03  0.39307769717E+04  0.38893163666E+04 0.  0.
        1    1    3    3  502    0  0.16001092581E+04 -0.10848290390E+04 -0.49788341231E+03  0.19962694142E+04  0.50400001928E-02 0. -1.
       -1    1    3    3    0  502 -0.16001092581E+04  0.10848290390E+04 -0.71524878793E+02  0.19345075575E+04  0.50400001928E-02 0.  1.
</event>
<event>
 5   0  0.1035864E-06  0.1979230E+04  0.7818609E-02  0.8616393E-01
       -2   -1    0    0    0  501  0.00000000000E+00  0.00000000000E+00  0.22672825056E+04  0.22672825056E+04  0.25500000920E-02 0.  1.
        2   -1    0    0  501    0  0.00000000000E+00  0.00000000000E+00 -0.43194342688E+03  0.43194342689E+03  0.25500000920E-02 0. -1.
    10030    2    1    2    0    0  0.00000000000E+00  0.00000000000E+00  0.18353390787E+04  0.26992259325E+04  0.19792299262E+04 0.  0.
        5    1    3    3  502    0  0.54242006514E+03 -0.46322714208E+03 -0.17801923601E+02  0.71353900433E+03  0.46999998093E+01 0. -1.
       -5    1    3    3    0  502 -0.54242006514E+03  0.46322714208E+03  0.18531410023E+04  0.19856869282E+04  0.46999998093E+01 0.  1.
</event>
<event>
 5   0  0.4316671E-07  0.3944745E+04  0.7818609E-02  0.8015787E-01
        1   -1    0    0  501    0  0.00000000000E+00  0.00000000000E+00  0.12364929616E+04  0.12364929616E+04  0.50400001928E-02 0. -1.
       -1   -1    0    0    0  501  0.00000000000E+00  0.00000000000E+00 -0.31461997665E+04  0.31461997665E+04  0.50400001928E-02 0.  1.
    10030    2    1    2    0    0  0.00000000000E+00  0.00000000000E+00 -0.19097068049E+04  0.43826927281E+04  0.39447452983E+04 0.  0.
        2    1    3    3  502    0  0.41012455993E+03 -0.19149889281E+04 -0.12151005893E+04  0.23047460146E+04  0.25500000920E-02 0.  1.
       -2    1    3    3    0  502 -0.41012455993E+03  0.19149889281E+04 -0.69460621553E+03  0.20779467135E+04  0.25500000920E-02 0. -1.
</event>
<event>
 5   0  0.3191750E-07  0.3786569E+04  0.7818609E-02  0.8049043E-01
       -3   -1    0    0    0  501  0.00000000000E+00  0.00000000000E+00  0.16396961296E+04  0.16396961327E+04  0.10100000352E+00 0. -1.
        3   -1    0    0  501    0  0.00000000000E+00  0.00000000000E+00 -0.21860914065E+04  0.21860914088E+04  0.10100000352E+00 0.  1.
    10030    2    1    2    0    0  0.00000000000E+00  0.00000000000E+00 -0.54639527693E+03  0.38257875415E+04  0.37865686993E+04 0.  0.
        3    1    3    3  502    0 -0.55872511056E+03 -0.12875461420E+04  0.10106230267E+04  0.17295397449E+04  0.10100000352E+00 0. -1.
       -3    1    3    3    0  502  0.55872511056E+03  0.12875461420E+04 -0.15570183036E+04  0.20962477966E+04  0.10100000352E+00 0.  1.
</event>
<event>
 5   0  0.5533705E-07  0.3779770E+04  0.7818609E-02  0.8050510E-01
        2   -1    0    0  501    0  0.00000000000E+00  0.00000000000E+00  0.19567987997E+04  0.19567987997E+04  0.25500000920E-02 0.  1.
       -2   -1    0    0    0  501  0.00000000000E+00  0.00000000000E+00 -0.18252595665E+04  0.18252595665E+04  0.25500000920E-02 0. -1.
    10030    2    1    2    0    0  0.00000000000E+00  0.00000000000E+00  0.13153923325E+03  0.37820583662E+04  0.37797702199E+04 0.  0.
        1    1    3    3  502    0  0.12817764290E+04 -0.99233806173E+03  0.10379441585E+04  0.19248412191E+04  0.50400001928E-02 0.  1.
       -1    1    3    3    0  502 -0.12817764290E+04  0.99233806173E+03 -0.90640492526E+03  0.18572171470E+04  0.50400001928E-02 0. -1.
</event>
<event>
 5   0  0.1035864E-06  0.2877598E+04  0.7818609E-02  0.8279574E-01
       -2   -1    0    0    0  501  0.00000000000E+00  0.00000000000E+00  0.12540069166E+04  0.12540069166E+04  0.25500000920E-02 0. -1.
        2   -1    0    0  501    0  0.00000000000E+00  0.00000000000E+00 -0.16508224814E+04  0.16508224814E+04  0.25500000920E-02 0.  1.
    10030    2    1    2    0    0  0.00000000000E+00  0.00000000000E+00 -0.39681556479E+03  0.29048293979E+04  0.28775981718E+04 0.  0.
        5    1    3    3  502    0  0.48420397221E+03  0.95431686847E+03  0.77243476264E+03  0.13197923036E+04  0.46999998093E+01 0. -1.
       -5    1    3    3    0  502 -0.48420397221E+03 -0.95431686847E+03 -0.11692503274E+04  0.15850370943E+04  0.46999998093E+01 0.  1.
</event>
<event>
 5   0  0.5938417E-07  0.1982054E+04  0.7818609E-02  0.8615057E-01
       -2   -1    0    0    0  501  0.00000000000E+00  0.00000000000E+00  0.81565475495E+03  0.81565475495E+03  0.25500000920E-02 0.  1.
        2   -1    0    0  501    0  0.00000000000E+00  0.00000000000E+00 -0.12041058877E+04  0.12041058877E+04  0.25500000920E-02 0. -1.
    10030    2    1    2    0    0  0.00000000000E+00  0.00000000000E+00 -0.38845113271E+03  0.20197606426E+04  0.19820541796E+04 0.  0.
        1    1    3    3  502    0  0.87851731686E+03  0.15982923007E+03 -0.63228336011E+03  0.10941299312E+04  0.50400001928E-02 0. -1.
       -1    1    3    3    0  502 -0.87851731686E+03 -0.15982923007E+03  0.24383222740E+03  0.92563071143E+03  0.50400001928E-02 0.  1.
</event>
<event>
 5   0  0.3977376E-07  0.3936796E+04  0.7818609E-02  0.8017420E-01
        1   -1    0    0  501    0  0.00000000000E+00  0.00000000000E+00  0.20453170310E+04  0.20453170310E+04  0.50400001928E-02 0. -1.
       -1   -1    0    0    0  501  0.00000000000E+00  0.00000000000E+00 -0.18943719342E+04  0.18943719342E+04  0.50400001928E-02 0.  1.
    10030    2    1    2    0    0  0.00000000000E+00  0.00000000000E+00  0.15094509683E+03  0.39396889652E+04  0.39367962508E+04 0.  0.
        4    1    3    3  502    0  0.11232955164E+04 -0.11596420704E+04 -0.10514219310E+04  0.19266686893E+04  0.12699999809E+01 0. -1.
       -4    1    3    3    0  502 -0.11232955164E+04  0.11596420704E+04  0.12023670278E+04  0.20130202759E+04  0.12699999809E+01 0.  1.
</event>
<event>
 5   0  0.5533705E-07  0.3867068E+04  0.7818609E-02  0.8031914E-01
        2   -1    0    0  501    0  0.00000000000E+00  0.00000000000E+00  0.24671043367E+04  0.24671043367E+04  0.25500000920E-02 0. -1.
       -2   -1    0    0    0  501  0.00000000000E+00  0.00000000000E+00 -0.15153609466E+04  0.15153609466E+04  0.25500000920E-02 0.  1.
    10030    2    1    2    0    0  0.00000000000E+00  0.00000000000E+00  0.95174339012E+03  0.39824652832E+04  0.38670679140E+04 0.  0.
        1    1    3    3  502    0 -0.67182690425E+03  0.90557729549E+03 -0.11417106074E+04  0.16046572028E+04  0.50400001928E-02 0.  1.
       -1    1    3    3    0  502  0.67182690425E+03 -0.90557729549E+03  0.20934539976E+04  0.23778080804E+04  0.50400001928E-02 0. -1.
</event>
<event>
 5   0  0.4627905E-07  0.3890605E+04  0.7818609E-02  0.8026986E-01
        1   -1    0    0  501    0  0.00000000000E+00  0.00000000000E+00  0.21663334472E+04  0.21663334473E+04  0.50400001928E-02 0. -1.
       -1   -1    0    0    0  501  0.00000000000E+00  0.00000000000E+00 -0.17468234009E+04  0.17468234009E+04  0.50400001928E-02 0.  1.
    10030    2    1    2    0    0  0.00000000000E+00  0.00000000000E+00  0.41951004636E+03  0.39131568481E+04  0.38906050737E+04 0.  0.
        1    1    3    3  502    0 -0.24261492036E+03  0.17259105137E+04 -0.65929786180E+03  0.18634115948E+04  0.50400001928E-02 0.  1.
       -1    1    3    3    0  502  0.24261492036E+03 -0.17259105137E+04  0.10788079082E+04  0.20497452534E+04  0.50400001928E-02 0. -1.
</event>
<event>
 5   0  0.7268013E-07  0.3918129E+04  0.7818609E-02  0.8021269E-01
        2   -1    0    0  501    0  0.00000000000E+00  0.00000000000E+00  0.16503947169E+04  0.16503947169E+04  0.25500000920E-02 0.  1.
       -2   -1    0    0    0  501  0.00000000000E+00  0.00000000000E+00 -0.23254638875E+04  0.23254638875E+04  0.25500000920E-02 0. -1.
    10030    2    1    2    0    0  0.00000000000E+00  0.00000000000E+00 -0.67506917055E+03  0.39758586044E+04  0.39181287954E+04 0.  0.
        4    1    3    3  502    0  0.16652960256E+04  0.14066050233E+03  0.69974769528E+03  0.18118070206E+04  0.12699999809E+01 0. -1.
       -4    1    3    3    0  502 -0.16652960256E+04 -0.14066050233E+03 -0.13748168658E+04  0.21640515838E+04  0.12699999809E+01 0.  1.
</event>
<event>
 5   0  0.7268013E-07  0.2294420E+04  0.7818609E-02  0.8480124E-01
       -2   -1    0    0    0  501  0.00000000000E+00  0.00000000000E+00  0.12478196185E+04  0.12478196185E+04  0.25500000920E-02 0. -1.
        2   -1    0    0  501    0  0.00000000000E+00  0.00000000000E+00 -0.10547123338E+04  0.10547123338E+04  0.25500000920E-02 0.  1.
    10030    2    1    2    0    0  0.00000000000E+00  0.00000000000E+00  0.19310728468E+03  0.23025319523E+04  0.22944199633E+04 0.  0.
        4    1    3    3  502    0  0.82629810825E+03 -0.68148851890E+03  0.50897373679E+03  0.11858545622E+04  0.12699999809E+01 0. -1.
       -4    1    3    3    0  502 -0.82629810825E+03  0.68148851890E+03 -0.31586645210E+03  0.11166773901E+04  0.12699999809E+01 0.  1.
</event>
<event>
 5   0  0.1015219E-06  0.3757355E+04  0.7818609E-02  0.8055369E-01
        2   -1    0    0  501    0  0.00000000000E+00  0.00000000000E+00  0.26024907169E+04  0.26024907169E+04  0.25500000920E-02 0. -1.
       -2   -1    0    0    0  501  0.00000000000E+00  0.00000000000E+00 -0.13561735801E+04  0.13561735801E+04  0.25500000920E-02 0.  1.
    10030    2    1    2    0    0  0.00000000000E+00  0.00000000000E+00  0.12463171368E+04  0.39586642971E+04  0.37573550020E+04 0.  0.
        3    1    3    3  502    0  0.16389449362E+04  0.88272819673E+03  0.35645659046E+03  0.18953656334E+04  0.10100000352E+00 0.  1.
       -3    1    3    3    0  502 -0.16389449362E+04 -0.88272819673E+03  0.88986054638E+03  0.20632986637E+04  0.10100000352E+00 0. -1.
</event>
<event>
 5   0  0.1034683E-06  0.2026552E+04  0.7818609E-02  0.8594306E-01
       -2   -1    0    0    0  501  0.00000000000E+00  0.00000000000E+00  0.55710966119E+03  0.55710966120E+03  0.25500000920E-02 0.  1.
        2   -1    0    0  501    0  0.00000000000E+00  0.00000000000E+00 -0.18429552233E+04  0.18429552233E+04  0.25500000920E-02 0. -1.
    10030    2    1    2    0    0  0.00000000000E+00  0.00000000000E+00 -0.12858455621E+04  0.24000648845E+04  0.20265519091E+04 0.  0.
        2    1    3    3  502    0  0.73794836685E+03 -0.41280473179E+03  0.18334256722E+02  0.84576100862E+03  0.25500000920E-02 0. -1.
       -2    1    3    3    0  502 -0.73794836685E+03  0.41280473179E+03 -0.13041798188E+04  0.15543038758E+04  0.25500000920E-02 0.  1.
</event>
<event>
 5   0  0.5533705E-07  0.3897076E+04  0.7818609E-02  0.8025638E-01
       -2   -1    0    0    0  501  0.00000000000E+00  0.00000000000E+00  0.12676079427E+04  0.12676079427E+04  0.25500000920E-02 0. -1.
        2   -1    0    0  501    0  0.00000000000E+00  0.00000000000E+00 -0.29952486359E+04  0.29952486359E+04  0.25500000920E-02 0.  1.
    10030    2    1    2    0    0  0.00000000000E+00  0.00000000000E+00 -0.17276406932E+04  0.42628565787E+04  0.38970763202E+04 0.  0.
        1    1    3    3  502    0  0.25748223407E+03  0.19283104485E+04 -0.98425765334E+03  0.21802388435E+04  0.50400001928E-02 0.  1.
       -1    1    3    3    0  502 -0.25748223407E+03 -0.19283104485E+04 -0.74338303989E+03  0.20826177351E+04  0.50400001928E-02 0. -1.
</event>
<event>
 5   0  0.5533705E-07  0.2095306E+04  0.7818609E-02  0.8563314E-01
       -2   -1    0    0    0  501  0.00000000000E+00  0.00000000000E+00  0.81650586112E+03  0.81650586112E+03  0.25500000920E-02 0. -1.
        2   -1    0    0  501    0  0.00000000000E+00  0.00000000000E+00 -0.13442358581E+04  0.13442358581E+04  0.25500000920E-02 0.  1.
    10030    2    1    2    0    0  0.00000000000E+00  0.00000000000E+00 -0.52772999700E+03  0.21607417192E+04  0.20953056645E+04 0.  0.
        1    1    3    3  502    0  0.38133055801E+03 -0.17422766784E+03 -0.12539574503E+04  0.13221866592E+04  0.50400001928E-02 0.  1.
       -1    1    3    3    0  502 -0.38133055801E+03  0.17422766784E+03  0.72622745329E+03  0.83855506000E+03  0.50400001928E-02 0. -1.
</event>
<event>
 5   0  0.7268013E-07  0.3973841E+04  0.7818609E-02  0.8009845E-01
        2   -1    0    0  501    0  0.00000000000E+00  0.00000000000E+00  0.19807307249E+04  0.19807307249E+04  0.25500000920E-02 0.  1.
       -2   -1    0    0    0  501  0.00000000000E+00  0.00000000000E+00 -0.19931293011E+04  0.19931293011E+04  0.25500000920E-02 0. -1.
    10030    2    1    2    0    0  0.00000000000E+00  0.00000000000E+00 -0.12398576112E+02  0.39738600260E+04  0.39738406840E+04 0.  0.
        4    1    3    3  502    0 -0.12037535584E+04 -0.88364652372E+03 -0.13169295229E+04  0.19910195351E+04  0.12699999809E+01 0. -1.
       -4    1    3    3    0  502  0.12037535584E+04  0.88364652372E+03  0.13045309467E+04  0.19828404909E+04  0.12699999809E+01 0.  1.
</event>
<event>
 5   0  0.1035864E-06  0.3016742E+04  0.7818609E-02  0.8238966E-01
        2   -1    0    0  501    0  0.00000000000E+00  0.00000000000E+00  0.20473346850E+04  0.20473346850E+04  0.25500000920E-02 0.  1.
       -2   -1    0    0    0  501  0.00000000000E+00  0.00000000000E+00 -0.11112900815E+04  0.11112900815E+04  0.25500000920E-02 0. -1.
    10030    2    1    2    0    0  0.00000000000E+00  0.00000000000E+00  0.93604460351E+03  0.31586247665E+04  0.30167417714E+04 0.  0.
        5    1    3    3  502    0  0.29224997367E+03  0.64527534028E+03 -0.92628858442E+03  0.11661144642E+04  0.46999998093E+01 0. -1.
       -5    1    3    3    0  502 -0.29224997367E+03 -0.64527534028E+03  0.18623331879E+04  0.19925103023E+04  0.46999998093E+01 0.  1.
</event>
<event>
 5   0  0.5533705E-07  0.4187549E+04  0.7818609E-02  0.7967745E-01
        2   -1    0    0  501    0  0.00000000000E+00  0.00000000000E+00  0.11825061599E+04  0.11825061599E+04  0.25500000920E-02 0. -1.
       -2   -1    0    0    0  501  0.00000000000E+00  0.00000000000E+00 -0.37072886313E+04  0.37072886313E+04  0.25500000920E-02 0.  1.
    10030    2    1    2    0    0  0.00000000000E+00  0.00000000000E+00 -0.25247824714E+04  0.48897947912E+04  0.41875489934E+04 0.  0.
        1    1    3    3  502    0  0.68703846609E+03  0.10767400653E+04 -0.31996803813E+04  0.34451916586E+04  0.50400001928E-02 0.  1.
       -1    1    3    3    0  502 -0.68703846609E+03 -0.10767400653E+04  0.67489790990E+03  0.14446031326E+04  0.50400001928E-02 0. -1.
</event>
<event>
 5   0  0.3977376E-07  0.3924199E+04  0.7818609E-02  0.8020015E-01
       -1   -1    0    0    0  501  0.00000000000E+00  0.00000000000E+00  0.15189108902E+04  0.15189108902E+04  0.50400001928E-02 0. -1.
        1   -1    0    0  501    0  0.00000000000E+00  0.00000000000E+00 -0.25346024365E+04  0.25346024365E+04  0.50400001928E-02 0.  1.
    10030    2    1    2    0    0  0.00000000000E+00  0.00000000000E+00 -0.10156915463E+04  0.40535133267E+04  0.39241994053E+04 0.  0.
        4    1    3    3  502    0  0.14058475673E+04 -0.31688919938E+03 -0.18832673146E+04  0.23713969592E+04  0.12699999809E+01 0.  1.
       -4    1    3    3    0  502 -0.14058475673E+04  0.31688919938E+03  0.86757576834E+03  0.16821163675E+04  0.12699999809E+01 0. -1.
</event>
<event>
 5   0  0.5533705E-07  0.3844391E+04  0.7818609E-02  0.8036695E-01
       -2   -1    0    0    0  501  0.00000000000E+00  0.00000000000E+00  0.18124595782E+04  0.18124595782E+04  0.25500000920E-02 0. -1.
        2   -1    0    0  501    0  0.00000000000E+00  0.00000000000E+00 -0.20385749038E+04  0.20385749038E+04  0.25500000920E-02 0.  1.
    10030    2    1    2    0    0  0.00000000000E+00  0.00000000000E+00 -0.22611532565E+03  0.38510344820E+04  0.38443905162E+04 0.  0.
        1    1    3    3  502    0  0.13677144025E+04 -0.88185868788E+01 -0.14659895007E+04  0.20049552789E+04  0.50400001928E-02 0.  1.
       -1    1    3    3    0  502 -0.13677144025E+04  0.88185868788E+01  0.12398741751E+04  0.18460792031E+04  0.50400001928E-02 0. -1.
</event>
<event>
 5   0  0.1034683E-06  0.3814436E+04  0.7818609E-02  0.8043064E-01
       -2   -1    0    0    0  501  0.00000000000E+00  0.00000000000E+00  0.22599589309E+04  0.22599589309E+04  0.25500000920E-02 0. -1.
        2   -1    0    0  501    0  0.00000000000E+00  0.00000000000E+00 -0.16095335922E+04  0.16095335922E+04  0.25500000920E-02 0.  1.
    10030    2    1    2    0    0  0.00000000000E+00  0.00000000000E+00  0.65042533866E+03  0.38694925231E+04  0.38144356418E+04 0.  0.
        2    1    3    3  502    0  0.14449767824E+04  0.11286632065E+03 -0.93235107810E+03  0.17233616106E+04  0.25500000920E-02 0.  1.
       -2    1    3    3    0  502 -0.14449767824E+04 -0.11286632065E+03  0.15827764168E+04  0.21461309125E+04  0.25500000920E-02 0. -1.
</event>
<event>
 5   0  0.3191750E-07  0.2428268E+04  0.7818609E-02  0.8428995E-01
       -4   -1    0    0    0  501  0.00000000000E+00  0.00000000000E+00  0.87582505327E+03  0.87582597406E+03  0.12699999809E+01 0.  1.
        4   -1    0    0  501    0  0.00000000000E+00  0.00000000000E+00 -0.16831217339E+04  0.16831222131E+04  0.12699999809E+01 0. -1.
    10030    2    1    2    0    0  0.00000000000E+00  0.00000000000E+00 -0.80729668068E+03  0.25589481871E+04  0.24282684971E+04 0.  0.
        4    1    3    3  502    0  0.99651399259E+03 -0.42706459479E+03  0.17229469419E+03  0.10977756511E+04  0.12699999809E+01 0.  1.
       -4    1    3    3    0  502 -0.99651399259E+03  0.42706459479E+03 -0.97959137487E+03  0.14611725361E+04  0.12699999809E+01 0. -1.
</event>
<event>
 5   0  0.1262010E-06  0.2064217E+04  0.7818609E-02  0.8577172E-01
        2   -1    0    0  501    0  0.00000000000E+00  0.00000000000E+00  0.10682677783E+04  0.10682677783E+04  0.25500000920E-02 0.  1.
       -2   -1    0    0    0  501  0.00000000000E+00  0.00000000000E+00 -0.99717335943E+03  0.99717335944E+03  0.25500000920E-02 0. -1.
    10030    2    1    2    0    0  0.00000000000E+00  0.00000000000E+00  0.71094418832E+02  0.20654411377E+04  0.20642172068E+04 0.  0.
        3    1    3    3  502    0 -0.83226457985E+03  0.60819643913E+03  0.87355507083E+02  0.10345038590E+04  0.10100000352E+00 0.  1.
       -3    1    3    3    0  502  0.83226457985E+03 -0.60819643913E+03 -0.16261088251E+02  0.10309372787E+04  0.10100000352E+00 0. -1.
</event>
<event>
 5   0  0.5385714E-07  0.2386354E+04  0.7818609E-02  0.8444630E-01
       -1   -1    0    0    0  501  0.00000000000E+00  0.00000000000E+00  0.15306420389E+04  0.15306420389E+04  0.50400001928E-02 0.  1.
        1   -1    0    0  501    0  0.00000000000E+00  0.00000000000E+00 -0.93011381601E+03  0.93011381602E+03  0.50400001928E-02 0. -1.
    10030    2    1    2    0    0  0.00000000000E+00  0.00000000000E+00  0.60052822286E+03  0.24607558549E+04  0.23863539618E+04 0.  0.
        3    1    3    3  502    0 -0.82150438767E+03  0.81518305009E+03  0.59962281706E+03  0.13034340785E+04  0.10100000352E+00 0.  1.
       -3    1    3    3    0  502  0.82150438767E+03 -0.81518305009E+03  0.90540580168E+00  0.11573217764E+04  0.10100000352E+00 0. -1.
</event>
<event>
 5   0  0.5385714E-07  0.2189468E+04  0.7818609E-02  0.8522824E-01
        1   -1    0    0  501    0  0.00000000000E+00  0.00000000000E+00  0.12781866093E+04  0.12781866093E+04  0.50400001928E-02 0. -1.
       -1   -1    0    0    0  501  0.00000000000E+00  0.00000000000E+00 -0.93761195814E+03  0.93761195816E+03  0.50400001928E-02 0.  1.
    10030    2    1    2    0    0  0.00000000000E+00  0.00000000000E+00  0.34057465119E+03  0.22157985675E+04  0.21894684740E+04 0.  0.
        3    1    3    3  502    0  0.81307013972E+03 -0.71988755436E+03  0.31023222103E+03  0.11294092191E+04  0.10100000352E+00 0. -1.
       -3    1    3    3    0  502 -0.81307013972E+03  0.71988755436E+03  0.30342430162E+02  0.10863893484E+04  0.10100000352E+00 0.  1.
</event>
<event>
 5   0  0.5729911E-07  0.1931903E+04  0.7818609E-02  0.8639137E-01
       -1   -1    0    0    0  501  0.00000000000E+00  0.00000000000E+00  0.68129003487E+03  0.68129003488E+03  0.50400001928E-02 0. -1.
        1   -1    0    0  501    0  0.00000000000E+00  0.00000000000E+00 -0.13695522573E+04  0.13695522573E+04  0.50400001928E-02 0.  1.
    10030    2    1    2    0    0  0.00000000000E+00  0.00000000000E+00 -0.68826222247E+03  0.20508422922E+04  0.19319030050E+04 0.  0.
        2    1    3    3  502    0  0.20856371868E+03 -0.71228089745E+03  0.31217026059E+03  0.80516654999E+03  0.25500000920E-02 0. -1.
       -2    1    3    3    0  502 -0.20856371868E+03  0.71228089745E+03 -0.10004324831E+04  0.12456757422E+04  0.25500000920E-02 0.  1.
</event>
<event>
 5   0  0.7268013E-07  0.3816585E+04  0.7818609E-02  0.8042605E-01
        2   -1    0    0  501    0  0.00000000000E+00  0.00000000000E+00  0.13407658115E+04  0.13407658115E+04  0.25500000920E-02 0.  1.
       -2   -1    0    0    0  501  0.00000000000E+00  0.00000000000E+00 -0.27160443514E+04  0.27160443514E+04  0.25500000920E-02 0. -1.
    10030    2    1    2    0    0  0.00000000000E+00  0.00000000000E+00 -0.13752785400E+04  0.40568101629E+04  0.38165845511E+04 0.  0.
        4    1    3    3  502    0  0.16080784686E+04  0.56137485853E+03  0.22705952443E+03  0.17183177044E+04  0.12699999809E+01 0.  1.
       -4    1    3    3    0  502 -0.16080784686E+04 -0.56137485853E+03 -0.16023380644E+04  0.23384924585E+04  0.12699999809E+01 0. -1.
</event>
<event>
 5   0  0.1034683E-06  0.3867672E+04  0.7818609E-02  0.8031787E-01
        2   -1    0    0  501    0  0.00000000000E+00  0.00000000000E+00  0.14651483162E+04  0.14651483162E+04  0.25500000920E-02 0. -1.
       -2   -1    0    0    0  501  0.00000000000E+00  0.00000000000E+00 -0.25524529362E+04  0.25524529362E+04  0.25500000920E-02 0.  1.
    10030    2    1    2    0    0  0.00000000000E+00  0.00000000000E+00 -0.10873046199E+04  0.40176012524E+04  0.38676722310E+04 0.  0.
        2    1    3    3  502    0 -0.16067403504E+04 -0.92864382491E+03 -0.11085418706E+04  0.21616796678E+04  0.25500000920E-02 0.  1.
       -2    1    3    3    0  502  0.16067403504E+04  0.92864382491E+03  0.21237250689E+02  0.18559215846E+04  0.25500000920E-02 0. -1.
</event>
<event>
 5   0  0.7268013E-07  0.3968912E+04  0.7818609E-02  0.8010847E-01
        2   -1    0    0  501    0  0.00000000000E+00  0.00000000000E+00  0.19301860273E+04  0.19301860273E+04  0.25500000920E-02 0. -1.
       -2   -1    0    0    0  501  0.00000000000E+00  0.00000000000E+00 -0.20402520329E+04  0.20402520329E+04  0.25500000920E-02 0.  1.
    10030    2    1    2    0    0  0.00000000000E+00  0.00000000000E+00 -0.11006600560E+03  0.39704380601E+04  0.39689121764E+04 0.  0.
        4    1    3    3  502    0 -0.18363461461E+04 -0.64711584423E+03  0.32870053503E+03  0.19745814085E+04  0.12699999809E+01 0. -1.
       -4    1    3    3    0  502  0.18363461461E+04  0.64711584423E+03 -0.43876654062E+03  0.19958566517E+04  0.12699999809E+01 0.  1.
</event>
<event>
 5   0  0.5533705E-07  0.2650976E+04  0.7818609E-02  0.8351089E-01
       -2   -1    0    0    0  501  0.00000000000E+00  0.00000000000E+00  0.98163573016E+03  0.98163573016E+03  0.25500000920E-02 0. -1.
        2   -1    0    0  501    0  0.00000000000E+00  0.00000000000E+00 -0.17897863573E+04  0.17897863573E+04  0.25500000920E-02 0.  1.
    10030    2    1    2    0    0  0.00000000000E+00  0.00000000000E+00 -0.80815062716E+03  0.27714220875E+04  0.26509758488E+04 0.  0.
        1    1    3    3  502    0  0.83546153830E+03 -0.15933912647E+03  0.65874326951E+03  0.10757916315E+04  0.50400001928E-02 0. -1.
       -1    1    3    3    0  502 -0.83546153830E+03  0.15933912647E+03 -0.14668938967E+04  0.16956304560E+04  0.50400001928E-02 0.  1.
</event>
<event>
 5   0  0.5533705E-07  0.3377096E+04  0.7818609E-02  0.8143551E-01
       -2   -1    0    0    0  501  0.00000000000E+00  0.00000000000E+00  0.11206584897E+04  0.11206584897E+04  0.25500000920E-02 0.  1.
        2   -1    0    0  501    0  0.00000000000E+00  0.00000000000E+00 -0.25442141493E+04  0.25442141493E+04  0.25500000920E-02 0. -1.
    10030    2    1    2    0    0  0.00000000000E+00  0.00000000000E+00 -0.14235556596E+04  0.36648726390E+04  0.33770964962E+04 0.  0.
        1    1    3    3  502    0 -0.93712340408E+03  0.75918146281E+03  0.57072227308E+03  0.13342715919E+04  0.50400001928E-02 0.  1.
       -1    1    3    3    0  502  0.93712340408E+03 -0.75918146281E+03 -0.19942779327E+04  0.23306010471E+04  0.50400001928E-02 0. -1.
</event>
<event>
 5   0  0.4627905E-07  0.2690102E+04  0.7818609E-02  0.8338224E-01
        1   -1    0    0  501    0  0.00000000000E+00  0.00000000000E+00  0.14235536879E+04  0.14235536879E+04  0.50400001928E-02 0.  1.
       -1   -1    0    0    0  501  0.00000000000E+00  0.00000000000E+00 -0.12708777197E+04  0.12708777197E+04  0.50400001928E-02 0. -1.
    10030    2    1    2    0    0  0.00000000000E+00  0.00000000000E+00  0.15267596821E+03  0.26944314077E+04  0.26901023511E+04 0.  0.
        1    1    3    3  502    0  0.25242855119E+03  0.58409858921E+03 -0.11105885609E+04  0.12799602677E+04  0.50400001928E-02 0. -1.
       -1    1    3    3    0  502 -0.25242855119E+03 -0.58409858921E+03  0.12632645291E+04  0.14144711400E+04  0.50400001928E-02 0.  1.
</event>
<event>
 5   0  0.1034683E-06  0.3836982E+04  0.7818609E-02  0.8038265E-01
       -2   -1    0    0    0  501  0.00000000000E+00  0.00000000000E+00  0.13189375355E+04  0.13189375355E+04  0.25500000920E-02 0. -1.
        2   -1    0    0  501    0  0.00000000000E+00  0.00000000000E+00 -0.27905857291E+04  0.27905857291E+04  0.25500000920E-02 0.  1.
    10030    2    1    2    0    0  0.00000000000E+00  0.00000000000E+00 -0.14716481936E+04  0.41095232646E+04  0.38369822852E+04 0.  0.
        2    1    3    3  502    0 -0.31506234437E+03  0.10066060638E+04 -0.24521771158E+04  0.26693993062E+04  0.25500000920E-02 0.  1.
       -2    1    3    3    0  502  0.31506234437E+03 -0.10066060638E+04  0.98052892222E+03  0.14401239585E+04  0.25500000920E-02 0. -1.
</event>
<event>
 5   0  0.4316671E-07  0.2762144E+04  0.7818609E-02  0.8315118E-01
        1   -1    0    0  501    0  0.00000000000E+00  0.00000000000E+00  0.12644245325E+04  0.12644245325E+04  0.50400001928E-02 0. -1.
       -1   -1    0    0    0  501  0.00000000000E+00  0.00000000000E+00 -0.15084809390E+04  0.15084809390E+04  0.50400001928E-02 0.  1.
    10030    2    1    2    0    0  0.00000000000E+00  0.00000000000E+00 -0.24405640649E+03  0.27729054715E+04  0.27621443164E+04 0.  0.
        2    1    3    3  502    0  0.26781489270E+02 -0.10007199411E+02 -0.15081838276E+04  0.15084547888E+04  0.25500000920E-02 0.  1.
       -2    1    3    3    0  502 -0.26781489270E+02  0.10007199411E+02  0.12641274211E+04  0.12644506827E+04  0.25500000920E-02 0. -1.
</event>
<event>
 5   0  0.7268013E-07  0.3900462E+04  0.7818609E-02  0.8024933E-01
       -2   -1    0    0    0  501  0.00000000000E+00  0.00000000000E+00  0.15953648546E+04  0.15953648546E+04  0.25500000920E-02 0.  1.
        2   -1    0    0  501    0  0.00000000000E+00  0.00000000000E+00 -0.23840324762E+04  0.23840324762E+04  0.25500000920E-02 0. -1.
    10030    2    1    2    0    0  0.00000000000E+00  0.00000000000E+00 -0.78866762161E+03  0.39793973308E+04  0.39004623442E+04 0.  0.
        4    1    3    3  502    0  0.14962336912E+04  0.54747913722E+03 -0.15417953185E+04  0.22171114274E+04  0.12699999809E+01 0. -1.
       -4    1    3    3    0  502 -0.14962336912E+04 -0.54747913722E+03  0.75312769689E+03  0.17622859034E+04  0.12699999809E+01 0.  1.
</event>
<event>
 5   0  0.7268013E-07  0.1997788E+04  0.7818609E-02  0.8607656E-01
        2   -1    0    0  501    0  0.00000000000E+00  0.00000000000E+00  0.75098374492E+03  0.75098374492E+03  0.25500000920E-02 0.  1.
       -2   -1    0    0    0  501  0.00000000000E+00  0.00000000000E+00 -0.13286424989E+04  0.13286424989E+04  0.25500000920E-02 0. -1.
    10030    2    1    2    0    0  0.00000000000E+00  0.00000000000E+00 -0.57765875398E+03  0.20796262438E+04  0.19977876959E+04 0.  0.
        4    1    3    3  502    0 -0.54070876744E+03  0.38590425330E+03  0.48771851329E+03  0.82411105139E+03  0.12699999809E+01 0.  1.
       -4    1    3    3    0  502  0.54070876744E+03 -0.38590425330E+03 -0.10653772673E+04  0.12555151924E+04  0.12699999809E+01 0. -1.
</event>
<event>
 5   0  0.3977376E-07  0.3890734E+04  0.7818609E-02  0.8026959E-01
        1   -1    0    0  501    0  0.00000000000E+00  0.00000000000E+00  0.27613337730E+04  0.27613337730E+04  0.50400001928E-02 0.  1.
       -1   -1    0    0    0  501  0.00000000000E+00  0.00000000000E+00 -0.13705165719E+04  0.13705165719E+04  0.50400001928E-02 0. -1.
    10030    2    1    2    0    0  0.00000000000E+00  0.00000000000E+00  0.13908172010E+04  0.41318503449E+04  0.38907344790E+04 0.  0.
        4    1    3    3  502    0 -0.18392654379E+04  0.59904281322E+02  0.25468323185E+02  0.18404173773E+04  0.12699999809E+01 0. -1.
       -4    1    3    3    0  502  0.18392654379E+04 -0.59904281322E+02  0.13653488778E+04  0.22914329677E+04  0.12699999809E+01 0.  1.
</event>
<event>
 5   0  0.5385714E-07  0.3886383E+04  0.7818609E-02  0.8027867E-01
        1   -1    0    0  501    0  0.00000000000E+00  0.00000000000E+00  0.21758389553E+04  0.21758389553E+04  0.50400001928E-02 0.  1.
       -1   -1    0    0    0  501  0.00000000000E+00  0.00000000000E+00 -0.17354193286E+04  0.17354193286E+04  0.50400001928E-02 0. -1.
    10030    2    1    2    0    0  0.00000000000E+00  0.00000000000E+00  0.44041962670E+03  0.39112582840E+04  0.38863828834E+04 0.  0.
        3    1    3    3  502    0 -0.10012903075E+03  0.15559564172E+03 -0.17265335796E+04  0.17364198911E+04  0.10100000352E+00 0. -1.
       -3    1    3    3    0  502  0.10012903075E+03 -0.15559564172E+03  0.21669532063E+04  0.21748383929E+04  0.10100000352E+00 0.  1.
</event>
<event>
 5   0  0.5533705E-07  0.3748766E+04  0.7818609E-02  0.8057240E-01
       -2   -1    0    0    0  501  0.00000000000E+00  0.00000000000E+00  0.15575202114E+04  0.15575202114E+04  0.25500000920E-02 0.  1.
        2   -1    0    0  501    0  0.00000000000E+00  0.00000000000E+00 -0.22557089835E+04  0.22557089835E+04  0.25500000920E-02 0. -1.
    10030    2    1    2    0    0  0.00000000000E+00  0.00000000000E+00 -0.69818877209E+03  0.38132291949E+04  0.37487663746E+04 0.  0.
        1    1    3    3  502    0  0.99169294019E+03  0.15581884450E+04 -0.24377503105E+02  0.18471600852E+04  0.50400001928E-02 0. -1.
       -1    1    3    3    0  502 -0.99169294019E+03 -0.15581884450E+04 -0.67381126898E+03  0.19660691097E+04  0.50400001928E-02 0.  1.
</event>
<event>
 5   0  0.3471602E-07  0.3900936E+04  0.7818609E-02  0.8024835E-01
       -1   -1    0    0    0  501  0.00000000000E+00  0.00000000000E+00  0.23365810872E+04  0.23365810872E+04  0.50400001928E-02 0. -1.
        1   -1    0    0  501    0  0.00000000000E+00  0.00000000000E+00 -0.16281588669E+04  0.16281588669E+04  0.50400001928E-02 0.  1.
    10030    2    1    2    0    0  0.00000000000E+00  0.00000000000E+00  0.70842222030E+03  0.39647399540E+04  0.39009358955E+04 0.  0.
        5    1    3    3  502    0  0.53470636740E+03  0.17063397286E+04  0.11459237720E+04  0.21238336917E+04  0.46999998093E+01 0. -1.
       -5    1    3    3    0  502 -0.53470636740E+03 -0.17063397286E+04 -0.43750155174E+03  0.18409062623E+04  0.46999998093E+01 0.  1.
</event>
<event>
 5   0  0.3977376E-07  0.2777433E+04  0.7818609E-02  0.8310309E-01
        1   -1    0    0  501    0  0.00000000000E+00  0.00000000000E+00  0.14303604315E+04  0.14303604315E+04  0.50400001928E-02 0.  1.
       -1   -1    0    0    0  501  0.00000000000E+00  0.00000000000E+00 -0.13482848189E+04  0.13482848189E+04  0.50400001928E-02 0. -1.
    10030    2    1    2    0    0  0.00000000000E+00  0.00000000000E+00  0.82075612568E+02  0.27786452504E+04  0.27774328113E+04 0.  0.
        4    1    3    3  502    0  0.42714562227E+03 -0.12556899377E+04 -0.37062819990E+03  0.13771628363E+04  0.12699999809E+01 0. -1.
       -4    1    3    3    0  502 -0.42714562227E+03  0.12556899377E+04  0.45270381247E+03  0.14014824141E+04  0.12699999809E+01 0.  1.
</event>
<event>
 5   0  0.7268013E-07  0.3478060E+04  0.7818609E-02  0.8119009E-01
        2   -1    0    0  501    0  0.00000000000E+00  0.00000000000E+00  0.18938594545E+04  0.18938594545E+04  0.25500000920E-02 0. -1.
       -2   -1    0    0    0  501  0.00000000000E+00  0.00000000000E+00 -0.15968585679E+04  0.15968585679E+04  0.25500000920E-02 0.  1.
    10030    2    1    2    0    0  0.00000000000E+00  0.00000000000E+00  0.29700088657E+03  0.34907180224E+04  0.34780602044E+04 0.  0.
        4    1    3    3  502    0  0.31830917004E+03  0.53567755637E+03  0.17779709225E+04  0.18839993064E+04  0.12699999809E+01 0. -1.
       -4    1    3    3    0  502 -0.31830917004E+03 -0.53567755637E+03 -0.14809700359E+04  0.16067187160E+04  0.12699999809E+01 0.  1.
</event>
<event>
 5   0  0.5533705E-07  0.1974119E+04  0.7818609E-02  0.8618817E-01
       -2   -1    0    0    0  501  0.00000000000E+00  0.00000000000E+00  0.79289082954E+03  0.79289082955E+03  0.25500000920E-02 0. -1.
        2   -1    0    0  501    0  0.00000000000E+00  0.00000000000E+00 -0.12287778093E+04  0.12287778093E+04  0.25500000920E-02 0.  1.
    10030    2    1    2    0    0  0.00000000000E+00  0.00000000000E+00 -0.43588697975E+03  0.20216686388E+04  0.19741192026E+04 0.  0.
        1    1    3    3  502    0  0.30102228756E+03  0.90827162933E+03  0.30204472331E+02  0.95733175045E+03  0.50400001928E-02 0. -1.
       -1    1    3    3    0  502 -0.30102228756E+03 -0.90827162933E+03 -0.46609145208E+03  0.10643368884E+04  0.50400001928E-02 0.  1.
</event>
<event>
 5   0  0.1035864E-06  0.2300133E+04  0.7818609E-02  0.8477869E-01
        2   -1    0    0  501    0  0.00000000000E+00  0.00000000000E+00  0.15587546618E+04  0.15587546618E+04  0.25500000920E-02 0. -1.
       -2   -1    0    0    0  501  0.00000000000E+00  0.00000000000E+00 -0.84853175164E+03  0.84853175164E+03  0.25500000920E-02 0.  1.
    10030    2    1    2    0    0  0.00000000000E+00  0.00000000000E+00  0.71022291014E+03  0.24072864134E+04  0.23001328862E+04 0.  0.
        5    1    3    3  502    0 -0.48239759978E+03 -0.21258800530E+03  0.14248479029E+04  0.15192480840E+04  0.46999998093E+01 0.  1.
       -5    1    3    3    0  502  0.48239759978E+03  0.21258800530E+03 -0.71462499277E+03  0.88803832944E+03  0.46999998093E+01 0. -1.
</event>
<event>
 5   0  0.1034683E-06  0.3841884E+04  0.7818609E-02  0.8037226E-01
       -2   -1    0    0    0  501  0.00000000000E+00  0.00000000000E+00  0.28446907711E+04  0.28446907711E+04  0.25500000920E-02 0. -1.
        2   -1    0    0  501    0  0.00000000000E+00  0.00000000000E+00 -0.12971597064E+04  0.12971597064E+04  0.25500000920E-02 0.  1.
    10030    2    1    2    0    0  0.00000000000E+00  0.00000000000E+00  0.15475310647E+04  0.41418504775E+04  0.38418840407E+04 0.  0.
        2    1    3    3  502    0 -0.11261315038E+04  0.34041235219E+03 -0.86333959258E+03  0.14592491170E+04  0.25500000920E-02 0.  1.
       -2    1    3    3    0  502  0.11261315038E+04 -0.34041235219E+03  0.24108706573E+04  0.26826013605E+04  0.25500000920E-02 0. -1.
</event>
<event>
 5   0  0.5533705E-07  0.3958298E+04  0.7818609E-02  0.8013012E-01
        2   -1    0    0  501    0  0.00000000000E+00  0.00000000000E+00  0.18560822032E+04  0.18560822032E+04  0.25500000920E-02 0.  1.
       -2   -1    0    0    0  501  0.00000000000E+00  0.00000000000E+00 -0.21103753796E+04  0.21103753796E+04  0.25500000920E-02 0. -1.
    10030    2    1    2    0    0  0.00000000000E+00  0.00000000000E+00 -0.25429317642E+03  0.39664575828E+04  0.39582977069E+04 0.  0.
        1    1    3    3  502    0 -0.14341100693E+04  0.80180560107E+03  0.97851654458E+03  0.19123437298E+04  0.50400001928E-02 0.  1.
       -1    1    3    3    0  502  0.14341100693E+04 -0.80180560107E+03 -0.12328097210E+04  0.20541138530E+04  0.50400001928E-02 0. -1.
</event>
<event>
 5   0  0.5533705E-07  0.3792114E+04  0.7818609E-02  0.8047849E-01
        2   -1    0    0  501    0  0.00000000000E+00  0.00000000000E+00  0.25701896744E+04  0.25701896744E+04  0.25500000920E-02 0.  1.
       -2   -1    0    0    0  501  0.00000000000E+00  0.00000000000E+00 -0.13987421598E+04  0.13987421598E+04  0.25500000920E-02 0. -1.
    10030    2    1    2    0    0  0.00000000000E+00  0.00000000000E+00  0.11714475146E+04  0.39689318343E+04  0.37921142685E+04 0.  0.
        1    1    3    3  502    0 -0.72960321971E+03  0.74060140788E+03 -0.10738401448E+04  0.14946384045E+04  0.50400001928E-02 0. -1.
       -1    1    3    3    0  502  0.72960321971E+03 -0.74060140788E+03  0.22452876593E+04  0.24742934298E+04  0.50400001928E-02 0.  1.
</event>
<event>
 5   0  0.1034683E-06  0.3037132E+04  0.7818609E-02  0.8233206E-01
        2   -1    0    0  501    0  0.00000000000E+00  0.00000000000E+00  0.19087378547E+04  0.19087378547E+04  0.25500000920E-02 0. -1.
       -2   -1    0    0    0  501  0.00000000000E+00  0.00000000000E+00 -0.12081507040E+04  0.12081507040E+04  0.25500000920E-02 0.  1.
    10030    2    1    2    0    0  0.00000000000E+00  0.00000000000E+00  0.70058715072E+03  0.31168885587E+04  0.30371321887E+04 0.  0.
        2    1    3    3  502    0  0.50950102899E+03  0.71280349010E+02  0.18165790382E+04  0.18880231960E+04  0.25500000920E-02 0. -1.
       -2    1    3    3    0  502 -0.50950102899E+03 -0.71280349010E+02 -0.11159918875E+04  0.12288653627E+04  0.25500000920E-02 0.  1.
</event>
<event>
 5   0  0.3471602E-07  0.3873472E+04  0.7818609E-02  0.8030569E-01
        1   -1    0    0  501    0  0.00000000000E+00  0.00000000000E+00  0.14286912692E+04  0.14286912692E+04  0.50400001928E-02 0.  1.
       -1   -1    0    0    0  501  0.00000000000E+00  0.00000000000E+00 -0.26254418692E+04  0.26254418692E+04  0.50400001928E-02 0. -1.
    10030    2    1    2    0    0  0.00000000000E+00  0.00000000000E+00 -0.11967506001E+04  0.40541331384E+04  0.38734717638E+04 0.  0.
        5    1    3    3  502    0 -0.58638440560E+03 -0.16939416206E+04  0.16906209064E+03  0.18005246362E+04  0.46999998093E+01 0.  1.
       -5    1    3    3    0  502  0.58638440560E+03  0.16939416206E+04 -0.13658126907E+04  0.22536085022E+04  0.46999998093E+01 0. -1.
</event>
<event>
 5   0  0.7268013E-07  0.4036684E+04  0.7818609E-02  0.7997187E-01
       -2   -1    0    0    0  501  0.00000000000E+00  0.00000000000E+00  0.18056393768E+04  0.18056393768E+04  0.25500000920E-02 0. -1.
        2   -1    0    0  501    0  0.00000000000E+00  0.00000000000E+00 -0.22561008016E+04  0.22561008016E+04  0.25500000920E-02 0.  1.
    10030    2    1    2    0    0  0.00000000000E+00  0.00000000000E+00 -0.45046142483E+03  0.40617401784E+04  0.40366840081E+04 0.  0.
        4    1    3    3  502    0 -0.15448422052E+04 -0.12409876927E+04  0.16070571686E+03  0.19880683672E+04  0.12699999809E+01 0. -1.
       -4    1    3    3    0  502  0.15448422052E+04  0.12409876927E+04 -0.61116714169E+03  0.20736718112E+04  0.12699999809E+01 0.  1.
</event>
<event>
 5   0  0.5385714E-07  0.3195318E+04  0.7818609E-02  0.8190055E-01
        1   -1    0    0  501    0  0.00000000000E+00  0.00000000000E+00  0.14646717576E+04  0.14646717576E+04  0.50400001928E-02 0. -1.
       -1   -1    0    0    0  501  0.00000000000E+00  0.00000000000E+00 -0.17427214727E+04  0.17427214727E+04  0.50400001928E-02 0.  1.
    10030    2    1    2    0    0  0.00000000000E+00  0.00000000000E+00 -0.27804971507E+03  0.32073932304E+04  0.31953184020E+04 0.  0.
        3    1    3    3  502    0 -0.35927016624E+03  0.58757999213E+03  0.13080155299E+04  0.14782523249E+04  0.10100000352E+00 0. -1.
       -3    1    3    3    0  502  0.35927016624E+03 -0.58757999213E+03 -0.15860652449E+04  0.17291409054E+04  0.10100000352E+00 0.  1.
</event>
<event>
 5   0  0.4627905E-07  0.1940846E+04  0.7818609E-02  0.8634788E-01
       -1   -1    0    0    0  501  0.00000000000E+00  0.00000000000E+00  0.11257525797E+04  0.11257525797E+04  0.50400001928E-02 0. -1.
        1   -1    0    0  501    0  0.00000000000E+00  0.00000000000E+00 -0.83652544157E+03  0.83652544159E+03  0.50400001928E-02 0.  1.
    10030    2    1    2    0    0  0.00000000000E+00  0.00000000000E+00  0.28922713809E+03  0.19622780213E+04  0.19408458711E+04 0.  0.
        1    1    3    3  502    0  0.63774223198E+03  0.32428742719E+03  0.80747769192E+03  0.10788409117E+04  0.50400001928E-02 0. -1.
       -1    1    3    3    0  502 -0.63774223198E+03 -0.32428742719E+03 -0.51825055383E+03  0.88343710951E+03  0.50400001928E-02 0.  1.
</event>
<event>
 5   0  0.5533705E-07  0.2860545E+04  0.7818609E-02  0.8284714E-01
       -2   -1    0    0    0  501  0.00000000000E+00  0.00000000000E+00  0.98713291467E+03  0.98713291467E+03  0.25500000920E-02 0.  1.
        2   -1    0    0  501    0  0.00000000000E+00  0.00000000000E+00 -0.20723438856E+04  0.20723438856E+04  0.25500000920E-02 0. -1.
    10030    2    1    2    0    0  0.00000000000E+00  0.00000000000E+00 -0.10852109710E+04  0.30594768003E+04  0.28605446055E+04 0.  0.
        1    1    3    3  502    0 -0.13942305832E+04  0.27099338270E+03 -0.36248176684E+03  0.14658476605E+04  0.50400001928E-02 0.  1.
       -1    1    3    3    0  502  0.13942305832E+04 -0.27099338270E+03 -0.72272920413E+03  0.15936291398E+04  0.50400001928E-02 0. -1.
</event>
<event>
 5   0  0.6368575E-07  0.1934380E+04  0.7818609E-02  0.8637930E-01
        1   -1    0    0  501    0  0.00000000000E+00  0.00000000000E+00  0.71858483989E+03  0.71858483991E+03  0.50400001928E-02 0.  1.
       -1   -1    0    0    0  501  0.00000000000E+00  0.00000000000E+00 -0.13018038483E+04  0.13018038483E+04  0.50400001928E-02 0. -1.
    10030    2    1    2    0    0  0.00000000000E+00  0.00000000000E+00 -0.58321900840E+03  0.20203886882E+04  0.19343800143E+04 0.  0.
        3    1    3    3  502    0  0.65166678318E+03 -0.17673881917E+03  0.43167675117E+03  0.80140566145E+03  0.10100000352E+00 0.  1.
       -3    1    3    3    0  502 -0.65166678318E+03  0.17673881917E+03 -0.10148957596E+04  0.12189830268E+04  0.10100000352E+00 0. -1.
</event>
<event>
 5   0  0.4316671E-07  0.3280998E+04  0.7818609E-02  0.8167747E-01
       -1   -1    0    0    0  501  0.00000000000E+00  0.00000000000E+00  0.12934724948E+04  0.12934724948E+04  0.50400001928E-02 0. -1.
        1   -1    0    0  501    0  0.00000000000E+00  0.00000000000E+00 -0.20806292613E+04  0.20806292613E+04  0.50400001928E-02 0.  1.
    10030    2    1    2    0    0  0.00000000000E+00  0.00000000000E+00 -0.78715676647E+03  0.33741017561E+04  0.32809978491E+04 0.  0.
        2    1    3    3  502    0  0.11749796122E+04  0.69930535655E+03  0.53858236286E+03  0.14695836255E+04  0.25500000920E-02 0. -1.
       -2    1    3    3    0  502 -0.11749796122E+04 -0.69930535655E+03 -0.13257391293E+04  0.19045181306E+04  0.25500000920E-02 0.  1.
</event>
<event>
 5   0  0.3471602E-07  0.2433461E+04  0.7818609E-02  0.8427081E-01
        1   -1    0    0  501    0  0.00000000000E+00  0.00000000000E+00  0.20360879349E+04  0.20360879349E+04  0.50400001928E-02 0. -1.
       -1   -1    0    0    0  501  0.00000000000E+00  0.00000000000E+00 -0.72709689172E+03  0.72709689174E+03  0.50400001928E-02 0.  1.
    10030    2    1    2    0    0  0.00000000000E+00  0.00000000000E+00  0.13089910432E+04  0.27631848266E+04  0.24334610815E+04 0.  0.
        5    1    3    3  502    0  0.22891600803E+03  0.11922211869E+04  0.56212713258E+03  0.13378351544E+04  0.46999998093E+01 0. -1.
       -5    1    3    3    0  502 -0.22891600803E+03 -0.11922211869E+04  0.74686391059E+03  0.14253496722E+04  0.46999998093E+01 0.  1.
</event>
<event>
 5   0  0.3990981E-07  0.1944030E+04  0.7818609E-02  0.8633245E-01
        1   -1    0    0  501    0  0.00000000000E+00  0.00000000000E+00  0.13483681986E+04  0.13483681986E+04  0.50400001928E-02 0.  1.
       -1   -1    0    0    0  501  0.00000000000E+00  0.00000000000E+00 -0.70070850045E+03  0.70070850047E+03  0.50400001928E-02 0. -1.
    10030    2    1    2    0    0  0.00000000000E+00  0.00000000000E+00  0.64765969815E+03  0.20490766991E+04  0.19440298954E+04 0.  0.
        4    1    3    3  502    0 -0.75553558693E+03 -0.48199875977E+03 -0.72877863918E+02  0.89914938886E+03  0.12699999809E+01 0. -1.
       -4    1    3    3    0  502  0.75553558693E+03  0.48199875977E+03  0.72053756207E+03  0.11499273102E+04  0.12699999809E+01 0.  1.
</event>
<event>
 5   0  0.5533705E-07  0.2758154E+04  0.7818609E-02  0.8316379E-01
        2   -1    0    0  501    0  0.00000000000E+00  0.00000000000E+00  0.13700624879E+04  0.13700624879E+04  0.25500000920E-02 0.  1.
       -2   -1    0    0    0  501  0.00000000000E+00  0.00000000000E+00 -0.13881506210E+04  0.13881506210E+04  0.25500000920E-02 0. -1.
    10030    2    1    2    0    0  0.00000000000E+00  0.00000000000E+00 -0.18088133076E+02  0.27582131090E+04  0.27581537981E+04 0.  0.
        1    1    3    3  502    0  0.59127962623E+03  0.12376693118E+04 -0.15193230839E+03  0.13800436037E+04  0.50400001928E-02 0. -1.
       -1    1    3    3    0  502 -0.59127962623E+03 -0.12376693118E+04  0.13384417531E+03  0.13781695052E+04  0.50400001928E-02 0.  1.
</event>
<event>
 5   0  0.3977376E-07  0.3653419E+04  0.7818609E-02  0.8078364E-01
        1   -1    0    0  501    0  0.00000000000E+00  0.00000000000E+00  0.20092078840E+04  0.20092078840E+04  0.50400001928E-02 0. -1.
       -1   -1    0    0    0  501  0.00000000000E+00  0.00000000000E+00 -0.16607874373E+04  0.16607874373E+04  0.50400001928E-02 0.  1.
    10030    2    1    2    0    0  0.00000000000E+00  0.00000000000E+00  0.34842044666E+03  0.36699953213E+04  0.36534187894E+04 0.  0.
        4    1    3    3  502    0  0.74629315663E+03 -0.59972190310E+03 -0.13885623720E+04  0.16866318242E+04  0.12699999809E+01 0.  1.
       -4    1    3    3    0  502 -0.74629315663E+03  0.59972190310E+03  0.17369828186E+04  0.19833634971E+04  0.12699999809E+01 0. -1.
</event>
<event>
 5   0  0.5533705E-07  0.3787162E+04  0.7818609E-02  0.8048915E-01
       -2   -1    0    0    0  501  0.00000000000E+00  0.00000000000E+00  0.13893725713E+04  0.13893725713E+04  0.25500000920E-02 0.  1.
        2   -1    0    0  501    0  0.00000000000E+00  0.00000000000E+00 -0.25807691758E+04  0.25807691758E+04  0.25500000920E-02 0. -1.
    10030    2    1    2    0    0  0.00000000000E+00  0.00000000000E+00 -0.11913966045E+04  0.39701417471E+04  0.37871624764E+04 0.  0.
        1    1    3    3  502    0  0.49972654305E+03  0.16416380775E+04 -0.14349715411E+04  0.22369276965E+04  0.50400001928E-02 0. -1.
       -1    1    3    3    0  502 -0.49972654305E+03 -0.16416380775E+04  0.24357493662E+03  0.17332140506E+04  0.50400001928E-02 0.  1.
</event>
<event>
 5   0  0.7268013E-07  0.3583386E+04  0.7818609E-02  0.8094308E-01
       -2   -1    0    0    0  501  0.00000000000E+00  0.00000000000E+00  0.28420379511E+04  0.28420379511E+04  0.25500000920E-02 0.  1.
        2   -1    0    0  501    0  0.00000000000E+00  0.00000000000E+00 -0.11295290726E+04  0.11295290726E+04  0.25500000920E-02 0. -1.
    10030    2    1    2    0    0  0.00000000000E+00  0.00000000000E+00  0.17125088785E+04  0.39715670237E+04  0.35833863823E+04 0.  0.
        4    1    3    3  502    0  0.15250486347E+04 -0.93214888776E+03  0.71832219457E+03  0.19263081984E+04  0.12699999809E+01 0. -1.
       -4    1    3    3    0  502 -0.15250486347E+04  0.93214888776E+03  0.99418668393E+03  0.20452588253E+04  0.12699999809E+01 0.  1.
</event>
<event>
 5   0  0.3977376E-07  0.3660931E+04  0.7818609E-02  0.8076676E-01
        1   -1    0    0  501    0  0.00000000000E+00  0.00000000000E+00  0.10393884633E+04  0.10393884633E+04  0.50400001928E-02 0.  1.
       -1   -1    0    0    0  501  0.00000000000E+00  0.00000000000E+00 -0.32236302567E+04  0.32236302567E+04  0.50400001928E-02 0. -1.
    10030    2    1    2    0    0  0.00000000000E+00  0.00000000000E+00 -0.21842417934E+04  0.42630187199E+04  0.36609310830E+04 0.  0.
        4    1    3    3  502    0  0.12552531010E+04  0.12725347811E+04 -0.15514530121E+04  0.23668572366E+04  0.12699999809E+01 0.  1.
       -4    1    3    3    0  502 -0.12552531010E+04 -0.12725347811E+04 -0.63278878128E+03  0.18961614834E+04  0.12699999809E+01 0. -1.
</event>
<event>
 5   0  0.4775594E-07  0.2131086E+04  0.7818609E-02  0.8547672E-01
       -1   -1    0    0    0  501  0.00000000000E+00  0.00000000000E+00  0.70331491087E+03  0.70331491089E+03  0.50400001928E-02 0. -1.
        1   -1    0    0  501    0  0.00000000000E+00  0.00000000000E+00 -0.16143295573E+04  0.16143295573E+04  0.50400001928E-02 0.  1.
    10030    2    1    2    0    0  0.00000000000E+00  0.00000000000E+00 -0.91101464646E+03  0.23176444682E+04  0.21310861538E+04 0.  0.
        1    1    3    3  502    0  0.20869494522E+03 -0.93086258430E+02  0.67635290419E+03  0.71391307783E+03  0.50400001928E-02 0. -1.
       -1    1    3    3    0  502 -0.20869494522E+03  0.93086258430E+02 -0.15873675507E+04  0.16037313904E+04  0.50400001928E-02 0.  1.
</event>
<event>
 5   0  0.1034683E-06  0.3894481E+04  0.7818609E-02  0.8026178E-01
       -2   -1    0    0    0  501  0.00000000000E+00  0.00000000000E+00  0.13135712700E+04  0.13135712700E+04  0.25500000920E-02 0. -1.
        2   -1    0    0  501    0  0.00000000000E+00  0.00000000000E+00 -0.28865924869E+04  0.28865924869E+04  0.25500000920E-02 0.  1.
    10030    2    1    2    0    0  0.00000000000E+00  0.00000000000E+00 -0.15730212169E+04  0.42001637570E+04  0.38944806889E+04 0.  0.
        2    1    3    3  502    0  0.46753587127E+03  0.18151535275E+03  0.12427181932E+04  0.13401067576E+04  0.25500000920E-02 0. -1.
       -2    1    3    3    0  502 -0.46753587127E+03 -0.18151535275E+03 -0.28157394100E+04  0.28600569993E+04  0.25500000920E-02 0.  1.
</event>
<event>
 5   0  0.5533705E-07  0.3387220E+04  0.7818609E-02  0.8141050E-01
        2   -1    0    0  501    0  0.00000000000E+00  0.00000000000E+00  0.15801450166E+04  0.15801450166E+04  0.25500000920E-02 0.  1.
       -2   -1    0    0    0  501  0.00000000000E+00  0.00000000000E+00 -0.18152228732E+04  0.18152228732E+04  0.25500000920E-02 0. -1.
    10030    2    1    2    0    0  0.00000000000E+00  0.00000000000E+00 -0.23507785667E+03  0.33953678898E+04  0.33872203218E+04 0.  0.
        1    1    3    3  502    0 -0.51197450535E+02 -0.16253708642E+04 -0.59181944030E+03  0.17305206948E+04  0.50400001928E-02 0.  1.
       -1    1    3    3    0  502  0.51197450535E+02  0.16253708642E+04  0.35674158362E+03  0.16648471950E+04  0.50400001928E-02 0. -1.
</event>
<event>
 5   0  0.3977376E-07  0.3527465E+04  0.7818609E-02  0.8107312E-01
       -1   -1    0    0    0  501  0.00000000000E+00  0.00000000000E+00  0.17674184974E+04  0.17674184974E+04  0.50400001928E-02 0.  1.
        1   -1    0    0  501    0  0.00000000000E+00  0.00000000000E+00 -0.17600546808E+04  0.17600546808E+04  0.50400001928E-02 0. -1.
    10030    2    1    2    0    0  0.00000000000E+00  0.00000000000E+00  0.73638166600E+01  0.35274731782E+04  0.35274654920E+04 0.  0.
        4    1    3    3  502    0 -0.95845063565E+03 -0.78269025034E+03  0.12604741827E+04  0.17663602201E+04  0.12699999809E+01 0.  1.
       -4    1    3    3    0  502  0.95845063565E+03  0.78269025034E+03 -0.12531103660E+04  0.17611129581E+04  0.12699999809E+01 0. -1.
</event>
<event>
 5   0  0.1035864E-06  0.3871287E+04  0.7818609E-02  0.8031028E-01
       -2   -1    0    0    0  501  0.00000000000E+00  0.00000000000E+00  0.14070014169E+04  0.14070014169E+04  0.25500000920E-02 0.  1.
        2   -1    0    0  501    0  0.00000000000E+00  0.00000000000E+00 -0.26629087308E+04  0.26629087308E+04  0.25500000920E-02 0. -1.
    10030    2    1    2    0    0  0.00000000000E+00  0.00000000000E+00 -0.12559073140E+04  0.40699101477E+04  0.38712873090E+04 0.  0.
        5    1    3    3  502    0 -0.12957339217E+04 -0.41628889810E+03 -0.20749700359E+04  0.24814805223E+04  0.46999998093E+01 0.  1.
       -5    1    3    3    0  502  0.12957339217E+04  0.41628889810E+03  0.81906272196E+03  0.15884296254E+04  0.46999998093E+01 0. -1.
</event>
<event>
 5   0  0.3977376E-07  0.3884200E+04  0.7818609E-02  0.8028323E-01
       -1   -1    0    0    0  501  0.00000000000E+00  0.00000000000E+00  0.22222990461E+04  0.22222990461E+04  0.50400001928E-02 0. -1.
        1   -1    0    0  501    0  0.00000000000E+00  0.00000000000E+00 -0.16972295858E+04  0.16972295858E+04  0.50400001928E-02 0.  1.
    10030    2    1    2    0    0  0.00000000000E+00  0.00000000000E+00  0.52506946032E+03  0.39195286319E+04  0.38841996291E+04 0.  0.
        4    1    3    3  502    0 -0.30996613586E+03 -0.19020801275E+04  0.20010917116E+02  0.19272752441E+04  0.12699999809E+01 0.  1.
       -4    1    3    3    0  502  0.30996613586E+03  0.19020801275E+04  0.50505854320E+03  0.19922533879E+04  0.12699999809E+01 0. -1.
</event>
<event>
 5   0  0.1034683E-06  0.4028285E+04  0.7818609E-02  0.7998865E-01
       -2   -1    0    0    0  501  0.00000000000E+00  0.00000000000E+00  0.25986919694E+04  0.25986919695E+04  0.25500000920E-02 0.  1.
        2   -1    0    0  501    0  0.00000000000E+00  0.00000000000E+00 -0.15610813792E+04  0.15610813792E+04  0.25500000920E-02 0. -1.
    10030    2    1    2    0    0  0.00000000000E+00  0.00000000000E+00  0.10376105903E+04  0.41597733486E+04  0.40282848180E+04 0.  0.
        2    1    3    3  502    0  0.99807361888E+03 -0.34551765054E+03 -0.12521779537E+04  0.16381340065E+04  0.25500000920E-02 0. -1.
       -2    1    3    3    0  502 -0.99807361888E+03  0.34551765054E+03  0.22897885440E+04  0.25216393421E+04  0.25500000920E-02 0.  1.
</event>
<event>
 5   0  0.3471602E-07  0.3990181E+04  0.7818609E-02  0.8006530E-01
       -1   -1    0    0    0  501  0.00000000000E+00  0.00000000000E+00  0.15690200187E+04  0.15690200187E+04  0.50400001928E-02 0.  1.
        1   -1    0    0  501    0  0.00000000000E+00  0.00000000000E+00 -0.25368615524E+04  0.25368615524E+04  0.50400001928E-02 0. -1.
    10030    2    1    2    0    0  0.00000000000E+00  0.00000000000E+00 -0.96784153373E+03  0.41058815712E+04  0.39901812292E+04 0.  0.
        5    1    3    3  502    0 -0.14675272182E+04  0.22215572748E+03 -0.18557604178E+04  0.23763118738E+04  0.46999998093E+01 0. -1.
       -5    1    3    3    0  502  0.14675272182E+04 -0.22215572748E+03  0.88791888402E+03  0.17295696974E+04  0.46999998093E+01 0.  1.
</event>
<event>
 5   0  0.4627905E-07  0.1938316E+04  0.7818609E-02  0.8636016E-01
       -1   -1    0    0    0  501  0.00000000000E+00  0.00000000000E+00  0.11736224543E+04  0.11736224543E+04  0.50400001928E-02 0. -1.
        1   -1    0    0  501    0  0.00000000000E+00  0.00000000000E+00 -0.80031447397E+03  0.80031447399E+03  0.50400001928E-02 0.  1.
    10030    2    1    2    0    0  0.00000000000E+00  0.00000000000E+00  0.37330798032E+03  0.19739369283E+04  0.19383158021E+04 0.  0.
        1    1    3    3  502    0  0.21167047548E+03  0.56792723059E+03  0.95680674647E+03  0.11326185940E+04  0.50400001928E-02 0. -1.
       -1    1    3    3    0  502 -0.21167047548E+03 -0.56792723059E+03 -0.58349876615E+03  0.84131833426E+03  0.50400001928E-02 0.  1.
</event>
<event>
 5   0  0.5533705E-07  0.3635583E+04  0.7818609E-02  0.8082389E-01
        2   -1    0    0  501    0  0.00000000000E+00  0.00000000000E+00  0.20455418938E+04  0.20455418938E+04  0.25500000920E-02 0. -1.
       -2   -1    0    0    0  501  0.00000000000E+00  0.00000000000E+00 -0.16153989971E+04  0.16153989971E+04  0.25500000920E-02 0.  1.
    10030    2    1    2    0    0  0.00000000000E+00  0.00000000000E+00  0.43014289676E+03  0.36609408909E+04  0.36355832125E+04 0.  0.
        1    1    3    3  502    0  0.15873574412E+04 -0.79173925969E+02 -0.67334872990E+03  0.17260853597E+04  0.50400001928E-02 0.  1.
       -1    1    3    3    0  502 -0.15873574412E+04  0.79173925969E+02  0.11034916267E+04  0.19348555313E+04  0.50400001928E-02 0. -1.
</event>
<event>
 5   0  0.5533705E-07  0.3215752E+04  0.7818609E-02  0.8184669E-01
       -2   -1    0    0    0  501  0.00000000000E+00  0.00000000000E+00  0.22457335888E+04  0.22457335888E+04  0.25500000920E-02 0. -1.
        2   -1    0    0  501    0  0.00000000000E+00  0.00000000000E+00 -0.11511897190E+04  0.11511897190E+04  0.25500000920E-02 0.  1.
    10030    2    1    2    0    0  0.00000000000E+00  0.00000000000E+00  0.10945438698E+04  0.33969233078E+04  0.32157521167E+04 0.  0.
        1    1    3    3  502    0  0.81774682927E+03 -0.89587778914E+03  0.16621764885E+04  0.20577020117E+04  0.50400001928E-02 0. -1.
       -1    1    3    3    0  502 -0.81774682927E+03  0.89587778914E+03 -0.56763261878E+03  0.13392212960E+04  0.50400001928E-02 0.  1.
</event>
<event>
 5   0  0.3977376E-07  0.3560653E+04  0.7818609E-02  0.8099564E-01
        1   -1    0    0  501    0  0.00000000000E+00  0.00000000000E+00  0.21503587750E+04  0.21503587750E+04  0.50400001928E-02 0.  1.
       -1   -1    0    0    0  501  0.00000000000E+00  0.00000000000E+00 -0.14739691772E+04  0.14739691772E+04  0.50400001928E-02 0. -1.
    10030    2    1    2    0    0  0.00000000000E+00  0.00000000000E+00  0.67638959777E+03  0.36243279522E+04  0.35606530605E+04 0.  0.
        4    1    3    3  502    0 -0.11157148678E+02 -0.17196431066E+04 -0.13076546724E+03  0.17246443449E+04  0.12699999809E+01 0.  1.
       -4    1    3    3    0  502  0.11157148678E+02  0.17196431066E+04  0.80715506501E+03  0.18996836073E+04  0.12699999809E+01 0. -1.
</event>
<event>
 5   0  0.5533705E-07  0.2377704E+04  0.7818609E-02  0.8447898E-01
        2   -1    0    0  501    0  0.00000000000E+00  0.00000000000E+00  0.14039504161E+04  0.14039504161E+04  0.25500000920E-02 0.  1.
       -2   -1    0    0    0  501  0.00000000000E+00  0.00000000000E+00 -0.10067083535E+04  0.10067083535E+04  0.25500000920E-02 0. -1.
    10030    2    1    2    0    0  0.00000000000E+00  0.00000000000E+00  0.39724206260E+03  0.24106587696E+04  0.23777036079E+04 0.  0.
        1    1    3    3  502    0 -0.25509291694E+03  0.99056229415E+03 -0.41564980569E+03  0.11041063426E+04  0.50400001928E-02 0. -1.
       -1    1    3    3    0  502  0.25509291694E+03 -0.99056229415E+03  0.81289186829E+03  0.13065524270E+04  0.50400001928E-02 0.  1.
</event>
<event>
 5   0  0.4316671E-07  0.3881101E+04  0.7818609E-02  0.8028971E-01
       -1   -1    0    0    0  501  0.00000000000E+00  0.00000000000E+00  0.18793967770E+04  0.18793967771E+04  0.50400001928E-02 0. -1.
        1   -1    0    0  501    0  0.00000000000E+00  0.00000000000E+00 -0.20036937430E+04  0.20036937430E+04  0.50400001928E-02 0.  1.
    10030    2    1    2    0    0  0.00000000000E+00  0.00000000000E+00 -0.12429696599E+03  0.38830905201E+04  0.38811006495E+04 0.  0.
        2    1    3    3  502    0  0.99787231560E+03 -0.79732245412E+03 -0.15238093112E+04  0.19883327365E+04  0.25500000920E-02 0.  1.
       -2    1    3    3    0  502 -0.99787231560E+03  0.79732245412E+03  0.13995123452E+04  0.18947577836E+04  0.25500000920E-02 0. -1.
</event>
<event>
 5   0  0.4627905E-07  0.3699103E+04  0.7818609E-02  0.8068161E-01
        1   -1    0    0  501    0  0.00000000000E+00  0.00000000000E+00  0.24552262131E+04  0.24552262131E+04  0.50400001928E-02 0.  1.
       -1   -1    0    0    0  501  0.00000000000E+00  0.00000000000E+00 -0.13932892751E+04  0.13932892751E+04  0.50400001928E-02 0. -1.
    10030    2    1    2    0    0  0.00000000000E+00  0.00000000000E+00  0.10619369380E+04  0.38485154882E+04  0.36991027835E+04 0.  0.
        1    1    3    3  502    0 -0.16816753743E+04 -0.43796592397E+03 -0.12785012895E+03  0.17424671792E+04  0.50400001928E-02 0. -1.
       -1    1    3    3    0  502  0.16816753743E+04  0.43796592397E+03  0.11897870670E+04  0.21060483090E+04  0.50400001928E-02 0.  1.
</event>
<event>
 5   0  0.1035864E-06  0.3157805E+04  0.7818609E-02  0.8200050E-01
       -2   -1    0    0    0  501  0.00000000000E+00  0.00000000000E+00  0.13682496537E+04  0.13682496537E+04  0.25500000920E-02 0.  1.
        2   -1    0    0  501    0  0.00000000000E+00  0.00000000000E+00 -0.18219874089E+04  0.18219874089E+04  0.25500000920E-02 0. -1.
    10030    2    1    2    0    0  0.00000000000E+00  0.00000000000E+00 -0.45373775519E+03  0.31902370625E+04  0.31578053399E+04 0.  0.
        5    1    3    3  502    0  0.63782383886E+03 -0.72867888765E+02 -0.16841755462E+04  0.18023868450E+04  0.46999998093E+01 0. -1.
       -5    1    3    3    0  502 -0.63782383886E+03  0.72867888765E+02  0.12304377910E+04  0.13878502175E+04  0.46999998093E+01 0.  1.
</event>
<event>
 5   0  0.5533705E-07  0.4171485E+04  0.7818609E-02  0.7970819E-01
        2   -1    0    0  501    0  0.00000000000E+00  0.00000000000E+00  0.24851958219E+04  0.24851958219E+04  0.25500000920E-02 0. -1.
       -2   -1    0    0    0  501  0.00000000000E+00  0.00000000000E+00 -0.17504942038E+04  0.17504942038E+04  0.25500000920E-02 0.  1.
    10030    2    1    2    0    0  0.00000000000E+00  0.00000000000E+00  0.73470161805E+03  0.42356900257E+04  0.41714845710E+04 0.  0.
        1    1    3    3  502    0  0.94496829434E+02  0.60359952050E+03 -0.16576002786E+04  0.17666071197E+04  0.50400001928E-02 0.  1.
       -1    1    3    3    0  502 -0.94496829434E+02 -0.60359952050E+03  0.23923018966E+04  0.24690829060E+04  0.50400001928E-02 0. -1.
</event>
<event>
 5   0  0.4316671E-07  0.3870126E+04  0.7818609E-02  0.8031271E-01
        1   -1    0    0  501    0  0.00000000000E+00  0.00000000000E+00  0.18981165242E+04  0.18981165242E+04  0.50400001928E-02 0. -1.
       -1   -1    0    0    0  501  0.00000000000E+00  0.00000000000E+00 -0.19727288173E+04  0.19727288174E+04  0.50400001928E-02 0.  1.
    10030    2    1    2    0    0  0.00000000000E+00  0.00000000000E+00 -0.74612293103E+02  0.38708453416E+04  0.38701261820E+04 0.  0.
        2    1    3    3  502    0 -0.34041334410E+03  0.15366922068E+03 -0.19363357915E+04  0.19720273253E+04  0.25500000920E-02 0.  1.
       -2    1    3    3    0  502  0.34041334410E+03 -0.15366922068E+03  0.18617234984E+04  0.18988180163E+04  0.25500000920E-02 0. -1.
</event>
<event>
 5   0  0.1199749E-06  0.1938870E+04  0.7818609E-02  0.8635747E-01
        2   -1    0    0  501    0  0.00000000000E+00  0.00000000000E+00  0.11186365802E+04  0.11186365802E+04  0.25500000920E-02 0. -1.
       -2   -1    0    0    0  501  0.00000000000E+00  0.00000000000E+00 -0.84013375136E+03  0.84013375137E+03  0.25500000920E-02 0.  1.
    10030    2    1    2    0    0  0.00000000000E+00  0.00000000000E+00  0.27850282881E+03  0.19587703315E+04  0.19388701313E+04 0.  0.
        5    1    3    3  502    0 -0.74790411546E+02 -0.86901255301E+03 -0.28818192059E+03  0.91861163301E+03  0.46999998093E+01 0.  1.
       -5    1    3    3    0  502  0.74790411546E+02  0.86901255301E+03  0.56668474940E+03  0.10401586985E+04  0.46999998093E+01 0. -1.
</event>
<event>
 5   0  0.1034683E-06  0.3997639E+04  0.7818609E-02  0.8005023E-01
       -2   -1    0    0    0  501  0.00000000000E+00  0.00000000000E+00  0.20265419906E+04  0.20265419906E+04  0.25500000920E-02 0. -1.
        2   -1    0    0  501    0  0.00000000000E+00  0.00000000000E+00 -0.19714765129E+04  0.19714765130E+04  0.25500000920E-02 0.  1.
    10030    2    1    2    0    0  0.00000000000E+00  0.00000000000E+00  0.55065477658E+02  0.39980185036E+04  0.39976392719E+04 0.  0.
        2    1    3    3  502    0  0.19456506985E+04 -0.23350145221E+03  0.42152489043E+03  0.20044357814E+04  0.25500000920E-02 0.  1.
       -2    1    3    3    0  502 -0.19456506985E+04  0.23350145221E+03 -0.36645941277E+03  0.19935827221E+04  0.25500000920E-02 0. -1.
</event>
<event>
 5   0  0.5385714E-07  0.3908190E+04  0.7818609E-02  0.8023328E-01
       -1   -1    0    0    0  501  0.00000000000E+00  0.00000000000E+00  0.12258234888E+04  0.12258234888E+04  0.50400001928E-02 0.  1.
        1   -1    0    0  501    0  0.00000000000E+00  0.00000000000E+00 -0.31150379531E+04  0.31150379531E+04  0.50400001928E-02 0. -1.
    10030    2    1    2    0    0  0.00000000000E+00  0.00000000000E+00 -0.18892144644E+04  0.43408614419E+04  0.39081897044E+04 0.  0.
        3    1    3    3  502    0 -0.14165743430E+04  0.11396716099E+04 -0.17401047604E+04  0.25166443600E+04  0.10100000352E+00 0. -1.
       -3    1    3    3    0  502  0.14165743430E+04 -0.11396716099E+04 -0.14910970399E+03  0.18242170818E+04  0.10100000352E+00 0.  1.
</event>
<event>
 5   0  0.1015219E-06  0.3938381E+04  0.7818609E-02  0.8017094E-01
        2   -1    0    0  501    0  0.00000000000E+00  0.00000000000E+00  0.24031431842E+04  0.24031431842E+04  0.25500000920E-02 0. -1.
       -2   -1    0    0    0  501  0.00000000000E+00  0.00000000000E+00 -0.16136000378E+04  0.16136000378E+04  0.25500000920E-02 0.  1.
    10030    2    1    2    0    0  0.00000000000E+00  0.00000000000E+00  0.78954314645E+03  0.40167432220E+04  0.39383813593E+04 0.  0.
        3    1    3    3  502    0 -0.90911327504E+03 -0.42580110655E+02  0.21757733322E+04  0.23584506812E+04  0.10100000352E+00 0. -1.
       -3    1    3    3    0  502  0.90911327504E+03  0.42580110655E+02 -0.13862301857E+04  0.16582925407E+04  0.10100000352E+00 0.  1.
</event>
<event>
 5   0  0.5385714E-07  0.3599248E+04  0.7818609E-02  0.8090664E-01
        1   -1    0    0  501    0  0.00000000000E+00  0.00000000000E+00  0.18267422237E+04  0.18267422237E+04  0.50400001928E-02 0.  1.
       -1   -1    0    0    0  501  0.00000000000E+00  0.00000000000E+00 -0.17729083701E+04  0.17729083701E+04  0.50400001928E-02 0. -1.
    10030    2    1    2    0    0  0.00000000000E+00  0.00000000000E+00  0.53833853612E+02  0.35996505937E+04  0.35992480205E+04 0.  0.
        3    1    3    3  502    0  0.31353726684E+03  0.34170486047E+03 -0.17121216428E+04  0.17738174538E+04  0.10100000352E+00 0. -1.
       -3    1    3    3    0  502 -0.31353726684E+03 -0.34170486047E+03  0.17659554964E+04  0.18258331400E+04  0.10100000352E+00 0.  1.
</event>
<event>
 5   0  0.1034683E-06  0.2203532E+04  0.7818609E-02  0.8516959E-01
        2   -1    0    0  501    0  0.00000000000E+00  0.00000000000E+00  0.15174800191E+04  0.15174800191E+04  0.25500000920E-02 0. -1.
       -2   -1    0    0    0  501  0.00000000000E+00  0.00000000000E+00 -0.79993703206E+03  0.79993703206E+03  0.25500000920E-02 0.  1.
    10030    2    1    2    0    0  0.00000000000E+00  0.00000000000E+00  0.71754298708E+03  0.23174170512E+04  0.22035321307E+04 0.  0.
        2    1    3    3  502    0  0.65215633555E+03 -0.19491841143E+03  0.12699121846E+04  0.14408254682E+04  0.25500000920E-02 0. -1.
       -2    1    3    3    0  502 -0.65215633555E+03  0.19491841143E+03 -0.55236919750E+03  0.87659158305E+03  0.25500000920E-02 0.  1.
</event>
<event>
 5   0  0.7268013E-07  0.3150797E+04  0.7818609E-02  0.8201934E-01
        2   -1    0    0  501    0  0.00000000000E+00  0.00000000000E+00  0.20333969198E+04  0.20333969198E+04  0.25500000920E-02 0. -1.
       -2   -1    0    0    0  501  0.00000000000E+00  0.00000000000E+00 -0.12205589510E+04  0.12205589510E+04  0.25500000920E-02 0.  1.
    10030    2    1    2    0    0  0.00000000000E+00  0.00000000000E+00  0.81283796886E+03  0.32539558708E+04  0.31507972397E+04 0.  0.
        4    1    3    3  502    0  0.45599745477E+03  0.14708822004E+04  0.63196152138E+02  0.15412408938E+04  0.12699999809E+01 0.  1.
       -4    1    3    3    0  502 -0.45599745477E+03 -0.14708822004E+04  0.74964181672E+03  0.17127149770E+04  0.12699999809E+01 0. -1.
</event>
<event>
 5   0  0.4627905E-07  0.3776141E+04  0.7818609E-02  0.8051294E-01
        1   -1    0    0  501    0  0.00000000000E+00  0.00000000000E+00  0.19128760905E+04  0.19128760905E+04  0.50400001928E-02 0.  1.
       -1   -1    0    0    0  501  0.00000000000E+00  0.00000000000E+00 -0.18635870638E+04  0.18635870639E+04  0.50400001928E-02 0. -1.
    10030    2    1    2    0    0  0.00000000000E+00  0.00000000000E+00  0.49289026696E+02  0.37764631544E+04  0.37761414895E+04 0.  0.
        1    1    3    3  502    0 -0.60038412988E+03 -0.38638474463E+03  0.17726654989E+04  0.19110461128E+04  0.50400001928E-02 0.  1.
       -1    1    3    3    0  502  0.60038412988E+03  0.38638474463E+03 -0.17233764722E+04  0.18654170416E+04  0.50400001928E-02 0. -1.
</event>
<event>
 5   0  0.5533705E-07  0.3926178E+04  0.7818609E-02  0.8019607E-01
        2   -1    0    0  501    0  0.00000000000E+00  0.00000000000E+00  0.19973449538E+04  0.19973449538E+04  0.25500000920E-02 0. -1.
       -2   -1    0    0    0  501  0.00000000000E+00  0.00000000000E+00 -0.19294201295E+04  0.19294201295E+04  0.25500000920E-02 0.  1.
    10030    2    1    2    0    0  0.00000000000E+00  0.00000000000E+00  0.67924824353E+02  0.39267650833E+04  0.39261775607E+04 0.  0.
        1    1    3    3  502    0 -0.15392601621E+04 -0.11501073965E+04  0.43607815655E+03  0.19703383031E+04  0.50400001928E-02 0.  1.
       -1    1    3    3    0  502  0.15392601621E+04  0.11501073965E+04 -0.36815333219E+03  0.19564267802E+04  0.50400001928E-02 0. -1.
</event>
<event>
 5   0  0.1034683E-06  0.2713613E+04  0.7818609E-02  0.8330601E-01
       -2   -1    0    0    0  501  0.00000000000E+00  0.00000000000E+00  0.16344338044E+04  0.16344338044E+04  0.25500000920E-02 0.  1.
        2   -1    0    0  501    0  0.00000000000E+00  0.00000000000E+00 -0.11263376333E+04  0.11263376333E+04  0.25500000920E-02 0. -1.
    10030    2    1    2    0    0  0.00000000000E+00  0.00000000000E+00  0.50809617107E+03  0.27607714378E+04  0.27136133130E+04 0.  0.
        2    1    3    3  502    0 -0.22739512408E+02 -0.52379354836E+03  0.15272138805E+04  0.16147009022E+04  0.25500000920E-02 0.  1.
       -2    1    3    3    0  502  0.22739512408E+02  0.52379354836E+03 -0.10191177094E+04  0.11460705355E+04  0.25500000920E-02 0. -1.
</event>
<event>
 5   0  0.5385714E-07  0.3352850E+04  0.7818609E-02  0.8149576E-01
       -1   -1    0    0    0  501  0.00000000000E+00  0.00000000000E+00  0.12982448369E+04  0.12982448369E+04  0.50400001928E-02 0.  1.
        1   -1    0    0  501    0  0.00000000000E+00  0.00000000000E+00 -0.21647697463E+04  0.21647697463E+04  0.50400001928E-02 0. -1.
    10030    2    1    2    0    0  0.00000000000E+00  0.00000000000E+00 -0.86652490948E+03  0.34630145832E+04  0.33528502181E+04 0.  0.
        3    1    3    3  502    0  0.11197038982E+04  0.93347607323E+03  0.42175765854E+03  0.15175618379E+04  0.10100000352E+00 0.  1.
       -3    1    3    3    0  502 -0.11197038982E+04 -0.93347607323E+03 -0.12882825680E+04  0.19454527453E+04  0.10100000352E+00 0. -1.
</event>
<event>
 5   0  0.3471602E-07  0.3550248E+04  0.7818609E-02  0.8101984E-01
       -1   -1    0    0    0  501  0.00000000000E+00  0.00000000000E+00  0.14677930790E+04  0.14677930791E+04  0.50400001928E-02 0. -1.
        1   -1    0    0  501    0  0.00000000000E+00  0.00000000000E+00 -0.21468050391E+04  0.21468050391E+04  0.50400001928E-02 0.  1.
    10030    2    1    2    0    0  0.00000000000E+00  0.00000000000E+00 -0.67901196004E+03  0.36145981181E+04  0.35502482045E+04 0.  0.
        5    1    3    3  502    0  0.80677629537E+03 -0.12437264432E+04  0.65456204709E+03  0.16205607116E+04  0.46999998093E+01 0. -1.
       -5    1    3    3    0  502 -0.80677629537E+03  0.12437264432E+04 -0.13335740071E+04  0.19940374066E+04  0.46999998093E+01 0.  1.
</event>
<event>
 5   0  0.4316671E-07  0.3611247E+04  0.7818609E-02  0.8087920E-01
        1   -1    0    0  501    0  0.00000000000E+00  0.00000000000E+00  0.18124062523E+04  0.18124062523E+04  0.50400001928E-02 0. -1.
       -1   -1    0    0    0  501  0.00000000000E+00  0.00000000000E+00 -0.17988660383E+04  0.17988660383E+04  0.50400001928E-02 0.  1.
    10030    2    1    2    0    0  0.00000000000E+00  0.00000000000E+00  0.13540213988E+02  0.36112722906E+04  0.36112469065E+04 0.  0.
        2    1    3    3  502    0  0.10361014225E+04 -0.46049699145E+02  0.14848364232E+04  0.18111780520E+04  0.25500000920E-02 0. -1.
       -2    1    3    3    0  502 -0.10361014225E+04  0.46049699145E+02 -0.14712962092E+04  0.18000942386E+04  0.25500000920E-02 0.  1.
</event>
<event>
 5   0  0.5533705E-07  0.3909045E+04  0.7818609E-02  0.8023151E-01
       -2   -1    0    0    0  501  0.00000000000E+00  0.00000000000E+00  0.15495780709E+04  0.15495780709E+04  0.25500000920E-02 0.  1.
        2   -1    0    0  501    0  0.00000000000E+00  0.00000000000E+00 -0.24652890786E+04  0.24652890786E+04  0.25500000920E-02 0. -1.
    10030    2    1    2    0    0  0.00000000000E+00  0.00000000000E+00 -0.91571100771E+03  0.40148671496E+04  0.39090448423E+04 0.  0.
        1    1    3    3  502    0  0.18733589994E+04 -0.30484211555E+03  0.21419558888E+02  0.18981205056E+04  0.50400001928E-02 0.  1.
       -1    1    3    3    0  502 -0.18733589994E+04  0.30484211555E+03 -0.93713056659E+03  0.21167466440E+04  0.50400001928E-02 0. -1.
</event>
<event>
 5   0  0.1034683E-06  0.3868114E+04  0.7818609E-02  0.8031694E-01
       -2   -1    0    0    0  501  0.00000000000E+00  0.00000000000E+00  0.19153897253E+04  0.19153897253E+04  0.25500000920E-02 0. -1.
        2   -1    0    0  501    0  0.00000000000E+00  0.00000000000E+00 -0.19529060743E+04  0.19529060743E+04  0.25500000920E-02 0.  1.
    10030    2    1    2    0    0  0.00000000000E+00  0.00000000000E+00 -0.37516348997E+02  0.38682957996E+04  0.38681138707E+04 0.  0.
        2    1    3    3  502    0  0.13825797654E+04 -0.11770658382E+04  0.64728023231E+03  0.19276883810E+04  0.25500000920E-02 0.  1.
       -2    1    3    3    0  502 -0.13825797654E+04  0.11770658382E+04 -0.68479658131E+03  0.19406074186E+04  0.25500000920E-02 0. -1.
</event>
<event>
 5   0  0.7268013E-07  0.3937208E+04  0.7818609E-02  0.8017335E-01
       -2   -1    0    0    0  501  0.00000000000E+00  0.00000000000E+00  0.15281968588E+04  0.15281968588E+04  0.25500000920E-02 0.  1.
        2   -1    0    0  501    0  0.00000000000E+00  0.00000000000E+00 -0.25359303323E+04  0.25359303323E+04  0.25500000920E-02 0. -1.
    10030    2    1    2    0    0  0.00000000000E+00  0.00000000000E+00 -0.10077334735E+04  0.40641271912E+04  0.39372075221E+04 0.  0.
        4    1    3    3  502    0  0.14997464281E+04 -0.74018778528E+03  0.56801070840E+03  0.17662828436E+04  0.12699999809E+01 0.  1.
       -4    1    3    3    0  502 -0.14997464281E+04  0.74018778528E+03 -0.15757441819E+04  0.22978443475E+04  0.12699999809E+01 0. -1.
</event>
<event>
 5   0  0.1035864E-06  0.4049352E+04  0.7818609E-02  0.7994664E-01
       -2   -1    0    0    0  501  0.00000000000E+00  0.00000000000E+00  0.20635173933E+04  0.20635173933E+04  0.25500000920E-02 0. -1.
        2   -1    0    0  501    0  0.00000000000E+00  0.00000000000E+00 -0.19865654622E+04  0.19865654622E+04  0.25500000920E-02 0.  1.
    10030    2    1    2    0    0  0.00000000000E+00  0.00000000000E+00  0.76951931096E+02  0.40500828555E+04  0.40493517427E+04 0.  0.
        5    1    3    3  502    0 -0.11914833552E+04  0.53185429078E+03 -0.15099601109E+04  0.19956210059E+04  0.46999998093E+01 0.  1.
       -5    1    3    3    0  502  0.11914833552E+04 -0.53185429078E+03  0.15869120420E+04  0.20544618496E+04  0.46999998093E+01 0. -1.
</event>
<event>
 5   0  0.5533705E-07  0.3875180E+04  0.7818609E-02  0.8030211E-01
       -2   -1    0    0    0  501  0.00000000000E+00  0.00000000000E+00  0.19595855932E+04  0.19595855932E+04  0.25500000920E-02 0. -1.
        2   -1    0    0  501    0  0.00000000000E+00  0.00000000000E+00 -0.19158417585E+04  0.19158417585E+04  0.25500000920E-02 0.  1.
    10030    2    1    2    0    0  0.00000000000E+00  0.00000000000E+00  0.43743834616E+02  0.38754273517E+04  0.38751804649E+04 0.  0.
        1    1    3    3  502    0  0.38722198774E+03 -0.18128554183E+04 -0.54196385443E+03  0.19313493871E+04  0.50400001928E-02 0. -1.
       -1    1    3    3    0  502 -0.38722198774E+03  0.18128554183E+04  0.58570768905E+03  0.19440779646E+04  0.50400001928E-02 0.  1.
</event>
<event>
 5   0  0.1034683E-06  0.3855021E+04  0.7818609E-02  0.8034450E-01
       -2   -1    0    0    0  501  0.00000000000E+00  0.00000000000E+00  0.13302000289E+04  0.13302000289E+04  0.25500000920E-02 0.  1.
        2   -1    0    0  501    0  0.00000000000E+00  0.00000000000E+00 -0.27930362310E+04  0.27930362310E+04  0.25500000920E-02 0. -1.
    10030    2    1    2    0    0  0.00000000000E+00  0.00000000000E+00 -0.14628362021E+04  0.41232362598E+04  0.38550210765E+04 0.  0.
        2    1    3    3  502    0 -0.88538324854E+03  0.13621510591E+04 -0.18408612703E+04  0.24552248820E+04  0.25500000920E-02 0. -1.
       -2    1    3    3    0  502  0.88538324854E+03 -0.13621510591E+04  0.37802506813E+03  0.16680113779E+04  0.25500000920E-02 0.  1.
</event>
<event>
 5   0  0.3977376E-07  0.2126010E+04  0.7818609E-02  0.8549872E-01
        1   -1    0    0  501    0  0.00000000000E+00  0.00000000000E+00  0.74097384886E+03  0.74097384887E+03  0.50400001928E-02 0.  1.
       -1   -1    0    0    0  501  0.00000000000E+00  0.00000000000E+00 -0.15249922570E+04  0.15249922570E+04  0.50400001928E-02 0. -1.
    10030    2    1    2    0    0  0.00000000000E+00  0.00000000000E+00 -0.78401840814E+03  0.22659661059E+04  0.21260097668E+04 0.  0.
        4    1    3    3  502    0  0.93902557917E+03 -0.26742662090E+02  0.13822788959E+03  0.94952239083E+03  0.12699999809E+01 0.  1.
       -4    1    3    3    0  502 -0.93902557917E+03  0.26742662090E+02 -0.92224629774E+03  0.13164437151E+04  0.12699999809E+01 0. -1.
</event>
<event>
 5   0  0.3471602E-07  0.3738368E+04  0.7818609E-02  0.8059512E-01
       -1   -1    0    0    0  501  0.00000000000E+00  0.00000000000E+00  0.17307624941E+04  0.17307624942E+04  0.50400001928E-02 0. -1.
        1   -1    0    0  501    0  0.00000000000E+00  0.00000000000E+00 -0.20186763459E+04  0.20186763459E+04  0.50400001928E-02 0.  1.
    10030    2    1    2    0    0  0.00000000000E+00  0.00000000000E+00 -0.28791385179E+03  0.37494388401E+04  0.37383682576E+04 0.  0.
        5    1    3    3  502    0 -0.15646943936E+04  0.79688077633E+03  0.49867422524E+03  0.18253727263E+04  0.46999998093E+01 0. -1.
       -5    1    3    3    0  502  0.15646943936E+04 -0.79688077633E+03 -0.78658807702E+03  0.19240661137E+04  0.46999998093E+01 0.  1.
</event>
<event>
 5   0  0.4316671E-07  0.3809083E+04  0.7818609E-02  0.8044208E-01
        1   -1    0    0  501    0  0.00000000000E+00  0.00000000000E+00  0.12503862412E+04  0.12503862413E+04  0.50400001928E-02 0.  1.
       -1   -1    0    0    0  501  0.00000000000E+00  0.00000000000E+00 -0.29009264555E+04  0.29009264555E+04  0.50400001928E-02 0. -1.
    10030    2    1    2    0    0  0.00000000000E+00  0.00000000000E+00 -0.16505402142E+04  0.41513126967E+04  0.38090831058E+04 0.  0.
        2    1    3    3  502    0 -0.66729049644E+02  0.93167143252E+03 -0.26341559026E+04  0.27948598790E+04  0.25500000920E-02 0. -1.
       -2    1    3    3    0  502  0.66729049644E+02 -0.93167143252E+03  0.98361568837E+03  0.13564528177E+04  0.25500000920E-02 0.  1.
</event>
<event>
 5   0  0.4627905E-07  0.3915008E+04  0.7818609E-02  0.8021915E-01
       -1   -1    0    0    0  501  0.00000000000E+00  0.00000000000E+00  0.24412973052E+04  0.24412973052E+04  0.50400001928E-02 0. -1.
        1   -1    0    0  501    0  0.00000000000E+00  0.00000000000E+00 -0.15695842736E+04  0.15695842736E+04  0.50400001928E-02 0.  1.
    10030    2    1    2    0    0  0.00000000000E+00  0.00000000000E+00  0.87171303163E+03  0.40108815788E+04  0.39150079731E+04 0.  0.
        1    1    3    3  502    0 -0.88243899767E+03 -0.54166737734E+03  0.21377786153E+04  0.23753314590E+04  0.50400001928E-02 0. -1.
       -1    1    3    3    0  502  0.88243899767E+03  0.54166737734E+03 -0.12660655836E+04  0.16355501198E+04  0.50400001928E-02 0.  1.
</event>
<event>
 5   0  0.5533705E-07  0.3904724E+04  0.7818609E-02  0.8024047E-01
        2   -1    0    0  501    0  0.00000000000E+00  0.00000000000E+00  0.18486166721E+04  0.18486166721E+04  0.25500000920E-02 0.  1.
       -2   -1    0    0    0  501  0.00000000000E+00  0.00000000000E+00 -0.20619300046E+04  0.20619300046E+04  0.25500000920E-02 0. -1.
    10030    2    1    2    0    0  0.00000000000E+00  0.00000000000E+00 -0.21331333248E+03  0.39105466766E+04  0.39047244118E+04 0.  0.
        1    1    3    3  502    0 -0.34583105393E+03 -0.15701787323E+04 -0.12158539598E+04  0.20157780684E+04  0.50400001928E-02 0. -1.
       -1    1    3    3    0  502  0.34583105393E+03  0.15701787323E+04  0.10025406273E+04  0.18947686083E+04  0.50400001928E-02 0.  1.
</event>
<event>
 5   0  0.7647105E-07  0.2102874E+04  0.7818609E-02  0.8559978E-01
       -1   -1    0    0    0  501  0.00000000000E+00  0.00000000000E+00  0.91426682615E+03  0.91426682617E+03  0.50400001928E-02 0.  1.
        1   -1    0    0  501    0  0.00000000000E+00  0.00000000000E+00 -0.12091870723E+04  0.12091870723E+04  0.50400001928E-02 0. -1.
    10030    2    1    2    0    0  0.00000000000E+00  0.00000000000E+00 -0.29492024615E+03  0.21234538985E+04  0.21028738686E+04 0.  0.
        2    1    3    3  502    0 -0.13128982430E+03 -0.71574889841E+03  0.61890480697E+03  0.95528878547E+03  0.25500000920E-02 0.  1.
       -2    1    3    3    0  502  0.13128982430E+03  0.71574889841E+03 -0.91382505313E+03  0.11681651130E+04  0.25500000920E-02 0. -1.
</event>
<event>
 5   0  0.5533705E-07  0.3879052E+04  0.7818609E-02  0.8029400E-01
        2   -1    0    0  501    0  0.00000000000E+00  0.00000000000E+00  0.23048894405E+04  0.23048894405E+04  0.25500000920E-02 0.  1.
       -2   -1    0    0    0  501  0.00000000000E+00  0.00000000000E+00 -0.16320789810E+04  0.16320789810E+04  0.25500000920E-02 0. -1.
    10030    2    1    2    0    0  0.00000000000E+00  0.00000000000E+00  0.67281045952E+03  0.39369684215E+04  0.38790522602E+04 0.  0.
        1    1    3    3  502    0  0.96548255913E+03 -0.84106342311E+02  0.20415280756E+04  0.22598821501E+04  0.50400001928E-02 0.  1.
       -1    1    3    3    0  502 -0.96548255913E+03  0.84106342311E+02 -0.13687176161E+04  0.16770862713E+04  0.50400001928E-02 0. -1.
</event>
<event>
 5   0  0.1035864E-06  0.4323027E+04  0.7818609E-02  0.7942374E-01
       -2   -1    0    0    0  501  0.00000000000E+00  0.00000000000E+00  0.16521228777E+04  0.16521228777E+04  0.25500000920E-02 0. -1.
        2   -1    0    0  501    0  0.00000000000E+00  0.00000000000E+00 -0.28279625630E+04  0.28279625630E+04  0.25500000920E-02 0.  1.
    10030    2    1    2    0    0  0.00000000000E+00  0.00000000000E+00 -0.11758396853E+04  0.44800854408E+04  0.43230274798E+04 0.  0.
        5    1    3    3  502    0  0.74592638983E+03 -0.16194572367E+04  0.67838603654E+03  0.19076890798E+04  0.46999998093E+01 0. -1.
       -5    1    3    3    0  502 -0.74592638983E+03  0.16194572367E+04 -0.18542257218E+04  0.25723963610E+04  0.46999998093E+01 0.  1.
</event>
<event>
 5   0  0.5385714E-07  0.2290691E+04  0.7818609E-02  0.8481601E-01
       -1   -1    0    0    0  501  0.00000000000E+00  0.00000000000E+00  0.64437747474E+03  0.64437747476E+03  0.50400001928E-02 0.  1.
        1   -1    0    0  501    0  0.00000000000E+00  0.00000000000E+00 -0.20357880469E+04  0.20357880469E+04  0.50400001928E-02 0. -1.
    10030    2    1    2    0    0  0.00000000000E+00  0.00000000000E+00 -0.13914105721E+04  0.26801655216E+04  0.22906906913E+04 0.  0.
        3    1    3    3  502    0 -0.70293292510E+02 -0.87796217367E+03  0.16093943316E+03  0.89535481052E+03  0.10100000352E+00 0.  1.
       -3    1    3    3    0  502  0.70293292510E+02  0.87796217367E+03 -0.15523500053E+04  0.17848107111E+04  0.10100000352E+00 0. -1.
</event>
<event>
 5   0  0.7268013E-07  0.3109223E+04  0.7818609E-02  0.8213211E-01
       -2   -1    0    0    0  501  0.00000000000E+00  0.00000000000E+00  0.16290196088E+04  0.16290196088E+04  0.25500000920E-02 0. -1.
        2   -1    0    0  501    0  0.00000000000E+00  0.00000000000E+00 -0.14836019548E+04  0.14836019548E+04  0.25500000920E-02 0.  1.
    10030    2    1    2    0    0  0.00000000000E+00  0.00000000000E+00  0.14541765401E+03  0.31126215635E+04  0.31092228456E+04 0.  0.
        4    1    3    3  502    0 -0.45628911770E+03 -0.73169328962E+02 -0.14132524760E+04  0.14868885914E+04  0.12699999809E+01 0.  1.
       -4    1    3    3    0  502  0.45628911770E+03  0.73169328962E+02  0.15586701300E+04  0.16257329721E+04  0.12699999809E+01 0. -1.
</event>
<event>
 5   0  0.3977376E-07  0.3789571E+04  0.7818609E-02  0.8048397E-01
       -1   -1    0    0    0  501  0.00000000000E+00  0.00000000000E+00  0.34656775149E+04  0.34656775149E+04  0.50400001928E-02 0. -1.
        1   -1    0    0  501    0  0.00000000000E+00  0.00000000000E+00 -0.10359338171E+04  0.10359338171E+04  0.50400001928E-02 0.  1.
    10030    2    1    2    0    0  0.00000000000E+00  0.00000000000E+00  0.24297436978E+04  0.45016113320E+04  0.37895712352E+04 0.  0.
        4    1    3    3  502    0  0.14834510834E+04  0.97979823322E+03  0.43629845699E+03  0.18305708539E+04  0.12699999809E+01 0.  1.
       -4    1    3    3    0  502 -0.14834510834E+04 -0.97979823322E+03  0.19934452408E+04  0.26710404781E+04  0.12699999809E+01 0. -1.
</event>
<event>
 5   0  0.1034683E-06  0.3899114E+04  0.7818609E-02  0.8025214E-01
       -2   -1    0    0    0  501  0.00000000000E+00  0.00000000000E+00  0.12852402300E+04  0.12852402300E+04  0.25500000920E-02 0.  1.
        2   -1    0    0  501    0  0.00000000000E+00  0.00000000000E+00 -0.29572462979E+04  0.29572462980E+04  0.25500000920E-02 0. -1.
    10030    2    1    2    0    0  0.00000000000E+00  0.00000000000E+00 -0.16720060679E+04  0.42424865280E+04  0.38991137004E+04 0.  0.
        2    1    3    3  502    0 -0.88973966367E+03  0.80183895001E+03  0.83770359972E+03  0.14616188600E+04  0.25500000920E-02 0.  1.
       -2    1    3    3    0  502  0.88973966367E+03 -0.80183895001E+03 -0.25097096677E+04  0.27808676680E+04  0.25500000920E-02 0. -1.
</event>
<event>
 5   0  0.3471602E-07  0.2301499E+04  0.7818609E-02  0.8477330E-01
       -1   -1    0    0    0  501  0.00000000000E+00  0.00000000000E+00  0.87486407677E+03  0.87486407679E+03  0.50400001928E-02 0.  1.
        1   -1    0    0  501    0  0.00000000000E+00  0.00000000000E+00 -0.15136345069E+04  0.15136345069E+04  0.50400001928E-02 0. -1.
    10030    2    1    2    0    0  0.00000000000E+00  0.00000000000E+00 -0.63877043017E+03  0.23884985837E+04  0.23014990380E+04 0.  0.
        5    1    3    3  502    0  0.32819611102E+02 -0.98175079487E+03 -0.94145216374E+03  0.13606123683E+04  0.46999998093E+01 0. -1.
       -5    1    3    3    0  502 -0.32819611102E+02  0.98175079487E+03  0.30268173358E+03  0.10278862155E+04  0.46999998093E+01 0.  1.
</event>
<event>
 5   0  0.5533705E-07  0.3879563E+04  0.7818609E-02  0.8029293E-01
        2   -1    0    0  501    0  0.00000000000E+00  0.00000000000E+00  0.13978735339E+04  0.13978735339E+04  0.25500000920E-02 0.  1.
       -2   -1    0    0    0  501  0.00000000000E+00  0.00000000000E+00 -0.26917686397E+04  0.26917686397E+04  0.25500000920E-02 0. -1.
    10030    2    1    2    0    0  0.00000000000E+00  0.00000000000E+00 -0.12938951058E+04  0.40896421736E+04  0.38795629345E+04 0.  0.
        1    1    3    3  502    0  0.73621495168E+03 -0.17456361242E+04 -0.10860289112E+04  0.21837391624E+04  0.50400001928E-02 0. -1.
       -1    1    3    3    0  502 -0.73621495168E+03  0.17456361242E+04 -0.20786619460E+03  0.19059030112E+04  0.50400001928E-02 0.  1.
</event>
<event>
 5   0  0.1035864E-06  0.3792902E+04  0.7818609E-02  0.8047680E-01
        2   -1    0    0  501    0  0.00000000000E+00  0.00000000000E+00  0.15777922276E+04  0.15777922276E+04  0.25500000920E-02 0.  1.
       -2   -1    0    0    0  501  0.00000000000E+00  0.00000000000E+00 -0.22794682037E+04  0.22794682037E+04  0.25500000920E-02 0. -1.
    10030    2    1    2    0    0  0.00000000000E+00  0.00000000000E+00 -0.70167597613E+03  0.38572604313E+04  0.37929024321E+04 0.  0.
        5    1    3    3  502    0 -0.88501459149E+02 -0.15675119923E+04 -0.14326447373E+04  0.21254221669E+04  0.46999998093E+01 0. -1.
       -5    1    3    3    0  502  0.88501459149E+02  0.15675119923E+04  0.73096876114E+03  0.17318382644E+04  0.46999998093E+01 0.  1.
</event>
<event>
 5   0  0.1034683E-06  0.3379297E+04  0.7818609E-02  0.8143006E-01
        2   -1    0    0  501    0  0.00000000000E+00  0.00000000000E+00  0.19567116864E+04  0.19567116864E+04  0.25500000920E-02 0. -1.
       -2   -1    0    0    0  501  0.00000000000E+00  0.00000000000E+00 -0.14590356213E+04  0.14590356213E+04  0.25500000920E-02 0.  1.
    10030    2    1    2    0    0  0.00000000000E+00  0.00000000000E+00  0.49767606510E+03  0.34157473076E+04  0.33792969984E+04 0.  0.
        2    1    3    3  502    0 -0.11363162650E+04  0.70132128888E+03 -0.79762896569E+03  0.15554028967E+04  0.25500000920E-02 0.  1.
       -2    1    3    3    0  502  0.11363162650E+04 -0.70132128888E+03  0.12953050308E+04  0.18603444109E+04  0.25500000920E-02 0. -1.
</event>
<event>
 5   0  0.7323669E-07  0.1946706E+04  0.7818609E-02  0.8631951E-01
        2   -1    0    0  501    0  0.00000000000E+00  0.00000000000E+00  0.16008454191E+04  0.16008454191E+04  0.25500000920E-02 0.  1.
       -2   -1    0    0    0  501  0.00000000000E+00  0.00000000000E+00 -0.59182206150E+03  0.59182206150E+03  0.25500000920E-02 0. -1.
    10030    2    1    2    0    0  0.00000000000E+00  0.00000000000E+00  0.10090233576E+04  0.21926674806E+04  0.19467055618E+04 0.  0.
        1    1    3    3  502    0  0.62692690769E+03 -0.69910596175E+03  0.21596181638E+03  0.96354864926E+03  0.50400001928E-02 0. -1.
       -1    1    3    3    0  502 -0.62692690769E+03  0.69910596175E+03  0.79306154119E+03  0.12291188313E+04  0.50400001928E-02 0.  1.
</event>
<event>
 5   0  0.4627905E-07  0.3759308E+04  0.7818609E-02  0.8054944E-01
       -1   -1    0    0    0  501  0.00000000000E+00  0.00000000000E+00  0.18521713059E+04  0.18521713059E+04  0.50400001928E-02 0. -1.
        1   -1    0    0  501    0  0.00000000000E+00  0.00000000000E+00 -0.19075448817E+04  0.19075448817E+04  0.50400001928E-02 0.  1.
    10030    2    1    2    0    0  0.00000000000E+00  0.00000000000E+00 -0.55373575811E+02  0.37597161876E+04  0.37593083909E+04 0.  0.
        1    1    3    3  502    0 -0.11053575670E+04 -0.12933984507E+04 -0.82677595861E+03  0.18916271802E+04  0.50400001928E-02 0.  1.
       -1    1    3    3    0  502  0.11053575670E+04  0.12933984507E+04  0.77140238280E+03  0.18680890073E+04  0.50400001928E-02 0. -1.
</event>
<event>
 5   0  0.4316671E-07  0.2790438E+04  0.7818609E-02  0.8306243E-01
       -1   -1    0    0    0  501  0.00000000000E+00  0.00000000000E+00  0.14046306442E+04  0.14046306442E+04  0.50400001928E-02 0.  1.
        1   -1    0    0  501    0  0.00000000000E+00  0.00000000000E+00 -0.13858707546E+04  0.13858707546E+04  0.50400001928E-02 0. -1.
    10030    2    1    2    0    0  0.00000000000E+00  0.00000000000E+00  0.18759889606E+02  0.27905013988E+04  0.27904383389E+04 0.  0.
        2    1    3    3  502    0  0.10498927198E+04 -0.86909463789E+02 -0.90541313264E+03  0.13891007591E+04  0.25500000920E-02 0. -1.
       -2    1    3    3    0  502 -0.10498927198E+04  0.86909463789E+02  0.92417302225E+03  0.14014006398E+04  0.25500000920E-02 0.  1.
</event>
<event>
 5   0  0.1034683E-06  0.2909032E+04  0.7818609E-02  0.8270195E-01
       -2   -1    0    0    0  501  0.00000000000E+00  0.00000000000E+00  0.10333544082E+04  0.10333544082E+04  0.25500000920E-02 0.  1.
        2   -1    0    0  501    0  0.00000000000E+00  0.00000000000E+00 -0.20473292771E+04  0.20473292771E+04  0.25500000920E-02 0. -1.
    10030    2    1    2    0    0  0.00000000000E+00  0.00000000000E+00 -0.10139748689E+04  0.30806836853E+04  0.29090319582E+04 0.  0.
        2    1    3    3  502    0 -0.83655204762E+03  0.11882967001E+04 -0.57182387011E+03  0.15616820785E+04  0.25500000920E-02 0.  1.
       -2    1    3    3    0  502  0.83655204762E+03 -0.11882967001E+04 -0.44215099874E+03  0.15190016068E+04  0.25500000920E-02 0. -1.
</event>
<event>
 5   0  0.7268013E-07  0.3222340E+04  0.7818609E-02  0.8182942E-01
        2   -1    0    0  501    0  0.00000000000E+00  0.00000000000E+00  0.11780063284E+04  0.11780063284E+04  0.25500000920E-02 0.  1.
       -2   -1    0    0    0  501  0.00000000000E+00  0.00000000000E+00 -0.22036116956E+04  0.22036116956E+04  0.25500000920E-02 0. -1.
    10030    2    1    2    0    0  0.00000000000E+00  0.00000000000E+00 -0.10256053671E+04  0.33816180240E+04  0.32223398473E+04 0.  0.
        4    1    3    3  502    0 -0.13621778883E+04 -0.59428060058E+03 -0.11657880187E+04  0.18888518600E+04  0.12699999809E+01 0. -1.
       -4    1    3    3    0  502  0.13621778883E+04  0.59428060058E+03  0.14018265152E+03  0.14927661640E+04  0.12699999809E+01 0.  1.
</event>
<event>
 5   0  0.5533705E-07  0.2168898E+04  0.7818609E-02  0.8531486E-01
        2   -1    0    0  501    0  0.00000000000E+00  0.00000000000E+00  0.20291401795E+04  0.20291401795E+04  0.25500000920E-02 0.  1.
       -2   -1    0    0    0  501  0.00000000000E+00  0.00000000000E+00 -0.57957024660E+03  0.57957024660E+03  0.25500000920E-02 0. -1.
    10030    2    1    2    0    0  0.00000000000E+00  0.00000000000E+00  0.14495699329E+04  0.26087104261E+04  0.21688976686E+04 0.  0.
        1    1    3    3  502    0  0.22181414153E+03  0.92972829383E+03  0.13409486315E+04  0.16467359977E+04  0.50400001928E-02 0.  1.
       -1    1    3    3    0  502 -0.22181414153E+03 -0.92972829383E+03  0.10862130137E+03  0.96197442839E+03  0.50400001928E-02 0. -1.
</event>
<event>
 5   0  0.1015219E-06  0.3702934E+04  0.7818609E-02  0.8067312E-01
       -2   -1    0    0    0  501  0.00000000000E+00  0.00000000000E+00  0.14662792060E+04  0.14662792060E+04  0.25500000920E-02 0. -1.
        2   -1    0    0  501    0  0.00000000000E+00  0.00000000000E+00 -0.23378426635E+04  0.23378426635E+04  0.25500000920E-02 0.  1.
    10030    2    1    2    0    0  0.00000000000E+00  0.00000000000E+00 -0.87156345754E+03  0.38041218695E+04  0.37029340175E+04 0.  0.
        3    1    3    3  502    0  0.23165363850E+03 -0.11491228451E+04  0.10364825087E+04  0.15647500511E+04  0.10100000352E+00 0. -1.
       -3    1    3    3    0  502 -0.23165363850E+03  0.11491228451E+04 -0.19080459663E+04  0.22393718184E+04  0.10100000352E+00 0.  1.
</event>
<event>
 5   0  0.4316671E-07  0.3873644E+04  0.7818609E-02  0.8030533E-01
        1   -1    0    0  501    0  0.00000000000E+00  0.00000000000E+00  0.17694705787E+04  0.17694705787E+04  0.50400001928E-02 0.  1.
       -1   -1    0    0    0  501  0.00000000000E+00  0.00000000000E+00 -0.21200008168E+04  0.21200008168E+04  0.50400001928E-02 0. -1.
    10030    2    1    2    0    0  0.00000000000E+00  0.00000000000E+00 -0.35053023810E+03  0.38894713955E+04  0.38736438000E+04 0.  0.
        2    1    3    3  502    0 -0.80327485989E+03  0.50019166009E+03 -0.18720922422E+04  0.20976585901E+04  0.25500000920E-02 0. -1.
       -2    1    3    3    0  502  0.80327485989E+03 -0.50019166009E+03  0.15215620041E+04  0.17918128054E+04  0.25500000920E-02 0.  1.
</event>
<event>
 5   0  0.3471602E-07  0.3592380E+04  0.7818609E-02  0.8092239E-01
       -1   -1    0    0    0  501  0.00000000000E+00  0.00000000000E+00  0.17285219827E+04  0.17285219827E+04  0.50400001928E-02 0.  1.
        1   -1    0    0  501    0  0.00000000000E+00  0.00000000000E+00 -0.18665068202E+04  0.18665068202E+04  0.50400001928E-02 0. -1.
    10030    2    1    2    0    0  0.00000000000E+00  0.00000000000E+00 -0.13798483750E+03  0.35950288028E+04  0.35923797513E+04 0.  0.
        5    1    3    3  502    0  0.10839775027E+04  0.12406189561E+04  0.64717023058E+03  0.17700265586E+04  0.46999998093E+01 0. -1.
       -5    1    3    3    0  502 -0.10839775027E+04 -0.12406189561E+04 -0.78515506808E+03  0.18250022443E+04  0.46999998093E+01 0.  1.
</event>
<event>
 5   0  0.3977376E-07  0.3966648E+04  0.7818609E-02  0.8011309E-01
       -1   -1    0    0    0  501  0.00000000000E+00  0.00000000000E+00  0.25465725484E+04  0.25465725484E+04  0.50400001928E-02 0.  1.
        1   -1    0    0  501    0  0.00000000000E+00  0.00000000000E+00 -0.15446544074E+04  0.15446544075E+04  0.50400001928E-02 0. -1.
    10030    2    1    2    0    0  0.00000000000E+00  0.00000000000E+00  0.10019181410E+04  0.40912269559E+04  0.39666482127E+04 0.  0.
        4    1    3    3  502    0  0.14749289829E+04 -0.14033071201E+03 -0.85895924309E+03  0.17125772413E+04  0.12699999809E+01 0. -1.
       -4    1    3    3    0  502 -0.14749289829E+04  0.14033071201E+03  0.18608773841E+04  0.23786497146E+04  0.12699999809E+01 0.  1.
</event>
<event>
 5   0  0.7268013E-07  0.4020671E+04  0.7818609E-02  0.8000389E-01
       -2   -1    0    0    0  501  0.00000000000E+00  0.00000000000E+00  0.24440913750E+04  0.24440913750E+04  0.25500000920E-02 0.  1.
        2   -1    0    0  501    0  0.00000000000E+00  0.00000000000E+00 -0.16535592043E+04  0.16535592043E+04  0.25500000920E-02 0. -1.
    10030    2    1    2    0    0  0.00000000000E+00  0.00000000000E+00  0.79053217066E+03  0.40976505793E+04  0.40206714809E+04 0.  0.
        4    1    3    3  502    0  0.10304072488E+04 -0.17261806073E+04  0.39842197075E+03  0.20494341334E+04  0.12699999809E+01 0. -1.
       -4    1    3    3    0  502 -0.10304072488E+04  0.17261806073E+04  0.39211019990E+03  0.20482164459E+04  0.12699999809E+01 0.  1.
</event>
<event>
 5   0  0.7268013E-07  0.2946644E+04  0.7818609E-02  0.8259133E-01
       -2   -1    0    0    0  501  0.00000000000E+00  0.00000000000E+00  0.10224110283E+04  0.10224110283E+04  0.25500000920E-02 0. -1.
        2   -1    0    0  501    0  0.00000000000E+00  0.00000000000E+00 -0.21230965703E+04  0.21230965703E+04  0.25500000920E-02 0.  1.
    10030    2    1    2    0    0  0.00000000000E+00  0.00000000000E+00 -0.11006855420E+04  0.31455075986E+04  0.29466437501E+04 0.  0.
        4    1    3    3  502    0 -0.28120268290E+03 -0.47571162752E+03  0.90758954259E+03  0.10625897102E+04  0.12699999809E+01 0. -1.
       -4    1    3    3    0  502  0.28120268290E+03  0.47571162752E+03 -0.20082750846E+04  0.20829178884E+04  0.12699999809E+01 0.  1.
</event>
<event>
 5   0  0.3191750E-07  0.1982664E+04  0.7818609E-02  0.8614769E-01
       -3   -1    0    0    0  501  0.00000000000E+00  0.00000000000E+00  0.15415308001E+04  0.15415308034E+04  0.10100000352E+00 0.  1.
        3   -1    0    0  501    0  0.00000000000E+00  0.00000000000E+00 -0.63750873040E+03  0.63750873840E+03  0.10100000352E+00 0. -1.
    10030    2    1    2    0    0  0.00000000000E+00  0.00000000000E+00  0.90402206974E+03  0.21790395418E+04  0.19826642233E+04 0.  0.
        5    1    3    3  502    0  0.78653863224E+02  0.96379027023E+03  0.69189319176E+03  0.11890401145E+04  0.46999998093E+01 0.  1.
       -5    1    3    3    0  502 -0.78653863224E+02 -0.96379027023E+03  0.21212887798E+03  0.98999942730E+03  0.46999998093E+01 0. -1.
</event>
<event>
 5   0  0.1034683E-06  0.3832938E+04  0.7818609E-02  0.8039123E-01
        2   -1    0    0  501    0  0.00000000000E+00  0.00000000000E+00  0.17592683676E+04  0.17592683676E+04  0.25500000920E-02 0.  1.
       -2   -1    0    0    0  501  0.00000000000E+00  0.00000000000E+00 -0.20877164614E+04  0.20877164614E+04  0.25500000920E-02 0. -1.
    10030    2    1    2    0    0  0.00000000000E+00  0.00000000000E+00 -0.32844809377E+03  0.38469848290E+04  0.38329380538E+04 0.  0.
        2    1    3    3  502    0 -0.19061439898E+03 -0.72714149823E+03 -0.19335756787E+04  0.20745562207E+04  0.25500000920E-02 0. -1.
       -2    1    3    3    0  502  0.19061439898E+03  0.72714149823E+03  0.16051275849E+04  0.17724286083E+04  0.25500000920E-02 0.  1.
</event>
<event>
 5   0  0.1035864E-06  0.3934442E+04  0.7818609E-02  0.8017904E-01
        2   -1    0    0  501    0  0.00000000000E+00  0.00000000000E+00  0.19987211779E+04  0.19987211779E+04  0.25500000920E-02 0.  1.
       -2   -1    0    0    0  501  0.00000000000E+00  0.00000000000E+00 -0.19362169560E+04  0.19362169560E+04  0.25500000920E-02 0. -1.
    10030    2    1    2    0    0  0.00000000000E+00  0.00000000000E+00  0.62504221907E+02  0.39349381339E+04  0.39344416808E+04 0.  0.
        5    1    3    3  502    0 -0.40882194951E+03  0.60777666051E+03 -0.17947405424E+04  0.19384642272E+04  0.46999998093E+01 0. -1.
       -5    1    3    3    0  502  0.40882194951E+03 -0.60777666051E+03  0.18572447643E+04  0.19964739067E+04  0.46999998093E+01 0.  1.
</event>
<event>
 5   0  0.5385714E-07  0.3975832E+04  0.7818609E-02  0.8009440E-01
        1   -1    0    0  501    0  0.00000000000E+00  0.00000000000E+00  0.25459201484E+04  0.25459201484E+04  0.50400001928E-02 0. -1.
       -1   -1    0    0    0  501  0.00000000000E+00  0.00000000000E+00 -0.15522128287E+04  0.15522128287E+04  0.50400001928E-02 0.  1.
    10030    2    1    2    0    0  0.00000000000E+00  0.00000000000E+00  0.99370731965E+03  0.40981329771E+04  0.39758319458E+04 0.  0.
        3    1    3    3  502    0 -0.16717214627E+04 -0.39174538786E+03 -0.53580890435E+03  0.17986684770E+04  0.10100000352E+00 0. -1.
       -3    1    3    3    0  502  0.16717214627E+04  0.39174538786E+03  0.15295162240E+04  0.22994645002E+04  0.10100000352E+00 0.  1.
</event>
<event>
 5   0  0.1015219E-06  0.2094257E+04  0.7818609E-02  0.8563778E-01
        2   -1    0    0  501    0  0.00000000000E+00  0.00000000000E+00  0.15950108768E+04  0.15950108768E+04  0.25500000920E-02 0.  1.
       -2   -1    0    0    0  501  0.00000000000E+00  0.00000000000E+00 -0.68744225809E+03  0.68744225810E+03  0.25500000920E-02 0. -1.
    10030    2    1    2    0    0  0.00000000000E+00  0.00000000000E+00  0.90756861868E+03  0.22824531349E+04  0.20942567931E+04 0.  0.
        3    1    3    3  502    0  0.71090975500E+03  0.75595628956E+03  0.30114402708E+03  0.10805324274E+04  0.10100000352E+00 0.  1.
       -3    1    3    3    0  502 -0.71090975500E+03 -0.75595628956E+03  0.60642459161E+03  0.12019207074E+04  0.10100000352E+00 0. -1.
</event>
<event>
 5   0  0.5533705E-07  0.2708064E+04  0.7818609E-02  0.8332393E-01
       -2   -1    0    0    0  501  0.00000000000E+00  0.00000000000E+00  0.70980440917E+03  0.70980440917E+03  0.25500000920E-02 0. -1.
        2   -1    0    0  501    0  0.00000000000E+00  0.00000000000E+00 -0.25829691506E+04  0.25829691506E+04  0.25500000920E-02 0.  1.
    10030    2    1    2    0    0  0.00000000000E+00  0.00000000000E+00 -0.18731647415E+04  0.32927735598E+04  0.27080641734E+04 0.  0.
        1    1    3    3  502    0 -0.47821772448E+02 -0.92425034585E+02  0.70493487474E+03  0.71257454809E+03  0.50400001928E-02 0. -1.
       -1    1    3    3    0  502  0.47821772448E+02  0.92425034585E+02 -0.25780996162E+04  0.25801990117E+04  0.50400001928E-02 0.  1.
</event>
<event>
 5   0  0.4316671E-07  0.2173673E+04  0.7818609E-02  0.8529467E-01
       -1   -1    0    0    0  501  0.00000000000E+00  0.00000000000E+00  0.87404089325E+03  0.87404089326E+03  0.50400001928E-02 0.  1.
        1   -1    0    0  501    0  0.00000000000E+00  0.00000000000E+00 -0.13514395727E+04  0.13514395727E+04  0.50400001928E-02 0. -1.
    10030    2    1    2    0    0  0.00000000000E+00  0.00000000000E+00 -0.47739867941E+03  0.22254804659E+04  0.21736728837E+04 0.  0.
        2    1    3    3  502    0  0.41819345417E+03  0.85666518446E+03 -0.77310980727E+03  0.12273792313E+04  0.25500000920E-02 0. -1.
       -2    1    3    3    0  502 -0.41819345417E+03 -0.85666518446E+03  0.29571112786E+03  0.99810123461E+03  0.25500000920E-02 0.  1.
</event>
<event>
 5   0  0.4316671E-07  0.2425720E+04  0.7818609E-02  0.8429937E-01
        1   -1    0    0  501    0  0.00000000000E+00  0.00000000000E+00  0.18677235543E+04  0.18677235543E+04  0.50400001928E-02 0.  1.
       -1   -1    0    0    0  501  0.00000000000E+00  0.00000000000E+00 -0.78760580027E+03  0.78760580029E+03  0.50400001928E-02 0. -1.
    10030    2    1    2    0    0  0.00000000000E+00  0.00000000000E+00  0.10801177540E+04  0.26553293546E+04  0.24257204329E+04 0.  0.
        2    1    3    3  502    0 -0.96998581090E+03  0.51936784108E+03  0.10986708142E+04  0.15548932393E+04  0.25500000920E-02 0.  1.
       -2    1    3    3    0  502  0.96998581090E+03 -0.51936784108E+03 -0.18553060197E+02  0.11004361152E+04  0.25500000920E-02 0. -1.
</event>
<event>
 5   0  0.3471602E-07  0.3997992E+04  0.7818609E-02  0.8004952E-01
       -1   -1    0    0    0  501  0.00000000000E+00  0.00000000000E+00  0.22656713001E+04  0.22656713001E+04  0.50400001928E-02 0.  1.
        1   -1    0    0  501    0  0.00000000000E+00  0.00000000000E+00 -0.17637089531E+04  0.17637089531E+04  0.50400001928E-02 0. -1.
    10030    2    1    2    0    0  0.00000000000E+00  0.00000000000E+00  0.50196234697E+03  0.40293802532E+04  0.39979918744E+04 0.  0.
        5    1    3    3  502    0 -0.15231498375E+04  0.83825538990E+03  0.12452889939E+04  0.21385565914E+04  0.46999998093E+01 0.  1.
       -5    1    3    3    0  502  0.15231498375E+04 -0.83825538990E+03 -0.74332664696E+03  0.18908236619E+04  0.46999998093E+01 0. -1.
</event>
<event>
 5   0  0.7268013E-07  0.4022228E+04  0.7818609E-02  0.8000077E-01
        2   -1    0    0  501    0  0.00000000000E+00  0.00000000000E+00  0.15448631680E+04  0.15448631680E+04  0.25500000920E-02 0.  1.
       -2   -1    0    0    0  501  0.00000000000E+00  0.00000000000E+00 -0.26180830401E+04  0.26180830401E+04  0.25500000920E-02 0. -1.
    10030    2    1    2    0    0  0.00000000000E+00  0.00000000000E+00 -0.10732198720E+04  0.41629462081E+04  0.40222282677E+04 0.  0.
        4    1    3    3  502    0  0.79259153061E+03 -0.86914036354E+03 -0.22249279298E+04  0.25167264873E+04  0.12699999809E+01 0. -1.
       -4    1    3    3    0  502 -0.79259153061E+03  0.86914036354E+03  0.11517080578E+04  0.16462197208E+04  0.12699999809E+01 0.  1.
</event>
<event>
 5   0  0.3471602E-07  0.3849349E+04  0.7818609E-02  0.8035647E-01
       -1   -1    0    0    0  501  0.00000000000E+00  0.00000000000E+00  0.18182775571E+04  0.18182775571E+04  0.50400001928E-02 0.  1.
        1   -1    0    0  501    0  0.00000000000E+00  0.00000000000E+00 -0.20372975009E+04  0.20372975010E+04  0.50400001928E-02 0. -1.
    10030    2    1    2    0    0  0.00000000000E+00  0.00000000000E+00 -0.21901994381E+03  0.38555750581E+04  0.38493492038E+04 0.  0.
        5    1    3    3  502    0  0.11683404454E+04  0.91847492529E+03  0.11154703949E+04  0.18582012476E+04  0.46999998093E+01 0.  1.
       -5    1    3    3    0  502 -0.11683404454E+04 -0.91847492529E+03 -0.13344903387E+04  0.19973738105E+04  0.46999998093E+01 0. -1.
</event>
<event>
 5   0  0.5533705E-07  0.3938351E+04  0.7818609E-02  0.8017100E-01
       -2   -1    0    0    0  501  0.00000000000E+00  0.00000000000E+00  0.27694105963E+04  0.27694105963E+04  0.25500000920E-02 0.  1.
        2   -1    0    0  501    0  0.00000000000E+00  0.00000000000E+00 -0.14001720220E+04  0.14001720220E+04  0.25500000920E-02 0. -1.
    10030    2    1    2    0    0  0.00000000000E+00  0.00000000000E+00  0.13692385742E+04  0.41695826183E+04  0.39383505351E+04 0.  0.
        1    1    3    3  502    0  0.57475189377E+03 -0.12879029719E+03  0.26739644139E+04  0.27380672685E+04  0.50400001928E-02 0.  1.
       -1    1    3    3    0  502 -0.57475189377E+03  0.12879029719E+03 -0.13047258396E+04  0.14315153498E+04  0.50400001928E-02 0. -1.
</event>
<event>
 5   0  0.5533705E-07  0.3654793E+04  0.7818609E-02  0.8078055E-01
        2   -1    0    0  501    0  0.00000000000E+00  0.00000000000E+00  0.16227826921E+04  0.16227826921E+04  0.25500000920E-02 0.  1.
       -2   -1    0    0    0  501  0.00000000000E+00  0.00000000000E+00 -0.20578101827E+04  0.20578101827E+04  0.25500000920E-02 0. -1.
    10030    2    1    2    0    0  0.00000000000E+00  0.00000000000E+00 -0.43502749057E+03  0.36805928748E+04  0.36547934268E+04 0.  0.
        1    1    3    3  502    0 -0.15588190645E+04 -0.89575772211E+03  0.11202696822E+03  0.18013463892E+04  0.50400001928E-02 0.  1.
       -1    1    3    3    0  502  0.15588190645E+04  0.89575772211E+03 -0.54705445879E+03  0.18792464855E+04  0.50400001928E-02 0. -1.
</event>
<event>
 5   0  0.3471602E-07  0.3818758E+04  0.7818609E-02  0.8042141E-01
        1   -1    0    0  501    0  0.00000000000E+00  0.00000000000E+00  0.15752580462E+04  0.15752580462E+04  0.50400001928E-02 0. -1.
       -1   -1    0    0    0  501  0.00000000000E+00  0.00000000000E+00 -0.23143693216E+04  0.23143693216E+04  0.50400001928E-02 0.  1.
    10030    2    1    2    0    0  0.00000000000E+00  0.00000000000E+00 -0.73911127542E+03  0.38896273678E+04  0.38187583823E+04 0.  0.
        5    1    3    3  502    0 -0.16787192589E+04 -0.80744764281E+03 -0.79642356423E+03  0.20259275973E+04  0.46999998093E+01 0.  1.
       -5    1    3    3    0  502  0.16787192589E+04  0.80744764281E+03  0.57312288813E+02  0.18636997705E+04  0.46999998093E+01 0. -1.
</event>
<event>
 5   0  0.5533705E-07  0.3886156E+04  0.7818609E-02  0.8027915E-01
        2   -1    0    0  501    0  0.00000000000E+00  0.00000000000E+00  0.17046658472E+04  0.17046658472E+04  0.25500000920E-02 0.  1.
       -2   -1    0    0    0  501  0.00000000000E+00  0.00000000000E+00 -0.22148337023E+04  0.22148337023E+04  0.25500000920E-02 0. -1.
    10030    2    1    2    0    0  0.00000000000E+00  0.00000000000E+00 -0.51016785510E+03  0.39194995496E+04  0.38861556169E+04 0.  0.
        1    1    3    3  502    0 -0.16519804242E+03  0.11835483251E+04  0.12902091466E+04  0.17586121440E+04  0.50400001928E-02 0.  1.
       -1    1    3    3    0  502  0.16519804242E+03 -0.11835483251E+04 -0.18003770017E+04  0.21608874055E+04  0.50400001928E-02 0. -1.
</event>
<event>
 5   0  0.1034683E-06  0.2376108E+04  0.7818609E-02  0.8448503E-01
        2   -1    0    0  501    0  0.00000000000E+00  0.00000000000E+00  0.24282700880E+04  0.24282700880E+04  0.25500000920E-02 0.  1.
       -2   -1    0    0    0  501  0.00000000000E+00  0.00000000000E+00 -0.58126675715E+03  0.58126675715E+03  0.25500000920E-02 0. -1.
    10030    2    1    2    0    0  0.00000000000E+00  0.00000000000E+00  0.18470033308E+04  0.30095368451E+04  0.23761083136E+04 0.  0.
        2    1    3    3  502    0  0.86080636978E+03 -0.42416047963E+03  0.36375815228E+02  0.96032438201E+03  0.25500000920E-02 0. -1.
       -2    1    3    3    0  502 -0.86080636978E+03  0.42416047963E+03  0.18106275156E+04  0.20492124631E+04  0.25500000920E-02 0.  1.
</event>
<event>
 5   0  0.5533705E-07  0.3890558E+04  0.7818609E-02  0.8026996E-01
        2   -1    0    0  501    0  0.00000000000E+00  0.00000000000E+00  0.19253724323E+04  0.19253724323E+04  0.25500000920E-02 0.  1.
       -2   -1    0    0    0  501  0.00000000000E+00  0.00000000000E+00 -0.19653913486E+04  0.19653913486E+04  0.25500000920E-02 0. -1.
    10030    2    1    2    0    0  0.00000000000E+00  0.00000000000E+00 -0.40018916365E+02  0.38907637809E+04  0.38905579658E+04 0.  0.
        1    1    3    3  502    0  0.16224492170E+04 -0.10495013022E+04 -0.24433333056E+03  0.19476892005E+04  0.50400001928E-02 0. -1.
       -1    1    3    3    0  502 -0.16224492170E+04  0.10495013022E+04  0.20431441420E+03  0.19430745804E+04  0.50400001928E-02 0.  1.
</event>
<event>
 5   0  0.4627905E-07  0.3711007E+04  0.7818609E-02  0.8065527E-01
        1   -1    0    0  501    0  0.00000000000E+00  0.00000000000E+00  0.12320324639E+04  0.12320324639E+04  0.50400001928E-02 0.  1.
       -1   -1    0    0    0  501  0.00000000000E+00  0.00000000000E+00 -0.27944826806E+04  0.27944826806E+04  0.50400001928E-02 0. -1.
    10030    2    1    2    0    0  0.00000000000E+00  0.00000000000E+00 -0.15624502167E+04  0.40265151446E+04  0.37110070776E+04 0.  0.
        1    1    3    3  502    0  0.54626378399E+03 -0.41493983546E+03 -0.26518422595E+04  0.27391324463E+04  0.50400001928E-02 0. -1.
       -1    1    3    3    0  502 -0.54626378399E+03  0.41493983546E+03  0.10893920429E+04  0.12873826983E+04  0.50400001928E-02 0.  1.
</event>
<event>
 5   0  0.7268013E-07  0.3830294E+04  0.7818609E-02  0.8039685E-01
        2   -1    0    0  501    0  0.00000000000E+00  0.00000000000E+00  0.23090833048E+04  0.23090833048E+04  0.25500000920E-02 0. -1.
       -2   -1    0    0    0  501  0.00000000000E+00  0.00000000000E+00 -0.15884177144E+04  0.15884177144E+04  0.25500000920E-02 0.  1.
    10030    2    1    2    0    0  0.00000000000E+00  0.00000000000E+00  0.72066559045E+03  0.38975010192E+04  0.38302944145E+04 0.  0.
        4    1    3    3  502    0 -0.79464833300E+02  0.10158976497E+04  0.20103346574E+04  0.22538433269E+04  0.12699999809E+01 0. -1.
       -4    1    3    3    0  502  0.79464833300E+02 -0.10158976497E+04 -0.12896690669E+04  0.16436576923E+04  0.12699999809E+01 0.  1.
</event>
<event>
 5   0  0.7268013E-07  0.3572777E+04  0.7818609E-02  0.8096756E-01
        2   -1    0    0  501    0  0.00000000000E+00  0.00000000000E+00  0.19896937396E+04  0.19896937396E+04  0.25500000920E-02 0. -1.
       -2   -1    0    0    0  501  0.00000000000E+00  0.00000000000E+00 -0.16038572338E+04  0.16038572338E+04  0.25500000920E-02 0.  1.
    10030    2    1    2    0    0  0.00000000000E+00  0.00000000000E+00  0.38583650575E+03  0.35935509734E+04  0.35727774615E+04 0.  0.
        4    1    3    3  502    0  0.13166711478E+04 -0.12056041290E+04  0.12868098017E+03  0.17898783855E+04  0.12699999809E+01 0.  1.
       -4    1    3    3    0  502 -0.13166711478E+04  0.12056041290E+04  0.25715552558E+03  0.18036725879E+04  0.12699999809E+01 0. -1.
</event>
<event>
 5   0  0.1015219E-06  0.3837917E+04  0.7818609E-02  0.8038067E-01
       -2   -1    0    0    0  501  0.00000000000E+00  0.00000000000E+00  0.23994520996E+04  0.23994520996E+04  0.25500000920E-02 0.  1.
        2   -1    0    0  501    0  0.00000000000E+00  0.00000000000E+00 -0.15346841399E+04  0.15346841399E+04  0.25500000920E-02 0. -1.
    10030    2    1    2    0    0  0.00000000000E+00  0.00000000000E+00  0.86476795969E+03  0.39341362394E+04  0.38379166649E+04 0.  0.
        3    1    3    3  502    0 -0.53844019388E+03  0.17927650816E+04  0.86544040488E+03  0.20622588549E+04  0.10100000352E+00 0. -1.
       -3    1    3    3    0  502  0.53844019388E+03 -0.17927650816E+04 -0.67244518289E+00  0.18718773845E+04  0.10100000352E+00 0.  1.
</event>
<event>
 5   0  0.4316671E-07  0.3904301E+04  0.7818609E-02  0.8024135E-01
       -1   -1    0    0    0  501  0.00000000000E+00  0.00000000000E+00  0.19992108803E+04  0.19992108803E+04  0.50400001928E-02 0.  1.
        1   -1    0    0  501    0  0.00000000000E+00  0.00000000000E+00 -0.19061983349E+04  0.19061983349E+04  0.50400001928E-02 0. -1.
    10030    2    1    2    0    0  0.00000000000E+00  0.00000000000E+00  0.93012545326E+02  0.39054092152E+04  0.39043014490E+04 0.  0.
        2    1    3    3  502    0  0.64358104509E+02  0.10656478744E+04 -0.15883212640E+04  0.19137690027E+04  0.25500000920E-02 0. -1.
       -2    1    3    3    0  502 -0.64358104509E+02 -0.10656478744E+04  0.16813338093E+04  0.19916402126E+04  0.25500000920E-02 0.  1.
</event>
<event>
 5   0  0.1035864E-06  0.1988934E+04  0.7818609E-02  0.8611812E-01
       -2   -1    0    0    0  501  0.00000000000E+00  0.00000000000E+00  0.34996883249E+03  0.34996883250E+03  0.25500000920E-02 0.  1.
        2   -1    0    0  501    0  0.00000000000E+00  0.00000000000E+00 -0.28258657696E+04  0.28258657696E+04  0.25500000920E-02 0. -1.
    10030    2    1    2    0    0  0.00000000000E+00  0.00000000000E+00 -0.24758969371E+04  0.31758346021E+04  0.19889343319E+04 0.  0.
        5    1    3    3  502    0 -0.26949973381E+03 -0.83440932205E+03 -0.48887979746E+03  0.10039395249E+04  0.46999998093E+01 0.  1.
       -5    1    3    3    0  502  0.26949973381E+03  0.83440932205E+03 -0.19870171397E+04  0.21718950772E+04  0.46999998093E+01 0. -1.
</event>
<event>
 5   0  0.5533705E-07  0.3877884E+04  0.7818609E-02  0.8029645E-01
        2   -1    0    0  501    0  0.00000000000E+00  0.00000000000E+00  0.14600779705E+04  0.14600779705E+04  0.25500000920E-02 0.  1.
       -2   -1    0    0    0  501  0.00000000000E+00  0.00000000000E+00 -0.25748592097E+04  0.25748592097E+04  0.25500000920E-02 0. -1.
    10030    2    1    2    0    0  0.00000000000E+00  0.00000000000E+00 -0.11147812393E+04  0.40349371802E+04  0.38778835512E+04 0.  0.
        1    1    3    3  502    0 -0.43876644217E+03 -0.51099387574E+03 -0.24492312003E+04  0.25401504294E+04  0.50400001928E-02 0. -1.
       -1    1    3    3    0  502  0.43876644217E+03  0.51099387574E+03  0.13344499610E+04  0.14947867508E+04  0.50400001928E-02 0.  1.
</event>
<event>
 5   0  0.7268013E-07  0.3557406E+04  0.7818609E-02  0.8100319E-01
        2   -1    0    0  501    0  0.00000000000E+00  0.00000000000E+00  0.18392328746E+04  0.18392328746E+04  0.25500000920E-02 0. -1.
       -2   -1    0    0    0  501  0.00000000000E+00  0.00000000000E+00 -0.17201654638E+04  0.17201654638E+04  0.25500000920E-02 0.  1.
    10030    2    1    2    0    0  0.00000000000E+00  0.00000000000E+00  0.11906741082E+03  0.35593983384E+04  0.35574062860E+04 0.  0.
        4    1    3    3  502    0 -0.14759308763E+04  0.99236238005E+03  0.34455494086E+02  0.17788602640E+04  0.12699999809E+01 0. -1.
       -4    1    3    3    0  502  0.14759308763E+04 -0.99236238005E+03  0.84611916738E+02  0.17805380744E+04  0.12699999809E+01 0.  1.
</event>
<event>
 5   0  0.7268013E-07  0.3730444E+04  0.7818609E-02  0.8061248E-01
        2   -1    0    0  501    0  0.00000000000E+00  0.00000000000E+00  0.24403444008E+04  0.24403444008E+04  0.25500000920E-02 0.  1.
       -2   -1    0    0    0  501  0.00000000000E+00  0.00000000000E+00 -0.14256405712E+04  0.14256405712E+04  0.25500000920E-02 0. -1.
    10030    2    1    2    0    0  0.00000000000E+00  0.00000000000E+00  0.10147038295E+04  0.38659849720E+04  0.37304444698E+04 0.  0.
        4    1    3    3  502    0  0.62985098955E+03  0.15259595314E+04 -0.39240269392E+03  0.16968341839E+04  0.12699999809E+01 0. -1.
       -4    1    3    3    0  502 -0.62985098955E+03 -0.15259595314E+04  0.14071065235E+04  0.21691507881E+04  0.12699999809E+01 0.  1.
</event>
<event>
 5   0  0.5385714E-07  0.2274825E+04  0.7818609E-02  0.8487914E-01
       -1   -1    0    0    0  501  0.00000000000E+00  0.00000000000E+00  0.13122653863E+04  0.13122653863E+04  0.50400001928E-02 0.  1.
        1   -1    0    0  501    0  0.00000000000E+00  0.00000000000E+00 -0.98585775644E+03  0.98585775646E+03  0.50400001928E-02 0. -1.
    10030    2    1    2    0    0  0.00000000000E+00  0.00000000000E+00  0.32640762983E+03  0.22981231427E+04  0.22748248369E+04 0.  0.
        3    1    3    3  502    0 -0.88860099363E+03  0.54497858693E+03  0.62294000004E+03  0.12143589420E+04  0.10100000352E+00 0.  1.
       -3    1    3    3    0  502  0.88860099363E+03 -0.54497858693E+03 -0.29653237022E+03  0.10837642008E+04  0.10100000352E+00 0. -1.
</event>
<event>
 5   0  0.4627905E-07  0.2199112E+04  0.7818609E-02  0.8518798E-01
        1   -1    0    0  501    0  0.00000000000E+00  0.00000000000E+00  0.85691774483E+03  0.85691774484E+03  0.50400001928E-02 0.  1.
       -1   -1    0    0    0  501  0.00000000000E+00  0.00000000000E+00 -0.14108980423E+04  0.14108980423E+04  0.50400001928E-02 0. -1.
    10030    2    1    2    0    0  0.00000000000E+00  0.00000000000E+00 -0.55398029746E+03  0.22678157871E+04  0.21991121559E+04 0.  0.
        1    1    3    3  502    0 -0.39574200443E+03  0.10219896167E+04 -0.36893305484E+03  0.11563676360E+04  0.50400001928E-02 0.  1.
       -1    1    3    3    0  502  0.39574200443E+03 -0.10219896167E+04 -0.18504724262E+03  0.11114481511E+04  0.50400001928E-02 0. -1.
</event>
<event>
 5   0  0.4316671E-07  0.3870303E+04  0.7818609E-02  0.8031234E-01
       -1   -1    0    0    0  501  0.00000000000E+00  0.00000000000E+00  0.21317116776E+04  0.21317116776E+04  0.50400001928E-02 0. -1.
        1   -1    0    0  501    0  0.00000000000E+00  0.00000000000E+00 -0.17567159348E+04  0.17567159348E+04  0.50400001928E-02 0.  1.
    10030    2    1    2    0    0  0.00000000000E+00  0.00000000000E+00  0.37499574285E+03  0.38884276124E+04  0.38703032813E+04 0.  0.
        2    1    3    3  502    0 -0.63635410782E+03  0.18209361014E+04  0.31668225638E+02  0.19291857641E+04  0.25500000920E-02 0.  1.
       -2    1    3    3    0  502  0.63635410782E+03 -0.18209361014E+04  0.34332751721E+03  0.19592418483E+04  0.25500000920E-02 0. -1.
</event>
<event>
 5   0  0.5533705E-07  0.3867685E+04  0.7818609E-02  0.8031784E-01
        2   -1    0    0  501    0  0.00000000000E+00  0.00000000000E+00  0.19730216294E+04  0.19730216294E+04  0.25500000920E-02 0. -1.
       -2   -1    0    0    0  501  0.00000000000E+00  0.00000000000E+00 -0.18954410996E+04  0.18954410996E+04  0.25500000920E-02 0.  1.
    10030    2    1    2    0    0  0.00000000000E+00  0.00000000000E+00  0.77580529825E+02  0.38684627291E+04  0.38676847270E+04 0.  0.
        1    1    3    3  502    0 -0.13364809331E+04  0.10135533935E+04  0.10014154291E+04  0.19535364414E+04  0.50400001928E-02 0. -1.
       -1    1    3    3    0  502  0.13364809331E+04 -0.10135533935E+04 -0.92383489931E+03  0.19149262877E+04  0.50400001928E-02 0.  1.
</event>
<event>
 5   0  0.7268013E-07  0.2130937E+04  0.7818609E-02  0.8547736E-01
        2   -1    0    0  501    0  0.00000000000E+00  0.00000000000E+00  0.10761755918E+04  0.10761755918E+04  0.25500000920E-02 0. -1.
       -2   -1    0    0    0  501  0.00000000000E+00  0.00000000000E+00 -0.10548684003E+04  0.10548684003E+04  0.25500000920E-02 0.  1.
    10030    2    1    2    0    0  0.00000000000E+00  0.00000000000E+00  0.21307191461E+02  0.21310439921E+04  0.21309374697E+04 0.  0.
        4    1    3    3  502    0  0.67892563036E+03  0.61540810605E+03  0.55433034981E+03  0.10709579348E+04  0.12699999809E+01 0. -1.
       -4    1    3    3    0  502 -0.67892563036E+03 -0.61540810605E+03 -0.53302315835E+03  0.10600860573E+04  0.12699999809E+01 0.  1.
</event>
<event>
 5   0  0.3471602E-07  0.2746096E+04  0.7818609E-02  0.8320201E-01
        1   -1    0    0  501    0  0.00000000000E+00  0.00000000000E+00  0.15482827909E+04  0.15482827909E+04  0.50400001928E-02 0.  1.
       -1   -1    0    0    0  501  0.00000000000E+00  0.00000000000E+00 -0.12176463889E+04  0.12176463889E+04  0.50400001928E-02 0. -1.
    10030    2    1    2    0    0  0.00000000000E+00  0.00000000000E+00  0.33063640194E+03  0.27659291798E+04  0.27460961013E+04 0.  0.
        5    1    3    3  502    0  0.11765791661E+04  0.28540570022E+03 -0.48700416886E+03  0.13049866276E+04  0.46999998093E+01 0. -1.
       -5    1    3    3    0  502 -0.11765791661E+04 -0.28540570022E+03  0.81764057080E+03  0.14609425522E+04  0.46999998093E+01 0.  1.
</event>
<event>
 5   0  0.7268013E-07  0.3650925E+04  0.7818609E-02  0.8078925E-01
        2   -1    0    0  501    0  0.00000000000E+00  0.00000000000E+00  0.18123440532E+04  0.18123440532E+04  0.25500000920E-02 0. -1.
       -2   -1    0    0    0  501  0.00000000000E+00  0.00000000000E+00 -0.18386761766E+04  0.18386761766E+04  0.25500000920E-02 0.  1.
    10030    2    1    2    0    0  0.00000000000E+00  0.00000000000E+00 -0.26332123382E+02  0.36510202298E+04  0.36509252714E+04 0.  0.
        4    1    3    3  502    0 -0.65700048336E+03  0.90773766021E+03  0.14279387069E+04  0.18151164862E+04  0.12699999809E+01 0. -1.
       -4    1    3    3    0  502  0.65700048336E+03 -0.90773766021E+03 -0.14542708303E+04  0.18359037436E+04  0.12699999809E+01 0.  1.
</event>
<event>
 5   0  0.4627905E-07  0.3880475E+04  0.7818609E-02  0.8029102E-01
       -1   -1    0    0    0  501  0.00000000000E+00  0.00000000000E+00  0.14015051181E+04  0.14015051182E+04  0.50400001928E-02 0.  1.
        1   -1    0    0  501    0  0.00000000000E+00  0.00000000000E+00 -0.26860566857E+04  0.26860566857E+04  0.50400001928E-02 0. -1.
    10030    2    1    2    0    0  0.00000000000E+00  0.00000000000E+00 -0.12845515676E+04  0.40875618039E+04  0.38804753279E+04 0.  0.
        1    1    3    3  502    0  0.55592670169E+03  0.20982962953E+03 -0.25878518937E+04  0.26551949824E+04  0.50400001928E-02 0. -1.
       -1    1    3    3    0  502 -0.55592670169E+03 -0.20982962953E+03  0.13033003261E+04  0.14323668214E+04  0.50400001928E-02 0.  1.
</event>
<event>
 5   0  0.3191750E-07  0.2462214E+04  0.7818609E-02  0.8416572E-01
       -3   -1    0    0    0  501  0.00000000000E+00  0.00000000000E+00  0.98741538729E+03  0.98741539246E+03  0.10100000352E+00 0. -1.
        3   -1    0    0  501    0  0.00000000000E+00  0.00000000000E+00 -0.15349409926E+04  0.15349409959E+04  0.10100000352E+00 0.  1.
    10030    2    1    2    0    0  0.00000000000E+00  0.00000000000E+00 -0.54752560533E+03  0.25223563884E+04  0.24622139350E+04 0.  0.
        3    1    3    3  502    0  0.84113664561E+03  0.59460853186E+03 -0.96443742330E+03  0.14111023054E+04  0.10100000352E+00 0.  1.
       -3    1    3    3    0  502 -0.84113664561E+03 -0.59460853186E+03  0.41691181797E+03  0.11112540830E+04  0.10100000352E+00 0. -1.
</event>
<event>
 5   0  0.3471602E-07  0.1988325E+04  0.7818609E-02  0.8612099E-01
        1   -1    0    0  501    0  0.00000000000E+00  0.00000000000E+00  0.18363186831E+04  0.18363186831E+04  0.50400001928E-02 0. -1.
       -1   -1    0    0    0  501  0.00000000000E+00  0.00000000000E+00 -0.53822832274E+03  0.53822832276E+03  0.50400001928E-02 0.  1.
    10030    2    1    2    0    0  0.00000000000E+00  0.00000000000E+00  0.12980903604E+04  0.23745470059E+04  0.19883246464E+04 0.  0.
        5    1    3    3  502    0 -0.31730010147E+01  0.36178176630E+03 -0.45680292205E+03  0.58274103507E+03  0.46999998093E+01 0.  1.
       -5    1    3    3    0  502  0.31730010147E+01 -0.36178176630E+03  0.17548932824E+04  0.17918059708E+04  0.46999998093E+01 0. -1.
</event>
<event>
 5   0  0.1015219E-06  0.1981443E+04  0.7818609E-02  0.8615346E-01
       -2   -1    0    0    0  501  0.00000000000E+00  0.00000000000E+00  0.52210159365E+03  0.52210159365E+03  0.25500000920E-02 0.  1.
        2   -1    0    0  501    0  0.00000000000E+00  0.00000000000E+00 -0.18799574348E+04  0.18799574348E+04  0.25500000920E-02 0. -1.
    10030    2    1    2    0    0  0.00000000000E+00  0.00000000000E+00 -0.13578558412E+04  0.24020590285E+04  0.19814426792E+04 0.  0.
        3    1    3    3  502    0 -0.42581877140E+03 -0.87091743583E+03 -0.43134423121E+03  0.10610733538E+04  0.10100000352E+00 0.  1.
       -3    1    3    3    0  502  0.42581877140E+03  0.87091743583E+03 -0.92651160996E+03  0.13409856747E+04  0.10100000352E+00 0. -1.
</event>
<event>
 5   0  0.1015219E-06  0.3955984E+04  0.7818609E-02  0.8013485E-01
        2   -1    0    0  501    0  0.00000000000E+00  0.00000000000E+00  0.24627791303E+04  0.24627791303E+04  0.25500000920E-02 0.  1.
       -2   -1    0    0    0  501  0.00000000000E+00  0.00000000000E+00 -0.15886333138E+04  0.15886333138E+04  0.25500000920E-02 0. -1.
    10030    2    1    2    0    0  0.00000000000E+00  0.00000000000E+00  0.87414581645E+03  0.40514124441E+04  0.39559843129E+04 0.  0.
        3    1    3    3  502    0 -0.17328087328E+04 -0.52050813822E+02  0.14124750081E+04  0.22361621252E+04  0.10100000352E+00 0. -1.
       -3    1    3    3    0  502  0.17328087328E+04  0.52050813822E+02 -0.53832919164E+03  0.18152503189E+04  0.10100000352E+00 0.  1.
</event>
<event>
 5   0  0.7268013E-07  0.3453850E+04  0.7818609E-02  0.8124815E-01
       -2   -1    0    0    0  501  0.00000000000E+00  0.00000000000E+00  0.12717573967E+04  0.12717573967E+04  0.25500000920E-02 0. -1.
        2   -1    0    0  501    0  0.00000000000E+00  0.00000000000E+00 -0.23449986221E+04  0.23449986221E+04  0.25500000920E-02 0.  1.
    10030    2    1    2    0    0  0.00000000000E+00  0.00000000000E+00 -0.10732412253E+04  0.36167560188E+04  0.34538496452E+04 0.  0.
        4    1    3    3  502    0  0.15538110501E+04  0.57876324430E+03 -0.31182830501E+02  0.16583936970E+04  0.12699999809E+01 0. -1.
       -4    1    3    3    0  502 -0.15538110501E+04 -0.57876324430E+03 -0.10420583948E+04  0.19583623218E+04  0.12699999809E+01 0.  1.
</event>
<event>
 5   0  0.4627905E-07  0.2868089E+04  0.7818609E-02  0.8282436E-01
        1   -1    0    0  501    0  0.00000000000E+00  0.00000000000E+00  0.17854637449E+04  0.17854637449E+04  0.50400001928E-02 0. -1.
       -1   -1    0    0    0  501  0.00000000000E+00  0.00000000000E+00 -0.11517924279E+04  0.11517924279E+04  0.50400001928E-02 0.  1.
    10030    2    1    2    0    0  0.00000000000E+00  0.00000000000E+00  0.63367131697E+03  0.29372561728E+04  0.28680889957E+04 0.  0.
        1    1    3    3  502    0 -0.59591044860E+03  0.51329920500E+03 -0.91120652417E+03  0.12036954209E+04  0.50400001928E-02 0.  1.
       -1    1    3    3    0  502  0.59591044860E+03 -0.51329920500E+03  0.15448778411E+04  0.17335607519E+04  0.50400001928E-02 0. -1.
</event>
<event>
 5   0  0.1015219E-06  0.2713310E+04  0.7818609E-02  0.8330699E-01
       -2   -1    0    0    0  501  0.00000000000E+00  0.00000000000E+00  0.11929637459E+04  0.11929637459E+04  0.25500000920E-02 0. -1.
        2   -1    0    0  501    0  0.00000000000E+00  0.00000000000E+00 -0.15428073303E+04  0.15428073303E+04  0.25500000920E-02 0.  1.
    10030    2    1    2    0    0  0.00000000000E+00  0.00000000000E+00 -0.34984358434E+03  0.27357710762E+04  0.27133103117E+04 0.  0.
        3    1    3    3  502    0  0.19230082560E+03  0.29579057273E+03 -0.14957434621E+04  0.15367889201E+04  0.10100000352E+00 0.  1.
       -3    1    3    3    0  502 -0.19230082560E+03 -0.29579057273E+03  0.11458998778E+04  0.11989821560E+04  0.10100000352E+00 0. -1.
</event>
<event>
 5   0  0.3471602E-07  0.3644821E+04  0.7818609E-02  0.8080301E-01
       -1   -1    0    0    0  501  0.00000000000E+00  0.00000000000E+00  0.18466344151E+04  0.18466344151E+04  0.50400001928E-02 0. -1.
        1   -1    0    0  501    0  0.00000000000E+00  0.00000000000E+00 -0.17985048381E+04  0.17985048381E+04  0.50400001928E-02 0.  1.
    10030    2    1    2    0    0  0.00000000000E+00  0.00000000000E+00  0.48129576941E+02  0.36451392532E+04  0.36448214934E+04 0.  0.
        5    1    3    3  502    0 -0.14045655337E+03 -0.17475380554E+03  0.18327831880E+04  0.18464515267E+04  0.46999998093E+01 0. -1.
       -5    1    3    3    0  502  0.14045655337E+03  0.17475380554E+03 -0.17846536111E+04  0.17986877265E+04  0.46999998093E+01 0.  1.
</event>
<event>
 5   0  0.5533705E-07  0.2103114E+04  0.7818609E-02  0.8559873E-01
        2   -1    0    0  501    0  0.00000000000E+00  0.00000000000E+00  0.11390680538E+04  0.11390680538E+04  0.25500000920E-02 0.  1.
       -2   -1    0    0    0  501  0.00000000000E+00  0.00000000000E+00 -0.97076936387E+03  0.97076936387E+03  0.25500000920E-02 0. -1.
    10030    2    1    2    0    0  0.00000000000E+00  0.00000000000E+00  0.16829868996E+03  0.21098374177E+04  0.21031142337E+04 0.  0.
        1    1    3    3  502    0  0.81973211358E+03 -0.35400668232E+03 -0.47304577856E+03  0.10104720569E+04  0.50400001928E-02 0. -1.
       -1    1    3    3    0  502 -0.81973211358E+03  0.35400668232E+03  0.64134446852E+03  0.10993653608E+04  0.50400001928E-02 0.  1.
</event>
<event>
 5   0  0.1015219E-06  0.3827756E+04  0.7818609E-02  0.8040225E-01
        2   -1    0    0  501    0  0.00000000000E+00  0.00000000000E+00  0.13670347160E+04  0.13670347160E+04  0.25500000920E-02 0.  1.
       -2   -1    0    0    0  501  0.00000000000E+00  0.00000000000E+00 -0.26794708803E+04  0.26794708803E+04  0.25500000920E-02 0. -1.
    10030    2    1    2    0    0  0.00000000000E+00  0.00000000000E+00 -0.13124361643E+04  0.40465055963E+04  0.38277563736E+04 0.  0.
        3    1    3    3  502    0 -0.54839709644E+03 -0.94581341653E+03  0.10044224777E+04  0.14846437008E+04  0.10100000352E+00 0.  1.
       -3    1    3    3    0  502  0.54839709644E+03  0.94581341653E+03 -0.23168586421E+04  0.25618618955E+04  0.10100000352E+00 0. -1.
</event>
<event>
 5   0  0.4316671E-07  0.3889654E+04  0.7818609E-02  0.8027185E-01
       -1   -1    0    0    0  501  0.00000000000E+00  0.00000000000E+00  0.13063389505E+04  0.13063389505E+04  0.50400001928E-02 0.  1.
        1   -1    0    0  501    0  0.00000000000E+00  0.00000000000E+00 -0.28953826930E+04  0.28953826930E+04  0.50400001928E-02 0. -1.
    10030    2    1    2    0    0  0.00000000000E+00  0.00000000000E+00 -0.15890437425E+04  0.42017216435E+04  0.38896535520E+04 0.  0.
        2    1    3    3  502    0 -0.46826004587E+03 -0.61113655928E+03  0.11347089164E+04  0.13712474940E+04  0.25500000920E-02 0.  1.
       -2    1    3    3    0  502  0.46826004587E+03  0.61113655928E+03 -0.27237526589E+04  0.28304741496E+04  0.25500000920E-02 0. -1.
</event>
<event>
 5   0  0.5533705E-07  0.3402127E+04  0.7818609E-02  0.8137384E-01
       -2   -1    0    0    0  501  0.00000000000E+00  0.00000000000E+00  0.18061799717E+04  0.18061799717E+04  0.25500000920E-02 0. -1.
        2   -1    0    0  501    0  0.00000000000E+00  0.00000000000E+00 -0.16020646765E+04  0.16020646765E+04  0.25500000920E-02 0.  1.
    10030    2    1    2    0    0  0.00000000000E+00  0.00000000000E+00  0.20411529520E+03  0.34082446482E+04  0.34021270594E+04 0.  0.
        1    1    3    3  502    0 -0.19989125943E+03  0.14251720137E+04  0.10106313393E+04  0.17585356091E+04  0.50400001928E-02 0. -1.
       -1    1    3    3    0  502  0.19989125943E+03 -0.14251720137E+04 -0.80651604414E+03  0.16497090391E+04  0.50400001928E-02 0.  1.
</event>
<event>
 5   0  0.1034683E-06  0.3663724E+04  0.7818609E-02  0.8076049E-01
        2   -1    0    0  501    0  0.00000000000E+00  0.00000000000E+00  0.22567161368E+04  0.22567161368E+04  0.25500000920E-02 0.  1.
       -2   -1    0    0    0  501  0.00000000000E+00  0.00000000000E+00 -0.14869920949E+04  0.14869920949E+04  0.25500000920E-02 0. -1.
    10030    2    1    2    0    0  0.00000000000E+00  0.00000000000E+00  0.76972404181E+03  0.37437082317E+04  0.36637243651E+04 0.  0.
        2    1    3    3  502    0  0.14833564316E+04  0.25747629649E+03  0.14512342726E+04  0.20911052724E+04  0.25500000920E-02 0.  1.
       -2    1    3    3    0  502 -0.14833564316E+04 -0.25747629649E+03 -0.68151023078E+03  0.16526029593E+04  0.25500000920E-02 0. -1.
</event>
<event>
 5   0  0.7268013E-07  0.3956781E+04  0.7818609E-02  0.8013322E-01
        2   -1    0    0  501    0  0.00000000000E+00  0.00000000000E+00  0.25214322903E+04  0.25214322903E+04  0.25500000920E-02 0.  1.
       -2   -1    0    0    0  501  0.00000000000E+00  0.00000000000E+00 -0.15523040587E+04  0.15523040587E+04  0.25500000920E-02 0. -1.
    10030    2    1    2    0    0  0.00000000000E+00  0.00000000000E+00  0.96912823161E+03  0.40737363490E+04  0.39567813071E+04 0.  0.
        4    1    3    3  502    0 -0.10084275055E+04 -0.47242860488E+03  0.21681083005E+04  0.24373776967E+04  0.12699999809E+01 0.  1.
       -4    1    3    3    0  502  0.10084275055E+04  0.47242860488E+03 -0.11989800689E+04  0.16363586523E+04  0.12699999809E+01 0. -1.
</event>
<event>
 5   0  0.5533705E-07  0.1946402E+04  0.7818609E-02  0.8632098E-01
       -2   -1    0    0    0  501  0.00000000000E+00  0.00000000000E+00  0.13376864300E+04  0.13376864300E+04  0.25500000920E-02 0.  1.
        2   -1    0    0  501    0  0.00000000000E+00  0.00000000000E+00 -0.70802827683E+03  0.70802827683E+03  0.25500000920E-02 0. -1.
    10030    2    1    2    0    0  0.00000000000E+00  0.00000000000E+00  0.62965815312E+03  0.20457147068E+04  0.19464016214E+04 0.  0.
        1    1    3    3  502    0  0.10458143246E+03  0.68854317190E+02 -0.69952698943E+03  0.71064491976E+03  0.50400001928E-02 0. -1.
       -1    1    3    3    0  502 -0.10458143246E+03 -0.68854317190E+02  0.13291851426E+04  0.13350697870E+04  0.50400001928E-02 0.  1.
</event>
<event>
 5   0  0.5533705E-07  0.2457274E+04  0.7818609E-02  0.8418367E-01
       -2   -1    0    0    0  501  0.00000000000E+00  0.00000000000E+00  0.10934094211E+04  0.10934094211E+04  0.25500000920E-02 0. -1.
        2   -1    0    0  501    0  0.00000000000E+00  0.00000000000E+00 -0.13805885391E+04  0.13805885391E+04  0.25500000920E-02 0.  1.
    10030    2    1    2    0    0  0.00000000000E+00  0.00000000000E+00 -0.28717911794E+03  0.24739979602E+04  0.24572737050E+04 0.  0.
        1    1    3    3  502    0  0.37855528376E+03  0.10188506402E+04 -0.72036533275E+03  0.13039505139E+04  0.50400001928E-02 0.  1.
       -1    1    3    3    0  502 -0.37855528376E+03 -0.10188506402E+04  0.43318621481E+03  0.11700474463E+04  0.50400001928E-02 0. -1.
</event>
<event>
 5   0  0.7268013E-07  0.3873592E+04  0.7818609E-02  0.8030544E-01
       -2   -1    0    0    0  501  0.00000000000E+00  0.00000000000E+00  0.21168658130E+04  0.21168658130E+04  0.25500000920E-02 0. -1.
        2   -1    0    0  501    0  0.00000000000E+00  0.00000000000E+00 -0.17720433624E+04  0.17720433624E+04  0.25500000920E-02 0.  1.
    10030    2    1    2    0    0  0.00000000000E+00  0.00000000000E+00  0.34482245064E+03  0.38889091754E+04  0.38735916218E+04 0.  0.
        4    1    3    3  502    0 -0.70855362663E+03  0.61450647183E+02 -0.16361985354E+04  0.17840884743E+04  0.12699999809E+01 0.  1.
       -4    1    3    3    0  502  0.70855362663E+03 -0.61450647183E+02  0.19810209861E+04  0.21048207012E+04  0.12699999809E+01 0. -1.
</event>
<event>
 5   0  0.3977376E-07  0.3954070E+04  0.7818609E-02  0.8013877E-01
       -1   -1    0    0    0  501  0.00000000000E+00  0.00000000000E+00  0.16885443809E+04  0.16885443809E+04  0.50400001928E-02 0. -1.
        1   -1    0    0  501    0  0.00000000000E+00  0.00000000000E+00 -0.23148142743E+04  0.23148142743E+04  0.50400001928E-02 0.  1.
    10030    2    1    2    0    0  0.00000000000E+00  0.00000000000E+00 -0.62626989346E+03  0.40033586552E+04  0.39540696178E+04 0.  0.
        4    1    3    3  502    0 -0.12513017496E+04  0.19818989210E+03 -0.18498258652E+04  0.22420732919E+04  0.12699999809E+01 0.  1.
       -4    1    3    3    0  502  0.12513017496E+04 -0.19818989210E+03  0.12235559718E+04  0.17612853633E+04  0.12699999809E+01 0. -1.
</event>
<event>
 5   0  0.1035864E-06  0.4305797E+04  0.7818609E-02  0.7945547E-01
       -2   -1    0    0    0  501  0.00000000000E+00  0.00000000000E+00  0.15658481126E+04  0.15658481126E+04  0.25500000920E-02 0. -1.
        2   -1    0    0  501    0  0.00000000000E+00  0.00000000000E+00 -0.29600388631E+04  0.29600388631E+04  0.25500000920E-02 0.  1.
    10030    2    1    2    0    0  0.00000000000E+00  0.00000000000E+00 -0.13941907505E+04  0.45258869758E+04  0.43057966822E+04 0.  0.
        5    1    3    3  502    0  0.15964446069E+04  0.93030625498E+03 -0.18584912624E+04  0.26207092501E+04  0.46999998093E+01 0.  1.
       -5    1    3    3    0  502 -0.15964446069E+04 -0.93030625498E+03  0.46430051197E+03  0.19051777257E+04  0.46999998093E+01 0. -1.
</event>
<event>
 5   0  0.5533705E-07  0.3200321E+04  0.7818609E-02  0.8188732E-01
        2   -1    0    0  501    0  0.00000000000E+00  0.00000000000E+00  0.27511224033E+04  0.27511224033E+04  0.25500000920E-02 0. -1.
       -2   -1    0    0    0  501  0.00000000000E+00  0.00000000000E+00 -0.93071626925E+03  0.93071626925E+03  0.25500000920E-02 0.  1.
    10030    2    1    2    0    0  0.00000000000E+00  0.00000000000E+00  0.18204061340E+04  0.36818386725E+04  0.32003214710E+04 0.  0.
        1    1    3    3  502    0  0.28778071085E+03 -0.14812396633E+04  0.29750862385E+03  0.15379857148E+04  0.50400001928E-02 0.  1.
       -1    1    3    3    0  502 -0.28778071085E+03  0.14812396633E+04  0.15228975102E+04  0.21438529577E+04  0.50400001928E-02 0. -1.
</event>
<event>
 5   0  0.3471602E-07  0.4011449E+04  0.7818609E-02  0.8002241E-01
       -1   -1    0    0    0  501  0.00000000000E+00  0.00000000000E+00  0.20781105978E+04  0.20781105978E+04  0.50400001928E-02 0. -1.
        1   -1    0    0  501    0  0.00000000000E+00  0.00000000000E+00 -0.19358602808E+04  0.19358602808E+04  0.50400001928E-02 0.  1.
    10030    2    1    2    0    0  0.00000000000E+00  0.00000000000E+00  0.14225031707E+03  0.40139708786E+04  0.40114494963E+04 0.  0.
        5    1    3    3  502    0 -0.14064253180E+04  0.83698188156E+03  0.12313101955E+04  0.20481010065E+04  0.46999998093E+01 0. -1.
       -5    1    3    3    0  502  0.14064253180E+04 -0.83698188156E+03 -0.10890598785E+04  0.19658698721E+04  0.46999998093E+01 0.  1.
</event>
<event>
 5   0  0.1015219E-06  0.3911276E+04  0.7818609E-02  0.8022688E-01
        2   -1    0    0  501    0  0.00000000000E+00  0.00000000000E+00  0.16851205190E+04  0.16851205190E+04  0.25500000920E-02 0. -1.
       -2   -1    0    0    0  501  0.00000000000E+00  0.00000000000E+00 -0.22695827883E+04  0.22695827883E+04  0.25500000920E-02 0.  1.
    10030    2    1    2    0    0  0.00000000000E+00  0.00000000000E+00 -0.58446226930E+03  0.39547033072E+04  0.39112762756E+04 0.  0.
        3    1    3    3  502    0 -0.37233958999E+01 -0.51404424162E+03  0.16155853023E+04  0.16953970700E+04  0.10100000352E+00 0. -1.
       -3    1    3    3    0  502  0.37233958999E+01  0.51404424162E+03 -0.22000475716E+04  0.22593062372E+04  0.10100000352E+00 0.  1.
</event>
<event>
 5   0  0.5385714E-07  0.3657303E+04  0.7818609E-02  0.8077490E-01
       -1   -1    0    0    0  501  0.00000000000E+00  0.00000000000E+00  0.20127496376E+04  0.20127496376E+04  0.50400001928E-02 0.  1.
        1   -1    0    0  501    0  0.00000000000E+00  0.00000000000E+00 -0.16613923363E+04  0.16613923363E+04  0.50400001928E-02 0. -1.
    10030    2    1    2    0    0  0.00000000000E+00  0.00000000000E+00  0.35135730129E+03  0.36741419739E+04  0.36573032812E+04 0.  0.
        3    1    3    3  502    0 -0.41778903460E+03  0.17671498090E+04  0.39254447639E+03  0.18578098130E+04  0.10100000352E+00 0. -1.
       -3    1    3    3    0  502  0.41778903460E+03 -0.17671498090E+04 -0.41187175101E+02  0.18163321609E+04  0.10100000352E+00 0.  1.
</event>
<event>
 5   0  0.1034683E-06  0.3802638E+04  0.7818609E-02  0.8045589E-01
        2   -1    0    0  501    0  0.00000000000E+00  0.00000000000E+00  0.13965854820E+04  0.13965854820E+04  0.25500000920E-02 0. -1.
       -2   -1    0    0    0  501  0.00000000000E+00  0.00000000000E+00 -0.25884655633E+04  0.25884655633E+04  0.25500000920E-02 0.  1.
    10030    2    1    2    0    0  0.00000000000E+00  0.00000000000E+00 -0.11918800813E+04  0.39850510453E+04  0.38026377300E+04 0.  0.
        2    1    3    3  502    0 -0.17736669211E+04  0.64526700063E+03 -0.35524982919E+03  0.19205380210E+04  0.25500000920E-02 0. -1.
       -2    1    3    3    0  502  0.17736669211E+04 -0.64526700063E+03 -0.83663025210E+03  0.20645130243E+04  0.25500000920E-02 0.  1.
</event>
<event>
 5   0  0.4316671E-07  0.2179045E+04  0.7818609E-02  0.8527201E-01
        1   -1    0    0  501    0  0.00000000000E+00  0.00000000000E+00  0.15583062090E+04  0.15583062090E+04  0.50400001928E-02 0.  1.
       -1   -1    0    0    0  501  0.00000000000E+00  0.00000000000E+00 -0.76176265889E+03  0.76176265891E+03  0.50400001928E-02 0. -1.
    10030    2    1    2    0    0  0.00000000000E+00  0.00000000000E+00  0.79654355013E+03  0.23200688679E+04  0.21790451865E+04 0.  0.
        2    1    3    3  502    0  0.15395718233E+03 -0.93050956717E+03  0.97901534722E+03  0.13594196992E+04  0.25500000920E-02 0. -1.
       -2    1    3    3    0  502 -0.15395718233E+03  0.93050956717E+03 -0.18247179709E+03  0.96064916870E+03  0.25500000920E-02 0.  1.
</event>
<event>
 5   0  0.3471602E-07  0.3275369E+04  0.7818609E-02  0.8169191E-01
       -1   -1    0    0    0  501  0.00000000000E+00  0.00000000000E+00  0.16808622349E+04  0.16808622349E+04  0.50400001928E-02 0.  1.
        1   -1    0    0  501    0  0.00000000000E+00  0.00000000000E+00 -0.15956161300E+04  0.15956161300E+04  0.50400001928E-02 0. -1.
    10030    2    1    2    0    0  0.00000000000E+00  0.00000000000E+00  0.85246104893E+02  0.32764783649E+04  0.32753692276E+04 0.  0.
        5    1    3    3  502    0 -0.15535535937E+04  0.50818141624E+03 -0.58464043612E+02  0.16356091388E+04  0.46999998093E+01 0. -1.
       -5    1    3    3    0  502  0.15535535937E+04 -0.50818141624E+03  0.14371014850E+03  0.16408692261E+04  0.46999998093E+01 0.  1.
</event>
<event>
 5   0  0.4627905E-07  0.2232411E+04  0.7818609E-02  0.8505058E-01
        1   -1    0    0  501    0  0.00000000000E+00  0.00000000000E+00  0.10347481442E+04  0.10347481442E+04  0.50400001928E-02 0. -1.
       -1   -1    0    0    0  501  0.00000000000E+00  0.00000000000E+00 -0.12040756517E+04  0.12040756517E+04  0.50400001928E-02 0.  1.
    10030    2    1    2    0    0  0.00000000000E+00  0.00000000000E+00 -0.16932750752E+03  0.22388237960E+04  0.22324112938E+04 0.  0.
        1    1    3    3  502    0  0.74093242674E+03 -0.79876726269E+03 -0.32806452505E+03  0.11378208706E+04  0.50400001928E-02 0.  1.
       -1    1    3    3    0  502 -0.74093242674E+03  0.79876726269E+03  0.15873701752E+03  0.11010029254E+04  0.50400001928E-02 0. -1.
</event>
<event>
 5   0  0.1035864E-06  0.3762373E+04  0.7818609E-02  0.8054278E-01
        2   -1    0    0  501    0  0.00000000000E+00  0.00000000000E+00  0.22519204423E+04  0.22519204423E+04  0.25500000920E-02 0. -1.
       -2   -1    0    0    0  501  0.00000000000E+00  0.00000000000E+00 -0.15714864772E+04  0.15714864772E+04  0.25500000920E-02 0.  1.
    10030    2    1    2    0    0  0.00000000000E+00  0.00000000000E+00  0.68043396517E+03  0.38234069195E+04  0.37623729336E+04 0.  0.
        5    1    3    3  502    0 -0.16843617243E+04  0.47527617127E+03  0.10412472298E+04  0.20364625557E+04  0.46999998093E+01 0. -1.
       -5    1    3    3    0  502  0.16843617243E+04 -0.47527617127E+03 -0.36081326459E+03  0.17869443638E+04  0.46999998093E+01 0.  1.
</event>
<event>
 5   0  0.5533705E-07  0.3408743E+04  0.7818609E-02  0.8135764E-01
       -2   -1    0    0    0  501  0.00000000000E+00  0.00000000000E+00  0.23514669537E+04  0.23514669537E+04  0.25500000920E-02 0.  1.
        2   -1    0    0  501    0  0.00000000000E+00  0.00000000000E+00 -0.12353486702E+04  0.12353486702E+04  0.25500000920E-02 0. -1.
    10030    2    1    2    0    0  0.00000000000E+00  0.00000000000E+00  0.11161182835E+04  0.35868156239E+04  0.34087426270E+04 0.  0.
        1    1    3    3  502    0 -0.40447365314E+03  0.39920131162E+03  0.22488360665E+04  0.23195310468E+04  0.50400001928E-02 0.  1.
       -1    1    3    3    0  502  0.40447365314E+03 -0.39920131162E+03 -0.11327177830E+04  0.12672845771E+04  0.50400001928E-02 0. -1.
</event>
<event>
 5   0  0.7268013E-07  0.2266881E+04  0.7818609E-02  0.8491095E-01
        2   -1    0    0  501    0  0.00000000000E+00  0.00000000000E+00  0.11345153793E+04  0.11345153793E+04  0.25500000920E-02 0.  1.
       -2   -1    0    0    0  501  0.00000000000E+00  0.00000000000E+00 -0.11323671281E+04  0.11323671281E+04  0.25500000920E-02 0. -1.
    10030    2    1    2    0    0  0.00000000000E+00  0.00000000000E+00  0.21482512168E+01  0.22668825074E+04  0.22668814895E+04 0.  0.
        4    1    3    3  502    0  0.83348505096E+03  0.57232112289E+03  0.51336090739E+03  0.11339267313E+04  0.12699999809E+01 0.  1.
       -4    1    3    3    0  502 -0.83348505096E+03 -0.57232112289E+03 -0.51121265618E+03  0.11329557761E+04  0.12699999809E+01 0. -1.
</event>
<event>
 5   0  0.1035864E-06  0.3924913E+04  0.7818609E-02  0.8019868E-01
       -2   -1    0    0    0  501  0.00000000000E+00  0.00000000000E+00  0.22436730624E+04  0.22436730624E+04  0.25500000920E-02 0.  1.
        2   -1    0    0  501    0  0.00000000000E+00  0.00000000000E+00 -0.17164865255E+04  0.17164865255E+04  0.25500000920E-02 0. -1.
    10030    2    1    2    0    0  0.00000000000E+00  0.00000000000E+00  0.52718653697E+03  0.39601595879E+04  0.39249125235E+04 0.  0.
        5    1    3    3  502    0  0.57186408700E+03 -0.13942431816E+04  0.15319702171E+04  0.21489293659E+04  0.46999998093E+01 0.  1.
       -5    1    3    3    0  502 -0.57186408700E+03  0.13942431816E+04 -0.10047836801E+04  0.18112302220E+04  0.46999998093E+01 0. -1.
</event>
<event>
 5   0  0.4316671E-07  0.3810549E+04  0.7818609E-02  0.8043895E-01
        1   -1    0    0  501    0  0.00000000000E+00  0.00000000000E+00  0.23218731912E+04  0.23218731912E+04  0.50400001928E-02 0. -1.
       -1   -1    0    0    0  501  0.00000000000E+00  0.00000000000E+00 -0.15634231354E+04  0.15634231355E+04  0.50400001928E-02 0.  1.
    10030    2    1    2    0    0  0.00000000000E+00  0.00000000000E+00  0.75845005573E+03  0.38852963266E+04  0.38105486559E+04 0.  0.
        2    1    3    3  502    0 -0.89255555953E+03 -0.16669282086E+04  0.14061487671E+03  0.18960689922E+04  0.25500000920E-02 0. -1.
       -2    1    3    3    0  502  0.89255555953E+03  0.16669282086E+04  0.61783517902E+03  0.19892273344E+04  0.25500000920E-02 0.  1.
</event>
<event>
 5   0  0.5385714E-07  0.3733731E+04  0.7818609E-02  0.8060527E-01
       -1   -1    0    0    0  501  0.00000000000E+00  0.00000000000E+00  0.21577368206E+04  0.21577368206E+04  0.50400001928E-02 0.  1.
        1   -1    0    0  501    0  0.00000000000E+00  0.00000000000E+00 -0.16152051929E+04  0.16152051929E+04  0.50400001928E-02 0. -1.
    10030    2    1    2    0    0  0.00000000000E+00  0.00000000000E+00  0.54253162774E+03  0.37729420135E+04  0.37337314941E+04 0.  0.
        3    1    3    3  502    0 -0.63476766559E+03 -0.17314877900E+04 -0.21967347206E+02  0.18443054331E+04  0.10100000352E+00 0. -1.
       -3    1    3    3    0  502  0.63476766559E+03  0.17314877900E+04  0.56449897495E+03  0.19286365804E+04  0.10100000352E+00 0.  1.
</event>
<event>
 5   0  0.3977376E-07  0.3689863E+04  0.7818609E-02  0.8070212E-01
        1   -1    0    0  501    0  0.00000000000E+00  0.00000000000E+00  0.25128106167E+04  0.25128106167E+04  0.50400001928E-02 0. -1.
       -1   -1    0    0    0  501  0.00000000000E+00  0.00000000000E+00 -0.13545680843E+04  0.13545680843E+04  0.50400001928E-02 0.  1.
    10030    2    1    2    0    0  0.00000000000E+00  0.00000000000E+00  0.11582425324E+04  0.38673787010E+04  0.36898634464E+04 0.  0.
        4    1    3    3  502    0 -0.56216220381E+03  0.11127783782E+04  0.20044990338E+04  0.23605762118E+04  0.12699999809E+01 0. -1.
       -4    1    3    3    0  502  0.56216220381E+03 -0.11127783782E+04 -0.84625650138E+03  0.15068024892E+04  0.12699999809E+01 0.  1.
</event>
<event>
 5   0  0.1034683E-06  0.3808801E+04  0.7818609E-02  0.8044269E-01
        2   -1    0    0  501    0  0.00000000000E+00  0.00000000000E+00  0.32532948882E+04  0.32532948882E+04  0.25500000920E-02 0.  1.
       -2   -1    0    0    0  501  0.00000000000E+00  0.00000000000E+00 -0.11147901703E+04  0.11147901703E+04  0.25500000920E-02 0. -1.
    10030    2    1    2    0    0  0.00000000000E+00  0.00000000000E+00  0.21385047179E+04  0.43680850585E+04  0.38088009465E+04 0.  0.
        2    1    3    3  502    0  0.12971158370E+04  0.41710154184E+03 -0.45663013213E+03  0.14370087920E+04  0.25500000920E-02 0. -1.
       -2    1    3    3    0  502 -0.12971158370E+04 -0.41710154184E+03  0.25951348500E+04  0.29310762666E+04  0.25500000920E-02 0.  1.
</event>
<event>
 5   0  0.5533705E-07  0.3756588E+04  0.7818609E-02  0.8055536E-01
        2   -1    0    0  501    0  0.00000000000E+00  0.00000000000E+00  0.10231013330E+04  0.10231013330E+04  0.25500000920E-02 0. -1.
       -2   -1    0    0    0  501  0.00000000000E+00  0.00000000000E+00 -0.34483270562E+04  0.34483270562E+04  0.25500000920E-02 0.  1.
    10030    2    1    2    0    0  0.00000000000E+00  0.00000000000E+00 -0.24252257233E+04  0.44714283892E+04  0.37565878175E+04 0.  0.
        1    1    3    3  502    0  0.19963619373E+03  0.14220881621E+04 -0.26536988441E+04  0.30173344041E+04  0.50400001928E-02 0.  1.
       -1    1    3    3    0  502 -0.19963619373E+03 -0.14220881621E+04  0.22847312083E+03  0.14540939851E+04  0.50400001928E-02 0. -1.
</event>
<event>
 5   0  0.3977376E-07  0.3812552E+04  0.7818609E-02  0.8043467E-01
        1   -1    0    0  501    0  0.00000000000E+00  0.00000000000E+00  0.11401759558E+04  0.11401759558E+04  0.50400001928E-02 0. -1.
       -1   -1    0    0    0  501  0.00000000000E+00  0.00000000000E+00 -0.31871284722E+04  0.31871284722E+04  0.50400001928E-02 0.  1.
    10030    2    1    2    0    0  0.00000000000E+00  0.00000000000E+00 -0.20469525164E+04  0.43273044280E+04  0.38125515089E+04 0.  0.
        4    1    3    3  502    0 -0.85874502285E+03  0.13717342716E+03  0.90191461729E+03  0.12528811409E+04  0.12699999809E+01 0. -1.
       -4    1    3    3    0  502  0.85874502285E+03 -0.13717342716E+03 -0.29488671337E+04  0.30744232871E+04  0.12699999809E+01 0.  1.
</event>
<event>
 5   0  0.1034683E-06  0.2319562E+04  0.7818609E-02  0.8470248E-01
       -2   -1    0    0    0  501  0.00000000000E+00  0.00000000000E+00  0.70593055266E+03  0.70593055266E+03  0.25500000920E-02 0.  1.
        2   -1    0    0  501    0  0.00000000000E+00  0.00000000000E+00 -0.19054170936E+04  0.19054170936E+04  0.25500000920E-02 0. -1.
    10030    2    1    2    0    0  0.00000000000E+00  0.00000000000E+00 -0.11994865409E+04  0.26113476463E+04  0.23195621500E+04 0.  0.
        2    1    3    3  502    0  0.27885539432E+03 -0.71610891603E+03 -0.15776422861E+04  0.17548582545E+04  0.25500000920E-02 0. -1.
       -2    1    3    3    0  502 -0.27885539432E+03  0.71610891603E+03  0.37815574516E+03  0.85648939174E+03  0.25500000920E-02 0.  1.
</event>
<event>
 5   0  0.4627905E-07  0.3927020E+04  0.7818609E-02  0.8019433E-01
       -1   -1    0    0    0  501  0.00000000000E+00  0.00000000000E+00  0.17050569407E+04  0.17050569407E+04  0.50400001928E-02 0. -1.
        1   -1    0    0  501    0  0.00000000000E+00  0.00000000000E+00 -0.22611391571E+04  0.22611391571E+04  0.50400001928E-02 0.  1.
    10030    2    1    2    0    0  0.00000000000E+00  0.00000000000E+00 -0.55608221644E+03  0.39661960978E+04  0.39270197421E+04 0.  0.
        1    1    3    3  502    0 -0.10234114757E+04 -0.83226369886E+03 -0.17469704015E+04  0.21890499073E+04  0.50400001928E-02 0.  1.
       -1    1    3    3    0  502  0.10234114757E+04  0.83226369886E+03  0.11908881851E+04  0.17771461905E+04  0.50400001928E-02 0. -1.
</event>
<event>
 5   0  0.5533705E-07  0.4021475E+04  0.7818609E-02  0.8000228E-01
       -2   -1    0    0    0  501  0.00000000000E+00  0.00000000000E+00  0.15076155003E+04  0.15076155003E+04  0.25500000920E-02 0. -1.
        2   -1    0    0  501    0  0.00000000000E+00  0.00000000000E+00 -0.26817619278E+04  0.26817619278E+04  0.25500000920E-02 0.  1.
    10030    2    1    2    0    0  0.00000000000E+00  0.00000000000E+00 -0.11741464275E+04  0.41893774281E+04  0.40214752768E+04 0.  0.
        1    1    3    3  502    0 -0.17520528358E+04  0.74493901550E+03 -0.12609523616E+04  0.22835551525E+04  0.50400001928E-02 0. -1.
       -1    1    3    3    0  502  0.17520528358E+04 -0.74493901550E+03  0.86805934125E+02  0.19058222757E+04  0.50400001928E-02 0.  1.
</event>
<event>
 5   0  0.5385714E-07  0.3958950E+04  0.7818609E-02  0.8012879E-01
       -1   -1    0    0    0  501  0.00000000000E+00  0.00000000000E+00  0.20425084983E+04  0.20425084983E+04  0.50400001928E-02 0.  1.
        1   -1    0    0  501    0  0.00000000000E+00  0.00000000000E+00 -0.19183870977E+04  0.19183870978E+04  0.50400001928E-02 0. -1.
    10030    2    1    2    0    0  0.00000000000E+00  0.00000000000E+00  0.12412140057E+03  0.39608955961E+04  0.39589503408E+04 0.  0.
        3    1    3    3  502    0  0.16988542094E+04  0.60448820706E+03 -0.75492508086E+03  0.19548461590E+04  0.10100000352E+00 0. -1.
       -3    1    3    3    0  502 -0.16988542094E+04 -0.60448820706E+03  0.87904648143E+03  0.20060494371E+04  0.10100000352E+00 0.  1.
</event>
<event>
 5   0  0.1015219E-06  0.3921095E+04  0.7818609E-02  0.8020656E-01
        2   -1    0    0  501    0  0.00000000000E+00  0.00000000000E+00  0.21589832795E+04  0.21589832795E+04  0.25500000920E-02 0.  1.
       -2   -1    0    0    0  501  0.00000000000E+00  0.00000000000E+00 -0.17803504743E+04  0.17803504743E+04  0.25500000920E-02 0. -1.
    10030    2    1    2    0    0  0.00000000000E+00  0.00000000000E+00  0.37863280524E+03  0.39393337538E+04  0.39210952070E+04 0.  0.
        3    1    3    3  502    0 -0.15197438164E+03  0.19269368608E+04 -0.14018018040E+03  0.19379969999E+04  0.10100000352E+00 0. -1.
       -3    1    3    3    0  502  0.15197438164E+03 -0.19269368608E+04  0.51881298564E+03  0.20013367539E+04  0.10100000352E+00 0.  1.
</event>
<event>
 5   0  0.5533705E-07  0.2478172E+04  0.7818609E-02  0.8410803E-01
       -2   -1    0    0    0  501  0.00000000000E+00  0.00000000000E+00  0.88384777781E+03  0.88384777781E+03  0.25500000920E-02 0.  1.
        2   -1    0    0  501    0  0.00000000000E+00  0.00000000000E+00 -0.17371021330E+04  0.17371021330E+04  0.25500000920E-02 0. -1.
    10030    2    1    2    0    0  0.00000000000E+00  0.00000000000E+00 -0.85325435522E+03  0.26209499108E+04  0.24781717940E+04 0.  0.
        1    1    3    3  502    0  0.13330579200E+03  0.32217569439E+03 -0.16841506963E+04  0.17198637097E+04  0.50400001928E-02 0. -1.
       -1    1    3    3    0  502 -0.13330579200E+03 -0.32217569439E+03  0.83089634106E+03  0.90108620112E+03  0.50400001928E-02 0.  1.
</event>
<event>
 5   0  0.1035864E-06  0.2126479E+04  0.7818609E-02  0.8549668E-01
       -2   -1    0    0    0  501  0.00000000000E+00  0.00000000000E+00  0.55941300991E+03  0.55941300992E+03  0.25500000920E-02 0.  1.
        2   -1    0    0  501    0  0.00000000000E+00  0.00000000000E+00 -0.20208295624E+04  0.20208295624E+04  0.25500000920E-02 0. -1.
    10030    2    1    2    0    0  0.00000000000E+00  0.00000000000E+00 -0.14614165525E+04  0.25802425723E+04  0.21264791069E+04 0.  0.
        5    1    3    3  502    0 -0.43834286401E+03 -0.92864836160E+03 -0.10650487791E+04  0.14794874916E+04  0.46999998093E+01 0. -1.
       -5    1    3    3    0  502  0.43834286401E+03  0.92864836160E+03 -0.39636777338E+03  0.11007550807E+04  0.46999998093E+01 0.  1.
</event>
<event>
 5   0  0.1034683E-06  0.3993441E+04  0.7818609E-02  0.8005871E-01
       -2   -1    0    0    0  501  0.00000000000E+00  0.00000000000E+00  0.18846592885E+04  0.18846592885E+04  0.25500000920E-02 0.  1.
        2   -1    0    0  501    0  0.00000000000E+00  0.00000000000E+00 -0.21154447347E+04  0.21154447347E+04  0.25500000920E-02 0. -1.
    10030    2    1    2    0    0  0.00000000000E+00  0.00000000000E+00 -0.23078544623E+03  0.40001040232E+04  0.39934409066E+04 0.  0.
        2    1    3    3  502    0  0.15211123068E+04  0.20198797136E+03 -0.13951436336E+04  0.20738870627E+04  0.25500000920E-02 0. -1.
       -2    1    3    3    0  502 -0.15211123068E+04 -0.20198797136E+03  0.11643581874E+04  0.19262169605E+04  0.25500000920E-02 0.  1.
</event>
<event>
 5   0  0.5533705E-07  0.3732647E+04  0.7818609E-02  0.8060765E-01
        2   -1    0    0  501    0  0.00000000000E+00  0.00000000000E+00  0.18001001622E+04  0.18001001622E+04  0.25500000920E-02 0. -1.
       -2   -1    0    0    0  501  0.00000000000E+00  0.00000000000E+00 -0.19349833606E+04  0.19349833606E+04  0.25500000920E-02 0.  1.
    10030    2    1    2    0    0  0.00000000000E+00  0.00000000000E+00 -0.13488319843E+03  0.37350835228E+04  0.37326472436E+04 0.  0.
        1    1    3    3  502    0 -0.15429364291E+04  0.33878010385E+03  0.92705771360E+03  0.18316279064E+04  0.50400001928E-02 0. -1.
       -1    1    3    3    0  502  0.15429364291E+04 -0.33878010385E+03 -0.10619409120E+04  0.19034556164E+04  0.50400001928E-02 0.  1.
</event>
<event>
 5   0  0.1035864E-06  0.3859791E+04  0.7818609E-02  0.8033444E-01
       -2   -1    0    0    0  501  0.00000000000E+00  0.00000000000E+00  0.20707006794E+04  0.20707006794E+04  0.25500000920E-02 0. -1.
        2   -1    0    0  501    0  0.00000000000E+00  0.00000000000E+00 -0.17986650420E+04  0.17986650420E+04  0.25500000920E-02 0.  1.
    10030    2    1    2    0    0  0.00000000000E+00  0.00000000000E+00  0.27203563732E+03  0.38693657214E+04  0.38597911469E+04 0.  0.
        5    1    3    3  502    0 -0.97309124064E+03  0.35641068450E+03  0.17681041616E+04  0.20494266405E+04  0.46999998093E+01 0. -1.
       -5    1    3    3    0  502  0.97309124064E+03 -0.35641068450E+03 -0.14960685243E+04  0.18199390809E+04  0.46999998093E+01 0.  1.
</event>
<event>
 5   0  0.4316671E-07  0.3851142E+04  0.7818609E-02  0.8035268E-01
       -1   -1    0    0    0  501  0.00000000000E+00  0.00000000000E+00  0.19348574550E+04  0.19348574550E+04  0.50400001928E-02 0. -1.
        1   -1    0    0  501    0  0.00000000000E+00  0.00000000000E+00 -0.19163295864E+04  0.19163295864E+04  0.50400001928E-02 0.  1.
    10030    2    1    2    0    0  0.00000000000E+00  0.00000000000E+00  0.18527868553E+02  0.38511870414E+04  0.38511424728E+04 0.  0.
        2    1    3    3  502    0  0.47589100069E+03 -0.20473111165E+02  0.18750114420E+04  0.19345695388E+04  0.25500000920E-02 0. -1.
       -2    1    3    3    0  502 -0.47589100069E+03  0.20473111165E+02 -0.18564835734E+04  0.19166175026E+04  0.25500000920E-02 0.  1.
</event>
<event>
 5   0  0.1015219E-06  0.3740566E+04  0.7818609E-02  0.8059031E-01
       -2   -1    0    0    0  501  0.00000000000E+00  0.00000000000E+00  0.12132517362E+04  0.12132517362E+04  0.25500000920E-02 0. -1.
        2   -1    0    0  501    0  0.00000000000E+00  0.00000000000E+00 -0.28831266326E+04  0.28831266326E+04  0.25500000920E-02 0.  1.
    10030    2    1    2    0    0  0.00000000000E+00  0.00000000000E+00 -0.16698748964E+04  0.40963783689E+04  0.37405659427E+04 0.  0.
        3    1    3    3  502    0  0.15007818111E+04  0.71198876870E+03  0.10628481743E+03  0.16645030862E+04  0.10100000352E+00 0. -1.
       -3    1    3    3    0  502 -0.15007818111E+04 -0.71198876870E+03 -0.17761597138E+04  0.24318752827E+04  0.10100000352E+00 0.  1.
</event>
<event>
 5   0  0.3471602E-07  0.2445549E+04  0.7818609E-02  0.8422645E-01
        1   -1    0    0  501    0  0.00000000000E+00  0.00000000000E+00  0.10582657266E+04  0.10582657266E+04  0.50400001928E-02 0. -1.
       -1   -1    0    0    0  501  0.00000000000E+00  0.00000000000E+00 -0.14128566636E+04  0.14128566636E+04  0.50400001928E-02 0.  1.
    10030    2    1    2    0    0  0.00000000000E+00  0.00000000000E+00 -0.35459093700E+03  0.24711223902E+04  0.24455492501E+04 0.  0.
        5    1    3    3  502    0  0.11310000174E+03  0.12022193250E+04  0.17155892969E+02  0.12076586150E+04  0.46999998093E+01 0. -1.
       -5    1    3    3    0  502 -0.11310000174E+03 -0.12022193250E+04 -0.37174682997E+03  0.12634637752E+04  0.46999998093E+01 0.  1.
</event>
<event>
 5   0  0.4627905E-07  0.3859749E+04  0.7818609E-02  0.8033453E-01
        1   -1    0    0  501    0  0.00000000000E+00  0.00000000000E+00  0.23948255779E+04  0.23948255779E+04  0.50400001928E-02 0. -1.
       -1   -1    0    0    0  501  0.00000000000E+00  0.00000000000E+00 -0.15551926219E+04  0.15551926220E+04  0.50400001928E-02 0.  1.
    10030    2    1    2    0    0  0.00000000000E+00  0.00000000000E+00  0.83963295597E+03  0.39500181999E+04  0.38597487326E+04 0.  0.
        1    1    3    3  502    0 -0.16687145127E+04  0.18772919075E+03 -0.55351300824E+03  0.17681139738E+04  0.50400001928E-02 0.  1.
       -1    1    3    3    0  502  0.16687145127E+04 -0.18772919075E+03  0.13931459642E+04  0.21819042261E+04  0.50400001928E-02 0. -1.
</event>
<event>
 5   0  0.5533705E-07  0.2311469E+04  0.7818609E-02  0.8473413E-01
       -2   -1    0    0    0  501  0.00000000000E+00  0.00000000000E+00  0.18619623320E+04  0.18619623320E+04  0.25500000920E-02 0.  1.
        2   -1    0    0  501    0  0.00000000000E+00  0.00000000000E+00 -0.71737309811E+03  0.71737309811E+03  0.25500000920E-02 0. -1.
    10030    2    1    2    0    0  0.00000000000E+00  0.00000000000E+00  0.11445892339E+04  0.25793354301E+04  0.23114685260E+04 0.  0.
        1    1    3    3  502    0 -0.82702185038E+03  0.77093908564E+03  0.30492527004E+03  0.11710216203E+04  0.50400001928E-02 0. -1.
       -1    1    3    3    0  502  0.82702185038E+03 -0.77093908564E+03  0.83966396384E+03  0.14083138098E+04  0.50400001928E-02 0.  1.
</event>
<event>
 5   0  0.1015219E-06  0.3851121E+04  0.7818609E-02  0.8035273E-01
        2   -1    0    0  501    0  0.00000000000E+00  0.00000000000E+00  0.11394668430E+04  0.11394668430E+04  0.25500000920E-02 0. -1.
       -2   -1    0    0    0  501  0.00000000000E+00  0.00000000000E+00 -0.32539628839E+04  0.32539628839E+04  0.25500000920E-02 0.  1.
    10030    2    1    2    0    0  0.00000000000E+00  0.00000000000E+00 -0.21144960408E+04  0.43934297269E+04  0.38511207795E+04 0.  0.
        3    1    3    3  502    0  0.19733676927E+02 -0.39724662500E+02  0.11388839395E+04  0.11397473863E+04  0.10100000352E+00 0. -1.
       -3    1    3    3    0  502 -0.19733676927E+02  0.39724662500E+02 -0.32533799803E+04  0.32536823406E+04  0.10100000352E+00 0.  1.
</event>
<event>
 5   0  0.3471602E-07  0.2710639E+04  0.7818609E-02  0.8331561E-01
       -1   -1    0    0    0  501  0.00000000000E+00  0.00000000000E+00  0.13228225411E+04  0.13228225412E+04  0.50400001928E-02 0. -1.
        1   -1    0    0  501    0  0.00000000000E+00  0.00000000000E+00 -0.13886149633E+04  0.13886149633E+04  0.50400001928E-02 0.  1.
    10030    2    1    2    0    0  0.00000000000E+00  0.00000000000E+00 -0.65792422178E+02  0.27114375045E+04  0.27106391678E+04 0.  0.
        5    1    3    3  502    0 -0.73997502916E+02 -0.82376445189E+03 -0.11069002752E+04  0.13817792197E+04  0.46999998093E+01 0.  1.
       -5    1    3    3    0  502  0.73997502916E+02  0.82376445189E+03  0.10411078531E+04  0.13296582848E+04  0.46999998093E+01 0. -1.
</event>
<event>
 5   0  0.1035864E-06  0.3892103E+04  0.7818609E-02  0.8026674E-01
       -2   -1    0    0    0  501  0.00000000000E+00  0.00000000000E+00  0.18312687072E+04  0.18312687072E+04  0.25500000920E-02 0. -1.
        2   -1    0    0  501    0  0.00000000000E+00  0.00000000000E+00 -0.20680285853E+04  0.20680285853E+04  0.25500000920E-02 0.  1.
    10030    2    1    2    0    0  0.00000000000E+00  0.00000000000E+00 -0.23675987809E+03  0.38992972925E+04  0.38921027910E+04 0.  0.
        5    1    3    3  502    0 -0.34585811787E+03 -0.65708406913E+03  0.16837549196E+04  0.18402255381E+04  0.46999998093E+01 0. -1.
       -5    1    3    3    0  502  0.34585811787E+03  0.65708406913E+03 -0.19205147977E+04  0.20590717544E+04  0.46999998093E+01 0.  1.
</event>
<event>
 5   0  0.7268013E-07  0.3943715E+04  0.7818609E-02  0.8015998E-01
       -2   -1    0    0    0  501  0.00000000000E+00  0.00000000000E+00  0.31996405002E+04  0.31996405002E+04  0.25500000920E-02 0.  1.
        2   -1    0    0  501    0  0.00000000000E+00  0.00000000000E+00 -0.12152056942E+04  0.12152056942E+04  0.25500000920E-02 0. -1.
    10030    2    1    2    0    0  0.00000000000E+00  0.00000000000E+00  0.19844348060E+04  0.44148461944E+04  0.39437146729E+04 0.  0.
        4    1    3    3  502    0  0.19526447962E+04 -0.23402180618E+03  0.83141999788E+03  0.21351460680E+04  0.12699999809E+01 0.  1.
       -4    1    3    3    0  502 -0.19526447962E+04  0.23402180618E+03  0.11530148081E+04  0.22797001264E+04  0.12699999809E+01 0. -1.
</event>
<event>
 5   0  0.1015219E-06  0.3907687E+04  0.7818609E-02  0.8023432E-01
       -2   -1    0    0    0  501  0.00000000000E+00  0.00000000000E+00  0.14940819712E+04  0.14940819712E+04  0.25500000920E-02 0. -1.
        2   -1    0    0  501    0  0.00000000000E+00  0.00000000000E+00 -0.25550842164E+04  0.25550842164E+04  0.25500000920E-02 0.  1.
    10030    2    1    2    0    0  0.00000000000E+00  0.00000000000E+00 -0.10610022452E+04  0.40491661876E+04  0.39076874300E+04 0.  0.
        3    1    3    3  502    0  0.14398962675E+04 -0.28427629000E+03 -0.18669210879E+04  0.23747649629E+04  0.10100000352E+00 0.  1.
       -3    1    3    3    0  502 -0.14398962675E+04  0.28427629000E+03  0.80591884274E+03  0.16744012247E+04  0.10100000352E+00 0. -1.
</event>
<event>
 5   0  0.3977376E-07  0.3866525E+04  0.7818609E-02  0.8032028E-01
       -1   -1    0    0    0  501  0.00000000000E+00  0.00000000000E+00  0.14727409224E+04  0.14727409224E+04  0.50400001928E-02 0. -1.
        1   -1    0    0  501    0  0.00000000000E+00  0.00000000000E+00 -0.25377879038E+04  0.25377879039E+04  0.50400001928E-02 0.  1.
    10030    2    1    2    0    0  0.00000000000E+00  0.00000000000E+00 -0.10650469814E+04  0.40105288263E+04  0.38665251058E+04 0.  0.
        4    1    3    3  502    0 -0.40533327911E+03  0.18516474342E+04 -0.92696150729E+03  0.21100124494E+04  0.12699999809E+01 0. -1.
       -4    1    3    3    0  502  0.40533327911E+03 -0.18516474342E+04 -0.13808547413E+03  0.19005163769E+04  0.12699999809E+01 0.  1.
</event>
<event>
 5   0  0.1034683E-06  0.3846612E+04  0.7818609E-02  0.8036225E-01
        2   -1    0    0  501    0  0.00000000000E+00  0.00000000000E+00  0.30501908112E+04  0.30501908112E+04  0.25500000920E-02 0.  1.
       -2   -1    0    0    0  501  0.00000000000E+00  0.00000000000E+00 -0.12127455076E+04  0.12127455076E+04  0.25500000920E-02 0. -1.
    10030    2    1    2    0    0  0.00000000000E+00  0.00000000000E+00  0.18374453036E+04  0.42629363188E+04  0.38466116017E+04 0.  0.
        2    1    3    3  502    0 -0.63908968448E+03 -0.14895411075E+04  0.20661233557E+04  0.26260300945E+04  0.25500000920E-02 0.  1.
       -2    1    3    3    0  502  0.63908968448E+03  0.14895411075E+04 -0.22867805213E+03  0.16369062244E+04  0.25500000920E-02 0. -1.
</event>
<event>
 5   0  0.1035864E-06  0.3617414E+04  0.7818609E-02  0.8086514E-01
       -2   -1    0    0    0  501  0.00000000000E+00  0.00000000000E+00  0.11839751186E+04  0.11839751186E+04  0.25500000920E-02 0.  1.
        2   -1    0    0  501    0  0.00000000000E+00  0.00000000000E+00 -0.27630827664E+04  0.27630827664E+04  0.25500000920E-02 0. -1.
    10030    2    1    2    0    0  0.00000000000E+00  0.00000000000E+00 -0.15791076478E+04  0.39470578849E+04  0.36174141294E+04 0.  0.
        5    1    3    3  502    0  0.44310133087E+03 -0.10370648646E+04 -0.23324693212E+04  0.25908063508E+04  0.46999998093E+01 0. -1.
       -5    1    3    3    0  502 -0.44310133087E+03  0.10370648646E+04  0.75336167345E+03  0.13562515341E+04  0.46999998093E+01 0.  1.
</event>
<event>
 5   0  0.5533705E-07  0.2632700E+04  0.7818609E-02  0.8357178E-01
       -2   -1    0    0    0  501  0.00000000000E+00  0.00000000000E+00  0.11370006110E+04  0.11370006110E+04  0.25500000920E-02 0.  1.
        2   -1    0    0  501    0  0.00000000000E+00  0.00000000000E+00 -0.15239902908E+04  0.15239902908E+04  0.25500000920E-02 0. -1.
    10030    2    1    2    0    0  0.00000000000E+00  0.00000000000E+00 -0.38698967981E+03  0.26609909018E+04  0.26327004325E+04 0.  0.
        1    1    3    3  502    0 -0.10226117203E+04  0.52867989854E+03  0.45175432674E+03  0.12366564347E+04  0.50400001928E-02 0.  1.
       -1    1    3    3    0  502  0.10226117203E+04 -0.52867989854E+03 -0.83874400655E+03  0.14243344671E+04  0.50400001928E-02 0. -1.
</event>
<event>
 5   0  0.4627905E-07  0.2823751E+04  0.7818609E-02  0.8295932E-01
        1   -1    0    0  501    0  0.00000000000E+00  0.00000000000E+00  0.21216935083E+04  0.21216935084E+04  0.50400001928E-02 0.  1.
       -1   -1    0    0    0  501  0.00000000000E+00  0.00000000000E+00 -0.93952907333E+03  0.93952907334E+03  0.50400001928E-02 0. -1.
    10030    2    1    2    0    0  0.00000000000E+00  0.00000000000E+00  0.11821644350E+04  0.30612225817E+04  0.28237512184E+04 0.  0.
        1    1    3    3  502    0 -0.22349950770E+03  0.34449483055E+02 -0.91976824706E+03  0.94716018980E+03  0.50400001928E-02 0. -1.
       -1    1    3    3    0  502  0.22349950770E+03 -0.34449483055E+02  0.21019326821E+04  0.21140623919E+04  0.50400001928E-02 0.  1.
</event>
<event>
 5   0  0.5385714E-07  0.2998999E+04  0.7818609E-02  0.8244017E-01
        1   -1    0    0  501    0  0.00000000000E+00  0.00000000000E+00  0.20564375489E+04  0.20564375489E+04  0.50400001928E-02 0. -1.
       -1   -1    0    0    0  501  0.00000000000E+00  0.00000000000E+00 -0.10933948459E+04  0.10933948459E+04  0.50400001928E-02 0.  1.
    10030    2    1    2    0    0  0.00000000000E+00  0.00000000000E+00  0.96304270295E+03  0.31498323948E+04  0.29989986442E+04 0.  0.
        3    1    3    3  502    0  0.79652080179E+03  0.12695469019E+04  0.43111286420E+03  0.15595040993E+04  0.10100000352E+00 0.  1.
       -3    1    3    3    0  502 -0.79652080179E+03 -0.12695469019E+04  0.53192983875E+03  0.15903282955E+04  0.10100000352E+00 0. -1.
</event>
<event>
 5   0  0.7268013E-07  0.2749504E+04  0.7818609E-02  0.8319119E-01
       -2   -1    0    0    0  501  0.00000000000E+00  0.00000000000E+00  0.85335508634E+03  0.85335508634E+03  0.25500000920E-02 0. -1.
        2   -1    0    0  501    0  0.00000000000E+00  0.00000000000E+00 -0.22147205363E+04  0.22147205363E+04  0.25500000920E-02 0.  1.
    10030    2    1    2    0    0  0.00000000000E+00  0.00000000000E+00 -0.13613654500E+04  0.30680756227E+04  0.27495039804E+04 0.  0.
        4    1    3    3  502    0 -0.96203174314E+03  0.66563719280E+02  0.41264055245E+03  0.10489087863E+04  0.12699999809E+01 0. -1.
       -4    1    3    3    0  502  0.96203174314E+03 -0.66563719280E+02 -0.17740060024E+04  0.20191668364E+04  0.12699999809E+01 0.  1.
</event>
<event>
 5   0  0.5533705E-07  0.4389206E+04  0.7818609E-02  0.7930326E-01
        2   -1    0    0  501    0  0.00000000000E+00  0.00000000000E+00  0.18696387159E+04  0.18696387159E+04  0.25500000920E-02 0. -1.
       -2   -1    0    0    0  501  0.00000000000E+00  0.00000000000E+00 -0.25760493231E+04  0.25760493231E+04  0.25500000920E-02 0.  1.
    10030    2    1    2    0    0  0.00000000000E+00  0.00000000000E+00 -0.70641060725E+03  0.44456880390E+04  0.43892056450E+04 0.  0.
        1    1    3    3  502    0 -0.15703595380E+04  0.43754711391E+03  0.11349894259E+04  0.19863729641E+04  0.50400001928E-02 0. -1.
       -1    1    3    3    0  502  0.15703595380E+04 -0.43754711391E+03 -0.18414000331E+04  0.24593150749E+04  0.50400001928E-02 0.  1.
</event>
<event>
 5   0  0.1035864E-06  0.2108503E+04  0.7818609E-02  0.8557507E-01
       -2   -1    0    0    0  501  0.00000000000E+00  0.00000000000E+00  0.74628592592E+03  0.74628592593E+03  0.25500000920E-02 0. -1.
        2   -1    0    0  501    0  0.00000000000E+00  0.00000000000E+00 -0.14893040483E+04  0.14893040483E+04  0.25500000920E-02 0.  1.
    10030    2    1    2    0    0  0.00000000000E+00  0.00000000000E+00 -0.74301812238E+03  0.22355899742E+04  0.21085034035E+04 0.  0.
        5    1    3    3  502    0 -0.43931914320E+03  0.91660962231E+03 -0.74916562647E+02  0.10192198441E+04  0.46999998093E+01 0. -1.
       -5    1    3    3    0  502  0.43931914320E+03 -0.91660962231E+03 -0.66810155973E+03  0.12163701301E+04  0.46999998093E+01 0.  1.
</event>
<event>
 5   0  0.3977376E-07  0.4017627E+04  0.7818609E-02  0.8001000E-01
        1   -1    0    0  501    0  0.00000000000E+00  0.00000000000E+00  0.21799310210E+04  0.21799310210E+04  0.50400001928E-02 0. -1.
       -1   -1    0    0    0  501  0.00000000000E+00  0.00000000000E+00 -0.18511286061E+04  0.18511286061E+04  0.50400001928E-02 0.  1.
    10030    2    1    2    0    0  0.00000000000E+00  0.00000000000E+00  0.32880241492E+03  0.40310596271E+04  0.40176274951E+04 0.  0.
        4    1    3    3  502    0  0.71368238631E+03  0.11049884603E+04  0.16876960952E+04  0.21397807758E+04  0.12699999809E+01 0. -1.
       -4    1    3    3    0  502 -0.71368238631E+03 -0.11049884603E+04 -0.13588936803E+04  0.18912788513E+04  0.12699999809E+01 0.  1.
</event>
<event>
 5   0  0.3471602E-07  0.2564597E+04  0.7818609E-02  0.8380327E-01
        1   -1    0    0  501    0  0.00000000000E+00  0.00000000000E+00  0.13493033147E+04  0.13493033148E+04  0.50400001928E-02 0.  1.
       -1   -1    0    0    0  501  0.00000000000E+00  0.00000000000E+00 -0.12186211564E+04  0.12186211564E+04  0.50400001928E-02 0. -1.
    10030    2    1    2    0    0  0.00000000000E+00  0.00000000000E+00  0.13068215831E+03  0.25679244712E+04  0.25645970957E+04 0.  0.
        5    1    3    3  502    0  0.14394452727E+03 -0.80978508409E+03  0.10503834550E+04  0.13340912270E+04  0.46999998093E+01 0.  1.
       -5    1    3    3    0  502 -0.14394452727E+03  0.80978508409E+03 -0.91970129671E+03  0.12338332442E+04  0.46999998093E+01 0. -1.
</event>
<event>
 5   0  0.1034683E-06  0.1987755E+04  0.7818609E-02  0.8612367E-01
        2   -1    0    0  501    0  0.00000000000E+00  0.00000000000E+00  0.12133820002E+04  0.12133820002E+04  0.25500000920E-02 0.  1.
       -2   -1    0    0    0  501  0.00000000000E+00  0.00000000000E+00 -0.81408230833E+03  0.81408230834E+03  0.25500000920E-02 0. -1.
    10030    2    1    2    0    0  0.00000000000E+00  0.00000000000E+00  0.39929969185E+03  0.20274643085E+04  0.19877553367E+04 0.  0.
        2    1    3    3  502    0  0.20346831693E+03  0.93524257397E+03  0.47279572917E+03  0.10675269691E+04  0.25500000920E-02 0.  1.
       -2    1    3    3    0  502 -0.20346831693E+03 -0.93524257397E+03 -0.73496037321E+02  0.95993733945E+03  0.25500000920E-02 0. -1.
</event>
<event>
 5   0  0.3977376E-07  0.3938315E+04  0.7818609E-02  0.8017107E-01
        1   -1    0    0  501    0  0.00000000000E+00  0.00000000000E+00  0.22495581840E+04  0.22495581840E+04  0.50400001928E-02 0. -1.
       -1   -1    0    0    0  501  0.00000000000E+00  0.00000000000E+00 -0.17237081536E+04  0.17237081537E+04  0.50400001928E-02 0.  1.
    10030    2    1    2    0    0  0.00000000000E+00  0.00000000000E+00  0.52585003034E+03  0.39732663376E+04  0.39383152661E+04 0.  0.
        4    1    3    3  502    0 -0.17706866421E+04 -0.21853953573E+03  0.11036811167E+04  0.20979047484E+04  0.12699999809E+01 0. -1.
       -4    1    3    3    0  502  0.17706866421E+04  0.21853953573E+03 -0.57783108640E+03  0.18753615892E+04  0.12699999809E+01 0.  1.
</event>
<event>
 5   0  0.1015219E-06  0.3829249E+04  0.7818609E-02  0.8039907E-01
       -2   -1    0    0    0  501  0.00000000000E+00  0.00000000000E+00  0.23678363693E+04  0.23678363693E+04  0.25500000920E-02 0.  1.
        2   -1    0    0  501    0  0.00000000000E+00  0.00000000000E+00 -0.15481585461E+04  0.15481585461E+04  0.25500000920E-02 0. -1.
    10030    2    1    2    0    0  0.00000000000E+00  0.00000000000E+00  0.81967782321E+03  0.39159949155E+04  0.38292485482E+04 0.  0.
        3    1    3    3  502    0 -0.15712925096E+04 -0.89857364537E+03  0.10479873561E+04  0.20915717190E+04  0.10100000352E+00 0.  1.
       -3    1    3    3    0  502  0.15712925096E+04  0.89857364537E+03 -0.22830953294E+03  0.18244231965E+04  0.10100000352E+00 0. -1.
</event>
<event>
 5   0  0.3471602E-07  0.3952488E+04  0.7818609E-02  0.8014200E-01
        1   -1    0    0  501    0  0.00000000000E+00  0.00000000000E+00  0.12922245344E+04  0.12922245344E+04  0.50400001928E-02 0.  1.
       -1   -1    0    0    0  501  0.00000000000E+00  0.00000000000E+00 -0.30223394137E+04  0.30223394137E+04  0.50400001928E-02 0. -1.
    10030    2    1    2    0    0  0.00000000000E+00  0.00000000000E+00 -0.17301148793E+04  0.43145639481E+04  0.39524884018E+04 0.  0.
        5    1    3    3  502    0 -0.18078212514E+03  0.13906940426E+04 -0.23850224497E+04  0.27667790429E+04  0.46999998093E+01 0. -1.
       -5    1    3    3    0  502  0.18078212514E+03 -0.13906940426E+04  0.65490757041E+03  0.15477849051E+04  0.46999998093E+01 0.  1.
</event>
<event>
 5   0  0.3977376E-07  0.3932270E+04  0.7818609E-02  0.8018351E-01
        1   -1    0    0  501    0  0.00000000000E+00  0.00000000000E+00  0.19078065642E+04  0.19078065642E+04  0.50400001928E-02 0.  1.
       -1   -1    0    0    0  501  0.00000000000E+00  0.00000000000E+00 -0.20262463340E+04  0.20262463341E+04  0.50400001928E-02 0. -1.
    10030    2    1    2    0    0  0.00000000000E+00  0.00000000000E+00 -0.11843976985E+03  0.39340528983E+04  0.39322696026E+04 0.  0.
        4    1    3    3  502    0 -0.14758412409E+04  0.11735769849E+03  0.12351227052E+04  0.19280585851E+04  0.12699999809E+01 0.  1.
       -4    1    3    3    0  502  0.14758412409E+04 -0.11735769849E+03 -0.13535624751E+04  0.20059943132E+04  0.12699999809E+01 0. -1.
</event>
<event>
 5   0  0.1034683E-06  0.2340275E+04  0.7818609E-02  0.8462208E-01
        2   -1    0    0  501    0  0.00000000000E+00  0.00000000000E+00  0.15186104205E+04  0.15186104205E+04  0.25500000920E-02 0. -1.
       -2   -1    0    0    0  501  0.00000000000E+00  0.00000000000E+00 -0.90162817838E+03  0.90162817838E+03  0.25500000920E-02 0.  1.
    10030    2    1    2    0    0  0.00000000000E+00  0.00000000000E+00  0.61698224209E+03  0.24202385988E+04  0.23402751523E+04 0.  0.
        2    1    3    3  502    0 -0.11519590985E+04 -0.20195247131E+03  0.26941950706E+03  0.12001589211E+04  0.25500000920E-02 0. -1.
       -2    1    3    3    0  502  0.11519590985E+04  0.20195247131E+03  0.34756273503E+03  0.12200796777E+04  0.25500000920E-02 0.  1.
</event>
<event>
 5   0  0.3471602E-07  0.2418969E+04  0.7818609E-02  0.8432436E-01
       -1   -1    0    0    0  501  0.00000000000E+00  0.00000000000E+00  0.66826281528E+03  0.66826281530E+03  0.50400001928E-02 0.  1.
        1   -1    0    0  501    0  0.00000000000E+00  0.00000000000E+00 -0.21890384983E+04  0.21890384983E+04  0.50400001928E-02 0. -1.
    10030    2    1    2    0    0  0.00000000000E+00  0.00000000000E+00 -0.15207756830E+04  0.28573013136E+04  0.24189692265E+04 0.  0.
        5    1    3    3  502    0  0.47819297207E+03 -0.11033699343E+04 -0.91320327616E+03  0.15099854450E+04  0.46999998093E+01 0. -1.
       -5    1    3    3    0  502 -0.47819297207E+03  0.11033699343E+04 -0.60757240689E+03  0.13473158687E+04  0.46999998093E+01 0.  1.
</event>
<event>
 5   0  0.7268013E-07  0.3754888E+04  0.7818609E-02  0.8055906E-01
        2   -1    0    0  501    0  0.00000000000E+00  0.00000000000E+00  0.22201020191E+04  0.22201020191E+04  0.25500000920E-02 0.  1.
       -2   -1    0    0    0  501  0.00000000000E+00  0.00000000000E+00 -0.15876732719E+04  0.15876732719E+04  0.25500000920E-02 0. -1.
    10030    2    1    2    0    0  0.00000000000E+00  0.00000000000E+00  0.63242874716E+03  0.38077752910E+04  0.37548883534E+04 0.  0.
        4    1    3    3  502    0 -0.98801107552E+03  0.19782737605E+03  0.19226647615E+04  0.21707010283E+04  0.12699999809E+01 0.  1.
       -4    1    3    3    0  502  0.98801107552E+03 -0.19782737605E+03 -0.12902360144E+04  0.16370742627E+04  0.12699999809E+01 0. -1.
</event>
<event>
 5   0  0.3977376E-07  0.3758157E+04  0.7818609E-02  0.8055194E-01
       -1   -1    0    0    0  501  0.00000000000E+00  0.00000000000E+00  0.19587137373E+04  0.19587137373E+04  0.50400001928E-02 0. -1.
        1   -1    0    0  501    0  0.00000000000E+00  0.00000000000E+00 -0.18026806689E+04  0.18026806689E+04  0.50400001928E-02 0.  1.
    10030    2    1    2    0    0  0.00000000000E+00  0.00000000000E+00  0.15603306839E+03  0.37613944062E+04  0.37581566706E+04 0.  0.
        4    1    3    3  502    0  0.79693224774E+03 -0.14403448691E+04 -0.82898681175E+03  0.18430721897E+04  0.12699999809E+01 0.  1.
       -4    1    3    3    0  502 -0.79693224774E+03  0.14403448691E+04  0.98501988014E+03  0.19183222166E+04  0.12699999809E+01 0. -1.
</event>
<event>
 5   0  0.1035864E-06  0.3772541E+04  0.7818609E-02  0.8052073E-01
        2   -1    0    0  501    0  0.00000000000E+00  0.00000000000E+00  0.19741852725E+04  0.19741852725E+04  0.25500000920E-02 0.  1.
       -2   -1    0    0    0  501  0.00000000000E+00  0.00000000000E+00 -0.18022711485E+04  0.18022711485E+04  0.25500000920E-02 0. -1.
    10030    2    1    2    0    0  0.00000000000E+00  0.00000000000E+00  0.17191412400E+03  0.37764564210E+04  0.37725414025E+04 0.  0.
        5    1    3    3  502    0  0.32871880739E+03  0.35724078614E+03 -0.17386571975E+04  0.18051670211E+04  0.46999998093E+01 0. -1.
       -5    1    3    3    0  502 -0.32871880739E+03 -0.35724078614E+03  0.19105713215E+04  0.19712893999E+04  0.46999998093E+01 0.  1.
</event>
<event>
 5   0  0.7268013E-07  0.2331267E+04  0.7818609E-02  0.8465694E-01
       -2   -1    0    0    0  501  0.00000000000E+00  0.00000000000E+00  0.12514573137E+04  0.12514573137E+04  0.25500000920E-02 0. -1.
        2   -1    0    0  501    0  0.00000000000E+00  0.00000000000E+00 -0.10856953314E+04  0.10856953314E+04  0.25500000920E-02 0.  1.
    10030    2    1    2    0    0  0.00000000000E+00  0.00000000000E+00  0.16576198239E+03  0.23371526451E+04  0.23312669199E+04 0.  0.
        4    1    3    3  502    0  0.57475307938E+03 -0.97714029228E+03 -0.18901489957E+03  0.11492921727E+04  0.12699999809E+01 0.  1.
       -4    1    3    3    0  502 -0.57475307938E+03  0.97714029228E+03  0.35477688197E+03  0.11878604724E+04  0.12699999809E+01 0. -1.
</event>
<event>
 5   0  0.1034683E-06  0.3162116E+04  0.7818609E-02  0.8198894E-01
       -2   -1    0    0    0  501  0.00000000000E+00  0.00000000000E+00  0.11564502678E+04  0.11564502678E+04  0.25500000920E-02 0. -1.
        2   -1    0    0  501    0  0.00000000000E+00  0.00000000000E+00 -0.21615673433E+04  0.21615673433E+04  0.25500000920E-02 0.  1.
    10030    2    1    2    0    0  0.00000000000E+00  0.00000000000E+00 -0.10051170755E+04  0.33180176111E+04  0.31621164640E+04 0.  0.
        2    1    3    3  502    0  0.56876898952E+02  0.16241882152E+02  0.11552888414E+04  0.11568020952E+04  0.25500000920E-02 0. -1.
       -2    1    3    3    0  502 -0.56876898952E+02 -0.16241882152E+02 -0.21604059169E+04  0.21612155159E+04  0.25500000920E-02 0.  1.
</event>
<event>
 5   0  0.7268013E-07  0.4250302E+04  0.7818609E-02  0.7955872E-01
        2   -1    0    0  501    0  0.00000000000E+00  0.00000000000E+00  0.28345042201E+04  0.28345042201E+04  0.25500000920E-02 0.  1.
       -2   -1    0    0    0  501  0.00000000000E+00  0.00000000000E+00 -0.15933179207E+04  0.15933179207E+04  0.25500000920E-02 0. -1.
    10030    2    1    2    0    0  0.00000000000E+00  0.00000000000E+00  0.12411862994E+04  0.44278221408E+04  0.42503018105E+04 0.  0.
        4    1    3    3  502    0 -0.14369722421E+04  0.60118916394E+03 -0.88545218998E+03  0.17917435166E+04  0.12699999809E+01 0. -1.
       -4    1    3    3    0  502  0.14369722421E+04 -0.60118916394E+03  0.21266384894E+04  0.26360786242E+04  0.12699999809E+01 0.  1.
</event>
<event>
 5   0  0.1035864E-06  0.2681402E+04  0.7818609E-02  0.8341065E-01
       -2   -1    0    0    0  501  0.00000000000E+00  0.00000000000E+00  0.95497758139E+03  0.95497758139E+03  0.25500000920E-02 0. -1.
        2   -1    0    0  501    0  0.00000000000E+00  0.00000000000E+00 -0.18822218736E+04  0.18822218736E+04  0.25500000920E-02 0.  1.
    10030    2    1    2    0    0  0.00000000000E+00  0.00000000000E+00 -0.92724429217E+03  0.28371994550E+04  0.26814023886E+04 0.  0.
        5    1    3    3  502    0  0.27143587187E+03 -0.12053202332E+04 -0.10144287565E+04  0.15986125513E+04  0.46999998093E+01 0.  1.
       -5    1    3    3    0  502 -0.27143587187E+03  0.12053202332E+04  0.87184464330E+02  0.12385869037E+04  0.46999998093E+01 0. -1.
</event>
<event>
 5   0  0.7268013E-07  0.2203851E+04  0.7818609E-02  0.8516827E-01
        2   -1    0    0  501    0  0.00000000000E+00  0.00000000000E+00  0.14244496064E+04  0.14244496064E+04  0.25500000920E-02 0.  1.
       -2   -1    0    0    0  501  0.00000000000E+00  0.00000000000E+00 -0.85242763769E+03  0.85242763769E+03  0.25500000920E-02 0. -1.
    10030    2    1    2    0    0  0.00000000000E+00  0.00000000000E+00  0.57202196867E+03  0.22768772441E+04  0.22038513679E+04 0.  0.
        4    1    3    3  502    0  0.52137841333E+02 -0.14033645524E+03  0.14138931490E+04  0.14217974979E+04  0.12699999809E+01 0.  1.
       -4    1    3    3    0  502 -0.52137841333E+02  0.14033645524E+03 -0.84187118034E+03  0.85507974620E+03  0.12699999809E+01 0. -1.
</event>
<event>
 5   0  0.4316671E-07  0.2388317E+04  0.7818609E-02  0.8443890E-01
       -1   -1    0    0    0  501  0.00000000000E+00  0.00000000000E+00  0.76774659052E+03  0.76774659054E+03  0.50400001928E-02 0. -1.
        1   -1    0    0  501    0  0.00000000000E+00  0.00000000000E+00 -0.18574030014E+04  0.18574030014E+04  0.50400001928E-02 0.  1.
    10030    2    1    2    0    0  0.00000000000E+00  0.00000000000E+00 -0.10896564109E+04  0.26251495919E+04  0.23883172499E+04 0.  0.
        2    1    3    3  502    0  0.70149175596E+03  0.96568960465E+03 -0.50417811760E+03  0.12957016132E+04  0.25500000920E-02 0. -1.
       -2    1    3    3    0  502 -0.70149175596E+03 -0.96568960465E+03 -0.58547829325E+03  0.13294479787E+04  0.25500000920E-02 0.  1.
</event>
<event>
 5   0  0.1035864E-06  0.2413247E+04  0.7818609E-02  0.8434561E-01
       -2   -1    0    0    0  501  0.00000000000E+00  0.00000000000E+00  0.89403192745E+03  0.89403192745E+03  0.25500000920E-02 0. -1.
        2   -1    0    0  501    0  0.00000000000E+00  0.00000000000E+00 -0.16285097732E+04  0.16285097732E+04  0.25500000920E-02 0.  1.
    10030    2    1    2    0    0  0.00000000000E+00  0.00000000000E+00 -0.73447784571E+03  0.25225417006E+04  0.24132465530E+04 0.  0.
        5    1    3    3  502    0 -0.85642931772E+03 -0.57534649310E+03  0.28673399342E+03  0.10708563099E+04  0.46999998093E+01 0. -1.
       -5    1    3    3    0  502  0.85642931772E+03  0.57534649310E+03 -0.10212118391E+04  0.14516853908E+04  0.46999998093E+01 0.  1.
</event>
<event>
 5   0  0.3977376E-07  0.3939098E+04  0.7818609E-02  0.8016946E-01
       -1   -1    0    0    0  501  0.00000000000E+00  0.00000000000E+00  0.14953564903E+04  0.14953564903E+04  0.50400001928E-02 0. -1.
        1   -1    0    0  501    0  0.00000000000E+00  0.00000000000E+00 -0.25941132172E+04  0.25941132172E+04  0.50400001928E-02 0.  1.
    10030    2    1    2    0    0  0.00000000000E+00  0.00000000000E+00 -0.10987567269E+04  0.40894697075E+04  0.39390983922E+04 0.  0.
        4    1    3    3  502    0  0.66427787905E+03  0.72728970063E+03 -0.23200379946E+04  0.25204748200E+04  0.12699999809E+01 0.  1.
       -4    1    3    3    0  502 -0.66427787905E+03 -0.72728970063E+03  0.12212812677E+04  0.15689948875E+04  0.12699999809E+01 0. -1.
</event>
<event>
 5   0  0.7268013E-07  0.3833301E+04  0.7818609E-02  0.8039046E-01
       -2   -1    0    0    0  501  0.00000000000E+00  0.00000000000E+00  0.15733490662E+04  0.15733490662E+04  0.25500000920E-02 0.  1.
        2   -1    0    0  501    0  0.00000000000E+00  0.00000000000E+00 -0.23348596345E+04  0.23348596345E+04  0.25500000920E-02 0. -1.
    10030    2    1    2    0    0  0.00000000000E+00  0.00000000000E+00 -0.76151056827E+03  0.39082087007E+04  0.38333010451E+04 0.  0.
        4    1    3    3  502    0 -0.11474599644E+03  0.17494969519E+04 -0.11702525290E+04  0.21079371013E+04  0.12699999809E+01 0. -1.
       -4    1    3    3    0  502  0.11474599644E+03 -0.17494969519E+04  0.40874196069E+03  0.18002715994E+04  0.12699999809E+01 0.  1.
</event>
<event>
 5   0  0.4627905E-07  0.2058238E+04  0.7818609E-02  0.8579866E-01
       -1   -1    0    0    0  501  0.00000000000E+00  0.00000000000E+00  0.71866807395E+03  0.71866807397E+03  0.50400001928E-02 0. -1.
        1   -1    0    0  501    0  0.00000000000E+00  0.00000000000E+00 -0.14736786937E+04  0.14736786937E+04  0.50400001928E-02 0.  1.
    10030    2    1    2    0    0  0.00000000000E+00  0.00000000000E+00 -0.75501061974E+03  0.21923467677E+04  0.20582379148E+04 0.  0.
        1    1    3    3  502    0  0.10025503979E+03  0.43872409925E+03  0.60830086672E+03  0.75667684829E+03  0.50400001928E-02 0. -1.
       -1    1    3    3    0  502 -0.10025503979E+03 -0.43872409925E+03 -0.13633114865E+04  0.14356699194E+04  0.50400001928E-02 0.  1.
</event>
<event>
 5   0  0.3471602E-07  0.4019651E+04  0.7818609E-02  0.8000594E-01
        1   -1    0    0  501    0  0.00000000000E+00  0.00000000000E+00  0.28299360789E+04  0.28299360789E+04  0.50400001928E-02 0. -1.
       -1   -1    0    0    0  501  0.00000000000E+00  0.00000000000E+00 -0.14273814508E+04  0.14273814508E+04  0.50400001928E-02 0.  1.
    10030    2    1    2    0    0  0.00000000000E+00  0.00000000000E+00  0.14025546281E+04  0.42573175297E+04  0.40196508634E+04 0.  0.
        5    1    3    3  502    0  0.17816591038E+04  0.90951139894E+03  0.90734753562E+03  0.21965476975E+04  0.46999998093E+01 0. -1.
       -5    1    3    3    0  502 -0.17816591038E+04 -0.90951139894E+03  0.49520709250E+03  0.20607698322E+04  0.46999998093E+01 0.  1.
</event>
<event>
 5   0  0.5385714E-07  0.3941838E+04  0.7818609E-02  0.8016384E-01
       -1   -1    0    0    0  501  0.00000000000E+00  0.00000000000E+00  0.15340478073E+04  0.15340478073E+04  0.50400001928E-02 0.  1.
        1   -1    0    0  501    0  0.00000000000E+00  0.00000000000E+00 -0.25322035930E+04  0.25322035930E+04  0.50400001928E-02 0. -1.
    10030    2    1    2    0    0  0.00000000000E+00  0.00000000000E+00 -0.99815578569E+03  0.40662514003E+04  0.39418378300E+04 0.  0.
        3    1    3    3  502    0  0.13664626642E+04  0.94261445487E+03  0.59689537037E+03  0.17640936247E+04  0.10100000352E+00 0.  1.
       -3    1    3    3    0  502 -0.13664626642E+04 -0.94261445487E+03 -0.15950511561E+04  0.23021577756E+04  0.10100000352E+00 0. -1.
</event>
<event>
 5   0  0.1034683E-06  0.2804831E+04  0.7818609E-02  0.8301770E-01
        2   -1    0    0  501    0  0.00000000000E+00  0.00000000000E+00  0.15257107383E+04  0.15257107383E+04  0.25500000920E-02 0. -1.
       -2   -1    0    0    0  501  0.00000000000E+00  0.00000000000E+00 -0.12890842538E+04  0.12890842538E+04  0.25500000920E-02 0.  1.
    10030    2    1    2    0    0  0.00000000000E+00  0.00000000000E+00  0.23662648451E+03  0.28147949920E+04  0.28048313236E+04 0.  0.
        2    1    3    3  502    0 -0.12006332572E+03  0.35288674839E+03  0.14750868229E+04  0.15214550255E+04  0.25500000920E-02 0. -1.
       -2    1    3    3    0  502  0.12006332572E+03 -0.35288674839E+03 -0.12384603384E+04  0.12933399666E+04  0.25500000920E-02 0.  1.
</event>
<event>
 5   0  0.7268013E-07  0.2302098E+04  0.7818609E-02  0.8477095E-01
        2   -1    0    0  501    0  0.00000000000E+00  0.00000000000E+00  0.11196100059E+04  0.11196100059E+04  0.25500000920E-02 0. -1.
       -2   -1    0    0    0  501  0.00000000000E+00  0.00000000000E+00 -0.11833703763E+04  0.11833703763E+04  0.25500000920E-02 0.  1.
    10030    2    1    2    0    0  0.00000000000E+00  0.00000000000E+00 -0.63760370436E+02  0.23029803822E+04  0.23020975774E+04 0.  0.
        4    1    3    3  502    0  0.11199306945E+03 -0.86022946891E+03 -0.78872467718E+03  0.11724442060E+04  0.12699999809E+01 0.  1.
       -4    1    3    3    0  502 -0.11199306945E+03  0.86022946891E+03  0.72496430674E+03  0.11305361762E+04  0.12699999809E+01 0. -1.
</event>
<event>
 5   0  0.7268013E-07  0.3491088E+04  0.7818609E-02  0.8115905E-01
       -2   -1    0    0    0  501  0.00000000000E+00  0.00000000000E+00  0.16071478559E+04  0.16071478559E+04  0.25500000920E-02 0.  1.
        2   -1    0    0  501    0  0.00000000000E+00  0.00000000000E+00 -0.18958575030E+04  0.18958575030E+04  0.25500000920E-02 0. -1.
    10030    2    1    2    0    0  0.00000000000E+00  0.00000000000E+00 -0.28870964711E+03  0.35030053588E+04  0.34910876935E+04 0.  0.
        4    1    3    3  502    0 -0.16832094315E+04 -0.41733745957E+03 -0.34392360688E+03  0.17679506797E+04  0.12699999809E+01 0. -1.
       -4    1    3    3    0  502  0.16832094315E+04  0.41733745957E+03  0.55213959771E+02  0.17350546792E+04  0.12699999809E+01 0.  1.
</event>
<event>
 5   0  0.4627905E-07  0.2363877E+04  0.7818609E-02  0.8453152E-01
       -1   -1    0    0    0  501  0.00000000000E+00  0.00000000000E+00  0.10585822705E+04  0.10585822705E+04  0.50400001928E-02 0. -1.
        1   -1    0    0  501    0  0.00000000000E+00  0.00000000000E+00 -0.13196696819E+04  0.13196696819E+04  0.50400001928E-02 0.  1.
    10030    2    1    2    0    0  0.00000000000E+00  0.00000000000E+00 -0.26108741139E+03  0.23782519523E+04  0.23638772625E+04 0.  0.
        1    1    3    3  502    0  0.21463906036E+03 -0.34499704496E+03  0.98610921354E+03  0.10665384514E+04  0.50400001928E-02 0. -1.
       -1    1    3    3    0  502 -0.21463906036E+03  0.34499704496E+03 -0.12471966249E+04  0.13117135009E+04  0.50400001928E-02 0.  1.
</event>
<event>
 5   0  0.4316671E-07  0.2413921E+04  0.7818609E-02  0.8434310E-01
        1   -1    0    0  501    0  0.00000000000E+00  0.00000000000E+00  0.13633969643E+04  0.13633969644E+04  0.50400001928E-02 0. -1.
       -1   -1    0    0    0  501  0.00000000000E+00  0.00000000000E+00 -0.10684735089E+04  0.10684735089E+04  0.50400001928E-02 0.  1.
    10030    2    1    2    0    0  0.00000000000E+00  0.00000000000E+00  0.29492345545E+03  0.24318704733E+04  0.24139209088E+04 0.  0.
        2    1    3    3  502    0  0.74524608345E+03 -0.33663225567E+03 -0.74685567665E+03  0.11074774951E+04  0.25500000920E-02 0.  1.
       -2    1    3    3    0  502 -0.74524608345E+03  0.33663225567E+03  0.10417791321E+04  0.13243929781E+04  0.25500000920E-02 0. -1.
</event>
<event>
 5   0  0.1015219E-06  0.2237151E+04  0.7818609E-02  0.8503122E-01
        2   -1    0    0  501    0  0.00000000000E+00  0.00000000000E+00  0.97132481052E+03  0.97132481052E+03  0.25500000920E-02 0. -1.
       -2   -1    0    0    0  501  0.00000000000E+00  0.00000000000E+00 -0.12881488908E+04  0.12881488908E+04  0.25500000920E-02 0.  1.
    10030    2    1    2    0    0  0.00000000000E+00  0.00000000000E+00 -0.31682408023E+03  0.22594737013E+04  0.22371508463E+04 0.  0.
        3    1    3    3  502    0 -0.42943008188E+03  0.85120252119E+03  0.43245116794E+03  0.10468858343E+04  0.10100000352E+00 0.  1.
       -3    1    3    3    0  502  0.42943008188E+03 -0.85120252119E+03 -0.74927524818E+03  0.12125878669E+04  0.10100000352E+00 0. -1.
</event>
<event>
 5   0  0.3471602E-07  0.3249398E+04  0.7818609E-02  0.8175892E-01
        1   -1    0    0  501    0  0.00000000000E+00  0.00000000000E+00  0.20335173922E+04  0.20335173922E+04  0.50400001928E-02 0. -1.
       -1   -1    0    0    0  501  0.00000000000E+00  0.00000000000E+00 -0.12980696593E+04  0.12980696593E+04  0.50400001928E-02 0.  1.
    10030    2    1    2    0    0  0.00000000000E+00  0.00000000000E+00  0.73544773285E+03  0.33315870515E+04  0.32493982387E+04 0.  0.
        5    1    3    3  502    0 -0.52038315557E+03 -0.19595130087E+03 -0.11974630844E+04  0.13202785575E+04  0.46999998093E+01 0.  1.
       -5    1    3    3    0  502  0.52038315557E+03  0.19595130087E+03  0.19329108172E+04  0.20113084940E+04  0.46999998093E+01 0. -1.
</event>
<event>
 5   0  0.3191750E-07  0.3109386E+04  0.7818609E-02  0.8213167E-01
        4   -1    0    0  501    0  0.00000000000E+00  0.00000000000E+00  0.15057554178E+04  0.15057559534E+04  0.12699999809E+01 0.  1.
       -4   -1    0    0    0  501  0.00000000000E+00  0.00000000000E+00 -0.16052197649E+04  0.16052202673E+04  0.12699999809E+01 0. -1.
    10030    2    1    2    0    0  0.00000000000E+00  0.00000000000E+00 -0.99464347137E+02  0.31109762207E+04  0.31093857736E+04 0.  0.
        2    1    3    3  502    0  0.45906254278E+03  0.53786331747E+03  0.13355462205E+04  0.15111978936E+04  0.25500000920E-02 0.  1.
       -2    1    3    3    0  502 -0.45906254278E+03 -0.53786331747E+03 -0.14350105677E+04  0.15997783271E+04  0.25500000920E-02 0. -1.
</event>
<event>
 5   0  0.5533705E-07  0.3508365E+04  0.7818609E-02  0.8111810E-01
       -2   -1    0    0    0  501  0.00000000000E+00  0.00000000000E+00  0.11816671991E+04  0.11816671991E+04  0.25500000920E-02 0.  1.
        2   -1    0    0  501    0  0.00000000000E+00  0.00000000000E+00 -0.26040803849E+04  0.26040803849E+04  0.25500000920E-02 0. -1.
    10030    2    1    2    0    0  0.00000000000E+00  0.00000000000E+00 -0.14224131858E+04  0.37857475840E+04  0.35083650749E+04 0.  0.
        1    1    3    3  502    0  0.82605678071E+02 -0.90927187286E+03 -0.23274823593E+04  0.25001546291E+04  0.50400001928E-02 0. -1.
       -1    1    3    3    0  502 -0.82605678071E+02  0.90927187286E+03  0.90506917348E+03  0.12855929549E+04  0.50400001928E-02 0.  1.
</event>
<event>
 5   0  0.5385714E-07  0.3285228E+04  0.7818609E-02  0.8166664E-01
        1   -1    0    0  501    0  0.00000000000E+00  0.00000000000E+00  0.21440160822E+04  0.21440160822E+04  0.50400001928E-02 0.  1.
       -1   -1    0    0    0  501  0.00000000000E+00  0.00000000000E+00 -0.12584706693E+04  0.12584706693E+04  0.50400001928E-02 0. -1.
    10030    2    1    2    0    0  0.00000000000E+00  0.00000000000E+00  0.88554541291E+03  0.34024867515E+04  0.32852283659E+04 0.  0.
        3    1    3    3  502    0 -0.93843346738E+03  0.48140695501E+03  0.17469936129E+04  0.20406853561E+04  0.10100000352E+00 0.  1.
       -3    1    3    3    0  502  0.93843346738E+03 -0.48140695501E+03 -0.86144819998E+03  0.13618013954E+04  0.10100000352E+00 0. -1.
</event>
<event>
 5   0  0.5385714E-07  0.3825933E+04  0.7818609E-02  0.8040613E-01
        1   -1    0    0  501    0  0.00000000000E+00  0.00000000000E+00  0.17946852918E+04  0.17946852918E+04  0.50400001928E-02 0. -1.
       -1   -1    0    0    0  501  0.00000000000E+00  0.00000000000E+00 -0.20390428675E+04  0.20390428675E+04  0.50400001928E-02 0.  1.
    10030    2    1    2    0    0  0.00000000000E+00  0.00000000000E+00 -0.24435757572E+03  0.38337281594E+04  0.38259326935E+04 0.  0.
        3    1    3    3  502    0 -0.30834914812E+03 -0.17538531235E+04  0.57807287112E+03  0.18722308165E+04  0.10100000352E+00 0.  1.
       -3    1    3    3    0  502  0.30834914812E+03  0.17538531235E+04 -0.82243044685E+03  0.19614973428E+04  0.10100000352E+00 0. -1.
</event>
<event>
 5   0  0.4627905E-07  0.3816275E+04  0.7818609E-02  0.8042671E-01
       -1   -1    0    0    0  501  0.00000000000E+00  0.00000000000E+00  0.22028439781E+04  0.22028439781E+04  0.50400001928E-02 0. -1.
        1   -1    0    0  501    0  0.00000000000E+00  0.00000000000E+00 -0.16528583285E+04  0.16528583285E+04  0.50400001928E-02 0.  1.
    10030    2    1    2    0    0  0.00000000000E+00  0.00000000000E+00  0.54998564958E+03  0.38557023066E+04  0.38162751555E+04 0.  0.
        1    1    3    3  502    0  0.17771965613E+04  0.69356139802E+03  0.23542206280E+03  0.19222066949E+04  0.50400001928E-02 0.  1.
       -1    1    3    3    0  502 -0.17771965613E+04 -0.69356139802E+03  0.31456358678E+03  0.19334956117E+04  0.50400001928E-02 0. -1.
</event>
<event>
 5   0  0.1035864E-06  0.2638821E+04  0.7818609E-02  0.8355133E-01
        2   -1    0    0  501    0  0.00000000000E+00  0.00000000000E+00  0.16181640907E+04  0.16181640907E+04  0.25500000920E-02 0. -1.
       -2   -1    0    0    0  501  0.00000000000E+00  0.00000000000E+00 -0.10758146489E+04  0.10758146489E+04  0.25500000920E-02 0.  1.
    10030    2    1    2    0    0  0.00000000000E+00  0.00000000000E+00  0.54234944189E+03  0.26939787396E+04  0.26388214287E+04 0.  0.
        5    1    3    3  502    0 -0.94376335155E+03 -0.21977449294E+03  0.11853426397E+04  0.15310288551E+04  0.46999998093E+01 0. -1.
       -5    1    3    3    0  502  0.94376335155E+03  0.21977449294E+03 -0.64299319785E+03  0.11629498845E+04  0.46999998093E+01 0.  1.
</event>
<event>
 5   0  0.4316671E-07  0.4033555E+04  0.7818609E-02  0.7997812E-01
       -1   -1    0    0    0  501  0.00000000000E+00  0.00000000000E+00  0.16644223789E+04  0.16644223789E+04  0.50400001928E-02 0. -1.
        1   -1    0    0  501    0  0.00000000000E+00  0.00000000000E+00 -0.24437252662E+04  0.24437252662E+04  0.50400001928E-02 0.  1.
    10030    2    1    2    0    0  0.00000000000E+00  0.00000000000E+00 -0.77930288729E+03  0.41081476452E+04  0.40335547702E+04 0.  0.
        2    1    3    3  502    0  0.17979023779E+04  0.84174212463E+03 -0.75176585183E+03  0.21227658045E+04  0.25500000920E-02 0. -1.
       -2    1    3    3    0  502 -0.17979023779E+04 -0.84174212463E+03 -0.27537035461E+02  0.19853818407E+04  0.25500000920E-02 0.  1.
</event>
<event>
 5   0  0.4316671E-07  0.2272070E+04  0.7818609E-02  0.8489016E-01
       -1   -1    0    0    0  501  0.00000000000E+00  0.00000000000E+00  0.84439534949E+03  0.84439534950E+03  0.50400001928E-02 0. -1.
        1   -1    0    0  501    0  0.00000000000E+00  0.00000000000E+00 -0.15284015906E+04  0.15284015906E+04  0.50400001928E-02 0.  1.
    10030    2    1    2    0    0  0.00000000000E+00  0.00000000000E+00 -0.68400624107E+03  0.23727969401E+04  0.22720697131E+04 0.  0.
        2    1    3    3  502    0 -0.66135701882E+03 -0.38533434681E+03  0.53467650212E+03  0.93367801040E+03  0.25500000920E-02 0. -1.
       -2    1    3    3    0  502  0.66135701882E+03  0.38533434681E+03 -0.12186827432E+04  0.14391189297E+04  0.25500000920E-02 0.  1.
</event>
<event>
 5   0  0.5533705E-07  0.2765074E+04  0.7818609E-02  0.8314194E-01
       -2   -1    0    0    0  501  0.00000000000E+00  0.00000000000E+00  0.24273209140E+04  0.24273209140E+04  0.25500000920E-02 0. -1.
        2   -1    0    0  501    0  0.00000000000E+00  0.00000000000E+00 -0.78745593491E+03  0.78745593491E+03  0.25500000920E-02 0.  1.
    10030    2    1    2    0    0  0.00000000000E+00  0.00000000000E+00  0.16398649791E+04  0.32147768489E+04  0.27650737854E+04 0.  0.
        1    1    3    3  502    0 -0.29019697816E+03  0.11335645364E+04 -0.36186326655E+02  0.11706802700E+04  0.50400001928E-02 0.  1.
       -1    1    3    3    0  502  0.29019697816E+03 -0.11335645364E+04  0.16760513057E+04  0.20440965789E+04  0.50400001928E-02 0. -1.
</event>
<event>
 5   0  0.7268013E-07  0.2371969E+04  0.7818609E-02  0.8450073E-01
       -2   -1    0    0    0  501  0.00000000000E+00  0.00000000000E+00  0.12779043230E+04  0.12779043230E+04  0.25500000920E-02 0.  1.
        2   -1    0    0  501    0  0.00000000000E+00  0.00000000000E+00 -0.11006764989E+04  0.11006764989E+04  0.25500000920E-02 0. -1.
    10030    2    1    2    0    0  0.00000000000E+00  0.00000000000E+00  0.17722782415E+03  0.23785808219E+04  0.23719690185E+04 0.  0.
        4    1    3    3  502    0  0.47431783390E+03  0.48277270623E+03 -0.88801601735E+03  0.11165218105E+04  0.12699999809E+01 0. -1.
       -4    1    3    3    0  502 -0.47431783390E+03 -0.48277270623E+03  0.10652438415E+04  0.12620590114E+04  0.12699999809E+01 0.  1.
</event>
<event>
 5   0  0.7268013E-07  0.3539278E+04  0.7818609E-02  0.8104544E-01
       -2   -1    0    0    0  501  0.00000000000E+00  0.00000000000E+00  0.15857939181E+04  0.15857939181E+04  0.25500000920E-02 0. -1.
        2   -1    0    0  501    0  0.00000000000E+00  0.00000000000E+00 -0.19747977352E+04  0.19747977352E+04  0.25500000920E-02 0.  1.
    10030    2    1    2    0    0  0.00000000000E+00  0.00000000000E+00 -0.38900381706E+03  0.35605916533E+04  0.35392780269E+04 0.  0.
        4    1    3    3  502    0 -0.13875427309E+04  0.22446761463E+02  0.91021927437E+03  0.16596021895E+04  0.12699999809E+01 0. -1.
       -4    1    3    3    0  502  0.13875427309E+04 -0.22446761463E+02 -0.12992230914E+04  0.19009894638E+04  0.12699999809E+01 0.  1.
</event>
<event>
 5   0  0.3471602E-07  0.3931039E+04  0.7818609E-02  0.8018605E-01
       -1   -1    0    0    0  501  0.00000000000E+00  0.00000000000E+00  0.12104007606E+04  0.12104007606E+04  0.50400001928E-02 0.  1.
        1   -1    0    0  501    0  0.00000000000E+00  0.00000000000E+00 -0.31917252301E+04  0.31917252301E+04  0.50400001928E-02 0. -1.
    10030    2    1    2    0    0  0.00000000000E+00  0.00000000000E+00 -0.19813244695E+04  0.44021259907E+04  0.39310388684E+04 0.  0.
        5    1    3    3  502    0  0.89757858356E+03 -0.58488822093E+03  0.85469424661E+03  0.13704984093E+04  0.46999998093E+01 0.  1.
       -5    1    3    3    0  502 -0.89757858356E+03  0.58488822093E+03 -0.28360187161E+04  0.30316275814E+04  0.46999998093E+01 0. -1.
</event>
<event>
 5   0  0.5385714E-07  0.2699237E+04  0.7818609E-02  0.8335253E-01
        1   -1    0    0  501    0  0.00000000000E+00  0.00000000000E+00  0.14540913579E+04  0.14540913580E+04  0.50400001928E-02 0. -1.
       -1   -1    0    0    0  501  0.00000000000E+00  0.00000000000E+00 -0.12526518497E+04  0.12526518498E+04  0.50400001928E-02 0.  1.
    10030    2    1    2    0    0  0.00000000000E+00  0.00000000000E+00  0.20143950820E+03  0.27067432077E+04  0.26992370991E+04 0.  0.
        3    1    3    3  502    0 -0.12543410850E+04 -0.40789105278E+03 -0.18594852216E+03  0.13320373611E+04  0.10100000352E+00 0.  1.
       -3    1    3    3    0  502  0.12543410850E+04  0.40789105278E+03  0.38738803036E+03  0.13747058466E+04  0.10100000352E+00 0. -1.
</event>
<event>
 5   0  0.7268013E-07  0.3915519E+04  0.7818609E-02  0.8021809E-01
        2   -1    0    0  501    0  0.00000000000E+00  0.00000000000E+00  0.16168718437E+04  0.16168718437E+04  0.25500000920E-02 0.  1.
       -2   -1    0    0    0  501  0.00000000000E+00  0.00000000000E+00 -0.23705172161E+04  0.23705172161E+04  0.25500000920E-02 0. -1.
    10030    2    1    2    0    0  0.00000000000E+00  0.00000000000E+00 -0.75364537238E+03  0.39873890598E+04  0.39155191440E+04 0.  0.
        4    1    3    3  502    0 -0.62567249579E+03  0.72673771698E+03 -0.21149634488E+04  0.23222157057E+04  0.12699999809E+01 0. -1.
       -4    1    3    3    0  502  0.62567249579E+03 -0.72673771698E+03  0.13613180764E+04  0.16651733541E+04  0.12699999809E+01 0.  1.
</event>
<event>
 5   0  0.1015219E-06  0.2255631E+04  0.7818609E-02  0.8495623E-01
        2   -1    0    0  501    0  0.00000000000E+00  0.00000000000E+00  0.18665774678E+04  0.18665774678E+04  0.25500000920E-02 0. -1.
       -2   -1    0    0    0  501  0.00000000000E+00  0.00000000000E+00 -0.68144411694E+03  0.68144411695E+03  0.25500000920E-02 0.  1.
    10030    2    1    2    0    0  0.00000000000E+00  0.00000000000E+00  0.11851333509E+04  0.25480215847E+04  0.22556313832E+04 0.  0.
        3    1    3    3  502    0 -0.14548017389E+03  0.19470635294E+03 -0.65150743143E+03  0.69536823934E+03  0.10100000352E+00 0.  1.
       -3    1    3    3    0  502  0.14548017389E+03 -0.19470635294E+03  0.18366407823E+04  0.18526533454E+04  0.10100000352E+00 0. -1.
</event>
<event>
 5   0  0.3471602E-07  0.2646532E+04  0.7818609E-02  0.8352565E-01
        1   -1    0    0  501    0  0.00000000000E+00  0.00000000000E+00  0.12133145025E+04  0.12133145025E+04  0.50400001928E-02 0.  1.
       -1   -1    0    0    0  501  0.00000000000E+00  0.00000000000E+00 -0.14431810641E+04  0.14431810641E+04  0.50400001928E-02 0. -1.
    10030    2    1    2    0    0  0.00000000000E+00  0.00000000000E+00 -0.22986656163E+03  0.26564955666E+04  0.26465317038E+04 0.  0.
        5    1    3    3  502    0  0.54547592388E+03 -0.86159511403E+03  0.73152105309E+03  0.12550040897E+04  0.46999998093E+01 0.  1.
       -5    1    3    3    0  502 -0.54547592388E+03  0.86159511403E+03 -0.96138761472E+03  0.14014914769E+04  0.46999998093E+01 0. -1.
</event>
<event>
 5   0  0.5385714E-07  0.3881378E+04  0.7818609E-02  0.8028913E-01
       -1   -1    0    0    0  501  0.00000000000E+00  0.00000000000E+00  0.23978093627E+04  0.23978093627E+04  0.50400001928E-02 0.  1.
        1   -1    0    0  501    0  0.00000000000E+00  0.00000000000E+00 -0.15707143993E+04  0.15707143993E+04  0.50400001928E-02 0. -1.
    10030    2    1    2    0    0  0.00000000000E+00  0.00000000000E+00  0.82709496338E+03  0.39685237620E+04  0.38813779475E+04 0.  0.
        3    1    3    3  502    0  0.57877781276E+03  0.23268763321E+03  0.22925094700E+04  0.23758634160E+04  0.10100000352E+00 0.  1.
       -3    1    3    3    0  502 -0.57877781276E+03 -0.23268763321E+03 -0.14654145067E+04  0.15926603460E+04  0.10100000352E+00 0. -1.
</event>
<event>
 5   0  0.1034683E-06  0.3948532E+04  0.7818609E-02  0.8015010E-01
        2   -1    0    0  501    0  0.00000000000E+00  0.00000000000E+00  0.12722214508E+04  0.12722214508E+04  0.25500000920E-02 0. -1.
       -2   -1    0    0    0  501  0.00000000000E+00  0.00000000000E+00 -0.30637171238E+04  0.30637171238E+04  0.25500000920E-02 0.  1.
    10030    2    1    2    0    0  0.00000000000E+00  0.00000000000E+00 -0.17914956730E+04  0.43359385746E+04  0.39485322053E+04 0.  0.
        2    1    3    3  502    0 -0.68216113499E+03 -0.31023219095E+03 -0.29014640872E+04  0.29966784405E+04  0.25500000920E-02 0.  1.
       -2    1    3    3    0  502  0.68216113499E+03  0.31023219095E+03  0.11099684142E+04  0.13392601341E+04  0.25500000920E-02 0. -1.
</event>
<event>
 5   0  0.1015219E-06  0.3841388E+04  0.7818609E-02  0.8037331E-01
       -2   -1    0    0    0  501  0.00000000000E+00  0.00000000000E+00  0.25960478500E+04  0.25960478500E+04  0.25500000920E-02 0.  1.
        2   -1    0    0  501    0  0.00000000000E+00  0.00000000000E+00 -0.14210316607E+04  0.14210316607E+04  0.25500000920E-02 0. -1.
    10030    2    1    2    0    0  0.00000000000E+00  0.00000000000E+00  0.11750161893E+04  0.40170795107E+04  0.38413883884E+04 0.  0.
        3    1    3    3  502    0  0.18889716632E+04  0.31409678710E+03  0.74330330500E+03  0.20541106468E+04  0.10100000352E+00 0.  1.
       -3    1    3    3    0  502 -0.18889716632E+04 -0.31409678710E+03  0.43171288428E+03  0.19629688639E+04  0.10100000352E+00 0. -1.
</event>
<event>
 5   0  0.7268013E-07  0.3412784E+04  0.7818609E-02  0.8134776E-01
        2   -1    0    0  501    0  0.00000000000E+00  0.00000000000E+00  0.11760404660E+04  0.11760404660E+04  0.25500000920E-02 0. -1.
       -2   -1    0    0    0  501  0.00000000000E+00  0.00000000000E+00 -0.24759126262E+04  0.24759126262E+04  0.25500000920E-02 0.  1.
    10030    2    1    2    0    0  0.00000000000E+00  0.00000000000E+00 -0.12998721602E+04  0.36519530922E+04  0.34127838717E+04 0.  0.
        4    1    3    3  502    0  0.10693048268E+04 -0.65078822182E+02  0.77134812437E+03  0.13200862122E+04  0.12699999809E+01 0. -1.
       -4    1    3    3    0  502 -0.10693048268E+04  0.65078822182E+02 -0.20712202846E+04  0.23318668800E+04  0.12699999809E+01 0.  1.
</event>
<event>
 5   0  0.7268013E-07  0.3855717E+04  0.7818609E-02  0.8034303E-01
        2   -1    0    0  501    0  0.00000000000E+00  0.00000000000E+00  0.21331750391E+04  0.21331750391E+04  0.25500000920E-02 0. -1.
       -2   -1    0    0    0  501  0.00000000000E+00  0.00000000000E+00 -0.17423036854E+04  0.17423036854E+04  0.25500000920E-02 0.  1.
    10030    2    1    2    0    0  0.00000000000E+00  0.00000000000E+00  0.39087135378E+03  0.38754787245E+04  0.38557171744E+04 0.  0.
        4    1    3    3  502    0  0.12871035376E+04  0.17022364759E+03 -0.12370090615E+04  0.17932664716E+04  0.12699999809E+01 0.  1.
       -4    1    3    3    0  502 -0.12871035376E+04 -0.17022364759E+03  0.16278804153E+04  0.20822122529E+04  0.12699999809E+01 0. -1.
</event>
<event>
 5   0  0.1015219E-06  0.3906135E+04  0.7818609E-02  0.8023754E-01
       -2   -1    0    0    0  501  0.00000000000E+00  0.00000000000E+00  0.17083581222E+04  0.17083581222E+04  0.25500000920E-02 0.  1.
        2   -1    0    0  501    0  0.00000000000E+00  0.00000000000E+00 -0.22328298980E+04  0.22328298980E+04  0.25500000920E-02 0. -1.
    10030    2    1    2    0    0  0.00000000000E+00  0.00000000000E+00 -0.52447177580E+03  0.39411880202E+04  0.39061352213E+04 0.  0.
        3    1    3    3  502    0 -0.75139137055E+03 -0.10416806504E+04  0.12222884327E+04  0.17730416217E+04  0.10100000352E+00 0.  1.
       -3    1    3    3    0  502  0.75139137055E+03  0.10416806504E+04 -0.17467602085E+04  0.21681463985E+04  0.10100000352E+00 0. -1.
</event>
<event>
 5   0  0.5533705E-07  0.3991090E+04  0.7818609E-02  0.8006346E-01
       -2   -1    0    0    0  501  0.00000000000E+00  0.00000000000E+00  0.15616683802E+04  0.15616683802E+04  0.25500000920E-02 0.  1.
        2   -1    0    0  501    0  0.00000000000E+00  0.00000000000E+00 -0.25499645359E+04  0.25499645359E+04  0.25500000920E-02 0. -1.
    10030    2    1    2    0    0  0.00000000000E+00  0.00000000000E+00 -0.98829615573E+03  0.41116329161E+04  0.39910895687E+04 0.  0.
        1    1    3    3  502    0 -0.15316192276E+04  0.12127186155E+04 -0.91344845098E+03  0.21566019502E+04  0.50400001928E-02 0. -1.
       -1    1    3    3    0  502  0.15316192276E+04 -0.12127186155E+04 -0.74847704754E+02  0.19550309659E+04  0.50400001928E-02 0.  1.
</event>
<event>
 5   0  0.4316671E-07  0.2176542E+04  0.7818609E-02  0.8528256E-01
       -1   -1    0    0    0  501  0.00000000000E+00  0.00000000000E+00  0.53658243303E+03  0.53658243305E+03  0.50400001928E-02 0.  1.
        1   -1    0    0  501    0  0.00000000000E+00  0.00000000000E+00 -0.22071794065E+04  0.22071794065E+04  0.50400001928E-02 0. -1.
    10030    2    1    2    0    0  0.00000000000E+00  0.00000000000E+00 -0.16705969734E+04  0.27437618395E+04  0.21765419326E+04 0.  0.
        2    1    3    3  502    0  0.91527702634E+03  0.58738318014E+03 -0.78514821390E+03  0.13413458738E+04  0.25500000920E-02 0. -1.
       -2    1    3    3    0  502 -0.91527702634E+03 -0.58738318014E+03 -0.88544875954E+03  0.14024159658E+04  0.25500000920E-02 0.  1.
</event>
<event>
 5   0  0.1015219E-06  0.3758215E+04  0.7818609E-02  0.8055182E-01
        2   -1    0    0  501    0  0.00000000000E+00  0.00000000000E+00  0.19295251878E+04  0.19295251878E+04  0.25500000920E-02 0. -1.
       -2   -1    0    0    0  501  0.00000000000E+00  0.00000000000E+00 -0.18300076771E+04  0.18300076771E+04  0.25500000920E-02 0.  1.
    10030    2    1    2    0    0  0.00000000000E+00  0.00000000000E+00  0.99517510677E+02  0.37595328649E+04  0.37582154844E+04 0.  0.
        3    1    3    3  502    0  0.10752494522E+04 -0.95303781197E+03 -0.11616997906E+04  0.18476982625E+04  0.10100000352E+00 0. -1.
       -3    1    3    3    0  502 -0.10752494522E+04  0.95303781197E+03  0.12612173013E+04  0.19118346024E+04  0.10100000352E+00 0.  1.
</event>
<event>
 5   0  0.3471602E-07  0.3728400E+04  0.7818609E-02  0.8061697E-01
       -1   -1    0    0    0  501  0.00000000000E+00  0.00000000000E+00  0.19970831809E+04  0.19970831809E+04  0.50400001928E-02 0. -1.
        1   -1    0    0  501    0  0.00000000000E+00  0.00000000000E+00 -0.17401591334E+04  0.17401591334E+04  0.50400001928E-02 0.  1.
    10030    2    1    2    0    0  0.00000000000E+00  0.00000000000E+00  0.25692404751E+03  0.37372423143E+04  0.37284004814E+04 0.  0.
        5    1    3    3  502    0 -0.37759823902E+03 -0.10401272132E+04  0.16322783026E+04  0.19720039545E+04  0.46999998093E+01 0. -1.
       -5    1    3    3    0  502  0.37759823902E+03  0.10401272132E+04 -0.13753542551E+04  0.17652383597E+04  0.46999998093E+01 0.  1.
</event>
<event>
 5   0  0.3471602E-07  0.2936645E+04  0.7818609E-02  0.8262057E-01
       -1   -1    0    0    0  501  0.00000000000E+00  0.00000000000E+00  0.23028564174E+04  0.23028564174E+04  0.50400001928E-02 0. -1.
        1   -1    0    0  501    0  0.00000000000E+00  0.00000000000E+00 -0.93621591946E+03  0.93621591947E+03  0.50400001928E-02 0.  1.
    10030    2    1    2    0    0  0.00000000000E+00  0.00000000000E+00  0.13666404979E+04  0.32390723369E+04  0.29366449143E+04 0.  0.
        5    1    3    3  502    0  0.14309495816E+04 -0.10554867772E+03  0.10271816250E+04  0.17646193383E+04  0.46999998093E+01 0.  1.
       -5    1    3    3    0  502 -0.14309495816E+04  0.10554867772E+03  0.33945887297E+03  0.14744529986E+04  0.46999998093E+01 0. -1.
</event>
<event>
 5   0  0.3471602E-07  0.3990651E+04  0.7818609E-02  0.8006435E-01
       -1   -1    0    0    0  501  0.00000000000E+00  0.00000000000E+00  0.25630914347E+04  0.25630914347E+04  0.50400001928E-02 0.  1.
        1   -1    0    0  501    0  0.00000000000E+00  0.00000000000E+00 -0.15533286423E+04  0.15533286423E+04  0.50400001928E-02 0. -1.
    10030    2    1    2    0    0  0.00000000000E+00  0.00000000000E+00  0.10097627924E+04  0.41164200770E+04  0.39906507431E+04 0.  0.
        5    1    3    3  502    0 -0.15431265394E+04 -0.11833924441E+04  0.96577869011E+03  0.21712686986E+04  0.46999998093E+01 0. -1.
       -5    1    3    3    0  502  0.15431265394E+04  0.11833924441E+04  0.43984102325E+02  0.19451513783E+04  0.46999998093E+01 0.  1.
</event>
<event>
 5   0  0.3977376E-07  0.3876252E+04  0.7818609E-02  0.8029987E-01
        1   -1    0    0  501    0  0.00000000000E+00  0.00000000000E+00  0.17839628663E+04  0.17839628663E+04  0.50400001928E-02 0. -1.
       -1   -1    0    0    0  501  0.00000000000E+00  0.00000000000E+00 -0.21056110188E+04  0.21056110188E+04  0.50400001928E-02 0.  1.
    10030    2    1    2    0    0  0.00000000000E+00  0.00000000000E+00 -0.32164815251E+03  0.38895738852E+04  0.38762517300E+04 0.  0.
        4    1    3    3  502    0  0.33715746216E+03 -0.11055381527E+03 -0.20727420809E+04  0.21028929234E+04  0.12699999809E+01 0.  1.
       -4    1    3    3    0  502 -0.33715746216E+03  0.11055381527E+03  0.17510939284E+04  0.17866809618E+04  0.12699999809E+01 0. -1.
</event>
<event>
 5   0  0.5533705E-07  0.3924328E+04  0.7818609E-02  0.8019988E-01
        2   -1    0    0  501    0  0.00000000000E+00  0.00000000000E+00  0.25170831753E+04  0.25170831753E+04  0.25500000920E-02 0. -1.
       -2   -1    0    0    0  501  0.00000000000E+00  0.00000000000E+00 -0.15295829760E+04  0.15295829760E+04  0.25500000920E-02 0.  1.
    10030    2    1    2    0    0  0.00000000000E+00  0.00000000000E+00  0.98750019935E+03  0.40466661513E+04  0.39243280058E+04 0.  0.
        1    1    3    3  502    0  0.78321831756E+03  0.17610131347E+04  0.87331382935E+03  0.21159572865E+04  0.50400001928E-02 0.  1.
       -1    1    3    3    0  502 -0.78321831756E+03 -0.17610131347E+04  0.11418637000E+03  0.19307088649E+04  0.50400001928E-02 0. -1.
</event>
<event>
 5   0  0.1035864E-06  0.2302892E+04  0.7818609E-02  0.8476782E-01
       -2   -1    0    0    0  501  0.00000000000E+00  0.00000000000E+00  0.11861102318E+04  0.11861102318E+04  0.25500000920E-02 0.  1.
        2   -1    0    0  501    0  0.00000000000E+00  0.00000000000E+00 -0.11177948396E+04  0.11177948397E+04  0.25500000920E-02 0. -1.
    10030    2    1    2    0    0  0.00000000000E+00  0.00000000000E+00  0.68315392112E+02  0.23039050714E+04  0.23028920047E+04 0.  0.
        5    1    3    3  502    0 -0.58939486429E+03  0.75646143527E+03  0.67176497846E+03  0.11708588666E+04  0.46999998093E+01 0.  1.
       -5    1    3    3    0  502  0.58939486429E+03 -0.75646143527E+03 -0.60344958635E+03  0.11330462049E+04  0.46999998093E+01 0. -1.
</event>
<event>
 5   0  0.4316671E-07  0.3911129E+04  0.7818609E-02  0.8022719E-01
       -1   -1    0    0    0  501  0.00000000000E+00  0.00000000000E+00  0.17705653474E+04  0.17705653474E+04  0.50400001928E-02 0. -1.
        1   -1    0    0  501    0  0.00000000000E+00  0.00000000000E+00 -0.21598934664E+04  0.21598934664E+04  0.50400001928E-02 0.  1.
    10030    2    1    2    0    0  0.00000000000E+00  0.00000000000E+00 -0.38932811905E+03  0.39304588138E+04  0.39111290062E+04 0.  0.
        2    1    3    3  502    0  0.79129455422E+03  0.16178419360E+02  0.16024199009E+04  0.17872208458E+04  0.25500000920E-02 0. -1.
       -2    1    3    3    0  502 -0.79129455422E+03 -0.16178419360E+02 -0.19917480199E+04  0.21432379681E+04  0.25500000920E-02 0.  1.
</event>
<event>
 5   0  0.7268013E-07  0.3880088E+04  0.7818609E-02  0.8029183E-01
       -2   -1    0    0    0  501  0.00000000000E+00  0.00000000000E+00  0.15912538491E+04  0.15912538491E+04  0.25500000920E-02 0.  1.
        2   -1    0    0  501    0  0.00000000000E+00  0.00000000000E+00 -0.23652865402E+04  0.23652865402E+04  0.25500000920E-02 0. -1.
    10030    2    1    2    0    0  0.00000000000E+00  0.00000000000E+00 -0.77403269107E+03  0.39565403893E+04  0.38800883039E+04 0.  0.
        4    1    3    3  502    0 -0.20925989959E+03  0.22108757111E+03 -0.23407804123E+04  0.23604923154E+04  0.12699999809E+01 0. -1.
       -4    1    3    3    0  502  0.20925989959E+03 -0.22108757111E+03  0.15667477212E+04  0.15960480740E+04  0.12699999809E+01 0.  1.
</event>
<event>
 5   0  0.1034683E-06  0.3912395E+04  0.7818609E-02  0.8022456E-01
       -2   -1    0    0    0  501  0.00000000000E+00  0.00000000000E+00  0.11362648631E+04  0.11362648631E+04  0.25500000920E-02 0.  1.
        2   -1    0    0  501    0  0.00000000000E+00  0.00000000000E+00 -0.33677971235E+04  0.33677971235E+04  0.25500000920E-02 0. -1.
    10030    2    1    2    0    0  0.00000000000E+00  0.00000000000E+00 -0.22315322605E+04  0.45040619866E+04  0.39123954490E+04 0.  0.
        2    1    3    3  502    0  0.88564329865E+03  0.49138812543E+03 -0.30424440163E+04  0.32066013059E+04  0.25500000920E-02 0. -1.
       -2    1    3    3    0  502 -0.88564329865E+03 -0.49138812543E+03  0.81091175584E+03  0.12974606807E+04  0.25500000920E-02 0.  1.
</event>
<event>
 5   0  0.3977376E-07  0.3206252E+04  0.7818609E-02  0.8187168E-01
        1   -1    0    0  501    0  0.00000000000E+00  0.00000000000E+00  0.19221153910E+04  0.19221153910E+04  0.50400001928E-02 0. -1.
       -1   -1    0    0    0  501  0.00000000000E+00  0.00000000000E+00 -0.13370756848E+04  0.13370756849E+04  0.50400001928E-02 0.  1.
    10030    2    1    2    0    0  0.00000000000E+00  0.00000000000E+00  0.58503970614E+03  0.32591910758E+04  0.32062524871E+04 0.  0.
        4    1    3    3  502    0  0.87898358554E+03  0.29017896461E+03 -0.10379825090E+04  0.13907642780E+04  0.12699999809E+01 0.  1.
       -4    1    3    3    0  502 -0.87898358554E+03 -0.29017896461E+03  0.16230222151E+04  0.18684267978E+04  0.12699999809E+01 0. -1.
</event>
<event>
 5   0  0.1015219E-06  0.4005953E+04  0.7818609E-02  0.8003347E-01
        2   -1    0    0  501    0  0.00000000000E+00  0.00000000000E+00  0.17697557716E+04  0.17697557716E+04  0.25500000920E-02 0.  1.
       -2   -1    0    0    0  501  0.00000000000E+00  0.00000000000E+00 -0.22669312245E+04  0.22669312245E+04  0.25500000920E-02 0. -1.
    10030    2    1    2    0    0  0.00000000000E+00  0.00000000000E+00 -0.49717545290E+03  0.40366869961E+04  0.40059528796E+04 0.  0.
        3    1    3    3  502    0  0.18951346799E+04  0.64749800472E+03 -0.21478206137E+03  0.20141798493E+04  0.10100000352E+00 0. -1.
       -3    1    3    3    0  502 -0.18951346799E+04 -0.64749800472E+03 -0.28239339153E+03  0.20225071468E+04  0.10100000352E+00 0.  1.
</event>
<event>
 5   0  0.5385714E-07  0.3467337E+04  0.7818609E-02  0.8121575E-01
       -1   -1    0    0    0  501  0.00000000000E+00  0.00000000000E+00  0.14749987357E+04  0.14749987357E+04  0.50400001928E-02 0.  1.
        1   -1    0    0  501    0  0.00000000000E+00  0.00000000000E+00 -0.20377012868E+04  0.20377012868E+04  0.50400001928E-02 0. -1.
    10030    2    1    2    0    0  0.00000000000E+00  0.00000000000E+00 -0.56270255110E+03  0.35127000225E+04  0.34673372041E+04 0.  0.
        3    1    3    3  502    0 -0.90672736778E+03 -0.13404921168E+02 -0.17782725689E+04  0.19961431690E+04  0.10100000352E+00 0. -1.
       -3    1    3    3    0  502  0.90672736778E+03  0.13404921168E+02  0.12155700178E+04  0.15165568535E+04  0.10100000352E+00 0.  1.
</event>
<event>
 5   0  0.7268013E-07  0.2115686E+04  0.7818609E-02  0.8554365E-01
        2   -1    0    0  501    0  0.00000000000E+00  0.00000000000E+00  0.68575767983E+03  0.68575767984E+03  0.25500000920E-02 0. -1.
       -2   -1    0    0    0  501  0.00000000000E+00  0.00000000000E+00 -0.16318183388E+04  0.16318183388E+04  0.25500000920E-02 0.  1.
    10030    2    1    2    0    0  0.00000000000E+00  0.00000000000E+00 -0.94606065898E+03  0.23175760186E+04  0.21156861373E+04 0.  0.
        4    1    3    3  502    0 -0.59186329161E+03 -0.78648258234E+03 -0.48528893980E+02  0.98550173755E+03  0.12699999809E+01 0.  1.
       -4    1    3    3    0  502  0.59186329161E+03  0.78648258234E+03 -0.89753176500E+03  0.13320742811E+04  0.12699999809E+01 0. -1.
</event>
<event>
 5   0  0.1035864E-06  0.3882127E+04  0.7818609E-02  0.8028757E-01
        2   -1    0    0  501    0  0.00000000000E+00  0.00000000000E+00  0.28823322710E+04  0.28823322710E+04  0.25500000920E-02 0. -1.
       -2   -1    0    0    0  501  0.00000000000E+00  0.00000000000E+00 -0.13071803165E+04  0.13071803165E+04  0.25500000920E-02 0.  1.
    10030    2    1    2    0    0  0.00000000000E+00  0.00000000000E+00  0.15751519545E+04  0.41895125876E+04  0.38821272573E+04 0.  0.
        5    1    3    3  502    0  0.14820570173E+04 -0.82187937787E+03  0.18089424901E+04  0.24787645586E+04  0.46999998093E+01 0. -1.
       -5    1    3    3    0  502 -0.14820570173E+04  0.82187937787E+03 -0.23379053560E+03  0.17107480290E+04  0.46999998093E+01 0.  1.
</event>
<event>
 5   0  0.4627905E-07  0.3952362E+04  0.7818609E-02  0.8014226E-01
        1   -1    0    0  501    0  0.00000000000E+00  0.00000000000E+00  0.22670987414E+04  0.22670987415E+04  0.50400001928E-02 0. -1.
       -1   -1    0    0    0  501  0.00000000000E+00  0.00000000000E+00 -0.17225944239E+04  0.17225944239E+04  0.50400001928E-02 0.  1.
    10030    2    1    2    0    0  0.00000000000E+00  0.00000000000E+00  0.54450431753E+03  0.39896931654E+04  0.39523621547E+04 0.  0.
        1    1    3    3  502    0  0.12156104760E+04 -0.13526973483E+04  0.10527254942E+04  0.21013638218E+04  0.50400001928E-02 0. -1.
       -1    1    3    3    0  502 -0.12156104760E+04  0.13526973483E+04 -0.50822117666E+03  0.18883293436E+04  0.50400001928E-02 0.  1.
</event>
<event>
 5   0  0.3977376E-07  0.3916604E+04  0.7818609E-02  0.8021585E-01
        1   -1    0    0  501    0  0.00000000000E+00  0.00000000000E+00  0.13976610046E+04  0.13976610046E+04  0.50400001928E-02 0. -1.
       -1   -1    0    0    0  501  0.00000000000E+00  0.00000000000E+00 -0.27438319950E+04  0.27438319950E+04  0.50400001928E-02 0.  1.
    10030    2    1    2    0    0  0.00000000000E+00  0.00000000000E+00 -0.13461709903E+04  0.41414929996E+04  0.39166041325E+04 0.  0.
        4    1    3    3  502    0 -0.14605489946E+04  0.11946987179E+04 -0.11913804502E+03  0.18906887314E+04  0.12699999809E+01 0. -1.
       -4    1    3    3    0  502  0.14605489946E+04 -0.11946987179E+04 -0.12270329453E+04  0.22508042682E+04  0.12699999809E+01 0.  1.
</event>
<event>
 5   0  0.6096447E-07  0.2012480E+04  0.7818609E-02  0.8600808E-01
        1   -1    0    0  501    0  0.00000000000E+00  0.00000000000E+00  0.13604630519E+04  0.13604630519E+04  0.50400001928E-02 0. -1.
       -1   -1    0    0    0  501  0.00000000000E+00  0.00000000000E+00 -0.74424612804E+03  0.74424612805E+03  0.50400001928E-02 0.  1.
    10030    2    1    2    0    0  0.00000000000E+00  0.00000000000E+00  0.61621692384E+03  0.21047091799E+04  0.20124804185E+04 0.  0.
        3    1    3    3  502    0  0.24982454853E+03 -0.60330933968E+03  0.11087820671E+04  0.12867758728E+04  0.10100000352E+00 0. -1.
       -3    1    3    3    0  502 -0.24982454853E+03  0.60330933968E+03 -0.49256514322E+03  0.81793330713E+03  0.10100000352E+00 0.  1.
</event>
<event>
 5   0  0.7268013E-07  0.3839519E+04  0.7818609E-02  0.8037727E-01
       -2   -1    0    0    0  501  0.00000000000E+00  0.00000000000E+00  0.16060199961E+04  0.16060199961E+04  0.25500000920E-02 0. -1.
        2   -1    0    0  501    0  0.00000000000E+00  0.00000000000E+00 -0.22947882095E+04  0.22947882095E+04  0.25500000920E-02 0.  1.
    10030    2    1    2    0    0  0.00000000000E+00  0.00000000000E+00 -0.68876821343E+03  0.39008082056E+04  0.38395185903E+04 0.  0.
        4    1    3    3  502    0 -0.10210760759E+04  0.14978993903E+04 -0.98627261377E+03  0.20637427693E+04  0.12699999809E+01 0. -1.
       -4    1    3    3    0  502  0.10210760759E+04 -0.14978993903E+04  0.29750440034E+03  0.18370654363E+04  0.12699999809E+01 0.  1.
</event>
<event>
 5   0  0.5533705E-07  0.3932968E+04  0.7818609E-02  0.8018207E-01
       -2   -1    0    0    0  501  0.00000000000E+00  0.00000000000E+00  0.21646664926E+04  0.21646664926E+04  0.25500000920E-02 0. -1.
        2   -1    0    0  501    0  0.00000000000E+00  0.00000000000E+00 -0.17864458602E+04  0.17864458602E+04  0.25500000920E-02 0.  1.
    10030    2    1    2    0    0  0.00000000000E+00  0.00000000000E+00  0.37822063234E+03  0.39511123528E+04  0.39329680876E+04 0.  0.
        1    1    3    3  502    0  0.12142931808E+04  0.33159768375E+03  0.17069061068E+04  0.21208473330E+04  0.50400001928E-02 0. -1.
       -1    1    3    3    0  502 -0.12142931808E+04 -0.33159768375E+03 -0.13286854744E+04  0.18302650198E+04  0.50400001928E-02 0.  1.
</event>
<event>
 5   0  0.1035864E-06  0.3782668E+04  0.7818609E-02  0.8049885E-01
        2   -1    0    0  501    0  0.00000000000E+00  0.00000000000E+00  0.20172062931E+04  0.20172062931E+04  0.25500000920E-02 0. -1.
       -2   -1    0    0    0  501  0.00000000000E+00  0.00000000000E+00 -0.17733157596E+04  0.17733157597E+04  0.25500000920E-02 0.  1.
    10030    2    1    2    0    0  0.00000000000E+00  0.00000000000E+00  0.24389053345E+03  0.37905220528E+04  0.37826676883E+04 0.  0.
        5    1    3    3  502    0 -0.45997237551E+03 -0.18199553639E+04  0.35331320249E+03  0.19101477487E+04  0.46999998093E+01 0.  1.
       -5    1    3    3    0  502  0.45997237551E+03  0.18199553639E+04 -0.10942266904E+03  0.18803743040E+04  0.46999998093E+01 0. -1.
</event>
<event>
 5   0  0.1035864E-06  0.3975130E+04  0.7818609E-02  0.8009582E-01
       -2   -1    0    0    0  501  0.00000000000E+00  0.00000000000E+00  0.17619424967E+04  0.17619424967E+04  0.25500000920E-02 0.  1.
        2   -1    0    0  501    0  0.00000000000E+00  0.00000000000E+00 -0.22420793552E+04  0.22420793552E+04  0.25500000920E-02 0. -1.
    10030    2    1    2    0    0  0.00000000000E+00  0.00000000000E+00 -0.48013685849E+03  0.40040218519E+04  0.39751301346E+04 0.  0.
        5    1    3    3  502    0 -0.11900009101E+04  0.14233433253E+04 -0.95826148904E+03  0.20881320742E+04  0.46999998093E+01 0. -1.
       -5    1    3    3    0  502  0.11900009101E+04 -0.14233433253E+04  0.47812463055E+03  0.19158897777E+04  0.46999998093E+01 0.  1.
</event>
<event>
 5   0  0.3191750E-07  0.3894546E+04  0.7818609E-02  0.8026164E-01
        3   -1    0    0  501    0  0.00000000000E+00  0.00000000000E+00  0.19702852052E+04  0.19702852078E+04  0.10100000352E+00 0. -1.
       -3   -1    0    0    0  501  0.00000000000E+00  0.00000000000E+00 -0.19245298788E+04  0.19245298815E+04  0.10100000352E+00 0.  1.
    10030    2    1    2    0    0  0.00000000000E+00  0.00000000000E+00  0.45755326404E+02  0.38948150892E+04  0.38945463188E+04 0.  0.
        3    1    3    3  502    0  0.11768770464E+04 -0.42148642106E+03 -0.14702700364E+04  0.19298664140E+04  0.10100000352E+00 0.  1.
       -3    1    3    3    0  502 -0.11768770464E+04  0.42148642106E+03  0.15160253628E+04  0.19649486753E+04  0.10100000352E+00 0. -1.
</event>
<event>
 5   0  0.7268013E-07  0.3562768E+04  0.7818609E-02  0.8099074E-01
        2   -1    0    0  501    0  0.00000000000E+00  0.00000000000E+00  0.22277463511E+04  0.22277463511E+04  0.25500000920E-02 0.  1.
       -2   -1    0    0    0  501  0.00000000000E+00  0.00000000000E+00 -0.14244566794E+04  0.14244566794E+04  0.25500000920E-02 0. -1.
    10030    2    1    2    0    0  0.00000000000E+00  0.00000000000E+00  0.80328967163E+03  0.36522030305E+04  0.35627675590E+04 0.  0.
        4    1    3    3  502    0 -0.13642209625E+04 -0.70000841984E+03 -0.52787865125E+03  0.16216559764E+04  0.12699999809E+01 0. -1.
       -4    1    3    3    0  502  0.13642209625E+04  0.70000841984E+03  0.13311683229E+04  0.20305470541E+04  0.12699999809E+01 0.  1.
</event>
<event>
 5   0  0.5385714E-07  0.3842562E+04  0.7818609E-02  0.8037082E-01
       -1   -1    0    0    0  501  0.00000000000E+00  0.00000000000E+00  0.14130676672E+04  0.14130676672E+04  0.50400001928E-02 0. -1.
        1   -1    0    0  501    0  0.00000000000E+00  0.00000000000E+00 -0.26122743339E+04  0.26122743339E+04  0.50400001928E-02 0.  1.
    10030    2    1    2    0    0  0.00000000000E+00  0.00000000000E+00 -0.11992066667E+04  0.40253420011E+04  0.38425618532E+04 0.  0.
        3    1    3    3  502    0 -0.50373892389E+03  0.25660677268E+03 -0.25231720159E+04  0.25857294854E+04  0.10100000352E+00 0.  1.
       -3    1    3    3    0  502  0.50373892389E+03 -0.25660677268E+03  0.13239653492E+04  0.14396125157E+04  0.10100000352E+00 0. -1.
</event>
<event>
 5   0  0.7268013E-07  0.2693284E+04  0.7818609E-02  0.8337187E-01
        2   -1    0    0  501    0  0.00000000000E+00  0.00000000000E+00  0.19880912211E+04  0.19880912211E+04  0.25500000920E-02 0.  1.
       -2   -1    0    0    0  501  0.00000000000E+00  0.00000000000E+00 -0.91215382473E+03  0.91215382474E+03  0.25500000920E-02 0. -1.
    10030    2    1    2    0    0  0.00000000000E+00  0.00000000000E+00  0.10759373964E+04  0.29002450458E+04  0.26932842488E+04 0.  0.
        4    1    3    3  502    0 -0.39352546317E+03 -0.54701088128E+03  0.17934775476E+04  0.19158931393E+04  0.12699999809E+01 0.  1.
       -4    1    3    3    0  502  0.39352546317E+03  0.54701088128E+03 -0.71754015125E+03  0.98435190657E+03  0.12699999809E+01 0. -1.
</event>
<event>
 5   0  0.4627905E-07  0.3862670E+04  0.7818609E-02  0.8032838E-01
        1   -1    0    0  501    0  0.00000000000E+00  0.00000000000E+00  0.18663085298E+04  0.18663085298E+04  0.50400001928E-02 0. -1.
       -1   -1    0    0    0  501  0.00000000000E+00  0.00000000000E+00 -0.19986270426E+04  0.19986270426E+04  0.50400001928E-02 0.  1.
    10030    2    1    2    0    0  0.00000000000E+00  0.00000000000E+00 -0.13231851279E+03  0.38649355724E+04  0.38626699043E+04 0.  0.
        1    1    3    3  502    0 -0.15541058093E+04 -0.11446464216E+04  0.16625085085E+01  0.19301458652E+04  0.50400001928E-02 0.  1.
       -1    1    3    3    0  502  0.15541058093E+04  0.11446464216E+04 -0.13398102130E+03  0.19347897072E+04  0.50400001928E-02 0. -1.
</event>
<event>
 5   0  0.4627905E-07  0.3789142E+04  0.7818609E-02  0.8048489E-01
        1   -1    0    0  501    0  0.00000000000E+00  0.00000000000E+00  0.29226404902E+04  0.29226404902E+04  0.50400001928E-02 0.  1.
       -1   -1    0    0    0  501  0.00000000000E+00  0.00000000000E+00 -0.12281354631E+04  0.12281354631E+04  0.50400001928E-02 0. -1.
    10030    2    1    2    0    0  0.00000000000E+00  0.00000000000E+00  0.16945050271E+04  0.41507759534E+04  0.37891415556E+04 0.  0.
        1    1    3    3  502    0 -0.17739331887E+04  0.14985529753E+03  0.15572654850E+04  0.23652423468E+04  0.50400001928E-02 0.  1.
       -1    1    3    3    0  502  0.17739331887E+04 -0.14985529753E+03  0.13723954209E+03  0.17855336066E+04  0.50400001928E-02 0. -1.
</event>
<event>
 5   0  0.7268013E-07  0.2504562E+04  0.7818609E-02  0.8401362E-01
       -2   -1    0    0    0  501  0.00000000000E+00  0.00000000000E+00  0.68251180692E+03  0.68251180692E+03  0.25500000920E-02 0.  1.
        2   -1    0    0  501    0  0.00000000000E+00  0.00000000000E+00 -0.22977011144E+04  0.22977011144E+04  0.25500000920E-02 0. -1.
    10030    2    1    2    0    0  0.00000000000E+00  0.00000000000E+00 -0.16151893075E+04  0.29802129214E+04  0.25045623485E+04 0.  0.
        4    1    3    3  502    0  0.63311970625E+03  0.10796635746E+04 -0.85654813710E+03  0.15166378344E+04  0.12699999809E+01 0. -1.
       -4    1    3    3    0  502 -0.63311970625E+03 -0.10796635746E+04 -0.75864117043E+03  0.14635750869E+04  0.12699999809E+01 0.  1.
</event>
<event>
 5   0  0.5533705E-07  0.3805165E+04  0.7818609E-02  0.8045047E-01
        2   -1    0    0  501    0  0.00000000000E+00  0.00000000000E+00  0.12983233624E+04  0.12983233624E+04  0.25500000920E-02 0. -1.
       -2   -1    0    0    0  501  0.00000000000E+00  0.00000000000E+00 -0.27880729064E+04  0.27880729064E+04  0.25500000920E-02 0.  1.
    10030    2    1    2    0    0  0.00000000000E+00  0.00000000000E+00 -0.14897495440E+04  0.40863962688E+04  0.38051650111E+04 0.  0.
        1    1    3    3  502    0  0.15455718632E+04 -0.10095442793E+04 -0.25058761470E+03  0.18629992455E+04  0.50400001928E-02 0. -1.
       -1    1    3    3    0  502 -0.15455718632E+04  0.10095442793E+04 -0.12391619293E+04  0.22233970233E+04  0.50400001928E-02 0.  1.
</event>
<event>
 5   0  0.7268013E-07  0.3966231E+04  0.7818609E-02  0.8011394E-01
       -2   -1    0    0    0  501  0.00000000000E+00  0.00000000000E+00  0.17540591179E+04  0.17540591179E+04  0.25500000920E-02 0.  1.
        2   -1    0    0  501    0  0.00000000000E+00  0.00000000000E+00 -0.22420830866E+04  0.22420830866E+04  0.25500000920E-02 0. -1.
    10030    2    1    2    0    0  0.00000000000E+00  0.00000000000E+00 -0.48802396862E+03  0.39961422045E+04  0.39662305940E+04 0.  0.
        4    1    3    3  502    0 -0.14180573824E+04 -0.12114631959E+03  0.11474104028E+04  0.18281453487E+04  0.12699999809E+01 0.  1.
       -4    1    3    3    0  502  0.14180573824E+04  0.12114631959E+03 -0.16354343714E+04  0.21679968558E+04  0.12699999809E+01 0. -1.
</event>
<event>
 5   0  0.7268013E-07  0.2401829E+04  0.7818609E-02  0.8438819E-01
       -2   -1    0    0    0  501  0.00000000000E+00  0.00000000000E+00  0.10588476952E+04  0.10588476952E+04  0.25500000920E-02 0. -1.
        2   -1    0    0  501    0  0.00000000000E+00  0.00000000000E+00 -0.13620422304E+04  0.13620422304E+04  0.25500000920E-02 0.  1.
    10030    2    1    2    0    0  0.00000000000E+00  0.00000000000E+00 -0.30319453516E+03  0.24208899256E+04  0.24018287003E+04 0.  0.
        4    1    3    3  502    0 -0.10479768186E+04  0.17292131710E+03 -0.71643416147E+03  0.12811856676E+04  0.12699999809E+01 0.  1.
       -4    1    3    3    0  502  0.10479768186E+04 -0.17292131710E+03  0.41323962631E+03  0.11397042580E+04  0.12699999809E+01 0. -1.
</event>
<event>
 5   0  0.4627905E-07  0.3937110E+04  0.7818609E-02  0.8017355E-01
        1   -1    0    0  501    0  0.00000000000E+00  0.00000000000E+00  0.13293960216E+04  0.13293960216E+04  0.50400001928E-02 0.  1.
       -1   -1    0    0    0  501  0.00000000000E+00  0.00000000000E+00 -0.29150143861E+04  0.29150143861E+04  0.50400001928E-02 0. -1.
    10030    2    1    2    0    0  0.00000000000E+00  0.00000000000E+00 -0.15856183645E+04  0.42444104078E+04  0.39371098679E+04 0.  0.
        1    1    3    3  502    0 -0.14187395969E+04  0.12677875473E+04 -0.24831141447E+03  0.19187928151E+04  0.50400001928E-02 0.  1.
       -1    1    3    3    0  502  0.14187395969E+04 -0.12677875473E+04 -0.13373069500E+04  0.23256175927E+04  0.50400001928E-02 0. -1.
</event>
<event>
 5   0  0.5385714E-07  0.2242618E+04  0.7818609E-02  0.8500896E-01
        1   -1    0    0  501    0  0.00000000000E+00  0.00000000000E+00  0.86376706473E+03  0.86376706475E+03  0.50400001928E-02 0.  1.
       -1   -1    0    0    0  501  0.00000000000E+00  0.00000000000E+00 -0.14556401493E+04  0.14556401493E+04  0.50400001928E-02 0. -1.
    10030    2    1    2    0    0  0.00000000000E+00  0.00000000000E+00 -0.59187308454E+03  0.23194072140E+04  0.22426181298E+04 0.  0.
        3    1    3    3  502    0  0.48188995218E+03  0.20558903162E+03 -0.13212699936E+04  0.14213511818E+04  0.10100000352E+00 0. -1.
       -3    1    3    3    0  502 -0.48188995218E+03 -0.20558903162E+03  0.72939690901E+03  0.89805603223E+03  0.10100000352E+00 0.  1.
</event>
<event>
 5   0  0.1034683E-06  0.2347426E+04  0.7818609E-02  0.8459453E-01
       -2   -1    0    0    0  501  0.00000000000E+00  0.00000000000E+00  0.68740942812E+03  0.68740942813E+03  0.25500000920E-02 0.  1.
        2   -1    0    0  501    0  0.00000000000E+00  0.00000000000E+00 -0.20040497269E+04  0.20040497269E+04  0.25500000920E-02 0. -1.
    10030    2    1    2    0    0  0.00000000000E+00  0.00000000000E+00 -0.13166402988E+04  0.26914591550E+04  0.23474264007E+04 0.  0.
        2    1    3    3  502    0  0.48797761169E+03 -0.45241933952E+03 -0.17668682091E+04  0.18880224248E+04  0.25500000920E-02 0. -1.
       -2    1    3    3    0  502 -0.48797761169E+03  0.45241933952E+03  0.45022791029E+03  0.80343673024E+03  0.25500000920E-02 0.  1.
</event>
<event>
 5   0  0.1035864E-06  0.2174676E+04  0.7818609E-02  0.8529043E-01
       -2   -1    0    0    0  501  0.00000000000E+00  0.00000000000E+00  0.12016114316E+04  0.12016114316E+04  0.25500000920E-02 0. -1.
        2   -1    0    0  501    0  0.00000000000E+00  0.00000000000E+00 -0.98393221972E+03  0.98393221972E+03  0.25500000920E-02 0.  1.
    10030    2    1    2    0    0  0.00000000000E+00  0.00000000000E+00  0.21767921185E+03  0.21855436513E+04  0.21746762546E+04 0.  0.
        5    1    3    3  502    0 -0.46299489827E+03 -0.96152206501E+03 -0.10051161129E+03  0.10719205341E+04  0.46999998093E+01 0.  1.
       -5    1    3    3    0  502  0.46299489827E+03  0.96152206501E+03  0.31819082314E+03  0.11136231172E+04  0.46999998093E+01 0. -1.
</event>
<event>
 5   0  0.4316671E-07  0.2829981E+04  0.7818609E-02  0.8294020E-01
       -1   -1    0    0    0  501  0.00000000000E+00  0.00000000000E+00  0.12515514507E+04  0.12515514507E+04  0.50400001928E-02 0. -1.
        1   -1    0    0  501    0  0.00000000000E+00  0.00000000000E+00 -0.15997732800E+04  0.15997732800E+04  0.50400001928E-02 0.  1.
    10030    2    1    2    0    0  0.00000000000E+00  0.00000000000E+00 -0.34822182933E+03  0.28513247308E+04  0.28299813211E+04 0.  0.
        2    1    3    3  502    0  0.11017474809E+04 -0.10715072690E+03 -0.10621605201E+04  0.15341166059E+04  0.25500000920E-02 0.  1.
       -2    1    3    3    0  502 -0.11017474809E+04  0.10715072690E+03  0.71393869077E+03  0.13172081249E+04  0.25500000920E-02 0. -1.
</event>
<event>
 5   0  0.4316671E-07  0.3175235E+04  0.7818609E-02  0.8195388E-01
        1   -1    0    0  501    0  0.00000000000E+00  0.00000000000E+00  0.13030743905E+04  0.13030743905E+04  0.50400001928E-02 0. -1.
       -1   -1    0    0    0  501  0.00000000000E+00  0.00000000000E+00 -0.19342938449E+04  0.19342938449E+04  0.50400001928E-02 0.  1.
    10030    2    1    2    0    0  0.00000000000E+00  0.00000000000E+00 -0.63121945446E+03  0.32373682354E+04  0.31752346515E+04 0.  0.
        2    1    3    3  502    0 -0.10255381825E+04 -0.39845706488E+03 -0.14825731860E+04  0.18462177142E+04  0.25500000920E-02 0.  1.
       -2    1    3    3    0  502  0.10255381825E+04  0.39845706488E+03  0.85135373158E+03  0.13911505212E+04  0.25500000920E-02 0. -1.
</event>
<event>
 5   0  0.1034683E-06  0.2980332E+04  0.7818609E-02  0.8249370E-01
        2   -1    0    0  501    0  0.00000000000E+00  0.00000000000E+00  0.17412010031E+04  0.17412010031E+04  0.25500000920E-02 0.  1.
       -2   -1    0    0    0  501  0.00000000000E+00  0.00000000000E+00 -0.12753237283E+04  0.12753237283E+04  0.25500000920E-02 0. -1.
    10030    2    1    2    0    0  0.00000000000E+00  0.00000000000E+00  0.46587727477E+03  0.30165247313E+04  0.29803321660E+04 0.  0.
        2    1    3    3  502    0 -0.71529000000E+02 -0.82899205756E+03  0.14841754854E+04  0.17015055394E+04  0.25500000920E-02 0.  1.
       -2    1    3    3    0  502  0.71529000000E+02  0.82899205756E+03 -0.10182982106E+04  0.13150191919E+04  0.25500000920E-02 0. -1.
</event>
<event>
 5   0  0.4627905E-07  0.3391673E+04  0.7818609E-02  0.8139953E-01
        1   -1    0    0  501    0  0.00000000000E+00  0.00000000000E+00  0.19367652022E+04  0.19367652022E+04  0.50400001928E-02 0. -1.
       -1   -1    0    0    0  501  0.00000000000E+00  0.00000000000E+00 -0.14848787798E+04  0.14848787798E+04  0.50400001928E-02 0.  1.
    10030    2    1    2    0    0  0.00000000000E+00  0.00000000000E+00  0.45188642241E+03  0.34216439820E+04  0.33916730681E+04 0.  0.
        1    1    3    3  502    0  0.13553009632E+04  0.33057571049E+03  0.11986942943E+04  0.18392903557E+04  0.50400001928E-02 0. -1.
       -1    1    3    3    0  502 -0.13553009632E+04 -0.33057571049E+03 -0.74680787193E+03  0.15823536263E+04  0.50400001928E-02 0.  1.
</event>
<event>
 5   0  0.1034683E-06  0.1942622E+04  0.7818609E-02  0.8633927E-01
        2   -1    0    0  501    0  0.00000000000E+00  0.00000000000E+00  0.10335073511E+04  0.10335073511E+04  0.25500000920E-02 0.  1.
       -2   -1    0    0    0  501  0.00000000000E+00  0.00000000000E+00 -0.91285753959E+03  0.91285753959E+03  0.25500000920E-02 0. -1.
    10030    2    1    2    0    0  0.00000000000E+00  0.00000000000E+00  0.12064981149E+03  0.19463648907E+04  0.19426219165E+04 0.  0.
        2    1    3    3  502    0 -0.85841199007E+03 -0.45133684291E+03  0.66597105662E+01  0.96985588734E+03  0.25500000920E-02 0.  1.
       -2    1    3    3    0  502  0.85841199007E+03  0.45133684291E+03  0.11399010092E+03  0.97650900333E+03  0.25500000920E-02 0. -1.
</event>
<event>
 5   0  0.1034683E-06  0.2013642E+04  0.7818609E-02  0.8600269E-01
        2   -1    0    0  501    0  0.00000000000E+00  0.00000000000E+00  0.92211299975E+03  0.92211299975E+03  0.25500000920E-02 0. -1.
       -2   -1    0    0    0  501  0.00000000000E+00  0.00000000000E+00 -0.10993108228E+04  0.10993108228E+04  0.25500000920E-02 0.  1.
    10030    2    1    2    0    0  0.00000000000E+00  0.00000000000E+00 -0.17719782302E+03  0.20214238225E+04  0.20136422725E+04 0.  0.
        2    1    3    3  502    0 -0.67859658231E+03 -0.92243789587E+01 -0.83518684754E+03  0.10761577398E+04  0.25500000920E-02 0.  1.
       -2    1    3    3    0  502  0.67859658231E+03  0.92243789587E+01  0.65798902452E+03  0.94526608269E+03  0.25500000920E-02 0. -1.
</event>
<event>
 5   0  0.1034683E-06  0.3334001E+04  0.7818609E-02  0.8154297E-01
       -2   -1    0    0    0  501  0.00000000000E+00  0.00000000000E+00  0.11558517261E+04  0.11558517261E+04  0.25500000920E-02 0.  1.
        2   -1    0    0  501    0  0.00000000000E+00  0.00000000000E+00 -0.24041924559E+04  0.24041924559E+04  0.25500000920E-02 0. -1.
    10030    2    1    2    0    0  0.00000000000E+00  0.00000000000E+00 -0.12483407299E+04  0.35600441820E+04  0.33340005999E+04 0.  0.
        2    1    3    3  502    0  0.53851860420E+03 -0.13746677202E+04 -0.14507164128E+04  0.20698530717E+04  0.25500000920E-02 0. -1.
       -2    1    3    3    0  502 -0.53851860420E+03  0.13746677202E+04  0.20237568295E+03  0.14901911103E+04  0.25500000920E-02 0.  1.
</event>
<event>
 5   0  0.5533705E-07  0.3995794E+04  0.7818609E-02  0.8005396E-01
       -2   -1    0    0    0  501  0.00000000000E+00  0.00000000000E+00  0.19689738161E+04  0.19689738161E+04  0.25500000920E-02 0. -1.
        2   -1    0    0  501    0  0.00000000000E+00  0.00000000000E+00 -0.20272449010E+04  0.20272449010E+04  0.25500000920E-02 0.  1.
    10030    2    1    2    0    0  0.00000000000E+00  0.00000000000E+00 -0.58271084966E+02  0.39962187171E+04  0.39957938530E+04 0.  0.
        1    1    3    3  502    0  0.15231102878E+04 -0.60637162642E+03  0.11129318623E+04  0.19814562393E+04  0.50400001928E-02 0. -1.
       -1    1    3    3    0  502 -0.15231102878E+04  0.60637162642E+03 -0.11712029473E+04  0.20147624778E+04  0.50400001928E-02 0.  1.
</event>
<event>
 5   0  0.1035864E-06  0.3849917E+04  0.7818609E-02  0.8035527E-01
       -2   -1    0    0    0  501  0.00000000000E+00  0.00000000000E+00  0.23503252245E+04  0.23503252245E+04  0.25500000920E-02 0.  1.
        2   -1    0    0  501    0  0.00000000000E+00  0.00000000000E+00 -0.15765755056E+04  0.15765755056E+04  0.25500000920E-02 0. -1.
    10030    2    1    2    0    0  0.00000000000E+00  0.00000000000E+00  0.77374971892E+03  0.39269007301E+04  0.38499169753E+04 0.  0.
        5    1    3    3  502    0  0.40734514951E+03 -0.90682800604E+03 -0.12944724863E+04  0.16321605960E+04  0.46999998093E+01 0. -1.
       -5    1    3    3    0  502 -0.40734514951E+03  0.90682800604E+03  0.20682222052E+04  0.22947401342E+04  0.46999998093E+01 0.  1.
</event>
<event>
 5   0  0.7268013E-07  0.3913879E+04  0.7818609E-02  0.8022149E-01
       -2   -1    0    0    0  501  0.00000000000E+00  0.00000000000E+00  0.24700808900E+04  0.24700808900E+04  0.25500000920E-02 0. -1.
        2   -1    0    0  501    0  0.00000000000E+00  0.00000000000E+00 -0.15503996498E+04  0.15503996498E+04  0.25500000920E-02 0.  1.
    10030    2    1    2    0    0  0.00000000000E+00  0.00000000000E+00  0.91968124021E+03  0.40204805397E+04  0.39138791737E+04 0.  0.
        4    1    3    3  502    0 -0.24903811240E+03  0.45800542025E+03  0.23974340688E+04  0.24534629962E+04  0.12699999809E+01 0. -1.
       -4    1    3    3    0  502  0.24903811240E+03 -0.45800542025E+03 -0.14777528286E+04  0.15670175435E+04  0.12699999809E+01 0.  1.
</event>
<event>
 5   0  0.1015219E-06  0.2782405E+04  0.7818609E-02  0.8308752E-01
        2   -1    0    0  501    0  0.00000000000E+00  0.00000000000E+00  0.21261528012E+04  0.21261528012E+04  0.25500000920E-02 0. -1.
       -2   -1    0    0    0  501  0.00000000000E+00  0.00000000000E+00 -0.91030324044E+03  0.91030324044E+03  0.25500000920E-02 0.  1.
    10030    2    1    2    0    0  0.00000000000E+00  0.00000000000E+00  0.12158495608E+04  0.30364560416E+04  0.27824045605E+04 0.  0.
        3    1    3    3  502    0 -0.17760590093E+03  0.99607072512E+03 -0.43411175800E+03  0.11009785530E+04  0.10100000352E+00 0.  1.
       -3    1    3    3    0  502  0.17760590093E+03 -0.99607072512E+03  0.16499613188E+04  0.19354774887E+04  0.10100000352E+00 0. -1.
</event>
<event>
 5   0  0.3471602E-07  0.1965083E+04  0.7818609E-02  0.8623122E-01
        1   -1    0    0  501    0  0.00000000000E+00  0.00000000000E+00  0.18639020508E+04  0.18639020508E+04  0.50400001928E-02 0.  1.
       -1   -1    0    0    0  501  0.00000000000E+00  0.00000000000E+00 -0.51793910643E+03  0.51793910645E+03  0.50400001928E-02 0. -1.
    10030    2    1    2    0    0  0.00000000000E+00  0.00000000000E+00  0.13459629444E+04  0.23818411573E+04  0.19650829628E+04 0.  0.
        5    1    3    3  502    0 -0.53885922735E+03 -0.14168883633E+03 -0.30792196630E+03  0.63661842620E+03  0.46999998093E+01 0. -1.
       -5    1    3    3    0  502  0.53885922735E+03  0.14168883633E+03  0.16538849107E+04  0.17452227311E+04  0.46999998093E+01 0.  1.
</event>
<event>
 5   0  0.1015219E-06  0.3824458E+04  0.7818609E-02  0.8040927E-01
        2   -1    0    0  501    0  0.00000000000E+00  0.00000000000E+00  0.15843311089E+04  0.15843311089E+04  0.25500000920E-02 0. -1.
       -2   -1    0    0    0  501  0.00000000000E+00  0.00000000000E+00 -0.23079894386E+04  0.23079894386E+04  0.25500000920E-02 0.  1.
    10030    2    1    2    0    0  0.00000000000E+00  0.00000000000E+00 -0.72365832967E+03  0.38923205475E+04  0.38244578526E+04 0.  0.
        3    1    3    3  502    0  0.13718636332E+03 -0.15249214402E+04 -0.15277636299E+04  0.21629302384E+04  0.10100000352E+00 0. -1.
       -3    1    3    3    0  502 -0.13718636332E+03  0.15249214402E+04  0.80410530025E+03  0.17293903091E+04  0.10100000352E+00 0.  1.
</event>
<event>
 5   0  0.3471602E-07  0.2004583E+04  0.7818609E-02  0.8604481E-01
        1   -1    0    0  501    0  0.00000000000E+00  0.00000000000E+00  0.13543359188E+04  0.13543359188E+04  0.50400001928E-02 0. -1.
       -1   -1    0    0    0  501  0.00000000000E+00  0.00000000000E+00 -0.74175735235E+03  0.74175735236E+03  0.50400001928E-02 0.  1.
    10030    2    1    2    0    0  0.00000000000E+00  0.00000000000E+00  0.61257856648E+03  0.20960932712E+04  0.20045833735E+04 0.  0.
        5    1    3    3  502    0  0.50244158706E+03 -0.79506498854E+03 -0.55920506885E+02  0.94219163523E+03  0.46999998093E+01 0.  1.
       -5    1    3    3    0  502 -0.50244158706E+03  0.79506498854E+03  0.66849907336E+03  0.11539016360E+04  0.46999998093E+01 0. -1.
</event>
<event>
 5   0  0.1015219E-06  0.2053212E+04  0.7818609E-02  0.8582139E-01
        2   -1    0    0  501    0  0.00000000000E+00  0.00000000000E+00  0.17224803391E+04  0.17224803391E+04  0.25500000920E-02 0.  1.
       -2   -1    0    0    0  501  0.00000000000E+00  0.00000000000E+00 -0.61186186677E+03  0.61186186677E+03  0.25500000920E-02 0. -1.
    10030    2    1    2    0    0  0.00000000000E+00  0.00000000000E+00  0.11106184723E+04  0.23343422059E+04  0.20532121525E+04 0.  0.
        3    1    3    3  502    0  0.65380055037E+02  0.78960756659E+03  0.12975072224E+04  0.15202893354E+04  0.10100000352E+00 0.  1.
       -3    1    3    3    0  502 -0.65380055037E+02 -0.78960756659E+03 -0.18688875011E+03  0.81405287048E+03  0.10100000352E+00 0. -1.
</event>
<event>
 5   0  0.1034683E-06  0.3633444E+04  0.7818609E-02  0.8082874E-01
        2   -1    0    0  501    0  0.00000000000E+00  0.00000000000E+00  0.17515261560E+04  0.17515261560E+04  0.25500000920E-02 0. -1.
       -2   -1    0    0    0  501  0.00000000000E+00  0.00000000000E+00 -0.18843448354E+04  0.18843448354E+04  0.25500000920E-02 0.  1.
    10030    2    1    2    0    0  0.00000000000E+00  0.00000000000E+00 -0.13281867940E+03  0.36358709915E+04  0.36334442427E+04 0.  0.
        2    1    3    3  502    0  0.17856131557E+04 -0.26783104595E+03  0.13455171963E+03  0.18105943710E+04  0.25500000920E-02 0. -1.
       -2    1    3    3    0  502 -0.17856131557E+04  0.26783104595E+03 -0.26737039903E+03  0.18252766205E+04  0.25500000920E-02 0.  1.
</event>
<event>
 5   0  0.3977376E-07  0.3676252E+04  0.7818609E-02  0.8073245E-01
       -1   -1    0    0    0  501  0.00000000000E+00  0.00000000000E+00  0.15077401975E+04  0.15077401975E+04  0.50400001928E-02 0. -1.
        1   -1    0    0  501    0  0.00000000000E+00  0.00000000000E+00 -0.22409076155E+04  0.22409076155E+04  0.50400001928E-02 0.  1.
    10030    2    1    2    0    0  0.00000000000E+00  0.00000000000E+00 -0.73316741796E+03  0.37486478130E+04  0.36762516186E+04 0.  0.
        4    1    3    3  502    0 -0.71966493761E+03  0.14294955030E+04 -0.12884503397E+04  0.20546242738E+04  0.12699999809E+01 0.  1.
       -4    1    3    3    0  502  0.71966493761E+03 -0.14294955030E+04  0.55528292172E+03  0.16940235393E+04  0.12699999809E+01 0. -1.
</event>
<event>
 5   0  0.4627905E-07  0.3886229E+04  0.7818609E-02  0.8027899E-01
        1   -1    0    0  501    0  0.00000000000E+00  0.00000000000E+00  0.21207191265E+04  0.21207191265E+04  0.50400001928E-02 0.  1.
       -1   -1    0    0    0  501  0.00000000000E+00  0.00000000000E+00 -0.17803840644E+04  0.17803840644E+04  0.50400001928E-02 0. -1.
    10030    2    1    2    0    0  0.00000000000E+00  0.00000000000E+00  0.34033506211E+03  0.39011031908E+04  0.38862292973E+04 0.  0.
        1    1    3    3  502    0  0.71405207550E+03 -0.11797082184E+04 -0.12040543761E+04  0.18306634829E+04  0.50400001928E-02 0. -1.
       -1    1    3    3    0  502 -0.71405207550E+03  0.11797082184E+04  0.15443894382E+04  0.20704397079E+04  0.50400001928E-02 0.  1.
</event>
<event>
 5   0  0.7268013E-07  0.3846963E+04  0.7818609E-02  0.8036151E-01
        2   -1    0    0  501    0  0.00000000000E+00  0.00000000000E+00  0.23933880116E+04  0.23933880116E+04  0.25500000920E-02 0. -1.
       -2   -1    0    0    0  501  0.00000000000E+00  0.00000000000E+00 -0.15458344832E+04  0.15458344832E+04  0.25500000920E-02 0.  1.
    10030    2    1    2    0    0  0.00000000000E+00  0.00000000000E+00  0.84755352842E+03  0.39392224948E+04  0.38469633323E+04 0.  0.
        4    1    3    3  502    0 -0.16788309086E+04  0.73383053986E+03 -0.17575560286E+03  0.18406173219E+04  0.12699999809E+01 0.  1.
       -4    1    3    3    0  502  0.16788309086E+04 -0.73383053986E+03  0.10233091313E+04  0.20986051729E+04  0.12699999809E+01 0. -1.
</event>
<event>
 5   0  0.7268013E-07  0.3891053E+04  0.7818609E-02  0.8026893E-01
       -2   -1    0    0    0  501  0.00000000000E+00  0.00000000000E+00  0.17067148194E+04  0.17067148194E+04  0.25500000920E-02 0. -1.
        2   -1    0    0  501    0  0.00000000000E+00  0.00000000000E+00 -0.22177533099E+04  0.22177533099E+04  0.25500000920E-02 0.  1.
    10030    2    1    2    0    0  0.00000000000E+00  0.00000000000E+00 -0.51103849052E+03  0.39244681293E+04  0.38910525258E+04 0.  0.
        4    1    3    3  502    0 -0.55212845975E+03 -0.45886247704E+03  0.15682323670E+04  0.17247478015E+04  0.12699999809E+01 0. -1.
       -4    1    3    3    0  502  0.55212845975E+03  0.45886247704E+03 -0.20792708575E+04  0.21997203278E+04  0.12699999809E+01 0.  1.
</event>
<event>
 5   0  0.5533705E-07  0.3873748E+04  0.7818609E-02  0.8030511E-01
        2   -1    0    0  501    0  0.00000000000E+00  0.00000000000E+00  0.18791106082E+04  0.18791106082E+04  0.25500000920E-02 0. -1.
       -2   -1    0    0    0  501  0.00000000000E+00  0.00000000000E+00 -0.19964129735E+04  0.19964129735E+04  0.25500000920E-02 0.  1.
    10030    2    1    2    0    0  0.00000000000E+00  0.00000000000E+00 -0.11730236523E+03  0.38755235817E+04  0.38737479510E+04 0.  0.
        1    1    3    3  502    0 -0.74305062490E+03 -0.11099196702E+04 -0.14619469292E+04  0.19802360287E+04  0.50400001928E-02 0.  1.
       -1    1    3    3    0  502  0.74305062490E+03  0.11099196702E+04  0.13446445639E+04  0.18952875531E+04  0.50400001928E-02 0. -1.
</event>
<event>
 5   0  0.1015219E-06  0.3519374E+04  0.7818609E-02  0.8109214E-01
        2   -1    0    0  501    0  0.00000000000E+00  0.00000000000E+00  0.22238036880E+04  0.22238036880E+04  0.25500000920E-02 0.  1.
       -2   -1    0    0    0  501  0.00000000000E+00  0.00000000000E+00 -0.13924330401E+04  0.13924330401E+04  0.25500000920E-02 0. -1.
    10030    2    1    2    0    0  0.00000000000E+00  0.00000000000E+00  0.83137064796E+03  0.36162367281E+04  0.35193736544E+04 0.  0.
        3    1    3    3  502    0  0.22795108437E+02 -0.17581879960E+04  0.48652535232E+03  0.18244044439E+04  0.10100000352E+00 0. -1.
       -3    1    3    3    0  502 -0.22795108437E+02  0.17581879960E+04  0.34484529563E+03  0.17918322842E+04  0.10100000352E+00 0.  1.
</event>
<event>
 5   0  0.5385714E-07  0.2577581E+04  0.7818609E-02  0.8375856E-01
       -1   -1    0    0    0  501  0.00000000000E+00  0.00000000000E+00  0.94626693791E+03  0.94626693793E+03  0.50400001928E-02 0.  1.
        1   -1    0    0  501    0  0.00000000000E+00  0.00000000000E+00 -0.17552987573E+04  0.17552987573E+04  0.50400001928E-02 0. -1.
    10030    2    1    2    0    0  0.00000000000E+00  0.00000000000E+00 -0.80903181934E+03  0.27015656952E+04  0.25775811764E+04 0.  0.
        3    1    3    3  502    0 -0.10378479303E+04  0.65007928577E+02  0.39343727987E+03  0.11118215957E+04  0.10100000352E+00 0.  1.
       -3    1    3    3    0  502  0.10378479303E+04 -0.65007928577E+02 -0.12024690992E+04  0.15897440995E+04  0.10100000352E+00 0. -1.
</event>
<event>
 5   0  0.3977376E-07  0.4002123E+04  0.7818609E-02  0.8004118E-01
       -1   -1    0    0    0  501  0.00000000000E+00  0.00000000000E+00  0.26258334467E+04  0.26258334467E+04  0.50400001928E-02 0.  1.
        1   -1    0    0  501    0  0.00000000000E+00  0.00000000000E+00 -0.15249435860E+04  0.15249435860E+04  0.50400001928E-02 0. -1.
    10030    2    1    2    0    0  0.00000000000E+00  0.00000000000E+00  0.11008898607E+04  0.41507770327E+04  0.40021233726E+04 0.  0.
        4    1    3    3  502    0  0.19723463450E+04 -0.20298498768E+03  0.83046076306E+03  0.21496557171E+04  0.12699999809E+01 0.  1.
       -4    1    3    3    0  502 -0.19723463450E+04  0.20298498768E+03  0.27042909763E+03  0.20011213156E+04  0.12699999809E+01 0. -1.
</event>
<event>
 5   0  0.1034683E-06  0.2530295E+04  0.7818609E-02  0.8392272E-01
        2   -1    0    0  501    0  0.00000000000E+00  0.00000000000E+00  0.16543635014E+04  0.16543635014E+04  0.25500000920E-02 0. -1.
       -2   -1    0    0    0  501  0.00000000000E+00  0.00000000000E+00 -0.96750068064E+03  0.96750068065E+03  0.25500000920E-02 0.  1.
    10030    2    1    2    0    0  0.00000000000E+00  0.00000000000E+00  0.68686282071E+03  0.26218641820E+04  0.25302946971E+04 0.  0.
        2    1    3    3  502    0 -0.20636943907E+03 -0.11455257085E+04 -0.17027222299E+03  0.11763545911E+04  0.25500000920E-02 0. -1.
       -2    1    3    3    0  502  0.20636943907E+03  0.11455257085E+04  0.85713504370E+03  0.14455095909E+04  0.25500000920E-02 0.  1.
</event>
<event>
 5   0  0.3471602E-07  0.3851777E+04  0.7818609E-02  0.8035134E-01
       -1   -1    0    0    0  501  0.00000000000E+00  0.00000000000E+00  0.15555780970E+04  0.15555780970E+04  0.50400001928E-02 0. -1.
        1   -1    0    0  501    0  0.00000000000E+00  0.00000000000E+00 -0.23843520901E+04  0.23843520901E+04  0.50400001928E-02 0.  1.
    10030    2    1    2    0    0  0.00000000000E+00  0.00000000000E+00 -0.82877399315E+03  0.39399301871E+04  0.38517766741E+04 0.  0.
        5    1    3    3  502    0 -0.18391450803E+04  0.25035993635E+01  0.17014844879E+03  0.18470066267E+04  0.46999998093E+01 0. -1.
       -5    1    3    3    0  502  0.18391450803E+04 -0.25035993635E+01 -0.99892244194E+03  0.20929235604E+04  0.46999998093E+01 0.  1.
</event>
<event>
 5   0  0.4872300E-07  0.1919076E+04  0.7818609E-02  0.8645419E-01
       -1   -1    0    0    0  501  0.00000000000E+00  0.00000000000E+00  0.95064771825E+03  0.95064771826E+03  0.50400001928E-02 0. -1.
        1   -1    0    0  501    0  0.00000000000E+00  0.00000000000E+00 -0.96851171962E+03  0.96851171963E+03  0.50400001928E-02 0.  1.
    10030    2    1    2    0    0  0.00000000000E+00  0.00000000000E+00 -0.17864001374E+02  0.19191594379E+04  0.19190762949E+04 0.  0.
        1    1    3    3  502    0  0.17741914151E+03 -0.35565457104E+03 -0.88232299175E+03  0.96770945406E+03  0.50400001928E-02 0.  1.
       -1    1    3    3    0  502 -0.17741914151E+03  0.35565457104E+03  0.86445899038E+03  0.95144998384E+03  0.50400001928E-02 0. -1.
</event>
<event>
 5   0  0.1035864E-06  0.3865902E+04  0.7818609E-02  0.8032158E-01
       -2   -1    0    0    0  501  0.00000000000E+00  0.00000000000E+00  0.23534476964E+04  0.23534476964E+04  0.25500000920E-02 0. -1.
        2   -1    0    0  501    0  0.00000000000E+00  0.00000000000E+00 -0.15875858427E+04  0.15875858427E+04  0.25500000920E-02 0.  1.
    10030    2    1    2    0    0  0.00000000000E+00  0.00000000000E+00  0.76586185369E+03  0.39410335390E+04  0.38659023496E+04 0.  0.
        5    1    3    3  502    0 -0.94094299907E+03  0.14972251625E+04 -0.41276432954E+03  0.18158891476E+04  0.46999998093E+01 0.  1.
       -5    1    3    3    0  502  0.94094299907E+03 -0.14972251625E+04  0.11786261832E+04  0.21251443914E+04  0.46999998093E+01 0. -1.
</event>
<event>
 5   0  0.1034683E-06  0.2969802E+04  0.7818609E-02  0.8252407E-01
        2   -1    0    0  501    0  0.00000000000E+00  0.00000000000E+00  0.12985470317E+04  0.12985470318E+04  0.25500000920E-02 0. -1.
       -2   -1    0    0    0  501  0.00000000000E+00  0.00000000000E+00 -0.16979981321E+04  0.16979981321E+04  0.25500000920E-02 0.  1.
    10030    2    1    2    0    0  0.00000000000E+00  0.00000000000E+00 -0.39945110040E+03  0.29965451639E+04  0.29698016327E+04 0.  0.
        2    1    3    3  502    0 -0.13284225945E+04 -0.43296475765E+03  0.30755962072E+03  0.14306494998E+04  0.25500000920E-02 0. -1.
       -2    1    3    3    0  502  0.13284225945E+04  0.43296475765E+03 -0.70701072112E+03  0.15658956641E+04  0.25500000920E-02 0.  1.
</event>
<event>
 5   0  0.5533705E-07  0.4266885E+04  0.7818609E-02  0.7952770E-01
        2   -1    0    0  501    0  0.00000000000E+00  0.00000000000E+00  0.24778540561E+04  0.24778540561E+04  0.25500000920E-02 0.  1.
       -2   -1    0    0    0  501  0.00000000000E+00  0.00000000000E+00 -0.18369030228E+04  0.18369030228E+04  0.25500000920E-02 0. -1.
    10030    2    1    2    0    0  0.00000000000E+00  0.00000000000E+00  0.64095103335E+03  0.43147570789E+04  0.42668853304E+04 0.  0.
        1    1    3    3  502    0  0.74240767935E+03 -0.13709946302E+04 -0.11521536905E+04  0.19386215631E+04  0.50400001928E-02 0. -1.
       -1    1    3    3    0  502 -0.74240767935E+03  0.13709946302E+04  0.17931047238E+04  0.23761355157E+04  0.50400001928E-02 0.  1.
</event>
<event>
 5   0  0.4926235E-07  0.2237148E+04  0.7818609E-02  0.8503124E-01
        1   -1    0    0  501    0  0.00000000000E+00  0.00000000000E+00  0.13170198569E+04  0.13170198569E+04  0.50400001928E-02 0. -1.
       -1   -1    0    0    0  501  0.00000000000E+00  0.00000000000E+00 -0.95002925087E+03  0.95002925088E+03  0.50400001928E-02 0.  1.
    10030    2    1    2    0    0  0.00000000000E+00  0.00000000000E+00  0.36699060602E+03  0.22670491078E+04  0.22371476375E+04 0.  0.
        5    1    3    3  502    0  0.12679553139E+03 -0.14313045430E+03  0.13003246805E+04  0.13143172366E+04  0.46999998093E+01 0. -1.
       -5    1    3    3    0  502 -0.12679553139E+03  0.14313045430E+03 -0.93333407449E+03  0.95273187117E+03  0.46999998093E+01 0.  1.
</event>
<event>
 5   0  0.3977376E-07  0.3786540E+04  0.7818609E-02  0.8049049E-01
        1   -1    0    0  501    0  0.00000000000E+00  0.00000000000E+00  0.15895457121E+04  0.15895457121E+04  0.50400001928E-02 0.  1.
       -1   -1    0    0    0  501  0.00000000000E+00  0.00000000000E+00 -0.22550290097E+04  0.22550290097E+04  0.50400001928E-02 0. -1.
    10030    2    1    2    0    0  0.00000000000E+00  0.00000000000E+00 -0.66548329756E+03  0.38445747218E+04  0.37865402113E+04 0.  0.
        4    1    3    3  502    0 -0.10089611625E+04  0.15976645419E+04 -0.45259949114E+03  0.19430343610E+04  0.12699999809E+01 0. -1.
       -4    1    3    3    0  502  0.10089611625E+04 -0.15976645419E+04 -0.21288380642E+03  0.19015403608E+04  0.12699999809E+01 0.  1.
</event>
<event>
 5   0  0.3471602E-07  0.3939464E+04  0.7818609E-02  0.8016871E-01
        1   -1    0    0  501    0  0.00000000000E+00  0.00000000000E+00  0.12938596902E+04  0.12938596902E+04  0.50400001928E-02 0. -1.
       -1   -1    0    0    0  501  0.00000000000E+00  0.00000000000E+00 -0.29986595430E+04  0.29986595430E+04  0.50400001928E-02 0.  1.
    10030    2    1    2    0    0  0.00000000000E+00  0.00000000000E+00 -0.17047998528E+04  0.42925192332E+04  0.39394642820E+04 0.  0.
        5    1    3    3  502    0  0.67610334919E+03  0.18218731289E+04 -0.50187882832E+03  0.20070480525E+04  0.46999998093E+01 0. -1.
       -5    1    3    3    0  502 -0.67610334919E+03 -0.18218731289E+04 -0.12029210245E+04  0.22854711807E+04  0.46999998093E+01 0.  1.
</event>
<event>
 5   0  0.1015219E-06  0.3859604E+04  0.7818609E-02  0.8033484E-01
        2   -1    0    0  501    0  0.00000000000E+00  0.00000000000E+00  0.20095950337E+04  0.20095950337E+04  0.25500000920E-02 0.  1.
       -2   -1    0    0    0  501  0.00000000000E+00  0.00000000000E+00 -0.18531774251E+04  0.18531774251E+04  0.25500000920E-02 0. -1.
    10030    2    1    2    0    0  0.00000000000E+00  0.00000000000E+00  0.15641760860E+03  0.38627724587E+04  0.38596042025E+04 0.  0.
        3    1    3    3  502    0  0.71259553734E+03  0.12515021780E+04  0.13638200139E+04  0.19834452707E+04  0.10100000352E+00 0.  1.
       -3    1    3    3    0  502 -0.71259553734E+03 -0.12515021780E+04 -0.12074024053E+04  0.18793271881E+04  0.10100000352E+00 0. -1.
</event>
<event>
 5   0  0.1034683E-06  0.3790978E+04  0.7818609E-02  0.8048094E-01
       -2   -1    0    0    0  501  0.00000000000E+00  0.00000000000E+00  0.24934021882E+04  0.24934021883E+04  0.25500000920E-02 0. -1.
        2   -1    0    0  501    0  0.00000000000E+00  0.00000000000E+00 -0.14409542381E+04  0.14409542381E+04  0.25500000920E-02 0.  1.
    10030    2    1    2    0    0  0.00000000000E+00  0.00000000000E+00  0.10524479502E+04  0.39343564263E+04  0.37909779479E+04 0.  0.
        2    1    3    3  502    0  0.95837577450E+03  0.15949091205E+04  0.15108474886E+03  0.18668277449E+04  0.25500000920E-02 0.  1.
       -2    1    3    3    0  502 -0.95837577450E+03 -0.15949091205E+04  0.90136320133E+03  0.20675286814E+04  0.25500000920E-02 0. -1.
</event>
<event>
 5   0  0.1034683E-06  0.3743812E+04  0.7818609E-02  0.8058321E-01
        2   -1    0    0  501    0  0.00000000000E+00  0.00000000000E+00  0.24319434882E+04  0.24319434882E+04  0.25500000920E-02 0. -1.
       -2   -1    0    0    0  501  0.00000000000E+00  0.00000000000E+00 -0.14408363388E+04  0.14408363388E+04  0.25500000920E-02 0.  1.
    10030    2    1    2    0    0  0.00000000000E+00  0.00000000000E+00  0.99110714938E+03  0.38727798270E+04  0.37438122559E+04 0.  0.
        2    1    3    3  502    0  0.18596546726E+03  0.29105259598E+03  0.23986958672E+04  0.24234348829E+04  0.25500000920E-02 0. -1.
       -2    1    3    3    0  502 -0.18596546726E+03 -0.29105259598E+03 -0.14075887178E+04  0.14493449441E+04  0.25500000920E-02 0.  1.
</event>
<event>
 5   0  0.1015219E-06  0.2071851E+04  0.7818609E-02  0.8573746E-01
        2   -1    0    0  501    0  0.00000000000E+00  0.00000000000E+00  0.72193922707E+03  0.72193922708E+03  0.25500000920E-02 0. -1.
       -2   -1    0    0    0  501  0.00000000000E+00  0.00000000000E+00 -0.14864709771E+04  0.14864709771E+04  0.25500000920E-02 0.  1.
    10030    2    1    2    0    0  0.00000000000E+00  0.00000000000E+00 -0.76453175004E+03  0.22084102042E+04  0.20718510644E+04 0.  0.
        3    1    3    3  502    0 -0.29131199546E+03  0.90071232116E+03  0.66173096500E+02  0.94895956346E+03  0.10100000352E+00 0. -1.
       -3    1    3    3    0  502  0.29131199546E+03 -0.90071232116E+03 -0.83070484654E+03  0.12594506407E+04  0.10100000352E+00 0.  1.
</event>
<event>
 5   0  0.7268013E-07  0.3919704E+04  0.7818609E-02  0.8020944E-01
       -2   -1    0    0    0  501  0.00000000000E+00  0.00000000000E+00  0.16386832782E+04  0.16386832782E+04  0.25500000920E-02 0.  1.
        2   -1    0    0  501    0  0.00000000000E+00  0.00000000000E+00 -0.23439667650E+04  0.23439667650E+04  0.25500000920E-02 0. -1.
    10030    2    1    2    0    0  0.00000000000E+00  0.00000000000E+00 -0.70528348678E+03  0.39826500433E+04  0.39197036330E+04 0.  0.
        4    1    3    3  502    0  0.13853638267E+04 -0.13426849783E+04 -0.70311824251E+03  0.20533905520E+04  0.12699999809E+01 0. -1.
       -4    1    3    3    0  502 -0.13853638267E+04  0.13426849783E+04 -0.21652442728E+01  0.19292594912E+04  0.12699999809E+01 0.  1.
</event>
<event>
 5   0  0.1034683E-06  0.3169040E+04  0.7818609E-02  0.8197042E-01
        2   -1    0    0  501    0  0.00000000000E+00  0.00000000000E+00  0.21774104757E+04  0.21774104757E+04  0.25500000920E-02 0. -1.
       -2   -1    0    0    0  501  0.00000000000E+00  0.00000000000E+00 -0.11530685956E+04  0.11530685956E+04  0.25500000920E-02 0.  1.
    10030    2    1    2    0    0  0.00000000000E+00  0.00000000000E+00  0.10243418802E+04  0.33304790713E+04  0.31690400056E+04 0.  0.
        2    1    3    3  502    0  0.13564516511E+04  0.29421718822E+03  0.13154230680E+04  0.19122925203E+04  0.25500000920E-02 0. -1.
       -2    1    3    3    0  502 -0.13564516511E+04 -0.29421718822E+03 -0.29108118784E+03  0.14181865510E+04  0.25500000920E-02 0.  1.
</event>
<event>
 5   0  0.5533705E-07  0.3889997E+04  0.7818609E-02  0.8027113E-01
       -2   -1    0    0    0  501  0.00000000000E+00  0.00000000000E+00  0.11792703707E+04  0.11792703707E+04  0.25500000920E-02 0. -1.
        2   -1    0    0  501    0  0.00000000000E+00  0.00000000000E+00 -0.32079325623E+04  0.32079325623E+04  0.25500000920E-02 0.  1.
    10030    2    1    2    0    0  0.00000000000E+00  0.00000000000E+00 -0.20286621916E+04  0.43872029330E+04  0.38899973377E+04 0.  0.
        1    1    3    3  502    0 -0.13719018995E+04 -0.13626828562E+04 -0.12509050321E+04  0.23029943091E+04  0.50400001928E-02 0. -1.
       -1    1    3    3    0  502  0.13719018995E+04  0.13626828562E+04 -0.77775715946E+03  0.20842086238E+04  0.50400001928E-02 0.  1.
</event>
<event>
 5   0  0.4316671E-07  0.2120011E+04  0.7818609E-02  0.8552479E-01
       -1   -1    0    0    0  501  0.00000000000E+00  0.00000000000E+00  0.72015434453E+03  0.72015434455E+03  0.50400001928E-02 0. -1.
        1   -1    0    0  501    0  0.00000000000E+00  0.00000000000E+00 -0.15602372347E+04  0.15602372347E+04  0.50400001928E-02 0.  1.
    10030    2    1    2    0    0  0.00000000000E+00  0.00000000000E+00 -0.84008289020E+03  0.22803915793E+04  0.21200109652E+04 0.  0.
        2    1    3    3  502    0  0.65412630560E+03  0.77231326582E+03 -0.75893568399E+03  0.12650424407E+04  0.25500000920E-02 0.  1.
       -2    1    3    3    0  502 -0.65412630560E+03 -0.77231326582E+03 -0.81147206211E+02  0.10153491386E+04  0.25500000920E-02 0. -1.
</event>
<event>
 5   0  0.3977376E-07  0.2148573E+04  0.7818609E-02  0.8540143E-01
        1   -1    0    0  501    0  0.00000000000E+00  0.00000000000E+00  0.12318548136E+04  0.12318548136E+04  0.50400001928E-02 0. -1.
       -1   -1    0    0    0  501  0.00000000000E+00  0.00000000000E+00 -0.93687283128E+03  0.93687283129E+03  0.50400001928E-02 0.  1.
    10030    2    1    2    0    0  0.00000000000E+00  0.00000000000E+00  0.29498198232E+03  0.21687276449E+04  0.21485728351E+04 0.  0.
        4    1    3    3  502    0 -0.64562627926E+03  0.61735883521E+03  0.74985060054E+03  0.11662944568E+04  0.12699999809E+01 0. -1.
       -4    1    3    3    0  502  0.64562627926E+03 -0.61735883521E+03 -0.45486861822E+03  0.10024331881E+04  0.12699999809E+01 0.  1.
</event>
<event>
 5   0  0.3977376E-07  0.4080579E+04  0.7818609E-02  0.7988486E-01
       -1   -1    0    0    0  501  0.00000000000E+00  0.00000000000E+00  0.19886241984E+04  0.19886241984E+04  0.50400001928E-02 0. -1.
        1   -1    0    0  501    0  0.00000000000E+00  0.00000000000E+00 -0.20932970051E+04  0.20932970052E+04  0.50400001928E-02 0.  1.
    10030    2    1    2    0    0  0.00000000000E+00  0.00000000000E+00 -0.10467280678E+03  0.40819212035E+04  0.40805789191E+04 0.  0.
        4    1    3    3  502    0 -0.18623722913E+04 -0.28513669249E+03 -0.83556648695E+03  0.20610449902E+04  0.12699999809E+01 0.  1.
       -4    1    3    3    0  502  0.18623722913E+04  0.28513669249E+03  0.73089368016E+03  0.20208762133E+04  0.12699999809E+01 0. -1.
</event>
<event>
 5   0  0.7268013E-07  0.3912477E+04  0.7818609E-02  0.8022439E-01
        2   -1    0    0  501    0  0.00000000000E+00  0.00000000000E+00  0.10417284105E+04  0.10417284105E+04  0.25500000920E-02 0. -1.
       -2   -1    0    0    0  501  0.00000000000E+00  0.00000000000E+00 -0.36735761041E+04  0.36735761041E+04  0.25500000920E-02 0.  1.
    10030    2    1    2    0    0  0.00000000000E+00  0.00000000000E+00 -0.26318476935E+04  0.47153045146E+04  0.39124767582E+04 0.  0.
        4    1    3    3  502    0 -0.41895532932E+03 -0.19081171369E+04 -0.11928260630E+04  0.22889452168E+04  0.12699999809E+01 0.  1.
       -4    1    3    3    0  502  0.41895532932E+03  0.19081171369E+04 -0.14390216305E+04  0.24263592978E+04  0.12699999809E+01 0. -1.
</event>
<event>
 5   0  0.3471602E-07  0.3325320E+04  0.7818609E-02  0.8156483E-01
        1   -1    0    0  501    0  0.00000000000E+00  0.00000000000E+00  0.27031217421E+04  0.27031217421E+04  0.50400001928E-02 0.  1.
       -1   -1    0    0    0  501  0.00000000000E+00  0.00000000000E+00 -0.10226833182E+04  0.10226833182E+04  0.50400001928E-02 0. -1.
    10030    2    1    2    0    0  0.00000000000E+00  0.00000000000E+00  0.16804384238E+04  0.37258050603E+04  0.33253195412E+04 0.  0.
        5    1    3    3  502    0  0.85036906767E+03  0.32184521035E+03  0.23998809181E+04  0.25663519637E+04  0.46999998093E+01 0.  1.
       -5    1    3    3    0  502 -0.85036906767E+03 -0.32184521035E+03 -0.71944249426E+03  0.11594530966E+04  0.46999998093E+01 0. -1.
</event>
<event>
 5   0  0.1035864E-06  0.2016373E+04  0.7818609E-02  0.8599004E-01
       -2   -1    0    0    0  501  0.00000000000E+00  0.00000000000E+00  0.47952677987E+03  0.47952677988E+03  0.25500000920E-02 0.  1.
        2   -1    0    0  501    0  0.00000000000E+00  0.00000000000E+00 -0.21196722782E+04  0.21196722782E+04  0.25500000920E-02 0. -1.
    10030    2    1    2    0    0  0.00000000000E+00  0.00000000000E+00 -0.16401454984E+04  0.25991990581E+04  0.20163726064E+04 0.  0.
        5    1    3    3  502    0  0.76671074719E+03  0.19682887454E+03 -0.15238051723E+02  0.79173307619E+03  0.46999998093E+01 0.  1.
       -5    1    3    3    0  502 -0.76671074719E+03 -0.19682887454E+03 -0.16249074466E+04  0.18074659819E+04  0.46999998093E+01 0. -1.
</event>
<event>
 5   0  0.3977376E-07  0.3879765E+04  0.7818609E-02  0.8029251E-01
       -1   -1    0    0    0  501  0.00000000000E+00  0.00000000000E+00  0.14984353730E+04  0.14984353730E+04  0.50400001928E-02 0.  1.
        1   -1    0    0  501    0  0.00000000000E+00  0.00000000000E+00 -0.25113822768E+04  0.25113822768E+04  0.50400001928E-02 0. -1.
    10030    2    1    2    0    0  0.00000000000E+00  0.00000000000E+00 -0.10129469039E+04  0.40098176498E+04  0.38797649613E+04 0.  0.
        4    1    3    3  502    0  0.49677857214E+03 -0.16271112277E+04  0.45690014729E+03  0.17615445650E+04  0.12699999809E+01 0.  1.
       -4    1    3    3    0  502 -0.49677857214E+03  0.16271112277E+04 -0.14698470512E+04  0.22482730848E+04  0.12699999809E+01 0. -1.
</event>
<event>
 5   0  0.3977376E-07  0.3716086E+04  0.7818609E-02  0.8064406E-01
       -1   -1    0    0    0  501  0.00000000000E+00  0.00000000000E+00  0.24421065338E+04  0.24421065338E+04  0.50400001928E-02 0. -1.
        1   -1    0    0  501    0  0.00000000000E+00  0.00000000000E+00 -0.14136663186E+04  0.14136663186E+04  0.50400001928E-02 0.  1.
    10030    2    1    2    0    0  0.00000000000E+00  0.00000000000E+00  0.10284402152E+04  0.38557728524E+04  0.37160859803E+04 0.  0.
        4    1    3    3  502    0 -0.87325447671E+03  0.32883641925E+02  0.22155723199E+04  0.23816836550E+04  0.12699999809E+01 0. -1.
       -4    1    3    3    0  502  0.87325447671E+03 -0.32883641925E+02 -0.11871321047E+04  0.14740891974E+04  0.12699999809E+01 0.  1.
</event>
<event>
 5   0  0.6081746E-07  0.2094900E+04  0.7818609E-02  0.8563493E-01
       -2   -1    0    0    0  501  0.00000000000E+00  0.00000000000E+00  0.55490938985E+03  0.55490938986E+03  0.25500000920E-02 0.  1.
        2   -1    0    0  501    0  0.00000000000E+00  0.00000000000E+00 -0.19771716045E+04  0.19771716045E+04  0.25500000920E-02 0. -1.
    10030    2    1    2    0    0  0.00000000000E+00  0.00000000000E+00 -0.14222622147E+04  0.25320809944E+04  0.20948996050E+04 0.  0.
        1    1    3    3  502    0 -0.50946386483E+03  0.48874970368E+03 -0.16463790560E+04  0.17913664333E+04  0.50400001928E-02 0. -1.
       -1    1    3    3    0  502  0.50946386483E+03 -0.48874970368E+03  0.22411684130E+03  0.74071456108E+03  0.50400001928E-02 0.  1.
</event>
<event>
 5   0  0.1035864E-06  0.3655115E+04  0.7818609E-02  0.8077982E-01
        2   -1    0    0  501    0  0.00000000000E+00  0.00000000000E+00  0.25352956974E+04  0.25352956974E+04  0.25500000920E-02 0.  1.
       -2   -1    0    0    0  501  0.00000000000E+00  0.00000000000E+00 -0.13173874337E+04  0.13173874337E+04  0.25500000920E-02 0. -1.
    10030    2    1    2    0    0  0.00000000000E+00  0.00000000000E+00  0.12179082637E+04  0.38526831312E+04  0.36551151515E+04 0.  0.
        5    1    3    3  502    0 -0.12995084689E+04 -0.64429290808E+03 -0.56294601954E+03  0.15558810761E+04  0.46999998093E+01 0. -1.
       -5    1    3    3    0  502  0.12995084689E+04  0.64429290808E+03  0.17808542832E+04  0.22968020551E+04  0.46999998093E+01 0.  1.
</event>
<event>
 5   0  0.5533705E-07  0.1988744E+04  0.7818609E-02  0.8611901E-01
        2   -1    0    0  501    0  0.00000000000E+00  0.00000000000E+00  0.11483247299E+04  0.11483247299E+04  0.25500000920E-02 0.  1.
       -2   -1    0    0    0  501  0.00000000000E+00  0.00000000000E+00 -0.86105964750E+03  0.86105964751E+03  0.25500000920E-02 0. -1.
    10030    2    1    2    0    0  0.00000000000E+00  0.00000000000E+00  0.28726508241E+03  0.20093843774E+04  0.19887444151E+04 0.  0.
        1    1    3    3  502    0  0.10942023331E+03 -0.53913648351E+03 -0.69329697227E+03  0.88504329109E+03  0.50400001928E-02 0. -1.
       -1    1    3    3    0  502 -0.10942023331E+03  0.53913648351E+03  0.98056205468E+03  0.11243410863E+04  0.50400001928E-02 0.  1.
</event>
<event>
 5   0  0.3191750E-07  0.3945318E+04  0.7818609E-02  0.8015669E-01
       -3   -1    0    0    0  501  0.00000000000E+00  0.00000000000E+00  0.21487487622E+04  0.21487487646E+04  0.10100000352E+00 0.  1.
        3   -1    0    0  501    0  0.00000000000E+00  0.00000000000E+00 -0.18109996693E+04  0.18109996721E+04  0.10100000352E+00 0. -1.
    10030    2    1    2    0    0  0.00000000000E+00  0.00000000000E+00  0.33774909293E+03  0.39597484367E+04  0.39453178873E+04 0.  0.
        2    1    3    3  502    0  0.18490923821E+04 -0.45128462387E+02  0.85709693543E+03  0.20385765554E+04  0.25500000920E-02 0.  1.
       -2    1    3    3    0  502 -0.18490923821E+04  0.45128462387E+02 -0.51934784250E+03  0.19211718812E+04  0.25500000920E-02 0. -1.
</event>
<event>
 5   0  0.6843467E-07  0.1917316E+04  0.7818609E-02  0.8646285E-01
        2   -1    0    0  501    0  0.00000000000E+00  0.00000000000E+00  0.84464032244E+03  0.84464032244E+03  0.25500000920E-02 0. -1.
       -2   -1    0    0    0  501  0.00000000000E+00  0.00000000000E+00 -0.10880670460E+04  0.10880670460E+04  0.25500000920E-02 0.  1.
    10030    2    1    2    0    0  0.00000000000E+00  0.00000000000E+00 -0.24342672352E+03  0.19327073684E+04  0.19173161456E+04 0.  0.
        1    1    3    3  502    0 -0.52786550274E+03 -0.55406649999E+03  0.46032420790E+03  0.89304538059E+03  0.50400001928E-02 0. -1.
       -1    1    3    3    0  502  0.52786550274E+03  0.55406649999E+03 -0.70375093142E+03  0.10396619878E+04  0.50400001928E-02 0.  1.
</event>
<event>
 5   0  0.4627905E-07  0.3900670E+04  0.7818609E-02  0.8024890E-01
        1   -1    0    0  501    0  0.00000000000E+00  0.00000000000E+00  0.19453304292E+04  0.19453304292E+04  0.50400001928E-02 0. -1.
       -1   -1    0    0    0  501  0.00000000000E+00  0.00000000000E+00 -0.19553521286E+04  0.19553521287E+04  0.50400001928E-02 0.  1.
    10030    2    1    2    0    0  0.00000000000E+00  0.00000000000E+00 -0.10021699417E+02  0.39006825579E+04  0.39006696839E+04 0.  0.
        1    1    3    3  502    0 -0.50456443804E+02 -0.18443694954E+04  0.62709985647E+03  0.19487172495E+04  0.50400001928E-02 0. -1.
       -1    1    3    3    0  502  0.50456443804E+02  0.18443694954E+04 -0.63712155589E+03  0.19519653084E+04  0.50400001928E-02 0.  1.
</event>
<event>
 5   0  0.3471602E-07  0.4140324E+04  0.7818609E-02  0.7976822E-01
       -1   -1    0    0    0  501  0.00000000000E+00  0.00000000000E+00  0.19275854198E+04  0.19275854198E+04  0.50400001928E-02 0.  1.
        1   -1    0    0  501    0  0.00000000000E+00  0.00000000000E+00 -0.22232840155E+04  0.22232840155E+04  0.50400001928E-02 0. -1.
    10030    2    1    2    0    0  0.00000000000E+00  0.00000000000E+00 -0.29569859566E+03  0.41508694353E+04  0.41403235875E+04 0.  0.
        5    1    3    3  502    0 -0.16955428484E+04 -0.11805221818E+04 -0.16942633594E+02  0.20661092215E+04  0.46999998093E+01 0. -1.
       -5    1    3    3    0  502  0.16955428484E+04  0.11805221818E+04 -0.27875596207E+03  0.20847602138E+04  0.46999998093E+01 0.  1.
</event>
<event>
 5   0  0.1015219E-06  0.2436535E+04  0.7818609E-02  0.8425951E-01
        2   -1    0    0  501    0  0.00000000000E+00  0.00000000000E+00  0.21382763479E+04  0.21382763479E+04  0.25500000920E-02 0. -1.
       -2   -1    0    0    0  501  0.00000000000E+00  0.00000000000E+00 -0.69409902989E+03  0.69409902989E+03  0.25500000920E-02 0.  1.
    10030    2    1    2    0    0  0.00000000000E+00  0.00000000000E+00  0.14441773181E+04  0.28323753778E+04  0.24365348664E+04 0.  0.
        3    1    3    3  502    0  0.33739038079E+02  0.72854047733E+03 -0.41228808467E+03  0.83778936778E+03  0.10100000352E+00 0.  1.
       -3    1    3    3    0  502 -0.33739038079E+02 -0.72854047733E+03  0.18564654027E+04  0.19945860101E+04  0.10100000352E+00 0. -1.
</event>
<event>
 5   0  0.4627905E-07  0.3980572E+04  0.7818609E-02  0.8008477E-01
       -1   -1    0    0    0  501  0.00000000000E+00  0.00000000000E+00  0.35742800302E+04  0.35742800302E+04  0.50400001928E-02 0.  1.
        1   -1    0    0  501    0  0.00000000000E+00  0.00000000000E+00 -0.11082617601E+04  0.11082617601E+04  0.50400001928E-02 0. -1.
    10030    2    1    2    0    0  0.00000000000E+00  0.00000000000E+00  0.24660182701E+04  0.46825417903E+04  0.39805717566E+04 0.  0.
        1    1    3    3  502    0 -0.12176082511E+04  0.38764623254E+03 -0.56199251853E+03  0.13959495140E+04  0.50400001928E-02 0. -1.
       -1    1    3    3    0  502  0.12176082511E+04 -0.38764623254E+03  0.30280107886E+04  0.32865922763E+04  0.50400001928E-02 0.  1.
</event>
<event>
 5   0  0.1035864E-06  0.3867729E+04  0.7818609E-02  0.8031775E-01
        2   -1    0    0  501    0  0.00000000000E+00  0.00000000000E+00  0.21920063922E+04  0.21920063922E+04  0.25500000920E-02 0. -1.
       -2   -1    0    0    0  501  0.00000000000E+00  0.00000000000E+00 -0.17061226655E+04  0.17061226655E+04  0.25500000920E-02 0.  1.
    10030    2    1    2    0    0  0.00000000000E+00  0.00000000000E+00  0.48588372667E+03  0.38981290577E+04  0.38677289402E+04 0.  0.
        5    1    3    3  502    0  0.17892891652E+03 -0.87729609666E+03 -0.14846328856E+04  0.17337303404E+04  0.46999998093E+01 0.  1.
       -5    1    3    3    0  502 -0.17892891652E+03  0.87729609666E+03  0.19705166122E+04  0.21643987173E+04  0.46999998093E+01 0. -1.
</event>
<event>
 5   0  0.1034683E-06  0.2135324E+04  0.7818609E-02  0.8545841E-01
        2   -1    0    0  501    0  0.00000000000E+00  0.00000000000E+00  0.82753729638E+03  0.82753729638E+03  0.25500000920E-02 0.  1.
       -2   -1    0    0    0  501  0.00000000000E+00  0.00000000000E+00 -0.13774632018E+04  0.13774632018E+04  0.25500000920E-02 0. -1.
    10030    2    1    2    0    0  0.00000000000E+00  0.00000000000E+00 -0.54992590544E+03  0.22050004982E+04  0.21353240259E+04 0.  0.
        2    1    3    3  502    0 -0.14658059620E+03  0.15667332003E+03 -0.13549728023E+04  0.13718541086E+04  0.25500000920E-02 0. -1.
       -2    1    3    3    0  502  0.14658059620E+03 -0.15667332003E+03  0.80504689683E+03  0.83314638960E+03  0.25500000920E-02 0.  1.
</event>
<event>
 5   0  0.1034683E-06  0.3293620E+04  0.7818609E-02  0.8164521E-01
        2   -1    0    0  501    0  0.00000000000E+00  0.00000000000E+00  0.21987904847E+04  0.21987904847E+04  0.25500000920E-02 0. -1.
       -2   -1    0    0    0  501  0.00000000000E+00  0.00000000000E+00 -0.12333978133E+04  0.12333978133E+04  0.25500000920E-02 0.  1.
    10030    2    1    2    0    0  0.00000000000E+00  0.00000000000E+00  0.96539267141E+03  0.34321882979E+04  0.32936201212E+04 0.  0.
        2    1    3    3  502    0 -0.14647153212E+04 -0.74555723785E+03  0.37471835443E+03  0.16857225193E+04  0.25500000920E-02 0.  1.
       -2    1    3    3    0  502  0.14647153212E+04  0.74555723785E+03  0.59067431698E+03  0.17464657786E+04  0.25500000920E-02 0. -1.
</event>
<event>
 5   0  0.7268013E-07  0.3835395E+04  0.7818609E-02  0.8038602E-01
        2   -1    0    0  501    0  0.00000000000E+00  0.00000000000E+00  0.28908177728E+04  0.28908177728E+04  0.25500000920E-02 0.  1.
       -2   -1    0    0    0  501  0.00000000000E+00  0.00000000000E+00 -0.12721532202E+04  0.12721532202E+04  0.25500000920E-02 0. -1.
    10030    2    1    2    0    0  0.00000000000E+00  0.00000000000E+00  0.16186645526E+04  0.41629709929E+04  0.38353947065E+04 0.  0.
        4    1    3    3  502    0 -0.14735001075E+03  0.36065621791E+03  0.28474098743E+04  0.28739397242E+04  0.12699999809E+01 0.  1.
       -4    1    3    3    0  502  0.14735001075E+03 -0.36065621791E+03 -0.12287453217E+04  0.12890312687E+04  0.12699999809E+01 0. -1.
</event>
<event>
 5   0  0.5533705E-07  0.3870341E+04  0.7818609E-02  0.8031226E-01
        2   -1    0    0  501    0  0.00000000000E+00  0.00000000000E+00  0.19103130820E+04  0.19103130820E+04  0.25500000920E-02 0. -1.
       -2   -1    0    0    0  501  0.00000000000E+00  0.00000000000E+00 -0.19603509149E+04  0.19603509149E+04  0.25500000920E-02 0.  1.
    10030    2    1    2    0    0  0.00000000000E+00  0.00000000000E+00 -0.50037832839E+02  0.38706639969E+04  0.38703405525E+04 0.  0.
        1    1    3    3  502    0 -0.15200125111E+04 -0.10555519588E+04  0.54094005407E+03  0.19280155896E+04  0.50400001928E-02 0. -1.
       -1    1    3    3    0  502  0.15200125111E+04  0.10555519588E+04 -0.59097788691E+03  0.19426484073E+04  0.50400001928E-02 0.  1.
</event>
<event>
 5   0  0.1035864E-06  0.3933616E+04  0.7818609E-02  0.8018074E-01
        2   -1    0    0  501    0  0.00000000000E+00  0.00000000000E+00  0.20766415892E+04  0.20766415892E+04  0.25500000920E-02 0.  1.
       -2   -1    0    0    0  501  0.00000000000E+00  0.00000000000E+00 -0.18627838964E+04  0.18627838964E+04  0.25500000920E-02 0. -1.
    10030    2    1    2    0    0  0.00000000000E+00  0.00000000000E+00  0.21385769280E+03  0.39394254856E+04  0.39336164078E+04 0.  0.
        5    1    3    3  502    0  0.77121259030E+03 -0.17267735294E+04 -0.43405101806E+03  0.19403448296E+04  0.46999998093E+01 0. -1.
       -5    1    3    3    0  502 -0.77121259030E+03  0.17267735294E+04  0.64790871086E+03  0.19990806560E+04  0.46999998093E+01 0.  1.
</event>
<event>
 5   0  0.1633549E-06  0.1921933E+04  0.7818609E-02  0.8644015E-01
        2   -1    0    0  501    0  0.00000000000E+00  0.00000000000E+00  0.10018125747E+04  0.10018125747E+04  0.25500000920E-02 0. -1.
       -2   -1    0    0    0  501  0.00000000000E+00  0.00000000000E+00 -0.92178565171E+03  0.92178565171E+03  0.25500000920E-02 0.  1.
    10030    2    1    2    0    0  0.00000000000E+00  0.00000000000E+00  0.80026922966E+02  0.19235982264E+04  0.19219328365E+04 0.  0.
        4    1    3    3  502    0  0.50825752543E+02  0.94397087666E+02  0.99580733199E+03  0.10015627402E+04  0.12699999809E+01 0. -1.
       -4    1    3    3    0  502 -0.50825752543E+02 -0.94397087666E+02 -0.91578040903E+03  0.92203548616E+03  0.12699999809E+01 0.  1.
</event>
<event>
 5   0  0.5533705E-07  0.2856926E+04  0.7818609E-02  0.8285810E-01
       -2   -1    0    0    0  501  0.00000000000E+00  0.00000000000E+00  0.11555888092E+04  0.11555888092E+04  0.25500000920E-02 0.  1.
        2   -1    0    0  501    0  0.00000000000E+00  0.00000000000E+00 -0.17657724178E+04  0.17657724178E+04  0.25500000920E-02 0. -1.
    10030    2    1    2    0    0  0.00000000000E+00  0.00000000000E+00 -0.61018360862E+03  0.29213612270E+04  0.28569262123E+04 0.  0.
        1    1    3    3  502    0  0.12463749298E+04 -0.16560441696E+03 -0.99834384457E+03  0.16054799035E+04  0.50400001928E-02 0. -1.
       -1    1    3    3    0  502 -0.12463749298E+04  0.16560441696E+03  0.38816023595E+03  0.13158813235E+04  0.50400001928E-02 0.  1.
</event>
<event>
 5   0  0.4627905E-07  0.1973801E+04  0.7818609E-02  0.8618968E-01
        1   -1    0    0  501    0  0.00000000000E+00  0.00000000000E+00  0.80155380079E+03  0.80155380080E+03  0.50400001928E-02 0.  1.
       -1   -1    0    0    0  501  0.00000000000E+00  0.00000000000E+00 -0.12151058336E+04  0.12151058337E+04  0.50400001928E-02 0. -1.
    10030    2    1    2    0    0  0.00000000000E+00  0.00000000000E+00 -0.41355203286E+03  0.20166596345E+04  0.19738011038E+04 0.  0.
        1    1    3    3  502    0  0.92100445834E+02  0.98150569907E+03 -0.15954708762E+03  0.99864468287E+03  0.50400001928E-02 0. -1.
       -1    1    3    3    0  502 -0.92100445834E+02 -0.98150569907E+03 -0.25400494523E+03  0.10180149516E+04  0.50400001928E-02 0.  1.
</event>
<event>
 5   0  0.1015219E-06  0.3947627E+04  0.7818609E-02  0.8015196E-01
       -2   -1    0    0    0  501  0.00000000000E+00  0.00000000000E+00  0.35498998750E+04  0.35498998750E+04  0.25500000920E-02 0.  1.
        2   -1    0    0  501    0  0.00000000000E+00  0.00000000000E+00 -0.10974785834E+04  0.10974785834E+04  0.25500000920E-02 0. -1.
    10030    2    1    2    0    0  0.00000000000E+00  0.00000000000E+00  0.24524212916E+04  0.46473784583E+04  0.39476266722E+04 0.  0.
        3    1    3    3  502    0  0.17987383905E+04  0.77151952636E+03  0.15269003928E+04  0.24823631879E+04  0.10100000352E+00 0. -1.
       -3    1    3    3    0  502 -0.17987383905E+04 -0.77151952636E+03  0.92552089879E+03  0.21650152704E+04  0.10100000352E+00 0.  1.
</event>
<event>
 5   0  0.4316671E-07  0.3363314E+04  0.7818609E-02  0.8146969E-01
        1   -1    0    0  501    0  0.00000000000E+00  0.00000000000E+00  0.17494986428E+04  0.17494986428E+04  0.50400001928E-02 0.  1.
       -1   -1    0    0    0  501  0.00000000000E+00  0.00000000000E+00 -0.16164459147E+04  0.16164459147E+04  0.50400001928E-02 0. -1.
    10030    2    1    2    0    0  0.00000000000E+00  0.00000000000E+00  0.13305272818E+03  0.33659445575E+04  0.33633138027E+04 0.  0.
        2    1    3    3  502    0 -0.40716234874E+03 -0.17303951434E+03  0.16902152298E+04  0.17471552234E+04  0.25500000920E-02 0.  1.
       -2    1    3    3    0  502  0.40716234874E+03  0.17303951434E+03 -0.15571625016E+04  0.16187893341E+04  0.25500000920E-02 0. -1.
</event>
<event>
 5   0  0.5533705E-07  0.3927596E+04  0.7818609E-02  0.8019314E-01
        2   -1    0    0  501    0  0.00000000000E+00  0.00000000000E+00  0.16058158966E+04  0.16058158966E+04  0.25500000920E-02 0. -1.
       -2   -1    0    0    0  501  0.00000000000E+00  0.00000000000E+00 -0.24015839555E+04  0.24015839555E+04  0.25500000920E-02 0.  1.
    10030    2    1    2    0    0  0.00000000000E+00  0.00000000000E+00 -0.79576805890E+03  0.40073998520E+04  0.39275955457E+04 0.  0.
        1    1    3    3  502    0 -0.27751589457E+03 -0.12895855902E+04  0.10864802775E+04  0.17089427900E+04  0.50400001928E-02 0. -1.
       -1    1    3    3    0  502  0.27751589457E+03  0.12895855902E+04 -0.18822483364E+04  0.22984570620E+04  0.50400001928E-02 0.  1.
</event>
<event>
 5   0  0.1034683E-06  0.2473899E+04  0.7818609E-02  0.8412344E-01
        2   -1    0    0  501    0  0.00000000000E+00  0.00000000000E+00  0.14161194365E+04  0.14161194365E+04  0.25500000920E-02 0. -1.
       -2   -1    0    0    0  501  0.00000000000E+00  0.00000000000E+00 -0.10804485009E+04  0.10804485009E+04  0.25500000920E-02 0.  1.
    10030    2    1    2    0    0  0.00000000000E+00  0.00000000000E+00  0.33567093563E+03  0.24965679373E+04  0.24738990458E+04 0.  0.
        2    1    3    3  502    0  0.86878805815E+03 -0.87877830280E+03  0.22311078126E+03  0.12557158979E+04  0.25500000920E-02 0. -1.
       -2    1    3    3    0  502 -0.86878805815E+03  0.87877830280E+03  0.11256015437E+03  0.12408520395E+04  0.25500000920E-02 0.  1.
</event>
<event>
 5   0  0.3471602E-07  0.1954278E+04  0.7818609E-02  0.8628301E-01
       -1   -1    0    0    0  501  0.00000000000E+00  0.00000000000E+00  0.11422472363E+04  0.11422472363E+04  0.50400001928E-02 0. -1.
        1   -1    0    0  501    0  0.00000000000E+00  0.00000000000E+00 -0.83589678261E+03  0.83589678263E+03  0.50400001928E-02 0.  1.
    10030    2    1    2    0    0  0.00000000000E+00  0.00000000000E+00  0.30635045366E+03  0.19781440189E+04  0.19542781683E+04 0.  0.
        5    1    3    3  502    0 -0.10072183958E+03  0.67813078929E+03 -0.55158354351E+03  0.87992769693E+03  0.46999998093E+01 0.  1.
       -5    1    3    3    0  502  0.10072183958E+03 -0.67813078929E+03  0.85793399717E+03  0.10982163220E+04  0.46999998093E+01 0. -1.
</event>
<event>
 5   0  0.7268013E-07  0.2092298E+04  0.7818609E-02  0.8564644E-01
       -2   -1    0    0    0  501  0.00000000000E+00  0.00000000000E+00  0.60816287891E+03  0.60816287891E+03  0.25500000920E-02 0.  1.
        2   -1    0    0  501    0  0.00000000000E+00  0.00000000000E+00 -0.17995629849E+04  0.17995629849E+04  0.25500000920E-02 0. -1.
    10030    2    1    2    0    0  0.00000000000E+00  0.00000000000E+00 -0.11914001060E+04  0.24077258638E+04  0.20922976898E+04 0.  0.
        4    1    3    3  502    0  0.50137067594E+03 -0.37981791013E+03 -0.15576609048E+04  0.16798640739E+04  0.12699999809E+01 0. -1.
       -4    1    3    3    0  502 -0.50137067594E+03  0.37981791013E+03  0.36626079881E+03  0.72786178990E+03  0.12699999809E+01 0.  1.
</event>
<event>
 5   0  0.1015219E-06  0.3744915E+04  0.7818609E-02  0.8058080E-01
       -2   -1    0    0    0  501  0.00000000000E+00  0.00000000000E+00  0.18661405736E+04  0.18661405736E+04  0.25500000920E-02 0.  1.
        2   -1    0    0  501    0  0.00000000000E+00  0.00000000000E+00 -0.18787962498E+04  0.18787962498E+04  0.25500000920E-02 0. -1.
    10030    2    1    2    0    0  0.00000000000E+00  0.00000000000E+00 -0.12655676198E+02  0.37449368235E+04  0.37449154391E+04 0.  0.
        3    1    3    3  502    0 -0.36881983838E+03  0.11905561543E+04 -0.14037068747E+04  0.18771907281E+04  0.10100000352E+00 0. -1.
       -3    1    3    3    0  502  0.36881983838E+03 -0.11905561543E+04  0.13910511985E+04  0.18677460953E+04  0.10100000352E+00 0.  1.
</event>
<event>
 5   0  0.4316671E-07  0.3843211E+04  0.7818609E-02  0.8036945E-01
       -1   -1    0    0    0  501  0.00000000000E+00  0.00000000000E+00  0.15953718606E+04  0.15953718606E+04  0.50400001928E-02 0.  1.
        1   -1    0    0  501    0  0.00000000000E+00  0.00000000000E+00 -0.23145504310E+04  0.23145504310E+04  0.50400001928E-02 0. -1.
    10030    2    1    2    0    0  0.00000000000E+00  0.00000000000E+00 -0.71917857042E+03  0.39099222917E+04  0.38432114840E+04 0.  0.
        2    1    3    3  502    0  0.17080738377E+04 -0.86054225519E+03 -0.54860833945E+03  0.19897287046E+04  0.25500000920E-02 0. -1.
       -2    1    3    3    0  502 -0.17080738377E+04  0.86054225519E+03 -0.17057023097E+03  0.19201935870E+04  0.25500000920E-02 0.  1.
</event>
<event>
 5   0  0.5533705E-07  0.3901180E+04  0.7818609E-02  0.8024784E-01
        2   -1    0    0  501    0  0.00000000000E+00  0.00000000000E+00  0.24607863963E+04  0.24607863963E+04  0.25500000920E-02 0.  1.
       -2   -1    0    0    0  501  0.00000000000E+00  0.00000000000E+00 -0.15461727797E+04  0.15461727797E+04  0.25500000920E-02 0. -1.
    10030    2    1    2    0    0  0.00000000000E+00  0.00000000000E+00  0.91461361660E+03  0.40069591760E+04  0.39011797922E+04 0.  0.
        1    1    3    3  502    0 -0.11462688983E+04 -0.75796404345E+03  0.18791686341E+04  0.23280284865E+04  0.50400001928E-02 0.  1.
       -1    1    3    3    0  502  0.11462688983E+04  0.75796404345E+03 -0.96455501753E+03  0.16789306895E+04  0.50400001928E-02 0. -1.
</event>
<event>
 5   0  0.3191750E-07  0.4377746E+04  0.7818609E-02  0.7932397E-01
       -3   -1    0    0    0  501  0.00000000000E+00  0.00000000000E+00  0.21890870494E+04  0.21890870517E+04  0.10100000352E+00 0.  1.
        3   -1    0    0  501    0  0.00000000000E+00  0.00000000000E+00 -0.21886588343E+04  0.21886588366E+04  0.10100000352E+00 0. -1.
    10030    2    1    2    0    0  0.00000000000E+00  0.00000000000E+00  0.42821509583E+00  0.43777458883E+04  0.43777458674E+04 0.  0.
        3    1    3    3  502    0  0.98518592406E+03 -0.19492578210E+04 -0.14458696989E+03  0.21888587803E+04  0.10100000352E+00 0.  1.
       -3    1    3    3    0  502 -0.98518592406E+03  0.19492578210E+04  0.14501518498E+03  0.21888871081E+04  0.10100000352E+00 0. -1.
</event>
<event>
 5   0  0.4627905E-07  0.3826288E+04  0.7818609E-02  0.8040537E-01
        1   -1    0    0  501    0  0.00000000000E+00  0.00000000000E+00  0.21606322476E+04  0.21606322476E+04  0.50400001928E-02 0.  1.
       -1   -1    0    0    0  501  0.00000000000E+00  0.00000000000E+00 -0.16940045145E+04  0.16940045145E+04  0.50400001928E-02 0. -1.
    10030    2    1    2    0    0  0.00000000000E+00  0.00000000000E+00  0.46662773311E+03  0.38546367622E+04  0.38262884271E+04 0.  0.
        1    1    3    3  502    0 -0.44976907588E+03  0.47877419319E+03  0.20434579026E+04  0.21464475651E+04  0.50400001928E-02 0.  1.
       -1    1    3    3    0  502  0.44976907588E+03 -0.47877419319E+03 -0.15768301695E+04  0.17081891971E+04  0.50400001928E-02 0. -1.
</event>
<event>
 5   0  0.5385714E-07  0.2461922E+04  0.7818609E-02  0.8416678E-01
        1   -1    0    0  501    0  0.00000000000E+00  0.00000000000E+00  0.22067543106E+04  0.22067543106E+04  0.50400001928E-02 0.  1.
       -1   -1    0    0    0  501  0.00000000000E+00  0.00000000000E+00 -0.68664852897E+03  0.68664852899E+03  0.50400001928E-02 0. -1.
    10030    2    1    2    0    0  0.00000000000E+00  0.00000000000E+00  0.15201057816E+04  0.28934028395E+04  0.24619216894E+04 0.  0.
        3    1    3    3  502    0  0.55750639869E+02  0.71951945205E+03  0.19320478809E+04  0.20624319140E+04  0.10100000352E+00 0.  1.
       -3    1    3    3    0  502 -0.55750639869E+02 -0.71951945205E+03 -0.41194209929E+03  0.83097092554E+03  0.10100000352E+00 0. -1.
</event>
<event>
 5   0  0.3977376E-07  0.3595887E+04  0.7818609E-02  0.8091434E-01
        1   -1    0    0  501    0  0.00000000000E+00  0.00000000000E+00  0.23107649634E+04  0.23107649634E+04  0.50400001928E-02 0.  1.
       -1   -1    0    0    0  501  0.00000000000E+00  0.00000000000E+00 -0.13989314119E+04  0.13989314119E+04  0.50400001928E-02 0. -1.
    10030    2    1    2    0    0  0.00000000000E+00  0.00000000000E+00  0.91183355145E+03  0.37096963753E+04  0.35958874803E+04 0.  0.
        4    1    3    3  502    0 -0.11752171713E+03  0.43530685215E+02  0.23062529279E+04  0.23096559170E+04  0.12699999809E+01 0.  1.
       -4    1    3    3    0  502  0.11752171713E+03 -0.43530685215E+02 -0.13944193764E+04  0.14000404583E+04  0.12699999809E+01 0. -1.
</event>
<event>
 5   0  0.5533705E-07  0.3883997E+04  0.7818609E-02  0.8028366E-01
       -2   -1    0    0    0  501  0.00000000000E+00  0.00000000000E+00  0.23030439342E+04  0.23030439342E+04  0.25500000920E-02 0. -1.
        2   -1    0    0  501    0  0.00000000000E+00  0.00000000000E+00 -0.16375541421E+04  0.16375541421E+04  0.25500000920E-02 0.  1.
    10030    2    1    2    0    0  0.00000000000E+00  0.00000000000E+00  0.66548979215E+03  0.39405980763E+04  0.38839974943E+04 0.  0.
        1    1    3    3  502    0 -0.70659666353E+03 -0.39822830320E+03  0.21229683885E+04  0.22726327034E+04  0.50400001928E-02 0. -1.
       -1    1    3    3    0  502  0.70659666353E+03  0.39822830320E+03 -0.14574785963E+04  0.16679653729E+04  0.50400001928E-02 0.  1.
</event>
<event>
 5   0  0.5533705E-07  0.3806875E+04  0.7818609E-02  0.8044681E-01
        2   -1    0    0  501    0  0.00000000000E+00  0.00000000000E+00  0.10050999597E+04  0.10050999597E+04  0.25500000920E-02 0.  1.
       -2   -1    0    0    0  501  0.00000000000E+00  0.00000000000E+00 -0.36046909355E+04  0.36046909355E+04  0.25500000920E-02 0. -1.
    10030    2    1    2    0    0  0.00000000000E+00  0.00000000000E+00 -0.25995909758E+04  0.46097908952E+04  0.38068752089E+04 0.  0.
        1    1    3    3  502    0 -0.10396969994E+04 -0.62773176260E+03  0.47494785735E+03  0.13040676683E+04  0.50400001928E-02 0.  1.
       -1    1    3    3    0  502  0.10396969994E+04  0.62773176260E+03 -0.30745388331E+04  0.33057232269E+04  0.50400001928E-02 0. -1.
</event>
<event>
 5   0  0.1015219E-06  0.2439840E+04  0.7818609E-02  0.8424737E-01
       -2   -1    0    0    0  501  0.00000000000E+00  0.00000000000E+00  0.99351120662E+03  0.99351120662E+03  0.25500000920E-02 0.  1.
        2   -1    0    0  501    0  0.00000000000E+00  0.00000000000E+00 -0.14979249682E+04  0.14979249683E+04  0.25500000920E-02 0. -1.
    10030    2    1    2    0    0  0.00000000000E+00  0.00000000000E+00 -0.50441376163E+03  0.24914361749E+04  0.24398403576E+04 0.  0.
        3    1    3    3  502    0  0.77943981208E+03 -0.42188813824E+03 -0.11081994564E+04  0.14190215175E+04  0.10100000352E+00 0. -1.
       -3    1    3    3    0  502 -0.77943981208E+03  0.42188813824E+03  0.60378569478E+03  0.10724146573E+04  0.10100000352E+00 0.  1.
</event>
<event>
 5   0  0.4316671E-07  0.1983668E+04  0.7818609E-02  0.8614295E-01
       -1   -1    0    0    0  501  0.00000000000E+00  0.00000000000E+00  0.61588469763E+03  0.61588469765E+03  0.50400001928E-02 0. -1.
        1   -1    0    0  501    0  0.00000000000E+00  0.00000000000E+00 -0.15972704336E+04  0.15972704337E+04  0.50400001928E-02 0.  1.
    10030    2    1    2    0    0  0.00000000000E+00  0.00000000000E+00 -0.98138573602E+03  0.22131551313E+04  0.19836677324E+04 0.  0.
        2    1    3    3  502    0  0.89552707960E+03 -0.28996493174E+02 -0.16131846620E+02  0.89614160901E+03  0.25500000920E-02 0. -1.
       -2    1    3    3    0  502 -0.89552707960E+03  0.28996493174E+02 -0.96525388940E+03  0.13170135223E+04  0.25500000920E-02 0.  1.
</event>
<event>
 5   0  0.3977376E-07  0.3909214E+04  0.7818609E-02  0.8023116E-01
        1   -1    0    0  501    0  0.00000000000E+00  0.00000000000E+00  0.14893196594E+04  0.14893196594E+04  0.50400001928E-02 0. -1.
       -1   -1    0    0    0  501  0.00000000000E+00  0.00000000000E+00 -0.25652576582E+04  0.25652576582E+04  0.50400001928E-02 0.  1.
    10030    2    1    2    0    0  0.00000000000E+00  0.00000000000E+00 -0.10759379988E+04  0.40545773177E+04  0.39092140703E+04 0.  0.
        4    1    3    3  502    0 -0.42474272472E+03  0.12589490093E+04 -0.20248478279E+04  0.24218524582E+04  0.12699999809E+01 0. -1.
       -4    1    3    3    0  502  0.42474272472E+03 -0.12589490093E+04  0.94890982910E+03  0.16327248595E+04  0.12699999809E+01 0.  1.
</event>
<event>
 5   0  0.1034683E-06  0.3847215E+04  0.7818609E-02  0.8036098E-01
        2   -1    0    0  501    0  0.00000000000E+00  0.00000000000E+00  0.17665373292E+04  0.17665373292E+04  0.25500000920E-02 0.  1.
       -2   -1    0    0    0  501  0.00000000000E+00  0.00000000000E+00 -0.20946438123E+04  0.20946438123E+04  0.25500000920E-02 0. -1.
    10030    2    1    2    0    0  0.00000000000E+00  0.00000000000E+00 -0.32810648309E+03  0.38611811414E+04  0.38472153491E+04 0.  0.
        2    1    3    3  502    0  0.26386461506E+03 -0.10195198730E+04 -0.17796237695E+04  0.20678747707E+04  0.25500000920E-02 0. -1.
       -2    1    3    3    0  502 -0.26386461506E+03  0.10195198730E+04  0.14515172864E+04  0.17933063707E+04  0.25500000920E-02 0.  1.
</event>
<event>
 5   0  0.5533705E-07  0.3550754E+04  0.7818609E-02  0.8101866E-01
       -2   -1    0    0    0  501  0.00000000000E+00  0.00000000000E+00  0.14529975722E+04  0.14529975722E+04  0.25500000920E-02 0. -1.
        2   -1    0    0  501    0  0.00000000000E+00  0.00000000000E+00 -0.21692833969E+04  0.21692833969E+04  0.25500000920E-02 0.  1.
    10030    2    1    2    0    0  0.00000000000E+00  0.00000000000E+00 -0.71628582468E+03  0.36222809690E+04  0.35507540095E+04 0.  0.
        1    1    3    3  502    0  0.13633548314E+04  0.11352546483E+04 -0.42599589158E+03  0.18245580321E+04  0.50400001928E-02 0.  1.
       -1    1    3    3    0  502 -0.13633548314E+04 -0.11352546483E+04 -0.29028993310E+03  0.17977229370E+04  0.50400001928E-02 0. -1.
</event>
<event>
 5   0  0.4627905E-07  0.3740496E+04  0.7818609E-02  0.8059046E-01
       -1   -1    0    0    0  501  0.00000000000E+00  0.00000000000E+00  0.14456852525E+04  0.14456852525E+04  0.50400001928E-02 0. -1.
        1   -1    0    0  501    0  0.00000000000E+00  0.00000000000E+00 -0.24194948547E+04  0.24194948547E+04  0.50400001928E-02 0.  1.
    10030    2    1    2    0    0  0.00000000000E+00  0.00000000000E+00 -0.97380960223E+03  0.38651801072E+04  0.37404962398E+04 0.  0.
        1    1    3    3  502    0 -0.53850195166E+03 -0.15890204830E+04  0.36699238282E+03  0.17174556345E+04  0.50400001928E-02 0. -1.
       -1    1    3    3    0  502  0.53850195166E+03  0.15890204830E+04 -0.13408019851E+04  0.21477244727E+04  0.50400001928E-02 0.  1.
</event>
<event>
 5   0  0.1015219E-06  0.2719094E+04  0.7818609E-02  0.8328836E-01
       -2   -1    0    0    0  501  0.00000000000E+00  0.00000000000E+00  0.11355700034E+04  0.11355700034E+04  0.25500000920E-02 0.  1.
        2   -1    0    0  501    0  0.00000000000E+00  0.00000000000E+00 -0.16277012244E+04  0.16277012244E+04  0.25500000920E-02 0. -1.
    10030    2    1    2    0    0  0.00000000000E+00  0.00000000000E+00 -0.49213122101E+03  0.27632712278E+04  0.27190944706E+04 0.  0.
        3    1    3    3  502    0 -0.76936946219E+03  0.10661016878E+04  0.10577674898E+03  0.13189734300E+04  0.10100000352E+00 0.  1.
       -3    1    3    3    0  502  0.76936946219E+03 -0.10661016878E+04 -0.59790796999E+03  0.14442977979E+04  0.10100000352E+00 0. -1.
</event>
<event>
 5   0  0.3977376E-07  0.2649394E+04  0.7818609E-02  0.8351614E-01
       -1   -1    0    0    0  501  0.00000000000E+00  0.00000000000E+00  0.14411856104E+04  0.14411856104E+04  0.50400001928E-02 0. -1.
        1   -1    0    0  501    0  0.00000000000E+00  0.00000000000E+00 -0.12176237215E+04  0.12176237216E+04  0.50400001928E-02 0.  1.
    10030    2    1    2    0    0  0.00000000000E+00  0.00000000000E+00  0.22356188887E+03  0.26588093320E+04  0.26493937317E+04 0.  0.
        4    1    3    3  502    0  0.33891759056E+03 -0.79899938195E+03  0.11161147883E+04  0.14138525309E+04  0.12699999809E+01 0. -1.
       -4    1    3    3    0  502 -0.33891759056E+03  0.79899938195E+03 -0.89255289939E+03  0.12449568011E+04  0.12699999809E+01 0.  1.
</event>
<event>
 5   0  0.3471602E-07  0.2391473E+04  0.7818609E-02  0.8442703E-01
        1   -1    0    0  501    0  0.00000000000E+00  0.00000000000E+00  0.19238545403E+04  0.19238545403E+04  0.50400001928E-02 0. -1.
       -1   -1    0    0    0  501  0.00000000000E+00  0.00000000000E+00 -0.74318835060E+03  0.74318835061E+03  0.50400001928E-02 0.  1.
    10030    2    1    2    0    0  0.00000000000E+00  0.00000000000E+00  0.11806661897E+04  0.26670428909E+04  0.23914734225E+04 0.  0.
        5    1    3    3  502    0  0.26372212247E+02  0.78276911802E+03  0.15979612658E+04  0.17795857054E+04  0.46999998093E+01 0. -1.
       -5    1    3    3    0  502 -0.26372212247E+02 -0.78276911802E+03 -0.41729507609E+03  0.88745718557E+03  0.46999998093E+01 0.  1.
</event>
<event>
 5   0  0.1034683E-06  0.2241104E+04  0.7818609E-02  0.8501512E-01
       -2   -1    0    0    0  501  0.00000000000E+00  0.00000000000E+00  0.12165453264E+04  0.12165453264E+04  0.25500000920E-02 0. -1.
        2   -1    0    0  501    0  0.00000000000E+00  0.00000000000E+00 -0.10321336124E+04  0.10321336124E+04  0.25500000920E-02 0.  1.
    10030    2    1    2    0    0  0.00000000000E+00  0.00000000000E+00  0.18441171395E+03  0.22486789388E+04  0.22411044798E+04 0.  0.
        2    1    3    3  502    0 -0.76783971995E+03  0.68583650219E+03  0.53606707516E+03  0.11607400451E+04  0.25500000920E-02 0.  1.
       -2    1    3    3    0  502  0.76783971995E+03 -0.68583650219E+03 -0.35165536122E+03  0.10879388937E+04  0.25500000920E-02 0. -1.
</event>
<event>
 5   0  0.3977376E-07  0.3939061E+04  0.7818609E-02  0.8016954E-01
        1   -1    0    0  501    0  0.00000000000E+00  0.00000000000E+00  0.12032862198E+04  0.12032862198E+04  0.50400001928E-02 0.  1.
       -1   -1    0    0    0  501  0.00000000000E+00  0.00000000000E+00 -0.32237130056E+04  0.32237130056E+04  0.50400001928E-02 0. -1.
    10030    2    1    2    0    0  0.00000000000E+00  0.00000000000E+00 -0.20204267858E+04  0.44269992254E+04  0.39390605155E+04 0.  0.
        4    1    3    3  502    0  0.86393442889E+03  0.12467104626E+04  0.40174637755E+03  0.15690989260E+04  0.12699999809E+01 0.  1.
       -4    1    3    3    0  502 -0.86393442889E+03 -0.12467104626E+04 -0.24221731634E+04  0.28579002994E+04  0.12699999809E+01 0. -1.
</event>
<event>
 5   0  0.1035864E-06  0.3842676E+04  0.7818609E-02  0.8037058E-01
        2   -1    0    0  501    0  0.00000000000E+00  0.00000000000E+00  0.14320178576E+04  0.14320178576E+04  0.25500000920E-02 0.  1.
       -2   -1    0    0    0  501  0.00000000000E+00  0.00000000000E+00 -0.25778581663E+04  0.25778581663E+04  0.25500000920E-02 0. -1.
    10030    2    1    2    0    0  0.00000000000E+00  0.00000000000E+00 -0.11458403087E+04  0.40098760239E+04  0.38426755931E+04 0.  0.
        5    1    3    3  502    0 -0.48125389057E+03  0.17857442560E+04 -0.11161768549E+04  0.21601760846E+04  0.46999998093E+01 0. -1.
       -5    1    3    3    0  502  0.48125389057E+03 -0.17857442560E+04 -0.29663453770E+02  0.18496999393E+04  0.46999998093E+01 0.  1.
</event>
<event>
 5   0  0.1015219E-06  0.3907803E+04  0.7818609E-02  0.8023408E-01
       -2   -1    0    0    0  501  0.00000000000E+00  0.00000000000E+00  0.13815236292E+04  0.13815236292E+04  0.25500000920E-02 0. -1.
        2   -1    0    0  501    0  0.00000000000E+00  0.00000000000E+00 -0.27634201851E+04  0.27634201851E+04  0.25500000920E-02 0.  1.
    10030    2    1    2    0    0  0.00000000000E+00  0.00000000000E+00 -0.13818965559E+04  0.41449438142E+04  0.39078025964E+04 0.  0.
        3    1    3    3  502    0  0.49936098230E+03  0.18647838160E+04 -0.10108288501E+04  0.21791179513E+04  0.10100000352E+00 0. -1.
       -3    1    3    3    0  502 -0.49936098230E+03 -0.18647838160E+04 -0.37106770573E+03  0.19658258630E+04  0.10100000352E+00 0.  1.
</event>
<event>
 5   0  0.7268013E-07  0.3010324E+04  0.7818609E-02  0.8240789E-01
       -2   -1    0    0    0  501  0.00000000000E+00  0.00000000000E+00  0.76817935661E+03  0.76817935661E+03  0.25500000920E-02 0.  1.
        2   -1    0    0  501    0  0.00000000000E+00  0.00000000000E+00 -0.29491974572E+04  0.29491974572E+04  0.25500000920E-02 0. -1.
    10030    2    1    2    0    0  0.00000000000E+00  0.00000000000E+00 -0.21810181006E+04  0.37173768138E+04  0.30103239727E+04 0.  0.
        4    1    3    3  502    0  0.11000833394E+04 -0.44556250325E+03  0.52536420175E+02  0.11880534442E+04  0.12699999809E+01 0.  1.
       -4    1    3    3    0  502 -0.11000833394E+04  0.44556250325E+03 -0.22335545207E+04  0.25293233696E+04  0.12699999809E+01 0. -1.
</event>
<event>
 5   0  0.1035864E-06  0.2137720E+04  0.7818609E-02  0.8544807E-01
       -2   -1    0    0    0  501  0.00000000000E+00  0.00000000000E+00  0.76298010226E+03  0.76298010227E+03  0.25500000920E-02 0. -1.
        2   -1    0    0  501    0  0.00000000000E+00  0.00000000000E+00 -0.14973673273E+04  0.14973673273E+04  0.25500000920E-02 0.  1.
    10030    2    1    2    0    0  0.00000000000E+00  0.00000000000E+00 -0.73438722501E+03  0.22603474295E+04  0.21377197913E+04 0.  0.
        5    1    3    3  502    0  0.53797346939E+03  0.75351812793E+03 -0.93190343652E+03  0.13136480228E+04  0.46999998093E+01 0.  1.
       -5    1    3    3    0  502 -0.53797346939E+03 -0.75351812793E+03  0.19751621150E+03  0.94669940672E+03  0.46999998093E+01 0. -1.
</event>
<event>
 5   0  0.5385714E-07  0.4051284E+04  0.7818609E-02  0.7994280E-01
       -1   -1    0    0    0  501  0.00000000000E+00  0.00000000000E+00  0.19149138823E+04  0.19149138823E+04  0.50400001928E-02 0. -1.
        1   -1    0    0  501    0  0.00000000000E+00  0.00000000000E+00 -0.21427724403E+04  0.21427724403E+04  0.50400001928E-02 0.  1.
    10030    2    1    2    0    0  0.00000000000E+00  0.00000000000E+00 -0.22785855800E+03  0.40576863225E+04  0.40512835953E+04 0.  0.
        3    1    3    3  502    0 -0.30959826380E+03 -0.14354059431E+04 -0.15114779685E+04  0.21073222264E+04  0.10100000352E+00 0.  1.
       -3    1    3    3    0  502  0.30959826380E+03  0.14354059431E+04  0.12836194105E+04  0.19503640962E+04  0.10100000352E+00 0. -1.
</event>
<event>
 5   0  0.1035864E-06  0.3945328E+04  0.7818609E-02  0.8015667E-01
       -2   -1    0    0    0  501  0.00000000000E+00  0.00000000000E+00  0.24484216381E+04  0.24484216381E+04  0.25500000920E-02 0.  1.
        2   -1    0    0  501    0  0.00000000000E+00  0.00000000000E+00 -0.15893520476E+04  0.15893520476E+04  0.25500000920E-02 0. -1.
    10030    2    1    2    0    0  0.00000000000E+00  0.00000000000E+00  0.85906959049E+03  0.40377736857E+04  0.39453283483E+04 0.  0.
        5    1    3    3  502    0 -0.10610689576E+04  0.11685779259E+04 -0.78137991574E+03  0.17612547699E+04  0.46999998093E+01 0. -1.
       -5    1    3    3    0  502  0.10610689576E+04 -0.11685779259E+04  0.16404495062E+04  0.22765189158E+04  0.46999998093E+01 0.  1.
</event>
<event>
 5   0  0.5533705E-07  0.3719019E+04  0.7818609E-02  0.8063760E-01
       -2   -1    0    0    0  501  0.00000000000E+00  0.00000000000E+00  0.28189072781E+04  0.28189072781E+04  0.25500000920E-02 0. -1.
        2   -1    0    0  501    0  0.00000000000E+00  0.00000000000E+00 -0.12266371384E+04  0.12266371384E+04  0.25500000920E-02 0.  1.
    10030    2    1    2    0    0  0.00000000000E+00  0.00000000000E+00  0.15922701397E+04  0.40455444165E+04  0.37190194175E+04 0.  0.
        1    1    3    3  502    0  0.40713184020E+03 -0.12020265039E+03 -0.11732226273E+04  0.12476603487E+04  0.50400001928E-02 0.  1.
       -1    1    3    3    0  502 -0.40713184020E+03  0.12020265039E+03  0.27654927670E+04  0.27978840678E+04  0.50400001928E-02 0. -1.
</event>
<event>
 5   0  0.3191750E-07  0.2826676E+04  0.7818609E-02  0.8295034E-01
        3   -1    0    0  501    0  0.00000000000E+00  0.00000000000E+00  0.99312727225E+03  0.99312727738E+03  0.10100000352E+00 0. -1.
       -3   -1    0    0    0  501  0.00000000000E+00  0.00000000000E+00 -0.20113483007E+04  0.20113483032E+04  0.10100000352E+00 0.  1.
    10030    2    1    2    0    0  0.00000000000E+00  0.00000000000E+00 -0.10182210284E+04  0.30044755806E+04  0.28266763967E+04 0.  0.
        3    1    3    3  502    0  0.12064657603E+04 -0.59919190459E+03 -0.54499307053E+02  0.13481694085E+04  0.10100000352E+00 0. -1.
       -3    1    3    3    0  502 -0.12064657603E+04  0.59919190459E+03 -0.96372172140E+03  0.16563061721E+04  0.10100000352E+00 0.  1.
</event>
<event>
 5   0  0.3977376E-07  0.2891453E+04  0.7818609E-02  0.8275425E-01
        1   -1    0    0  501    0  0.00000000000E+00  0.00000000000E+00  0.18480190563E+04  0.18480190564E+04  0.50400001928E-02 0.  1.
       -1   -1    0    0    0  501  0.00000000000E+00  0.00000000000E+00 -0.11310083576E+04  0.11310083576E+04  0.50400001928E-02 0. -1.
    10030    2    1    2    0    0  0.00000000000E+00  0.00000000000E+00  0.71701069877E+03  0.29790274139E+04  0.28914529204E+04 0.  0.
        4    1    3    3  502    0 -0.11858805606E+04 -0.79996538532E+03  0.14271962781E+03  0.14375770681E+04  0.12699999809E+01 0.  1.
       -4    1    3    3    0  502  0.11858805606E+04  0.79996538532E+03  0.57429107096E+03  0.15414503459E+04  0.12699999809E+01 0. -1.
</event>
<event>
 5   0  0.4627905E-07  0.2596580E+04  0.7818609E-02  0.8369364E-01
        1   -1    0    0  501    0  0.00000000000E+00  0.00000000000E+00  0.14049969746E+04  0.14049969746E+04  0.50400001928E-02 0. -1.
       -1   -1    0    0    0  501  0.00000000000E+00  0.00000000000E+00 -0.11996870557E+04  0.11996870557E+04  0.50400001928E-02 0.  1.
    10030    2    1    2    0    0  0.00000000000E+00  0.00000000000E+00  0.20530991890E+03  0.26046840303E+04  0.25965798149E+04 0.  0.
        1    1    3    3  502    0  0.53317108877E+03  0.69819400755E+03  0.10615728454E+04  0.13779271346E+04  0.50400001928E-02 0. -1.
       -1    1    3    3    0  502 -0.53317108877E+03 -0.69819400755E+03 -0.85626292647E+03  0.12267568958E+04  0.50400001928E-02 0.  1.
</event>
<event>
 5   0  0.7268013E-07  0.4124543E+04  0.7818609E-02  0.7979883E-01
       -2   -1    0    0    0  501  0.00000000000E+00  0.00000000000E+00  0.15406233155E+04  0.15406233155E+04  0.25500000920E-02 0.  1.
        2   -1    0    0  501    0  0.00000000000E+00  0.00000000000E+00 -0.27605473015E+04  0.27605473015E+04  0.25500000920E-02 0. -1.
    10030    2    1    2    0    0  0.00000000000E+00  0.00000000000E+00 -0.12199239861E+04  0.43011706170E+04  0.41245429013E+04 0.  0.
        4    1    3    3  502    0  0.84115010960E+03 -0.28024991067E+03  0.13317319515E+04  0.15998703456E+04  0.12699999809E+01 0.  1.
       -4    1    3    3    0  502 -0.84115010960E+03  0.28024991067E+03 -0.25516559375E+04  0.27013002713E+04  0.12699999809E+01 0. -1.
</event>
<event>
 5   0  0.4627905E-07  0.1953474E+04  0.7818609E-02  0.8628687E-01
       -1   -1    0    0    0  501  0.00000000000E+00  0.00000000000E+00  0.14505928969E+04  0.14505928969E+04  0.50400001928E-02 0.  1.
        1   -1    0    0  501    0  0.00000000000E+00  0.00000000000E+00 -0.65767268051E+03  0.65767268053E+03  0.50400001928E-02 0. -1.
    10030    2    1    2    0    0  0.00000000000E+00  0.00000000000E+00  0.79292021641E+03  0.21082655775E+04  0.19534741553E+04 0.  0.
        1    1    3    3  502    0 -0.84703300688E+03 -0.48331774024E+03  0.45512115407E+03  0.10761952507E+04  0.50400001928E-02 0.  1.
       -1    1    3    3    0  502  0.84703300688E+03  0.48331774024E+03  0.33779906234E+03  0.10320703267E+04  0.50400001928E-02 0. -1.
</event>
<event>
 5   0  0.5533705E-07  0.3451348E+04  0.7818609E-02  0.8125418E-01
       -2   -1    0    0    0  501  0.00000000000E+00  0.00000000000E+00  0.17292474312E+04  0.17292474312E+04  0.25500000920E-02 0. -1.
        2   -1    0    0  501    0  0.00000000000E+00  0.00000000000E+00 -0.17221078396E+04  0.17221078396E+04  0.25500000920E-02 0.  1.
    10030    2    1    2    0    0  0.00000000000E+00  0.00000000000E+00  0.71395916443E+01  0.34513552708E+04  0.34513478862E+04 0.  0.
        1    1    3    3  502    0 -0.19517316780E+03 -0.73175334644E+03 -0.15470447022E+04  0.17224699812E+04  0.50400001928E-02 0.  1.
       -1    1    3    3    0  502  0.19517316780E+03  0.73175334644E+03  0.15541842938E+04  0.17288852896E+04  0.50400001928E-02 0. -1.
</event>
<event>
 5   0  0.5533705E-07  0.3883692E+04  0.7818609E-02  0.8028430E-01
        2   -1    0    0  501    0  0.00000000000E+00  0.00000000000E+00  0.23051212222E+04  0.23051212222E+04  0.25500000920E-02 0. -1.
       -2   -1    0    0    0  501  0.00000000000E+00  0.00000000000E+00 -0.16358209876E+04  0.16358209876E+04  0.25500000920E-02 0.  1.
    10030    2    1    2    0    0  0.00000000000E+00  0.00000000000E+00  0.66930023457E+03  0.39409422099E+04  0.38836918901E+04 0.  0.
        1    1    3    3  502    0 -0.15799330176E+04 -0.10344291544E+04 -0.12427062955E+03  0.18925314278E+04  0.50400001928E-02 0.  1.
       -1    1    3    3    0  502  0.15799330176E+04  0.10344291544E+04  0.79357086412E+03  0.20484107821E+04  0.50400001928E-02 0. -1.
</event>
<event>
 5   0  0.7268013E-07  0.3810147E+04  0.7818609E-02  0.8043981E-01
       -2   -1    0    0    0  501  0.00000000000E+00  0.00000000000E+00  0.15032571739E+04  0.15032571739E+04  0.25500000920E-02 0.  1.
        2   -1    0    0  501    0  0.00000000000E+00  0.00000000000E+00 -0.24142936242E+04  0.24142936242E+04  0.25500000920E-02 0. -1.
    10030    2    1    2    0    0  0.00000000000E+00  0.00000000000E+00 -0.91103645036E+03  0.39175507981E+04  0.38101465644E+04 0.  0.
        4    1    3    3  502    0 -0.15830062605E+03  0.13100004658E+04  0.95731309619E+03  0.16302178644E+04  0.12699999809E+01 0.  1.
       -4    1    3    3    0  502  0.15830062605E+03 -0.13100004658E+04 -0.18683495466E+04  0.22873329337E+04  0.12699999809E+01 0. -1.
</event>
<event>
 5   0  0.3471602E-07  0.3819272E+04  0.7818609E-02  0.8042032E-01
        1   -1    0    0  501    0  0.00000000000E+00  0.00000000000E+00  0.15481704154E+04  0.15481704154E+04  0.50400001928E-02 0.  1.
       -1   -1    0    0    0  501  0.00000000000E+00  0.00000000000E+00 -0.23554960462E+04  0.23554960462E+04  0.50400001928E-02 0. -1.
    10030    2    1    2    0    0  0.00000000000E+00  0.00000000000E+00 -0.80732563085E+03  0.39036664616E+04  0.38192718113E+04 0.  0.
        5    1    3    3  502    0  0.17535110447E+04 -0.55611768807E+03  0.12012511272E+03  0.18435075263E+04  0.46999998093E+01 0.  1.
       -5    1    3    3    0  502 -0.17535110447E+04  0.55611768807E+03 -0.92745074356E+03  0.20601589353E+04  0.46999998093E+01 0. -1.
</event>
<event>
 5   0  0.7268013E-07  0.3869932E+04  0.7818609E-02  0.8031312E-01
       -2   -1    0    0    0  501  0.00000000000E+00  0.00000000000E+00  0.16122849653E+04  0.16122849653E+04  0.25500000920E-02 0.  1.
        2   -1    0    0  501    0  0.00000000000E+00  0.00000000000E+00 -0.23222278519E+04  0.23222278519E+04  0.25500000920E-02 0. -1.
    10030    2    1    2    0    0  0.00000000000E+00  0.00000000000E+00 -0.70994288664E+03  0.39345128172E+04  0.38699318090E+04 0.  0.
        4    1    3    3  502    0  0.59703449992E+02 -0.31386989027E+03  0.15852816103E+04  0.16171574465E+04  0.12699999809E+01 0.  1.
       -4    1    3    3    0  502 -0.59703449992E+02  0.31386989027E+03 -0.22952244969E+04  0.23173553707E+04  0.12699999809E+01 0. -1.
</event>
<event>
 5   0  0.3471602E-07  0.3880183E+04  0.7818609E-02  0.8029163E-01
       -1   -1    0    0    0  501  0.00000000000E+00  0.00000000000E+00  0.28263774632E+04  0.28263774632E+04  0.50400001928E-02 0. -1.
        1   -1    0    0  501    0  0.00000000000E+00  0.00000000000E+00 -0.13317242764E+04  0.13317242764E+04  0.50400001928E-02 0.  1.
    10030    2    1    2    0    0  0.00000000000E+00  0.00000000000E+00  0.14946531868E+04  0.41581017396E+04  0.38801832338E+04 0.  0.
        5    1    3    3  502    0  0.18922205122E+04  0.40454784404E+03  0.89802606990E+03  0.21332206489E+04  0.46999998093E+01 0. -1.
       -5    1    3    3    0  502 -0.18922205122E+04 -0.40454784404E+03  0.59662711689E+03  0.20248810907E+04  0.46999998093E+01 0.  1.
</event>
<event>
 5   0  0.5533705E-07  0.3026744E+04  0.7818609E-02  0.8236135E-01
       -2   -1    0    0    0  501  0.00000000000E+00  0.00000000000E+00  0.12590246744E+04  0.12590246744E+04  0.25500000920E-02 0. -1.
        2   -1    0    0  501    0  0.00000000000E+00  0.00000000000E+00 -0.18191018221E+04  0.18191018221E+04  0.25500000920E-02 0.  1.
    10030    2    1    2    0    0  0.00000000000E+00  0.00000000000E+00 -0.56007714773E+03  0.30781264964E+04  0.30267435168E+04 0.  0.
        1    1    3    3  502    0  0.13123083329E+04 -0.65944807589E+03  0.91219290732E+02  0.14715114286E+04  0.50400001928E-02 0. -1.
       -1    1    3    3    0  502 -0.13123083329E+04  0.65944807589E+03 -0.65129643846E+03  0.16066150678E+04  0.50400001928E-02 0.  1.
</event>
<event>
 5   0  0.1035864E-06  0.2779249E+04  0.7818609E-02  0.8309740E-01
        2   -1    0    0  501    0  0.00000000000E+00  0.00000000000E+00  0.13759781497E+04  0.13759781497E+04  0.25500000920E-02 0.  1.
       -2   -1    0    0    0  501  0.00000000000E+00  0.00000000000E+00 -0.14034061183E+04  0.14034061183E+04  0.25500000920E-02 0. -1.
    10030    2    1    2    0    0  0.00000000000E+00  0.00000000000E+00 -0.27427968653E+02  0.27793842680E+04  0.27792489302E+04 0.  0.
        5    1    3    3  502    0  0.39825756524E+03 -0.12586604229E+04  0.42012613016E+03  0.13854108429E+04  0.46999998093E+01 0.  1.
       -5    1    3    3    0  502 -0.39825756524E+03  0.12586604229E+04 -0.44755409881E+03  0.13939734251E+04  0.46999998093E+01 0. -1.
</event>
<event>
 5   0  0.1015219E-06  0.4124113E+04  0.7818609E-02  0.7979967E-01
       -2   -1    0    0    0  501  0.00000000000E+00  0.00000000000E+00  0.29039319168E+04  0.29039319168E+04  0.25500000920E-02 0. -1.
        2   -1    0    0  501    0  0.00000000000E+00  0.00000000000E+00 -0.14642478429E+04  0.14642478429E+04  0.25500000920E-02 0.  1.
    10030    2    1    2    0    0  0.00000000000E+00  0.00000000000E+00  0.14396840739E+04  0.43681797598E+04  0.41241125325E+04 0.  0.
        3    1    3    3  502    0 -0.11869417480E+03  0.78734915437E+03  0.27345329136E+04  0.28481006415E+04  0.10100000352E+00 0. -1.
       -3    1    3    3    0  502  0.11869417480E+03 -0.78734915437E+03 -0.12948488397E+04  0.15200791183E+04  0.10100000352E+00 0.  1.
</event>
<event>
 5   0  0.5385714E-07  0.3062023E+04  0.7818609E-02  0.8226238E-01
        1   -1    0    0  501    0  0.00000000000E+00  0.00000000000E+00  0.20850290469E+04  0.20850290469E+04  0.50400001928E-02 0.  1.
       -1   -1    0    0    0  501  0.00000000000E+00  0.00000000000E+00 -0.11242030470E+04  0.11242030471E+04  0.50400001928E-02 0. -1.
    10030    2    1    2    0    0  0.00000000000E+00  0.00000000000E+00  0.96082599982E+03  0.32092320939E+04  0.30620228658E+04 0.  0.
        3    1    3    3  502    0  0.86687916889E+03 -0.12041108957E+04  0.87623816180E+03  0.17231238693E+04  0.10100000352E+00 0.  1.
       -3    1    3    3    0  502 -0.86687916889E+03  0.12041108957E+04  0.84587838018E+02  0.14861082246E+04  0.10100000352E+00 0. -1.
</event>
<event>
 5   0  0.4627905E-07  0.3784424E+04  0.7818609E-02  0.8049506E-01
        1   -1    0    0  501    0  0.00000000000E+00  0.00000000000E+00  0.22106366378E+04  0.22106366378E+04  0.50400001928E-02 0.  1.
       -1   -1    0    0    0  501  0.00000000000E+00  0.00000000000E+00 -0.16196538460E+04  0.16196538460E+04  0.50400001928E-02 0. -1.
    10030    2    1    2    0    0  0.00000000000E+00  0.00000000000E+00  0.59098279184E+03  0.38302904838E+04  0.37844239364E+04 0.  0.
        1    1    3    3  502    0  0.12013819684E+04 -0.36783484867E+03 -0.11365222519E+04  0.16941971370E+04  0.50400001928E-02 0. -1.
       -1    1    3    3    0  502 -0.12013819684E+04  0.36783484867E+03  0.17275050438E+04  0.21360933468E+04  0.50400001928E-02 0.  1.
</event>
<event>
 5   0  0.4627905E-07  0.2919516E+04  0.7818609E-02  0.8267095E-01
        1   -1    0    0  501    0  0.00000000000E+00  0.00000000000E+00  0.14386192416E+04  0.14386192416E+04  0.50400001928E-02 0.  1.
       -1   -1    0    0    0  501  0.00000000000E+00  0.00000000000E+00 -0.14812073019E+04  0.14812073019E+04  0.50400001928E-02 0. -1.
    10030    2    1    2    0    0  0.00000000000E+00  0.00000000000E+00 -0.42588060348E+02  0.29198265435E+04  0.29195159361E+04 0.  0.
        1    1    3    3  502    0 -0.11884036508E+04 -0.74539512908E+03 -0.42504007586E+03  0.14658022383E+04  0.50400001928E-02 0.  1.
       -1    1    3    3    0  502  0.11884036508E+04  0.74539512908E+03  0.38245201552E+03  0.14540243052E+04  0.50400001928E-02 0. -1.
</event>
<event>
 5   0  0.4316671E-07  0.3896232E+04  0.7818609E-02  0.8025813E-01
        1   -1    0    0  501    0  0.00000000000E+00  0.00000000000E+00  0.12583116793E+04  0.12583116793E+04  0.50400001928E-02 0.  1.
       -1   -1    0    0    0  501  0.00000000000E+00  0.00000000000E+00 -0.30160698521E+04  0.30160698521E+04  0.50400001928E-02 0. -1.
    10030    2    1    2    0    0  0.00000000000E+00  0.00000000000E+00 -0.17577581727E+04  0.42743815314E+04  0.38962319852E+04 0.  0.
        2    1    3    3  502    0 -0.17256934644E+04 -0.83129320844E+03 -0.12684334669E+04  0.22973876015E+04  0.25500000920E-02 0. -1.
       -2    1    3    3    0  502  0.17256934644E+04  0.83129320844E+03 -0.48932470580E+03  0.19769939300E+04  0.25500000920E-02 0.  1.
</event>
<event>
 5   0  0.3471602E-07  0.3821012E+04  0.7818609E-02  0.8041661E-01
        1   -1    0    0  501    0  0.00000000000E+00  0.00000000000E+00  0.17319179231E+04  0.17319179231E+04  0.50400001928E-02 0. -1.
       -1   -1    0    0    0  501  0.00000000000E+00  0.00000000000E+00 -0.21075094400E+04  0.21075094400E+04  0.50400001928E-02 0.  1.
    10030    2    1    2    0    0  0.00000000000E+00  0.00000000000E+00 -0.37559151684E+03  0.38394273631E+04  0.38210121027E+04 0.  0.
        5    1    3    3  502    0  0.63515111584E+03  0.12433614069E+04 -0.14981692525E+04  0.20479008099E+04  0.46999998093E+01 0.  1.
       -5    1    3    3    0  502 -0.63515111584E+03 -0.12433614069E+04  0.11225777357E+04  0.17915265532E+04  0.46999998093E+01 0. -1.
</event>
<event>
 5   0  0.1015219E-06  0.3619173E+04  0.7818609E-02  0.8086114E-01
       -2   -1    0    0    0  501  0.00000000000E+00  0.00000000000E+00  0.14042670455E+04  0.14042670455E+04  0.25500000920E-02 0.  1.
        2   -1    0    0  501    0  0.00000000000E+00  0.00000000000E+00 -0.23318949885E+04  0.23318949885E+04  0.25500000920E-02 0. -1.
    10030    2    1    2    0    0  0.00000000000E+00  0.00000000000E+00 -0.92762794301E+03  0.37361620339E+04  0.36191729916E+04 0.  0.
        3    1    3    3  502    0  0.25030557992E+03 -0.12415048474E+04  0.87048973570E+03  0.15367952237E+04  0.10100000352E+00 0.  1.
       -3    1    3    3    0  502 -0.25030557992E+03  0.12415048474E+04 -0.17981176787E+04  0.21993668103E+04  0.10100000352E+00 0. -1.
</event>
<event>
 5   0  0.3191750E-07  0.2052449E+04  0.7818609E-02  0.8582484E-01
        3   -1    0    0  501    0  0.00000000000E+00  0.00000000000E+00  0.11393650518E+04  0.11393650563E+04  0.10100000352E+00 0. -1.
       -3   -1    0    0    0  501  0.00000000000E+00  0.00000000000E+00 -0.92431901180E+03  0.92431901732E+03  0.10100000352E+00 0.  1.
    10030    2    1    2    0    0  0.00000000000E+00  0.00000000000E+00  0.21504604000E+03  0.20636840736E+04  0.20524490630E+04 0.  0.
        3    1    3    3  502    0 -0.11753295902E+03 -0.71641926233E+03 -0.62175148944E+03  0.95584804269E+03  0.10100000352E+00 0.  1.
       -3    1    3    3    0  502  0.11753295902E+03  0.71641926233E+03  0.83679752944E+03  0.11078360309E+04  0.10100000352E+00 0. -1.
</event>
<event>
 5   0  0.5533705E-07  0.3837678E+04  0.7818609E-02  0.8038117E-01
       -2   -1    0    0    0  501  0.00000000000E+00  0.00000000000E+00  0.14988730586E+04  0.14988730586E+04  0.25500000920E-02 0. -1.
        2   -1    0    0  501    0  0.00000000000E+00  0.00000000000E+00 -0.24564744881E+04  0.24564744881E+04  0.25500000920E-02 0.  1.
    10030    2    1    2    0    0  0.00000000000E+00  0.00000000000E+00 -0.95760142942E+03  0.39553475467E+04  0.38376781675E+04 0.  0.
        1    1    3    3  502    0  0.17213820123E+04 -0.59235511360E+03  0.14634700975E+03  0.18263236461E+04  0.50400001928E-02 0. -1.
       -1    1    3    3    0  502 -0.17213820123E+04  0.59235511360E+03 -0.11039484392E+04  0.21290239006E+04  0.50400001928E-02 0.  1.
</event>
<event>
 5   0  0.4627905E-07  0.3641381E+04  0.7818609E-02  0.8081078E-01
       -1   -1    0    0    0  501  0.00000000000E+00  0.00000000000E+00  0.23211522000E+04  0.23211522000E+04  0.50400001928E-02 0.  1.
        1   -1    0    0  501    0  0.00000000000E+00  0.00000000000E+00 -0.14281327747E+04  0.14281327747E+04  0.50400001928E-02 0. -1.
    10030    2    1    2    0    0  0.00000000000E+00  0.00000000000E+00  0.89301942525E+03  0.37492849747E+04  0.36413807996E+04 0.  0.
        1    1    3    3  502    0 -0.11776896092E+04 -0.37275392969E+03  0.18236854781E+04  0.22026636217E+04  0.50400001928E-02 0.  1.
       -1    1    3    3    0  502  0.11776896092E+04  0.37275392969E+03 -0.93066605280E+03  0.15466213530E+04  0.50400001928E-02 0. -1.
</event>
<event>
 5   0  0.7268013E-07  0.2456008E+04  0.7818609E-02  0.8418828E-01
       -2   -1    0    0    0  501  0.00000000000E+00  0.00000000000E+00  0.75316988869E+03  0.75316988869E+03  0.25500000920E-02 0. -1.
        2   -1    0    0  501    0  0.00000000000E+00  0.00000000000E+00 -0.20021963640E+04  0.20021963640E+04  0.25500000920E-02 0.  1.
    10030    2    1    2    0    0  0.00000000000E+00  0.00000000000E+00 -0.12490264753E+04  0.27553662527E+04  0.24560081536E+04 0.  0.
        4    1    3    3  502    0 -0.25008303787E+03 -0.26784829802E+03  0.69039900871E+03  0.78162436036E+03  0.12699999809E+01 0. -1.
       -4    1    3    3    0  502  0.25008303787E+03  0.26784829802E+03 -0.19394254840E+04  0.19737418923E+04  0.12699999809E+01 0.  1.
</event>
<event>
 5   0  0.5533705E-07  0.3874153E+04  0.7818609E-02  0.8030427E-01
       -2   -1    0    0    0  501  0.00000000000E+00  0.00000000000E+00  0.17877532947E+04  0.17877532947E+04  0.25500000920E-02 0.  1.
        2   -1    0    0  501    0  0.00000000000E+00  0.00000000000E+00 -0.20988715951E+04  0.20988715951E+04  0.25500000920E-02 0. -1.
    10030    2    1    2    0    0  0.00000000000E+00  0.00000000000E+00 -0.31111830040E+03  0.38866248897E+04  0.38741526089E+04 0.  0.
        1    1    3    3  502    0  0.18347320984E+04 -0.52373891554E+03  0.17976275109E+03  0.19164704462E+04  0.50400001928E-02 0. -1.
       -1    1    3    3    0  502 -0.18347320984E+04  0.52373891554E+03 -0.49088105149E+03  0.19701544435E+04  0.50400001928E-02 0.  1.
</event>
<event>
 5   0  0.4627905E-07  0.2145657E+04  0.7818609E-02  0.8541394E-01
       -1   -1    0    0    0  501  0.00000000000E+00  0.00000000000E+00  0.68799986977E+03  0.68799986979E+03  0.50400001928E-02 0.  1.
        1   -1    0    0  501    0  0.00000000000E+00  0.00000000000E+00 -0.16729085747E+04  0.16729085747E+04  0.50400001928E-02 0. -1.
    10030    2    1    2    0    0  0.00000000000E+00  0.00000000000E+00 -0.98490870490E+03  0.23609084445E+04  0.21456568985E+04 0.  0.
        1    1    3    3  502    0 -0.45605067931E+03  0.42751552199E+03  0.46691405121E+03  0.78023103942E+03  0.50400001928E-02 0.  1.
       -1    1    3    3    0  502  0.45605067931E+03 -0.42751552199E+03 -0.14518227561E+04  0.15806774050E+04  0.50400001928E-02 0. -1.
</event>
<event>
 5   0  0.3471602E-07  0.2301452E+04  0.7818609E-02  0.8477349E-01
       -1   -1    0    0    0  501  0.00000000000E+00  0.00000000000E+00  0.56978499416E+03  0.56978499419E+03  0.50400001928E-02 0. -1.
        1   -1    0    0  501    0  0.00000000000E+00  0.00000000000E+00 -0.23239833059E+04  0.23239833059E+04  0.50400001928E-02 0.  1.
    10030    2    1    2    0    0  0.00000000000E+00  0.00000000000E+00 -0.17541983117E+04  0.28937683000E+04  0.23014524235E+04 0.  0.
        5    1    3    3  502    0 -0.67796058721E+02  0.68972303931E+03  0.27792323783E+03  0.74671118423E+03  0.46999998093E+01 0. -1.
       -5    1    3    3    0  502  0.67796058721E+02 -0.68972303931E+03 -0.20321215495E+04  0.21470571158E+04  0.46999998093E+01 0.  1.
</event>
<event>
 5   0  0.4316671E-07  0.2749036E+04  0.7818609E-02  0.8319268E-01
        1   -1    0    0  501    0  0.00000000000E+00  0.00000000000E+00  0.14549287079E+04  0.14549287080E+04  0.50400001928E-02 0. -1.
       -1   -1    0    0    0  501  0.00000000000E+00  0.00000000000E+00 -0.12985514190E+04  0.12985514190E+04  0.50400001928E-02 0.  1.
    10030    2    1    2    0    0  0.00000000000E+00  0.00000000000E+00  0.15637728898E+03  0.27534801269E+04  0.27490360043E+04 0.  0.
        2    1    3    3  502    0  0.65019905391E+03 -0.56778519995E+03  0.11495724283E+04  0.14375867316E+04  0.25500000920E-02 0. -1.
       -2    1    3    3    0  502 -0.65019905391E+03  0.56778519995E+03 -0.99319513933E+03  0.13158933953E+04  0.25500000920E-02 0.  1.
</event>
<event>
 5   0  0.5533705E-07  0.3921179E+04  0.7818609E-02  0.8020639E-01
        2   -1    0    0  501    0  0.00000000000E+00  0.00000000000E+00  0.21305831782E+04  0.21305831782E+04  0.25500000920E-02 0.  1.
       -2   -1    0    0    0  501  0.00000000000E+00  0.00000000000E+00 -0.18041588884E+04  0.18041588884E+04  0.25500000920E-02 0. -1.
    10030    2    1    2    0    0  0.00000000000E+00  0.00000000000E+00  0.32642428981E+03  0.39347420667E+04  0.39211786894E+04 0.  0.
        1    1    3    3  502    0  0.21307985187E+03 -0.18167188812E+04 -0.54494847749E+03  0.19086223722E+04  0.50400001928E-02 0. -1.
       -1    1    3    3    0  502 -0.21307985187E+03  0.18167188812E+04  0.87137276730E+03  0.20261196944E+04  0.50400001928E-02 0.  1.
</event>
<event>
 5   0  0.1034683E-06  0.3810543E+04  0.7818609E-02  0.8043896E-01
        2   -1    0    0  501    0  0.00000000000E+00  0.00000000000E+00  0.30968402727E+04  0.30968402727E+04  0.25500000920E-02 0. -1.
       -2   -1    0    0    0  501  0.00000000000E+00  0.00000000000E+00 -0.11721816089E+04  0.11721816089E+04  0.25500000920E-02 0.  1.
    10030    2    1    2    0    0  0.00000000000E+00  0.00000000000E+00  0.19246586638E+04  0.42690218816E+04  0.38105428554E+04 0.  0.
        2    1    3    3  502    0 -0.86412309821E+03 -0.13828469780E+04 -0.14167325437E+03  0.16367790946E+04  0.25500000920E-02 0.  1.
       -2    1    3    3    0  502  0.86412309821E+03  0.13828469780E+04  0.20663319181E+04  0.26322427869E+04  0.25500000920E-02 0. -1.
</event>
<event>
 5   0  0.5533705E-07  0.3839698E+04  0.7818609E-02  0.8037689E-01
       -2   -1    0    0    0  501  0.00000000000E+00  0.00000000000E+00  0.19433114215E+04  0.19433114215E+04  0.25500000920E-02 0.  1.
        2   -1    0    0  501    0  0.00000000000E+00  0.00000000000E+00 -0.18966702553E+04  0.18966702553E+04  0.25500000920E-02 0. -1.
    10030    2    1    2    0    0  0.00000000000E+00  0.00000000000E+00  0.46641166226E+02  0.38399816768E+04  0.38396984100E+04 0.  0.
        1    1    3    3  502    0 -0.97693309678E+02 -0.18148047632E+04 -0.59540159646E+03  0.19124757182E+04  0.50400001928E-02 0. -1.
       -1    1    3    3    0  502  0.97693309678E+02  0.18148047632E+04  0.64204276269E+03  0.19275059586E+04  0.50400001928E-02 0.  1.
</event>
<event>
 5   0  0.1034683E-06  0.4058471E+04  0.7818609E-02  0.7992854E-01
       -2   -1    0    0    0  501  0.00000000000E+00  0.00000000000E+00  0.28160625156E+04  0.28160625156E+04  0.25500000920E-02 0. -1.
        2   -1    0    0  501    0  0.00000000000E+00  0.00000000000E+00 -0.14622533350E+04  0.14622533350E+04  0.25500000920E-02 0.  1.
    10030    2    1    2    0    0  0.00000000000E+00  0.00000000000E+00  0.13538091806E+04  0.42783158507E+04  0.40584710447E+04 0.  0.
        2    1    3    3  502    0  0.18478572837E+04  0.35962750805E+03  0.14754949894E+04  0.23918599351E+04  0.25500000920E-02 0.  1.
       -2    1    3    3    0  502 -0.18478572837E+04 -0.35962750805E+03 -0.12168580884E+03  0.18864559156E+04  0.25500000920E-02 0. -1.
</event>
<event>
 5   0  0.5533705E-07  0.3954974E+04  0.7818609E-02  0.8013692E-01
        2   -1    0    0  501    0  0.00000000000E+00  0.00000000000E+00  0.20149550278E+04  0.20149550278E+04  0.25500000920E-02 0.  1.
       -2   -1    0    0    0  501  0.00000000000E+00  0.00000000000E+00 -0.19407155932E+04  0.19407155932E+04  0.25500000920E-02 0. -1.
    10030    2    1    2    0    0  0.00000000000E+00  0.00000000000E+00  0.74239434527E+02  0.39556706210E+04  0.39549739024E+04 0.  0.
        1    1    3    3  502    0 -0.93792007678E+03 -0.40234242486E+03 -0.16569558457E+04  0.19460411537E+04  0.50400001928E-02 0. -1.
       -1    1    3    3    0  502  0.93792007678E+03  0.40234242486E+03  0.17311952803E+04  0.20096294673E+04  0.50400001928E-02 0.  1.
</event>
<event>
 5   0  0.1015219E-06  0.3757622E+04  0.7818609E-02  0.8055311E-01
       -2   -1    0    0    0  501  0.00000000000E+00  0.00000000000E+00  0.17438998094E+04  0.17438998094E+04  0.25500000920E-02 0. -1.
        2   -1    0    0  501    0  0.00000000000E+00  0.00000000000E+00 -0.20241591827E+04  0.20241591827E+04  0.25500000920E-02 0.  1.
    10030    2    1    2    0    0  0.00000000000E+00  0.00000000000E+00 -0.28025937328E+03  0.37680589922E+04  0.37576220209E+04 0.  0.
        3    1    3    3  502    0  0.86307000804E+03  0.15654746747E+04  0.43968909590E+03  0.18409039376E+04  0.10100000352E+00 0. -1.
       -3    1    3    3    0  502 -0.86307000804E+03 -0.15654746747E+04 -0.71994846918E+03  0.19271550546E+04  0.10100000352E+00 0.  1.
</event>
<event>
 5   0  0.7268013E-07  0.3903823E+04  0.7818609E-02  0.8024234E-01
        2   -1    0    0  501    0  0.00000000000E+00  0.00000000000E+00  0.18773118912E+04  0.18773118913E+04  0.25500000920E-02 0.  1.
       -2   -1    0    0    0  501  0.00000000000E+00  0.00000000000E+00 -0.20294759245E+04  0.20294759245E+04  0.25500000920E-02 0. -1.
    10030    2    1    2    0    0  0.00000000000E+00  0.00000000000E+00 -0.15216403322E+03  0.39067878157E+04  0.39038234007E+04 0.  0.
        4    1    3    3  502    0 -0.16889865837E+04 -0.34742697462E+02  0.90245132641E+03  0.19152813747E+04  0.12699999809E+01 0. -1.
       -4    1    3    3    0  502  0.16889865837E+04  0.34742697462E+02 -0.10546153596E+04  0.19915064410E+04  0.12699999809E+01 0.  1.
</event>
<event>
 5   0  0.7268013E-07  0.3860427E+04  0.7818609E-02  0.8033310E-01
        2   -1    0    0  501    0  0.00000000000E+00  0.00000000000E+00  0.24315943634E+04  0.24315943634E+04  0.25500000920E-02 0.  1.
       -2   -1    0    0    0  501  0.00000000000E+00  0.00000000000E+00 -0.15322147720E+04  0.15322147720E+04  0.25500000920E-02 0. -1.
    10030    2    1    2    0    0  0.00000000000E+00  0.00000000000E+00  0.89937959141E+03  0.39638091354E+04  0.38604273354E+04 0.  0.
        4    1    3    3  502    0 -0.13766139804E+02  0.68216772306E+03  0.23036405765E+04  0.24025619300E+04  0.12699999809E+01 0.  1.
       -4    1    3    3    0  502  0.13766139804E+02 -0.68216772306E+03 -0.14042609851E+04  0.15612472053E+04  0.12699999809E+01 0. -1.
</event>
<event>
 5   0  0.4627905E-07  0.3975867E+04  0.7818609E-02  0.8009433E-01
       -1   -1    0    0    0  501  0.00000000000E+00  0.00000000000E+00  0.15657379297E+04  0.15657379297E+04  0.50400001928E-02 0. -1.
        1   -1    0    0  501    0  0.00000000000E+00  0.00000000000E+00 -0.25239720934E+04  0.25239720934E+04  0.50400001928E-02 0.  1.
    10030    2    1    2    0    0  0.00000000000E+00  0.00000000000E+00 -0.95823416363E+03  0.40897100231E+04  0.39758666176E+04 0.  0.
        1    1    3    3  502    0  0.20943395622E+03 -0.16362812019E+04  0.66197102854E+03  0.17774938527E+04  0.50400001928E-02 0. -1.
       -1    1    3    3    0  502 -0.20943395622E+03  0.16362812019E+04 -0.16202051922E+04  0.23122161704E+04  0.50400001928E-02 0.  1.
</event>
<event>
 5   0  0.1034683E-06  0.3922244E+04  0.7818609E-02  0.8020419E-01
       -2   -1    0    0    0  501  0.00000000000E+00  0.00000000000E+00  0.15857988602E+04  0.15857988602E+04  0.25500000920E-02 0. -1.
        2   -1    0    0  501    0  0.00000000000E+00  0.00000000000E+00 -0.24252751859E+04  0.24252751859E+04  0.25500000920E-02 0.  1.
    10030    2    1    2    0    0  0.00000000000E+00  0.00000000000E+00 -0.83947632573E+03  0.40110740461E+04  0.39222435546E+04 0.  0.
        2    1    3    3  502    0  0.83011221168E+03 -0.16867649490E+04  0.15124045244E+03  0.18860371024E+04  0.25500000920E-02 0. -1.
       -2    1    3    3    0  502 -0.83011221168E+03  0.16867649490E+04 -0.99071677818E+03  0.21250369436E+04  0.25500000920E-02 0.  1.
</event>
<event>
 5   0  0.3471602E-07  0.2102915E+04  0.7818609E-02  0.8559960E-01
        1   -1    0    0  501    0  0.00000000000E+00  0.00000000000E+00  0.20854852078E+04  0.20854852078E+04  0.50400001928E-02 0.  1.
       -1   -1    0    0    0  501  0.00000000000E+00  0.00000000000E+00 -0.53012257015E+03  0.53012257017E+03  0.50400001928E-02 0. -1.
    10030    2    1    2    0    0  0.00000000000E+00  0.00000000000E+00  0.15553626376E+04  0.26156077780E+04  0.21029149088E+04 0.  0.
        5    1    3    3  502    0 -0.82621883141E+03 -0.36081668172E+03  0.10474649446E+03  0.90764538961E+03  0.46999998093E+01 0. -1.
       -5    1    3    3    0  502  0.82621883141E+03  0.36081668172E+03  0.14506161432E+04  0.17079623884E+04  0.46999998093E+01 0.  1.
</event>
<event>
 5   0  0.3977376E-07  0.1947990E+04  0.7818609E-02  0.8631331E-01
        1   -1    0    0  501    0  0.00000000000E+00  0.00000000000E+00  0.44750329766E+03  0.44750329769E+03  0.50400001928E-02 0.  1.
       -1   -1    0    0    0  501  0.00000000000E+00  0.00000000000E+00 -0.21199091304E+04  0.21199091304E+04  0.50400001928E-02 0. -1.
    10030    2    1    2    0    0  0.00000000000E+00  0.00000000000E+00 -0.16724058327E+04  0.25674124281E+04  0.19479900684E+04 0.  0.
        4    1    3    3  502    0 -0.10935892473E+03  0.72106260517E+03  0.14659303547E+02  0.72945675888E+03  0.12699999809E+01 0.  1.
       -4    1    3    3    0  502  0.10935892473E+03 -0.72106260517E+03 -0.16870651363E+04  0.18379556692E+04  0.12699999809E+01 0. -1.
</event>
<event>
 5   0  0.3471602E-07  0.2348417E+04  0.7818609E-02  0.8459072E-01
        1   -1    0    0  501    0  0.00000000000E+00  0.00000000000E+00  0.20367656968E+04  0.20367656968E+04  0.50400001928E-02 0. -1.
       -1   -1    0    0    0  501  0.00000000000E+00  0.00000000000E+00 -0.67693901424E+03  0.67693901426E+03  0.50400001928E-02 0.  1.
    10030    2    1    2    0    0  0.00000000000E+00  0.00000000000E+00  0.13598266825E+04  0.27137047110E+04  0.23484174782E+04 0.  0.
        5    1    3    3  502    0  0.55661525232E+03  0.35543156879E+03  0.18018004149E+04  0.19190255246E+04  0.46999998093E+01 0. -1.
       -5    1    3    3    0  502 -0.55661525232E+03 -0.35543156879E+03 -0.44197373234E+03  0.79467918639E+03  0.46999998093E+01 0.  1.
</event>
<event>
 5   0  0.5533705E-07  0.3878588E+04  0.7818609E-02  0.8029497E-01
       -2   -1    0    0    0  501  0.00000000000E+00  0.00000000000E+00  0.15235193729E+04  0.15235193729E+04  0.25500000920E-02 0.  1.
        2   -1    0    0  501    0  0.00000000000E+00  0.00000000000E+00 -0.24685355656E+04  0.24685355656E+04  0.25500000920E-02 0. -1.
    10030    2    1    2    0    0  0.00000000000E+00  0.00000000000E+00 -0.94501619270E+03  0.39920549385E+04  0.38785882777E+04 0.  0.
        1    1    3    3  502    0 -0.11054580745E+04  0.14318623202E+04  0.24693610242E+03  0.18257175842E+04  0.50400001928E-02 0.  1.
       -1    1    3    3    0  502  0.11054580745E+04 -0.14318623202E+04 -0.11919522951E+04  0.21663373543E+04  0.50400001928E-02 0. -1.
</event>
<event>
 5   0  0.5533705E-07  0.4077618E+04  0.7818609E-02  0.7989069E-01
       -2   -1    0    0    0  501  0.00000000000E+00  0.00000000000E+00  0.17694826244E+04  0.17694826244E+04  0.25500000920E-02 0. -1.
        2   -1    0    0  501    0  0.00000000000E+00  0.00000000000E+00 -0.23491288918E+04  0.23491288918E+04  0.25500000920E-02 0.  1.
    10030    2    1    2    0    0  0.00000000000E+00  0.00000000000E+00 -0.57964626735E+03  0.41186115162E+04  0.40776183032E+04 0.  0.
        1    1    3    3  502    0  0.92966344590E+03 -0.95208221375E+03 -0.18500229256E+04  0.22788855806E+04  0.50400001928E-02 0.  1.
       -1    1    3    3    0  502 -0.92966344590E+03  0.95208221375E+03  0.12703766582E+04  0.18397259356E+04  0.50400001928E-02 0. -1.
</event>
<event>
 5   0  0.1015219E-06  0.3821354E+04  0.7818609E-02  0.8041588E-01
        2   -1    0    0  501    0  0.00000000000E+00  0.00000000000E+00  0.26788347364E+04  0.26788347364E+04  0.25500000920E-02 0.  1.
       -2   -1    0    0    0  501  0.00000000000E+00  0.00000000000E+00 -0.13627887152E+04  0.13627887152E+04  0.25500000920E-02 0. -1.
    10030    2    1    2    0    0  0.00000000000E+00  0.00000000000E+00  0.13160460212E+04  0.40416234516E+04  0.38213535553E+04 0.  0.
        3    1    3    3  502    0  0.47474090272E+03  0.97126368721E+03  0.23242549790E+04  0.25633753710E+04  0.10100000352E+00 0.  1.
       -3    1    3    3    0  502 -0.47474090272E+03 -0.97126368721E+03 -0.10082089579E+04  0.14782480806E+04  0.10100000352E+00 0. -1.
</event>
<event>
 5   0  0.3471602E-07  0.2355784E+04  0.7818609E-02  0.8456245E-01
        1   -1    0    0  501    0  0.00000000000E+00  0.00000000000E+00  0.12704553256E+04  0.12704553256E+04  0.50400001928E-02 0. -1.
       -1   -1    0    0    0  501  0.00000000000E+00  0.00000000000E+00 -0.10920723406E+04  0.10920723406E+04  0.50400001928E-02 0.  1.
    10030    2    1    2    0    0  0.00000000000E+00  0.00000000000E+00  0.17838298503E+03  0.23625276661E+04  0.23557836242E+04 0.  0.
        5    1    3    3  502    0  0.42484828636E+03 -0.84117187170E+03 -0.61947198520E+03  0.11277560971E+04  0.46999998093E+01 0.  1.
       -5    1    3    3    0  502 -0.42484828636E+03  0.84117187170E+03  0.79785497022E+03  0.12347715690E+04  0.46999998093E+01 0. -1.
</event>
<event>
 5   0  0.5533705E-07  0.3650884E+04  0.7818609E-02  0.8078934E-01
        2   -1    0    0  501    0  0.00000000000E+00  0.00000000000E+00  0.13443968830E+04  0.13443968830E+04  0.25500000920E-02 0. -1.
       -2   -1    0    0    0  501  0.00000000000E+00  0.00000000000E+00 -0.24786127201E+04  0.24786127201E+04  0.25500000920E-02 0.  1.
    10030    2    1    2    0    0  0.00000000000E+00  0.00000000000E+00 -0.11342158371E+04  0.38230096031E+04  0.36508843942E+04 0.  0.
        1    1    3    3  502    0 -0.14818800319E+04  0.41889111085E+03  0.45930955361E+03  0.16069858300E+04  0.50400001928E-02 0. -1.
       -1    1    3    3    0  502  0.14818800319E+04 -0.41889111085E+03 -0.15935253908E+04  0.22160237731E+04  0.50400001928E-02 0.  1.
</event>
<event>
 5   0  0.7268013E-07  0.3781501E+04  0.7818609E-02  0.8050136E-01
       -2   -1    0    0    0  501  0.00000000000E+00  0.00000000000E+00  0.18746172508E+04  0.18746172508E+04  0.25500000920E-02 0.  1.
        2   -1    0    0  501    0  0.00000000000E+00  0.00000000000E+00 -0.19070225941E+04  0.19070225941E+04  0.25500000920E-02 0. -1.
    10030    2    1    2    0    0  0.00000000000E+00  0.00000000000E+00 -0.32405343254E+02  0.37816398449E+04  0.37815009997E+04 0.  0.
        4    1    3    3  502    0  0.20347992391E+03 -0.18783389453E+02 -0.18959469108E+04  0.19069276852E+04  0.12699999809E+01 0. -1.
       -4    1    3    3    0  502 -0.20347992391E+03  0.18783389453E+02  0.18635415675E+04  0.18747121597E+04  0.12699999809E+01 0.  1.
</event>
<event>
 5   0  0.1015219E-06  0.3905331E+04  0.7818609E-02  0.8023921E-01
       -2   -1    0    0    0  501  0.00000000000E+00  0.00000000000E+00  0.32626625455E+04  0.32626625455E+04  0.25500000920E-02 0. -1.
        2   -1    0    0  501    0  0.00000000000E+00  0.00000000000E+00 -0.11686472573E+04  0.11686472574E+04  0.25500000920E-02 0.  1.
    10030    2    1    2    0    0  0.00000000000E+00  0.00000000000E+00  0.20940152882E+04  0.44313098029E+04  0.39053305291E+04 0.  0.
        3    1    3    3  502    0  0.40761091293E+03  0.12782570082E+04  0.26568232688E+04  0.29763732171E+04  0.10100000352E+00 0. -1.
       -3    1    3    3    0  502 -0.40761091293E+03 -0.12782570082E+04 -0.56280798063E+03  0.14549365858E+04  0.10100000352E+00 0.  1.
</event>
<event>
 5   0  0.3471602E-07  0.3734768E+04  0.7818609E-02  0.8060300E-01
        1   -1    0    0  501    0  0.00000000000E+00  0.00000000000E+00  0.17116195668E+04  0.17116195668E+04  0.50400001928E-02 0. -1.
       -1   -1    0    0    0  501  0.00000000000E+00  0.00000000000E+00 -0.20373231696E+04  0.20373231696E+04  0.50400001928E-02 0.  1.
    10030    2    1    2    0    0  0.00000000000E+00  0.00000000000E+00 -0.32570360281E+03  0.37489427365E+04  0.37347675703E+04 0.  0.
        5    1    3    3  502    0  0.86342585520E+03  0.35692167595E+03  0.14601345484E+04  0.17334682805E+04  0.46999998093E+01 0. -1.
       -5    1    3    3    0  502 -0.86342585520E+03 -0.35692167595E+03 -0.17858381512E+04  0.20154744559E+04  0.46999998093E+01 0.  1.
</event>
<event>
 5   0  0.5533705E-07  0.3795984E+04  0.7818609E-02  0.8047017E-01
        2   -1    0    0  501    0  0.00000000000E+00  0.00000000000E+00  0.29068188179E+04  0.29068188179E+04  0.25500000920E-02 0. -1.
       -2   -1    0    0    0  501  0.00000000000E+00  0.00000000000E+00 -0.12392838832E+04  0.12392838832E+04  0.25500000920E-02 0.  1.
    10030    2    1    2    0    0  0.00000000000E+00  0.00000000000E+00  0.16675349347E+04  0.41461027012E+04  0.37959840424E+04 0.  0.
        1    1    3    3  502    0  0.10398255241E+04  0.96722547225E+02  0.25648054307E+04  0.27692633080E+04  0.50400001928E-02 0. -1.
       -1    1    3    3    0  502 -0.10398255241E+04 -0.96722547225E+02 -0.89727049597E+03  0.13768393932E+04  0.50400001928E-02 0.  1.
</event>
<event>
 5   0  0.6604231E-07  0.1970224E+04  0.7818609E-02  0.8620670E-01
        2   -1    0    0  501    0  0.00000000000E+00  0.00000000000E+00  0.10194399854E+04  0.10194399854E+04  0.25500000920E-02 0.  1.
       -2   -1    0    0    0  501  0.00000000000E+00  0.00000000000E+00 -0.95194005210E+03  0.95194005211E+03  0.25500000920E-02 0. -1.
    10030    2    1    2    0    0  0.00000000000E+00  0.00000000000E+00  0.67499933299E+02  0.19713800375E+04  0.19702241018E+04 0.  0.
        1    1    3    3  502    0  0.69594466233E+02 -0.17135959989E+03  0.10019117092E+04  0.10188398183E+04  0.50400001928E-02 0.  1.
       -1    1    3    3    0  502 -0.69594466233E+02  0.17135959989E+03 -0.93441177594E+03  0.95254021922E+03  0.50400001928E-02 0. -1.
</event>
<event>
 5   0  0.7268013E-07  0.3649150E+04  0.7818609E-02  0.8079325E-01
        2   -1    0    0  501    0  0.00000000000E+00  0.00000000000E+00  0.23815292869E+04  0.23815292869E+04  0.25500000920E-02 0. -1.
       -2   -1    0    0    0  501  0.00000000000E+00  0.00000000000E+00 -0.13978724359E+04  0.13978724359E+04  0.25500000920E-02 0.  1.
    10030    2    1    2    0    0  0.00000000000E+00  0.00000000000E+00  0.98365685100E+03  0.37794017229E+04  0.36491501178E+04 0.  0.
        4    1    3    3  502    0  0.50473931641E+03 -0.13276411552E+04 -0.69433691187E+03  0.15809801310E+04  0.12699999809E+01 0. -1.
       -4    1    3    3    0  502 -0.50473931641E+03  0.13276411552E+04  0.16779937629E+04  0.21984215919E+04  0.12699999809E+01 0.  1.
</event>
<event>
 5   0  0.7268013E-07  0.2223118E+04  0.7818609E-02  0.8508867E-01
        2   -1    0    0  501    0  0.00000000000E+00  0.00000000000E+00  0.93052052961E+03  0.93052052961E+03  0.25500000920E-02 0.  1.
       -2   -1    0    0    0  501  0.00000000000E+00  0.00000000000E+00 -0.13278190503E+04  0.13278190503E+04  0.25500000920E-02 0. -1.
    10030    2    1    2    0    0  0.00000000000E+00  0.00000000000E+00 -0.39729852074E+03  0.22583395800E+04  0.22231175281E+04 0.  0.
        4    1    3    3  502    0  0.48146102684E+03  0.95456673208E+03 -0.50770437218E+03  0.11835403283E+04  0.12699999809E+01 0.  1.
       -4    1    3    3    0  502 -0.48146102684E+03 -0.95456673208E+03  0.11040585144E+03  0.10747992516E+04  0.12699999809E+01 0. -1.
</event>
<event>
 5   0  0.5533705E-07  0.3700262E+04  0.7818609E-02  0.8067904E-01
       -2   -1    0    0    0  501  0.00000000000E+00  0.00000000000E+00  0.13905584472E+04  0.13905584472E+04  0.25500000920E-02 0.  1.
        2   -1    0    0  501    0  0.00000000000E+00  0.00000000000E+00 -0.24615895266E+04  0.24615895266E+04  0.25500000920E-02 0. -1.
    10030    2    1    2    0    0  0.00000000000E+00  0.00000000000E+00 -0.10710310794E+04  0.38521479739E+04  0.37002616717E+04 0.  0.
        1    1    3    3  502    0 -0.95440981995E+03 -0.35122326452E+03 -0.21445075767E+04  0.23734297193E+04  0.50400001928E-02 0. -1.
       -1    1    3    3    0  502  0.95440981995E+03  0.35122326452E+03  0.10734764973E+04  0.14787182545E+04  0.50400001928E-02 0.  1.
</event>
<event>
 5   0  0.1034683E-06  0.3292562E+04  0.7818609E-02  0.8164791E-01
        2   -1    0    0  501    0  0.00000000000E+00  0.00000000000E+00  0.16806899939E+04  0.16806899939E+04  0.25500000920E-02 0. -1.
       -2   -1    0    0    0  501  0.00000000000E+00  0.00000000000E+00 -0.16125760851E+04  0.16125760851E+04  0.25500000920E-02 0.  1.
    10030    2    1    2    0    0  0.00000000000E+00  0.00000000000E+00  0.68113908743E+02  0.32932660790E+04  0.32925616110E+04 0.  0.
        2    1    3    3  502    0 -0.56052312399E+03  0.13443211035E+04  0.80159007784E+03  0.16625077608E+04  0.25500000920E-02 0. -1.
       -2    1    3    3    0  502  0.56052312399E+03 -0.13443211035E+04 -0.73347616910E+03  0.16307583182E+04  0.25500000920E-02 0.  1.
</event>
<event>
 5   0  0.5533705E-07  0.2602226E+04  0.7818609E-02  0.8367445E-01
       -2   -1    0    0    0  501  0.00000000000E+00  0.00000000000E+00  0.12044650639E+04  0.12044650639E+04  0.25500000920E-02 0.  1.
        2   -1    0    0  501    0  0.00000000000E+00  0.00000000000E+00 -0.14055165759E+04  0.14055165759E+04  0.25500000920E-02 0. -1.
    10030    2    1    2    0    0  0.00000000000E+00  0.00000000000E+00 -0.20105151204E+03  0.26099816398E+04  0.26022264409E+04 0.  0.
        1    1    3    3  502    0 -0.31164700395E+03 -0.21280784682E+03 -0.13494212316E+04  0.14011954521E+04  0.50400001928E-02 0. -1.
       -1    1    3    3    0  502  0.31164700395E+03  0.21280784682E+03  0.11483697196E+04  0.12087861877E+04  0.50400001928E-02 0.  1.
</event>
<event>
 5   0  0.1034683E-06  0.3915160E+04  0.7818609E-02  0.8021884E-01
       -2   -1    0    0    0  501  0.00000000000E+00  0.00000000000E+00  0.29660494745E+04  0.29660494745E+04  0.25500000920E-02 0. -1.
        2   -1    0    0  501    0  0.00000000000E+00  0.00000000000E+00 -0.12919946714E+04  0.12919946714E+04  0.25500000920E-02 0.  1.
    10030    2    1    2    0    0  0.00000000000E+00  0.00000000000E+00  0.16740548031E+04  0.42580441458E+04  0.39151603370E+04 0.  0.
        2    1    3    3  502    0  0.17091333880E+04  0.79065365245E+03  0.14185005849E+04  0.23576289032E+04  0.25500000920E-02 0. -1.
       -2    1    3    3    0  502 -0.17091333880E+04 -0.79065365245E+03  0.25555421824E+03  0.19004152426E+04  0.25500000920E-02 0.  1.
</event>
<event>
 5   0  0.3977376E-07  0.3877286E+04  0.7818609E-02  0.8029770E-01
        1   -1    0    0  501    0  0.00000000000E+00  0.00000000000E+00  0.24554534478E+04  0.24554534478E+04  0.50400001928E-02 0. -1.
       -1   -1    0    0    0  501  0.00000000000E+00  0.00000000000E+00 -0.15306083634E+04  0.15306083634E+04  0.50400001928E-02 0.  1.
    10030    2    1    2    0    0  0.00000000000E+00  0.00000000000E+00  0.92484508440E+03  0.39860618112E+04  0.38772864651E+04 0.  0.
        4    1    3    3  502    0 -0.15283038368E+04  0.10014423087E+04 -0.20362401593E+03  0.18384949464E+04  0.12699999809E+01 0.  1.
       -4    1    3    3    0  502  0.15283038368E+04 -0.10014423087E+04  0.11284691003E+04  0.21475668648E+04  0.12699999809E+01 0. -1.
</event>
<event>
 5   0  0.1035864E-06  0.2385854E+04  0.7818609E-02  0.8444818E-01
        2   -1    0    0  501    0  0.00000000000E+00  0.00000000000E+00  0.23306361767E+04  0.23306361767E+04  0.25500000920E-02 0.  1.
       -2   -1    0    0    0  501  0.00000000000E+00  0.00000000000E+00 -0.61059522409E+03  0.61059522410E+03  0.25500000920E-02 0. -1.
    10030    2    1    2    0    0  0.00000000000E+00  0.00000000000E+00  0.17200409526E+04  0.29412314008E+04  0.23858544118E+04 0.  0.
        5    1    3    3  502    0  0.34109151584E+03  0.11369121995E+04  0.71342621149E+03  0.13848869343E+04  0.46999998093E+01 0. -1.
       -5    1    3    3    0  502 -0.34109151584E+03 -0.11369121995E+04  0.10066147411E+04  0.15563444665E+04  0.46999998093E+01 0.  1.
</event>
<event>
 5   0  0.4316671E-07  0.2102195E+04  0.7818609E-02  0.8560277E-01
        1   -1    0    0  501    0  0.00000000000E+00  0.00000000000E+00  0.20093531380E+04  0.20093531380E+04  0.50400001928E-02 0.  1.
       -1   -1    0    0    0  501  0.00000000000E+00  0.00000000000E+00 -0.54983157075E+03  0.54983157077E+03  0.50400001928E-02 0. -1.
    10030    2    1    2    0    0  0.00000000000E+00  0.00000000000E+00  0.14595215672E+04  0.25591847088E+04  0.21021948455E+04 0.  0.
        2    1    3    3  502    0  0.87846106193E+03  0.27060093224E+03  0.13503739981E+04  0.16335325637E+04  0.25500000920E-02 0.  1.
       -2    1    3    3    0  502 -0.87846106193E+03 -0.27060093224E+03  0.10914756913E+03  0.92565214509E+03  0.25500000920E-02 0. -1.
</event>
<event>
 5   0  0.3191750E-07  0.3871939E+04  0.7818609E-02  0.8030891E-01
        3   -1    0    0  501    0  0.00000000000E+00  0.00000000000E+00  0.16631734267E+04  0.16631734298E+04  0.10100000352E+00 0.  1.
       -3   -1    0    0    0  501  0.00000000000E+00  0.00000000000E+00 -0.22535104740E+04  0.22535104763E+04  0.10100000352E+00 0. -1.
    10030    2    1    2    0    0  0.00000000000E+00  0.00000000000E+00 -0.59033704729E+03  0.39166839061E+04  0.38719394353E+04 0.  0.
        4    1    3    3  502    0  0.16096961844E+04  0.65207218597E+03 -0.11604228735E+04  0.20887562807E+04  0.12699999809E+01 0. -1.
       -4    1    3    3    0  502 -0.16096961844E+04 -0.65207218597E+03  0.57008582624E+03  0.18279276254E+04  0.12699999809E+01 0.  1.
</event>
<event>
 5   0  0.5533705E-07  0.3727517E+04  0.7818609E-02  0.8061891E-01
        2   -1    0    0  501    0  0.00000000000E+00  0.00000000000E+00  0.23236894726E+04  0.23236894726E+04  0.25500000920E-02 0. -1.
       -2   -1    0    0    0  501  0.00000000000E+00  0.00000000000E+00 -0.14948623312E+04  0.14948623312E+04  0.25500000920E-02 0.  1.
    10030    2    1    2    0    0  0.00000000000E+00  0.00000000000E+00  0.82882714135E+03  0.38185518038E+04  0.37275170621E+04 0.  0.
        1    1    3    3  502    0  0.17796842476E+04 -0.53769516871E+03  0.54877993347E+03  0.19384404894E+04  0.50400001928E-02 0.  1.
       -1    1    3    3    0  502 -0.17796842476E+04  0.53769516871E+03  0.28004720788E+03  0.18801113144E+04  0.50400001928E-02 0. -1.
</event>
<event>
 5   0  0.5533705E-07  0.4102420E+04  0.7818609E-02  0.7984198E-01
        2   -1    0    0  501    0  0.00000000000E+00  0.00000000000E+00  0.28618172744E+04  0.28618172744E+04  0.25500000920E-02 0. -1.
       -2   -1    0    0    0  501  0.00000000000E+00  0.00000000000E+00 -0.14702067989E+04  0.14702067989E+04  0.25500000920E-02 0.  1.
    10030    2    1    2    0    0  0.00000000000E+00  0.00000000000E+00  0.13916104755E+04  0.43320240733E+04  0.41024203657E+04 0.  0.
        1    1    3    3  502    0 -0.19330703617E+04  0.24868918444E+03  0.20599963362E+02  0.19491104874E+04  0.50400001928E-02 0. -1.
       -1    1    3    3    0  502  0.19330703617E+04 -0.24868918444E+03  0.13710105121E+04  0.23829135859E+04  0.50400001928E-02 0.  1.
</event>
<event>
 5   0  0.5385714E-07  0.3898985E+04  0.7818609E-02  0.8025240E-01
        1   -1    0    0  501    0  0.00000000000E+00  0.00000000000E+00  0.19630671113E+04  0.19630671113E+04  0.50400001928E-02 0.  1.
       -1   -1    0    0    0  501  0.00000000000E+00  0.00000000000E+00 -0.19360113052E+04  0.19360113052E+04  0.50400001928E-02 0. -1.
    10030    2    1    2    0    0  0.00000000000E+00  0.00000000000E+00  0.27055806051E+02  0.38990784165E+04  0.38989845449E+04 0.  0.
        3    1    3    3  502    0  0.21984609214E+03 -0.60516531087E+03 -0.18266149704E+04  0.19367704092E+04  0.10100000352E+00 0. -1.
       -3    1    3    3    0  502 -0.21984609214E+03  0.60516531087E+03  0.18536707765E+04  0.19623080073E+04  0.10100000352E+00 0.  1.
</event>
<event>
 5   0  0.4316671E-07  0.2367195E+04  0.7818609E-02  0.8451888E-01
        1   -1    0    0  501    0  0.00000000000E+00  0.00000000000E+00  0.21172584194E+04  0.21172584194E+04  0.50400001928E-02 0. -1.
       -1   -1    0    0    0  501  0.00000000000E+00  0.00000000000E+00 -0.66165899249E+03  0.66165899251E+03  0.50400001928E-02 0.  1.
    10030    2    1    2    0    0  0.00000000000E+00  0.00000000000E+00  0.14555994269E+04  0.27789174119E+04  0.23671950259E+04 0.  0.
        2    1    3    3  502    0 -0.90324773741E+03 -0.76087824414E+03  0.63603113287E+03  0.13413902413E+04  0.25500000920E-02 0. -1.
       -2    1    3    3    0  502  0.90324773741E+03  0.76087824414E+03  0.81956829400E+03  0.14375271705E+04  0.25500000920E-02 0.  1.
</event>
<event>
 5   0  0.3191750E-07  0.1984956E+04  0.7818609E-02  0.8613687E-01
       -3   -1    0    0    0  501  0.00000000000E+00  0.00000000000E+00  0.12357794586E+04  0.12357794627E+04  0.10100000352E+00 0.  1.
        3   -1    0    0  501    0  0.00000000000E+00  0.00000000000E+00 -0.79707792234E+03  0.79707792874E+03  0.10100000352E+00 0. -1.
    10030    2    1    2    0    0  0.00000000000E+00  0.00000000000E+00  0.43870153629E+03  0.20328573915E+04  0.19849559532E+04 0.  0.
        2    1    3    3  502    0 -0.77301730662E+02  0.17483384786E+03 -0.77804578234E+03  0.80118516670E+03  0.25500000920E-02 0. -1.
       -2    1    3    3    0  502  0.77301730662E+02 -0.17483384786E+03  0.12167473186E+04  0.12316722248E+04  0.25500000920E-02 0.  1.
</event>
<event>
 5   0  0.7268013E-07  0.2181238E+04  0.7818609E-02  0.8526278E-01
       -2   -1    0    0    0  501  0.00000000000E+00  0.00000000000E+00  0.67913709097E+03  0.67913709097E+03  0.25500000920E-02 0. -1.
        2   -1    0    0  501    0  0.00000000000E+00  0.00000000000E+00 -0.17514128301E+04  0.17514128301E+04  0.25500000920E-02 0.  1.
    10030    2    1    2    0    0  0.00000000000E+00  0.00000000000E+00 -0.10722757391E+04  0.24305499210E+04  0.21812376436E+04 0.  0.
        4    1    3    3  502    0 -0.10302969469E+04 -0.35750217906E+03 -0.54875431094E+03  0.12208409042E+04  0.12699999809E+01 0.  1.
       -4    1    3    3    0  502  0.10302969469E+04  0.35750217906E+03 -0.52352142817E+03  0.12097090168E+04  0.12699999809E+01 0. -1.
</event>
<event>
 5   0  0.7268013E-07  0.3768686E+04  0.7818609E-02  0.8052908E-01
        2   -1    0    0  501    0  0.00000000000E+00  0.00000000000E+00  0.12890417855E+04  0.12890417855E+04  0.25500000920E-02 0. -1.
       -2   -1    0    0    0  501  0.00000000000E+00  0.00000000000E+00 -0.27545645695E+04  0.27545645695E+04  0.25500000920E-02 0.  1.
    10030    2    1    2    0    0  0.00000000000E+00  0.00000000000E+00 -0.14655227840E+04  0.40436063549E+04  0.37686861534E+04 0.  0.
        4    1    3    3  502    0 -0.12696622422E+04  0.83571728186E+03  0.46215922552E+03  0.15887285316E+04  0.12699999809E+01 0. -1.
       -4    1    3    3    0  502  0.12696622422E+04 -0.83571728186E+03 -0.19276820095E+04  0.24548778233E+04  0.12699999809E+01 0.  1.
</event>
<event>
 5   0  0.5533705E-07  0.2577650E+04  0.7818609E-02  0.8375833E-01
        2   -1    0    0  501    0  0.00000000000E+00  0.00000000000E+00  0.14864723864E+04  0.14864723864E+04  0.25500000920E-02 0.  1.
       -2   -1    0    0    0  501  0.00000000000E+00  0.00000000000E+00 -0.11174575287E+04  0.11174575287E+04  0.25500000920E-02 0. -1.
    10030    2    1    2    0    0  0.00000000000E+00  0.00000000000E+00  0.36901485771E+03  0.26039299152E+04  0.25776499060E+04 0.  0.
        1    1    3    3  502    0 -0.50609136958E+02  0.92140380194E+03  0.10934157763E+04  0.14307705305E+04  0.50400001928E-02 0.  1.
       -1    1    3    3    0  502  0.50609136958E+02 -0.92140380194E+03 -0.72440091862E+03  0.11731593847E+04  0.50400001928E-02 0. -1.
</event>
<event>
 5   0  0.3977376E-07  0.3710556E+04  0.7818609E-02  0.8065626E-01
       -1   -1    0    0    0  501  0.00000000000E+00  0.00000000000E+00  0.15179916821E+04  0.15179916821E+04  0.50400001928E-02 0. -1.
        1   -1    0    0  501    0  0.00000000000E+00  0.00000000000E+00 -0.22675069385E+04  0.22675069385E+04  0.50400001928E-02 0.  1.
    10030    2    1    2    0    0  0.00000000000E+00  0.00000000000E+00 -0.74951525644E+03  0.37854986206E+04  0.37105561156E+04 0.  0.
        4    1    3    3  502    0  0.37204756755E+03 -0.13229056256E+04 -0.16463490711E+04  0.21445198911E+04  0.12699999809E+01 0.  1.
       -4    1    3    3    0  502 -0.37204756755E+03  0.13229056256E+04  0.89683381464E+03  0.16409787295E+04  0.12699999809E+01 0. -1.
</event>
<event>
 5   0  0.7268013E-07  0.2769044E+04  0.7818609E-02  0.8312944E-01
       -2   -1    0    0    0  501  0.00000000000E+00  0.00000000000E+00  0.76283826482E+03  0.76283826482E+03  0.25500000920E-02 0.  1.
        2   -1    0    0  501    0  0.00000000000E+00  0.00000000000E+00 -0.25128533852E+04  0.25128533852E+04  0.25500000920E-02 0. -1.
    10030    2    1    2    0    0  0.00000000000E+00  0.00000000000E+00 -0.17500151204E+04  0.32756916501E+04  0.27690436733E+04 0.  0.
        4    1    3    3  502    0 -0.62088600336E+03 -0.21470775726E+03 -0.23167256100E+04  0.24080735070E+04  0.12699999809E+01 0. -1.
       -4    1    3    3    0  502  0.62088600336E+03  0.21470775726E+03  0.56671048961E+03  0.86761814303E+03  0.12699999809E+01 0.  1.
</event>
<event>
 5   0  0.4316671E-07  0.3914567E+04  0.7818609E-02  0.8022006E-01
       -1   -1    0    0    0  501  0.00000000000E+00  0.00000000000E+00  0.18588306037E+04  0.18588306037E+04  0.50400001928E-02 0.  1.
        1   -1    0    0  501    0  0.00000000000E+00  0.00000000000E+00 -0.20609508225E+04  0.20609508225E+04  0.50400001928E-02 0. -1.
    10030    2    1    2    0    0  0.00000000000E+00  0.00000000000E+00 -0.20212021876E+03  0.39197814263E+04  0.39145668786E+04 0.  0.
        2    1    3    3  502    0 -0.95214077795E+02  0.10987778774E+04 -0.17201803204E+04  0.20433792794E+04  0.25500000920E-02 0. -1.
       -2    1    3    3    0  502  0.95214077795E+02 -0.10987778774E+04  0.15180601017E+04  0.18764021469E+04  0.25500000920E-02 0.  1.
</event>
<event>
 5   0  0.5533705E-07  0.2448073E+04  0.7818609E-02  0.8421722E-01
        2   -1    0    0  501    0  0.00000000000E+00  0.00000000000E+00  0.17468019060E+04  0.17468019060E+04  0.25500000920E-02 0. -1.
       -2   -1    0    0    0  501  0.00000000000E+00  0.00000000000E+00 -0.85771880392E+03  0.85771880392E+03  0.25500000920E-02 0.  1.
    10030    2    1    2    0    0  0.00000000000E+00  0.00000000000E+00  0.88908310204E+03  0.26045207099E+04  0.24480725818E+04 0.  0.
        1    1    3    3  502    0 -0.18277222131E+03  0.71280124085E+03 -0.59611663552E+03  0.94701971311E+03  0.50400001928E-02 0.  1.
       -1    1    3    3    0  502  0.18277222131E+03 -0.71280124085E+03  0.14851997376E+04  0.16575009968E+04  0.50400001928E-02 0. -1.
</event>
<event>
 5   0  0.1015219E-06  0.4481201E+04  0.7818609E-02  0.7913936E-01
        2   -1    0    0  501    0  0.00000000000E+00  0.00000000000E+00  0.25919199608E+04  0.25919199608E+04  0.25500000920E-02 0.  1.
       -2   -1    0    0    0  501  0.00000000000E+00  0.00000000000E+00 -0.19369001220E+04  0.19369001220E+04  0.25500000920E-02 0. -1.
    10030    2    1    2    0    0  0.00000000000E+00  0.00000000000E+00  0.65501983883E+03  0.45288200827E+04  0.44812007713E+04 0.  0.
        3    1    3    3  502    0  0.49563567384E+03 -0.20931744364E+04 -0.30625532554E+03  0.21727462523E+04  0.10100000352E+00 0. -1.
       -3    1    3    3    0  502 -0.49563567384E+03  0.20931744364E+04  0.96127516437E+03  0.23560738304E+04  0.10100000352E+00 0.  1.
</event>
<event>
 5   0  0.3977376E-07  0.3613878E+04  0.7818609E-02  0.8087320E-01
        1   -1    0    0  501    0  0.00000000000E+00  0.00000000000E+00  0.10975553656E+04  0.10975553656E+04  0.50400001928E-02 0. -1.
       -1   -1    0    0    0  501  0.00000000000E+00  0.00000000000E+00 -0.29748186361E+04  0.29748186361E+04  0.50400001928E-02 0.  1.
    10030    2    1    2    0    0  0.00000000000E+00  0.00000000000E+00 -0.18772632706E+04  0.40723740017E+04  0.36138777819E+04 0.  0.
        4    1    3    3  502    0 -0.12623425966E+04  0.12925217464E+04 -0.97253616066E+03  0.20518161450E+04  0.12699999809E+01 0. -1.
       -4    1    3    3    0  502  0.12623425966E+04 -0.12925217464E+04 -0.90472710993E+03  0.20205578567E+04  0.12699999809E+01 0.  1.
</event>
<event>
 5   0  0.5717181E-07  0.1991296E+04  0.7818609E-02  0.8610701E-01
        1   -1    0    0  501    0  0.00000000000E+00  0.00000000000E+00  0.15465686999E+04  0.15465686999E+04  0.50400001928E-02 0.  1.
       -1   -1    0    0    0  501  0.00000000000E+00  0.00000000000E+00 -0.64097687287E+03  0.64097687289E+03  0.50400001928E-02 0. -1.
    10030    2    1    2    0    0  0.00000000000E+00  0.00000000000E+00  0.90559182701E+03  0.21875455728E+04  0.19912958283E+04 0.  0.
        4    1    3    3  502    0 -0.93791792243E+03  0.19877831903E+02  0.81917306931E+03  0.12454442130E+04  0.12699999809E+01 0.  1.
       -4    1    3    3    0  502  0.93791792243E+03 -0.19877831903E+02  0.86418757701E+02  0.94210135973E+03  0.12699999809E+01 0. -1.
</event>
<event>
 5   0  0.4316671E-07  0.2742356E+04  0.7818609E-02  0.8321391E-01
        1   -1    0    0  501    0  0.00000000000E+00  0.00000000000E+00  0.25830138813E+04  0.25830138813E+04  0.50400001928E-02 0.  1.
       -1   -1    0    0    0  501  0.00000000000E+00  0.00000000000E+00 -0.72788186320E+03  0.72788186322E+03  0.50400001928E-02 0. -1.
    10030    2    1    2    0    0  0.00000000000E+00  0.00000000000E+00  0.18551320181E+04  0.33108957445E+04  0.27423558898E+04 0.  0.
        2    1    3    3  502    0  0.40755494397E+03 -0.47866404272E+03 -0.54363346401E+03  0.83111830768E+03  0.25500000920E-02 0. -1.
       -2    1    3    3    0  502 -0.40755494397E+03  0.47866404272E+03  0.23987654821E+04  0.24797774369E+04  0.25500000920E-02 0.  1.
</event>
<event>
 5   0  0.7268013E-07  0.4008806E+04  0.7818609E-02  0.8002772E-01
        2   -1    0    0  501    0  0.00000000000E+00  0.00000000000E+00  0.18822830021E+04  0.18822830021E+04  0.25500000920E-02 0. -1.
       -2   -1    0    0    0  501  0.00000000000E+00  0.00000000000E+00 -0.21344460924E+04  0.21344460924E+04  0.25500000920E-02 0.  1.
    10030    2    1    2    0    0  0.00000000000E+00  0.00000000000E+00 -0.25216309032E+03  0.40167290945E+04  0.40088061058E+04 0.  0.
        4    1    3    3  502    0 -0.41784600067E+03 -0.99463774215E+03 -0.18187190780E+04  0.21146253134E+04  0.12699999809E+01 0.  1.
       -4    1    3    3    0  502  0.41784600067E+03  0.99463774215E+03  0.15665559877E+04  0.19021037811E+04  0.12699999809E+01 0. -1.
</event>
<event>
 5   0  0.3977376E-07  0.3898752E+04  0.7818609E-02  0.8025289E-01
       -1   -1    0    0    0  501  0.00000000000E+00  0.00000000000E+00  0.21053821390E+04  0.21053821390E+04  0.50400001928E-02 0.  1.
        1   -1    0    0  501    0  0.00000000000E+00  0.00000000000E+00 -0.18049292912E+04  0.18049292912E+04  0.50400001928E-02 0. -1.
    10030    2    1    2    0    0  0.00000000000E+00  0.00000000000E+00  0.30045284776E+03  0.39103114302E+04  0.38987515396E+04 0.  0.
        4    1    3    3  502    0 -0.90715743594E+03  0.22748159554E+02  0.18806280554E+04  0.20881129251E+04  0.12699999809E+01 0.  1.
       -4    1    3    3    0  502  0.90715743594E+03 -0.22748159554E+02 -0.15801752076E+04  0.18221985051E+04  0.12699999809E+01 0. -1.
</event>
<event>
 5   0  0.7268013E-07  0.2287590E+04  0.7818609E-02  0.8482830E-01
       -2   -1    0    0    0  501  0.00000000000E+00  0.00000000000E+00  0.87429351455E+03  0.87429351455E+03  0.25500000920E-02 0.  1.
        2   -1    0    0  501    0  0.00000000000E+00  0.00000000000E+00 -0.14963705354E+04  0.14963705354E+04  0.25500000920E-02 0. -1.
    10030    2    1    2    0    0  0.00000000000E+00  0.00000000000E+00 -0.62207702086E+03  0.23706640500E+04  0.22875900459E+04 0.  0.
        4    1    3    3  502    0  0.12977928019E+03 -0.25258768405E+03  0.83717906428E+03  0.88403257760E+03  0.12699999809E+01 0.  1.
       -4    1    3    3    0  502 -0.12977928019E+03  0.25258768405E+03 -0.14592560851E+04  0.14866314724E+04  0.12699999809E+01 0. -1.
</event>
<event>
 5   0  0.3191750E-07  0.2376096E+04  0.7818609E-02  0.8448507E-01
       -3   -1    0    0    0  501  0.00000000000E+00  0.00000000000E+00  0.12792056210E+04  0.12792056250E+04  0.10100000352E+00 0. -1.
        3   -1    0    0  501    0  0.00000000000E+00  0.00000000000E+00 -0.11033866444E+04  0.11033866490E+04  0.10100000352E+00 0.  1.
    10030    2    1    2    0    0  0.00000000000E+00  0.00000000000E+00  0.17581897665E+03  0.23825922740E+04  0.23760963010E+04 0.  0.
        1    1    3    3  502    0  0.68508412805E+03  0.40565706249E+03 -0.79629514062E+03  0.11260478968E+04  0.50400001928E-02 0.  1.
       -1    1    3    3    0  502 -0.68508412805E+03 -0.40565706249E+03  0.97211411727E+03  0.12565443772E+04  0.50400001928E-02 0. -1.
</event>
<event>
 5   0  0.5533705E-07  0.3887908E+04  0.7818609E-02  0.8027549E-01
        2   -1    0    0  501    0  0.00000000000E+00  0.00000000000E+00  0.27715074122E+04  0.27715074122E+04  0.25500000920E-02 0. -1.
       -2   -1    0    0    0  501  0.00000000000E+00  0.00000000000E+00 -0.13635025252E+04  0.13635025252E+04  0.25500000920E-02 0.  1.
    10030    2    1    2    0    0  0.00000000000E+00  0.00000000000E+00  0.14080048870E+04  0.41350099374E+04  0.38879081034E+04 0.  0.
        1    1    3    3  502    0 -0.12671783338E+04 -0.97863440231E+03  0.18765661936E+04  0.24667725679E+04  0.50400001928E-02 0.  1.
       -1    1    3    3    0  502  0.12671783338E+04  0.97863440231E+03 -0.46856130654E+03  0.16682373695E+04  0.50400001928E-02 0. -1.
</event>
<event>
 5   0  0.3977376E-07  0.3893569E+04  0.7818609E-02  0.8026368E-01
        1   -1    0    0  501    0  0.00000000000E+00  0.00000000000E+00  0.26218218683E+04  0.26218218683E+04  0.50400001928E-02 0.  1.
       -1   -1    0    0    0  501  0.00000000000E+00  0.00000000000E+00 -0.14455480643E+04  0.14455480643E+04  0.50400001928E-02 0. -1.
    10030    2    1    2    0    0  0.00000000000E+00  0.00000000000E+00  0.11762738040E+04  0.40673699326E+04  0.38935688137E+04 0.  0.
        4    1    3    3  502    0  0.19216534131E+04 -0.20984360611E+03  0.34723120611E+03  0.19640156065E+04  0.12699999809E+01 0. -1.
       -4    1    3    3    0  502 -0.19216534131E+04  0.20984360611E+03  0.82904259789E+03  0.21033543261E+04  0.12699999809E+01 0.  1.
</event>
<event>
 5   0  0.3191750E-07  0.2045056E+04  0.7818609E-02  0.8585840E-01
       -3   -1    0    0    0  501  0.00000000000E+00  0.00000000000E+00  0.11312331388E+04  0.11312331433E+04  0.10100000352E+00 0.  1.
        3   -1    0    0  501    0  0.00000000000E+00  0.00000000000E+00 -0.92426891989E+03  0.92426892541E+03  0.10100000352E+00 0. -1.
    10030    2    1    2    0    0  0.00000000000E+00  0.00000000000E+00  0.20696421886E+03  0.20555020687E+04  0.20450561279E+04 0.  0.
        1    1    3    3  502    0  0.20530709984E+03  0.96094145991E+03 -0.18081270332E+03  0.99912598221E+03  0.50400001928E-02 0. -1.
       -1    1    3    3    0  502 -0.20530709984E+03 -0.96094145991E+03  0.38777692218E+03  0.10563760865E+04  0.50400001928E-02 0.  1.
</event>
<event>
 5   0  0.1015219E-06  0.2266318E+04  0.7818609E-02  0.8491321E-01
        2   -1    0    0  501    0  0.00000000000E+00  0.00000000000E+00  0.17574517236E+04  0.17574517236E+04  0.25500000920E-02 0. -1.
       -2   -1    0    0    0  501  0.00000000000E+00  0.00000000000E+00 -0.73063163888E+03  0.73063163888E+03  0.25500000920E-02 0.  1.
    10030    2    1    2    0    0  0.00000000000E+00  0.00000000000E+00  0.10268200847E+04  0.24880833625E+04  0.22663184534E+04 0.  0.
        3    1    3    3  502    0  0.73102329092E+03 -0.72178805136E+03 -0.11584787134E+02  0.10273788301E+04  0.10100000352E+00 0. -1.
       -3    1    3    3    0  502 -0.73102329092E+03  0.72178805136E+03  0.10384048719E+04  0.14607045324E+04  0.10100000352E+00 0.  1.
</event>
<event>
 5   0  0.4627905E-07  0.2121384E+04  0.7818609E-02  0.8551882E-01
        1   -1    0    0  501    0  0.00000000000E+00  0.00000000000E+00  0.19208274086E+04  0.19208274087E+04  0.50400001928E-02 0.  1.
       -1   -1    0    0    0  501  0.00000000000E+00  0.00000000000E+00 -0.58572026492E+03  0.58572026494E+03  0.50400001928E-02 0. -1.
    10030    2    1    2    0    0  0.00000000000E+00  0.00000000000E+00  0.13351071437E+04  0.25065476736E+04  0.21213840187E+04 0.  0.
        1    1    3    3  502    0  0.46292718583E+03  0.69759683027E+03 -0.10193720545E+03  0.84340625493E+03  0.50400001928E-02 0. -1.
       -1    1    3    3    0  502 -0.46292718583E+03 -0.69759683027E+03  0.14370443492E+04  0.16631414187E+04  0.50400001928E-02 0.  1.
</event>
<event>
 5   0  0.3471602E-07  0.3699982E+04  0.7818609E-02  0.8067966E-01
        1   -1    0    0  501    0  0.00000000000E+00  0.00000000000E+00  0.21139075140E+04  0.21139075140E+04  0.50400001928E-02 0. -1.
       -1   -1    0    0    0  501  0.00000000000E+00  0.00000000000E+00 -0.16190236303E+04  0.16190236303E+04  0.50400001928E-02 0.  1.
    10030    2    1    2    0    0  0.00000000000E+00  0.00000000000E+00  0.49488388371E+03  0.37329311443E+04  0.36999817391E+04 0.  0.
        5    1    3    3  502    0 -0.13793480976E+04 -0.21372583812E+02 -0.99616885103E+03  0.17015970238E+04  0.46999998093E+01 0.  1.
       -5    1    3    3    0  502  0.13793480976E+04  0.21372583812E+02  0.14910527347E+04  0.20313341206E+04  0.46999998093E+01 0. -1.
</event>
<event>
 5   0  0.4627905E-07  0.2236774E+04  0.7818609E-02  0.8503276E-01
        1   -1    0    0  501    0  0.00000000000E+00  0.00000000000E+00  0.14592327349E+04  0.14592327350E+04  0.50400001928E-02 0. -1.
       -1   -1    0    0    0  501  0.00000000000E+00  0.00000000000E+00 -0.85715552246E+03  0.85715552247E+03  0.50400001928E-02 0.  1.
    10030    2    1    2    0    0  0.00000000000E+00  0.00000000000E+00  0.60207721249E+03  0.23163882574E+04  0.22367739245E+04 0.  0.
        1    1    3    3  502    0  0.17843040153E+03 -0.21662564896E+02 -0.84210015555E+03  0.86106872369E+03  0.50400001928E-02 0.  1.
       -1    1    3    3    0  502 -0.17843040153E+03  0.21662564896E+02  0.14441773680E+04  0.14553195337E+04  0.50400001928E-02 0. -1.
</event>
<event>
 5   0  0.7268013E-07  0.3670275E+04  0.7818609E-02  0.8074581E-01
        2   -1    0    0  501    0  0.00000000000E+00  0.00000000000E+00  0.26224469466E+04  0.26224469466E+04  0.25500000920E-02 0. -1.
       -2   -1    0    0    0  501  0.00000000000E+00  0.00000000000E+00 -0.12841937769E+04  0.12841937769E+04  0.25500000920E-02 0.  1.
    10030    2    1    2    0    0  0.00000000000E+00  0.00000000000E+00  0.13382531696E+04  0.39066407235E+04  0.36702752208E+04 0.  0.
        4    1    3    3  502    0  0.14044903247E+04  0.83576158419E+03  0.15575262831E+04  0.22576492715E+04  0.12699999809E+01 0.  1.
       -4    1    3    3    0  502 -0.14044903247E+04 -0.83576158419E+03 -0.21927311343E+03  0.16489914520E+04  0.12699999809E+01 0. -1.
</event>
<event>
 5   0  0.1035864E-06  0.3986675E+04  0.7818609E-02  0.8007240E-01
       -2   -1    0    0    0  501  0.00000000000E+00  0.00000000000E+00  0.12235879138E+04  0.12235879138E+04  0.25500000920E-02 0. -1.
        2   -1    0    0  501    0  0.00000000000E+00  0.00000000000E+00 -0.32473308637E+04  0.32473308637E+04  0.25500000920E-02 0.  1.
    10030    2    1    2    0    0  0.00000000000E+00  0.00000000000E+00 -0.20237429499E+04  0.44709187776E+04  0.39866752048E+04 0.  0.
        5    1    3    3  502    0  0.47785186471E+03 -0.10219556969E+04 -0.28548446766E+04  0.30696736094E+04  0.46999998093E+01 0.  1.
       -5    1    3    3    0  502 -0.47785186471E+03  0.10219556969E+04  0.83110172672E+03  0.14012451681E+04  0.46999998093E+01 0. -1.
</event>
<event>
 5   0  0.7268013E-07  0.3844388E+04  0.7818609E-02  0.8036696E-01
        2   -1    0    0  501    0  0.00000000000E+00  0.00000000000E+00  0.27829692229E+04  0.27829692229E+04  0.25500000920E-02 0. -1.
       -2   -1    0    0    0  501  0.00000000000E+00  0.00000000000E+00 -0.13276574721E+04  0.13276574721E+04  0.25500000920E-02 0.  1.
    10030    2    1    2    0    0  0.00000000000E+00  0.00000000000E+00  0.14553117508E+04  0.41106266950E+04  0.38443880571E+04 0.  0.
        4    1    3    3  502    0  0.17422189106E+04 -0.60184242648E+03  0.13106564025E+04  0.22617167942E+04  0.12699999809E+01 0. -1.
       -4    1    3    3    0  502 -0.17422189106E+04  0.60184242648E+03  0.14465534832E+03  0.18489099008E+04  0.12699999809E+01 0.  1.
</event>
<event>
 5   0  0.7268013E-07  0.3840635E+04  0.7818609E-02  0.8037491E-01
        2   -1    0    0  501    0  0.00000000000E+00  0.00000000000E+00  0.26869273906E+04  0.26869273906E+04  0.25500000920E-02 0. -1.
       -2   -1    0    0    0  501  0.00000000000E+00  0.00000000000E+00 -0.13724296672E+04  0.13724296672E+04  0.25500000920E-02 0.  1.
    10030    2    1    2    0    0  0.00000000000E+00  0.00000000000E+00  0.13144977234E+04  0.40593570578E+04  0.38406347728E+04 0.  0.
        4    1    3    3  502    0  0.98040671449E+03  0.67066298476E+03  0.22520281045E+04  0.25460986551E+04  0.12699999809E+01 0. -1.
       -4    1    3    3    0  502 -0.98040671449E+03 -0.67066298476E+03 -0.93753038115E+03  0.15132584027E+04  0.12699999809E+01 0.  1.
</event>
<event>
 5   0  0.7268013E-07  0.3730246E+04  0.7818609E-02  0.8061292E-01
        2   -1    0    0  501    0  0.00000000000E+00  0.00000000000E+00  0.22346967237E+04  0.22346967237E+04  0.25500000920E-02 0.  1.
       -2   -1    0    0    0  501  0.00000000000E+00  0.00000000000E+00 -0.15566689998E+04  0.15566689998E+04  0.25500000920E-02 0. -1.
    10030    2    1    2    0    0  0.00000000000E+00  0.00000000000E+00  0.67802772385E+03  0.37913657235E+04  0.37302456293E+04 0.  0.
        4    1    3    3  502    0 -0.70473075468E+03  0.17265847786E+04  0.30783441548E+03  0.18901068950E+04  0.12699999809E+01 0.  1.
       -4    1    3    3    0  502  0.70473075468E+03 -0.17265847786E+04  0.37019330837E+03  0.19012588285E+04  0.12699999809E+01 0. -1.
</event>
<event>
 5   0  0.7268013E-07  0.3192836E+04  0.7818609E-02  0.8190712E-01
        2   -1    0    0  501    0  0.00000000000E+00  0.00000000000E+00  0.17803934815E+04  0.17803934815E+04  0.25500000920E-02 0.  1.
       -2   -1    0    0    0  501  0.00000000000E+00  0.00000000000E+00 -0.14314532178E+04  0.14314532178E+04  0.25500000920E-02 0. -1.
    10030    2    1    2    0    0  0.00000000000E+00  0.00000000000E+00  0.34894026376E+03  0.32118466993E+04  0.31928357164E+04 0.  0.
        4    1    3    3  502    0  0.86564230454E+03  0.72472909129E+03 -0.96095749426E+03  0.14825686405E+04  0.12699999809E+01 0. -1.
       -4    1    3    3    0  502 -0.86564230454E+03 -0.72472909129E+03  0.13098977580E+04  0.17292780588E+04  0.12699999809E+01 0.  1.
</event>
<event>
 5   0  0.5533705E-07  0.2781766E+04  0.7818609E-02  0.8308952E-01
        2   -1    0    0  501    0  0.00000000000E+00  0.00000000000E+00  0.15215398066E+04  0.15215398066E+04  0.25500000920E-02 0.  1.
       -2   -1    0    0    0  501  0.00000000000E+00  0.00000000000E+00 -0.12714460103E+04  0.12714460103E+04  0.25500000920E-02 0. -1.
    10030    2    1    2    0    0  0.00000000000E+00  0.00000000000E+00  0.25009379626E+03  0.27929858170E+04  0.27817661416E+04 0.  0.
        1    1    3    3  502    0 -0.10430832635E+04 -0.86781738010E+03  0.43193639846E+03  0.14239728762E+04  0.50400001928E-02 0.  1.
       -1    1    3    3    0  502  0.10430832635E+04  0.86781738010E+03 -0.18184260220E+03  0.13690129407E+04  0.50400001928E-02 0. -1.
</event>
<event>
 5   0  0.5385714E-07  0.3887713E+04  0.7818609E-02  0.8027590E-01
       -1   -1    0    0    0  501  0.00000000000E+00  0.00000000000E+00  0.13850718628E+04  0.13850718628E+04  0.50400001928E-02 0.  1.
        1   -1    0    0  501    0  0.00000000000E+00  0.00000000000E+00 -0.27280729990E+04  0.27280729990E+04  0.50400001928E-02 0. -1.
    10030    2    1    2    0    0  0.00000000000E+00  0.00000000000E+00 -0.13430011362E+04  0.41131448619E+04  0.38877125155E+04 0.  0.
        3    1    3    3  502    0 -0.18898792305E+04  0.27484366015E+03 -0.10550034363E+04  0.21817916500E+04  0.10100000352E+00 0. -1.
       -3    1    3    3    0  502  0.18898792305E+04 -0.27484366015E+03 -0.28799769995E+03  0.19313532118E+04  0.10100000352E+00 0.  1.
</event>
<event>
 5   0  0.3977376E-07  0.3860280E+04  0.7818609E-02  0.8033341E-01
       -1   -1    0    0    0  501  0.00000000000E+00  0.00000000000E+00  0.14274044621E+04  0.14274044621E+04  0.50400001928E-02 0.  1.
        1   -1    0    0  501    0  0.00000000000E+00  0.00000000000E+00 -0.26099407688E+04  0.26099407688E+04  0.50400001928E-02 0. -1.
    10030    2    1    2    0    0  0.00000000000E+00  0.00000000000E+00 -0.11825363067E+04  0.40373452308E+04  0.38602803520E+04 0.  0.
        4    1    3    3  502    0  0.21567990207E+03 -0.53569276087E+03  0.13349349468E+04  0.14544887347E+04  0.12699999809E+01 0.  1.
       -4    1    3    3    0  502 -0.21567990207E+03  0.53569276087E+03 -0.25174712536E+04  0.25828564961E+04  0.12699999809E+01 0. -1.
</event>
<event>
 5   0  0.5533705E-07  0.2706720E+04  0.7818609E-02  0.8332828E-01
       -2   -1    0    0    0  501  0.00000000000E+00  0.00000000000E+00  0.15399963716E+04  0.15399963716E+04  0.25500000920E-02 0. -1.
        2   -1    0    0  501    0  0.00000000000E+00  0.00000000000E+00 -0.11893424527E+04  0.11893424527E+04  0.25500000920E-02 0.  1.
    10030    2    1    2    0    0  0.00000000000E+00  0.00000000000E+00  0.35065391886E+03  0.27293388243E+04  0.27067198317E+04 0.  0.
        1    1    3    3  502    0  0.10045269870E+04  0.61856355468E+03 -0.49345579966E+03  0.12787470293E+04  0.50400001928E-02 0.  1.
       -1    1    3    3    0  502 -0.10045269870E+04 -0.61856355468E+03  0.84410971853E+03  0.14505917950E+04  0.50400001928E-02 0. -1.
</event>
<event>
 5   0  0.1034683E-06  0.2557226E+04  0.7818609E-02  0.8382878E-01
       -2   -1    0    0    0  501  0.00000000000E+00  0.00000000000E+00  0.87233219833E+03  0.87233219833E+03  0.25500000920E-02 0.  1.
        2   -1    0    0  501    0  0.00000000000E+00  0.00000000000E+00 -0.18741149069E+04  0.18741149069E+04  0.25500000920E-02 0. -1.
    10030    2    1    2    0    0  0.00000000000E+00  0.00000000000E+00 -0.10017827086E+04  0.27464471052E+04  0.25572256660E+04 0.  0.
        2    1    3    3  502    0 -0.11154253406E+03  0.29157927173E+03 -0.18325542243E+04  0.18589554039E+04  0.25500000920E-02 0. -1.
       -2    1    3    3    0  502  0.11154253406E+03 -0.29157927173E+03  0.83077151573E+03  0.88749170135E+03  0.25500000920E-02 0.  1.
</event>
<event>
 5   0  0.4627905E-07  0.3834053E+04  0.7818609E-02  0.8038886E-01
        1   -1    0    0  501    0  0.00000000000E+00  0.00000000000E+00  0.16942221420E+04  0.16942221420E+04  0.50400001928E-02 0.  1.
       -1   -1    0    0    0  501  0.00000000000E+00  0.00000000000E+00 -0.21691314155E+04  0.21691314155E+04  0.50400001928E-02 0. -1.
    10030    2    1    2    0    0  0.00000000000E+00  0.00000000000E+00 -0.47490927355E+03  0.38633535575E+04  0.38340529329E+04 0.  0.
        1    1    3    3  502    0 -0.90760913446E+03  0.14871411833E+04 -0.10433462070E+04  0.20307423637E+04  0.50400001928E-02 0.  1.
       -1    1    3    3    0  502  0.90760913446E+03 -0.14871411833E+04  0.56843693347E+03  0.18326111938E+04  0.50400001928E-02 0. -1.
</event>
<event>
 5   0  0.7268013E-07  0.4081520E+04  0.7818609E-02  0.7988300E-01
        2   -1    0    0  501    0  0.00000000000E+00  0.00000000000E+00  0.16359755428E+04  0.16359755428E+04  0.25500000920E-02 0. -1.
       -2   -1    0    0    0  501  0.00000000000E+00  0.00000000000E+00 -0.25456989895E+04  0.25456989895E+04  0.25500000920E-02 0.  1.
    10030    2    1    2    0    0  0.00000000000E+00  0.00000000000E+00 -0.90972344668E+03  0.41816745323E+04  0.40815199552E+04 0.  0.
        4    1    3    3  502    0 -0.10333632381E+03 -0.42823499031E+03 -0.24964038478E+04  0.25349748296E+04  0.12699999809E+01 0.  1.
       -4    1    3    3    0  502  0.10333632381E+03  0.42823499031E+03  0.15866804011E+04  0.16466997027E+04  0.12699999809E+01 0. -1.
</event>
<event>
 5   0  0.1035864E-06  0.3534460E+04  0.7818609E-02  0.8105672E-01
        2   -1    0    0  501    0  0.00000000000E+00  0.00000000000E+00  0.19685202560E+04  0.19685202560E+04  0.25500000920E-02 0. -1.
       -2   -1    0    0    0  501  0.00000000000E+00  0.00000000000E+00 -0.15865225550E+04  0.15865225550E+04  0.25500000920E-02 0.  1.
    10030    2    1    2    0    0  0.00000000000E+00  0.00000000000E+00  0.38199770101E+03  0.35550428110E+04  0.35344599509E+04 0.  0.
        5    1    3    3  502    0  0.11487605579E+04  0.37393944780E+03 -0.11063177831E+04  0.16381216858E+04  0.46999998093E+01 0. -1.
       -5    1    3    3    0  502 -0.11487605579E+04 -0.37393944780E+03  0.14883154841E+04  0.19169211252E+04  0.46999998093E+01 0.  1.
</event>
<event>
 5   0  0.1015219E-06  0.3764177E+04  0.7818609E-02  0.8053886E-01
        2   -1    0    0  501    0  0.00000000000E+00  0.00000000000E+00  0.19741309369E+04  0.19741309369E+04  0.25500000920E-02 0. -1.
       -2   -1    0    0    0  501  0.00000000000E+00  0.00000000000E+00 -0.17943376374E+04  0.17943376374E+04  0.25500000920E-02 0.  1.
    10030    2    1    2    0    0  0.00000000000E+00  0.00000000000E+00  0.17979329955E+03  0.37684685743E+04  0.37641771697E+04 0.  0.
        3    1    3    3  502    0 -0.51091512915E+03 -0.72544065122E+03  0.17515958602E+04  0.19635138083E+04  0.10100000352E+00 0. -1.
       -3    1    3    3    0  502  0.51091512915E+03  0.72544065122E+03 -0.15718025606E+04  0.18049547660E+04  0.10100000352E+00 0.  1.
</event>
<event>
 5   0  0.1035864E-06  0.3951814E+04  0.7818609E-02  0.8014338E-01
        2   -1    0    0  501    0  0.00000000000E+00  0.00000000000E+00  0.24944689974E+04  0.24944689974E+04  0.25500000920E-02 0. -1.
       -2   -1    0    0    0  501  0.00000000000E+00  0.00000000000E+00 -0.15651458743E+04  0.15651458743E+04  0.25500000920E-02 0.  1.
    10030    2    1    2    0    0  0.00000000000E+00  0.00000000000E+00  0.92932312306E+03  0.40596148717E+04  0.39518136899E+04 0.  0.
        5    1    3    3  502    0  0.16919479781E+04 -0.97052146024E+03  0.78884237618E+03  0.21040185954E+04  0.46999998093E+01 0.  1.
       -5    1    3    3    0  502 -0.16919479781E+04  0.97052146024E+03  0.14048074687E+03  0.19555962763E+04  0.46999998093E+01 0. -1.
</event>
<event>
 5   0  0.4627905E-07  0.2694101E+04  0.7818609E-02  0.8336921E-01
        1   -1    0    0  501    0  0.00000000000E+00  0.00000000000E+00  0.17032590467E+04  0.17032590467E+04  0.50400001928E-02 0.  1.
       -1   -1    0    0    0  501  0.00000000000E+00  0.00000000000E+00 -0.10653371402E+04  0.10653371403E+04  0.50400001928E-02 0. -1.
    10030    2    1    2    0    0  0.00000000000E+00  0.00000000000E+00  0.63792190643E+03  0.27685961869E+04  0.26941010537E+04 0.  0.
        1    1    3    3  502    0  0.71621724025E+03 -0.88028841651E+03 -0.42682662392E+03  0.12124585759E+04  0.50400001928E-02 0. -1.
       -1    1    3    3    0  502 -0.71621724025E+03  0.88028841651E+03  0.10647485303E+04  0.15561376110E+04  0.50400001928E-02 0.  1.
</event>
<event>
 5   0  0.3471602E-07  0.3834409E+04  0.7818609E-02  0.8038811E-01
        1   -1    0    0  501    0  0.00000000000E+00  0.00000000000E+00  0.21541965213E+04  0.21541965213E+04  0.50400001928E-02 0. -1.
       -1   -1    0    0    0  501  0.00000000000E+00  0.00000000000E+00 -0.17062850735E+04  0.17062850735E+04  0.50400001928E-02 0.  1.
    10030    2    1    2    0    0  0.00000000000E+00  0.00000000000E+00  0.44791144782E+03  0.38604815948E+04  0.38344091434E+04 0.  0.
        5    1    3    3  502    0 -0.10832063550E+03  0.48699628515E+03 -0.16397803279E+04  0.17140012706E+04  0.46999998093E+01 0.  1.
       -5    1    3    3    0  502  0.10832063550E+03 -0.48699628515E+03  0.20876917757E+04  0.21464803242E+04  0.46999998093E+01 0. -1.
</event>
<event>
 5   0  0.5533705E-07  0.3822540E+04  0.7818609E-02  0.8041335E-01
        2   -1    0    0  501    0  0.00000000000E+00  0.00000000000E+00  0.15913127062E+04  0.15913127062E+04  0.25500000920E-02 0.  1.
       -2   -1    0    0    0  501  0.00000000000E+00  0.00000000000E+00 -0.22955597484E+04  0.22955597484E+04  0.25500000920E-02 0. -1.
    10030    2    1    2    0    0  0.00000000000E+00  0.00000000000E+00 -0.70424704223E+03  0.38868724547E+04  0.38225402002E+04 0.  0.
        1    1    3    3  502    0 -0.32931235959E+03  0.36118150914E+03 -0.22309361243E+04  0.22838508497E+04  0.50400001928E-02 0. -1.
       -1    1    3    3    0  502  0.32931235959E+03 -0.36118150914E+03  0.15266890821E+04  0.16030216050E+04  0.50400001928E-02 0.  1.
</event>
<event>
 5   0  0.5385714E-07  0.2214517E+04  0.7818609E-02  0.8512410E-01
       -1   -1    0    0    0  501  0.00000000000E+00  0.00000000000E+00  0.12464730274E+04  0.12464730274E+04  0.50400001928E-02 0. -1.
        1   -1    0    0  501    0  0.00000000000E+00  0.00000000000E+00 -0.98359215197E+03  0.98359215199E+03  0.50400001928E-02 0.  1.
    10030    2    1    2    0    0  0.00000000000E+00  0.00000000000E+00  0.26288087538E+03  0.22300651793E+04  0.22145167305E+04 0.  0.
        3    1    3    3  502    0  0.57320152318E+03  0.40510273411E+03  0.99381331239E+03  0.12166894104E+04  0.10100000352E+00 0. -1.
       -3    1    3    3    0  502 -0.57320152318E+03 -0.40510273411E+03 -0.73093243701E+03  0.10133757689E+04  0.10100000352E+00 0.  1.
</event>
<event>
 5   0  0.1034683E-06  0.3902025E+04  0.7818609E-02  0.8024608E-01
       -2   -1    0    0    0  501  0.00000000000E+00  0.00000000000E+00  0.19805496896E+04  0.19805496896E+04  0.25500000920E-02 0.  1.
        2   -1    0    0  501    0  0.00000000000E+00  0.00000000000E+00 -0.19219160837E+04  0.19219160837E+04  0.25500000920E-02 0. -1.
    10030    2    1    2    0    0  0.00000000000E+00  0.00000000000E+00  0.58633605908E+02  0.39024657733E+04  0.39020252706E+04 0.  0.
        2    1    3    3  502    0 -0.18665623144E+04  0.43089931412E+03 -0.34048325316E+03  0.19456767301E+04  0.25500000920E-02 0.  1.
       -2    1    3    3    0  502  0.18665623144E+04 -0.43089931412E+03  0.39911685907E+03  0.19567890432E+04  0.25500000920E-02 0. -1.
</event>
<event>
 5   0  0.3977376E-07  0.2515856E+04  0.7818609E-02  0.8397358E-01
        1   -1    0    0  501    0  0.00000000000E+00  0.00000000000E+00  0.12088646416E+04  0.12088646416E+04  0.50400001928E-02 0. -1.
       -1   -1    0    0    0  501  0.00000000000E+00  0.00000000000E+00 -0.13089827625E+04  0.13089827625E+04  0.50400001928E-02 0.  1.
    10030    2    1    2    0    0  0.00000000000E+00  0.00000000000E+00 -0.10011812084E+03  0.25178474041E+04  0.25158560993E+04 0.  0.
        4    1    3    3  502    0 -0.63848258047E+02 -0.24241018322E+03 -0.12837318132E+04  0.13079786994E+04  0.12699999809E+01 0.  1.
       -4    1    3    3    0  502  0.63848258047E+02  0.24241018322E+03  0.11836136924E+04  0.12098687047E+04  0.12699999809E+01 0. -1.
</event>
<event>
 5   0  0.3471602E-07  0.3906562E+04  0.7818609E-02  0.8023666E-01
        1   -1    0    0  501    0  0.00000000000E+00  0.00000000000E+00  0.13051066839E+04  0.13051066839E+04  0.50400001928E-02 0.  1.
       -1   -1    0    0    0  501  0.00000000000E+00  0.00000000000E+00 -0.29233673933E+04  0.29233673933E+04  0.50400001928E-02 0. -1.
    10030    2    1    2    0    0  0.00000000000E+00  0.00000000000E+00 -0.16182607094E+04  0.42284740772E+04  0.39065618257E+04 0.  0.
        5    1    3    3  502    0 -0.18837871773E+03  0.13160442460E+04  0.73981257239E+03  0.15214479061E+04  0.46999998093E+01 0.  1.
       -5    1    3    3    0  502  0.18837871773E+03 -0.13160442460E+04 -0.23580732818E+04  0.27070261711E+04  0.46999998093E+01 0. -1.
</event>
<event>
 5   0  0.1015219E-06  0.3866298E+04  0.7818609E-02  0.8032075E-01
       -2   -1    0    0    0  501  0.00000000000E+00  0.00000000000E+00  0.19511502415E+04  0.19511502415E+04  0.25500000920E-02 0.  1.
        2   -1    0    0  501    0  0.00000000000E+00  0.00000000000E+00 -0.19153137191E+04  0.19153137191E+04  0.25500000920E-02 0. -1.
    10030    2    1    2    0    0  0.00000000000E+00  0.00000000000E+00  0.35836522432E+02  0.38664639606E+04  0.38662978807E+04 0.  0.
        3    1    3    3  502    0  0.13047163115E+03  0.19272741852E+04 -0.57292574290E+02  0.19325348848E+04  0.10100000352E+00 0.  1.
       -3    1    3    3    0  502 -0.13047163115E+03 -0.19272741852E+04  0.93129096721E+02  0.19339290759E+04  0.10100000352E+00 0. -1.
</event>
<event>
 5   0  0.3471602E-07  0.3930708E+04  0.7818609E-02  0.8018673E-01
        1   -1    0    0  501    0  0.00000000000E+00  0.00000000000E+00  0.13483481308E+04  0.13483481308E+04  0.50400001928E-02 0. -1.
       -1   -1    0    0    0  501  0.00000000000E+00  0.00000000000E+00 -0.28647020872E+04  0.28647020872E+04  0.50400001928E-02 0.  1.
    10030    2    1    2    0    0  0.00000000000E+00  0.00000000000E+00 -0.15163539564E+04  0.42130502180E+04  0.39307076740E+04 0.  0.
        5    1    3    3  502    0  0.14655417921E+04  0.65772466971E+03 -0.19718459268E+04  0.25433467980E+04  0.46999998093E+01 0.  1.
       -5    1    3    3    0  502 -0.14655417921E+04 -0.65772466971E+03  0.45549197046E+03  0.16697034200E+04  0.46999998093E+01 0. -1.
</event>
<event>
 5   0  0.1035864E-06  0.4009675E+04  0.7818609E-02  0.8002598E-01
       -2   -1    0    0    0  501  0.00000000000E+00  0.00000000000E+00  0.17923094048E+04  0.17923094048E+04  0.25500000920E-02 0. -1.
        2   -1    0    0  501    0  0.00000000000E+00  0.00000000000E+00 -0.22425668360E+04  0.22425668360E+04  0.25500000920E-02 0.  1.
    10030    2    1    2    0    0  0.00000000000E+00  0.00000000000E+00 -0.45025743120E+03  0.40348762407E+04  0.40096751145E+04 0.  0.
        5    1    3    3  502    0  0.68270671956E+03 -0.18640992270E+04 -0.50688341248E+03  0.20488795175E+04  0.46999998093E+01 0.  1.
       -5    1    3    3    0  502 -0.68270671956E+03  0.18640992270E+04  0.56625981276E+02  0.19859967233E+04  0.46999998093E+01 0. -1.
</event>
<event>
 5   0  0.7268013E-07  0.3941748E+04  0.7818609E-02  0.8016402E-01
        2   -1    0    0  501    0  0.00000000000E+00  0.00000000000E+00  0.34051541623E+04  0.34051541623E+04  0.25500000920E-02 0. -1.
       -2   -1    0    0    0  501  0.00000000000E+00  0.00000000000E+00 -0.11407249289E+04  0.11407249289E+04  0.25500000920E-02 0.  1.
    10030    2    1    2    0    0  0.00000000000E+00  0.00000000000E+00  0.22644292334E+04  0.45458790911E+04  0.39417479572E+04 0.  0.
        4    1    3    3  502    0 -0.53240710362E+03 -0.87207870422E+02  0.33183374721E+04  0.33619083462E+04  0.12699999809E+01 0. -1.
       -4    1    3    3    0  502  0.53240710362E+03  0.87207870422E+02 -0.10539082386E+04  0.11839707450E+04  0.12699999809E+01 0.  1.
</event>
<event>
 5   0  0.3977376E-07  0.2743486E+04  0.7818609E-02  0.8321032E-01
        1   -1    0    0  501    0  0.00000000000E+00  0.00000000000E+00  0.14486247569E+04  0.14486247569E+04  0.50400001928E-02 0.  1.
       -1   -1    0    0    0  501  0.00000000000E+00  0.00000000000E+00 -0.12989412146E+04  0.12989412146E+04  0.50400001928E-02 0. -1.
    10030    2    1    2    0    0  0.00000000000E+00  0.00000000000E+00  0.14968354231E+03  0.27475659715E+04  0.27434856670E+04 0.  0.
        4    1    3    3  502    0 -0.12513194295E+04  0.48042679683E+03  0.36693728406E+03  0.13896959398E+04  0.12699999809E+01 0. -1.
       -4    1    3    3    0  502  0.12513194295E+04 -0.48042679683E+03 -0.21725374175E+03  0.13578700317E+04  0.12699999809E+01 0.  1.
</event>
<event>
 5   0  0.5533705E-07  0.1934043E+04  0.7818609E-02  0.8638094E-01
        2   -1    0    0  501    0  0.00000000000E+00  0.00000000000E+00  0.11130131323E+04  0.11130131323E+04  0.25500000920E-02 0. -1.
       -2   -1    0    0    0  501  0.00000000000E+00  0.00000000000E+00 -0.84017937411E+03  0.84017937411E+03  0.25500000920E-02 0.  1.
    10030    2    1    2    0    0  0.00000000000E+00  0.00000000000E+00  0.27283375818E+03  0.19531925064E+04  0.19340430987E+04 0.  0.
        1    1    3    3  502    0 -0.68153178073E+03  0.57140667907E+03 -0.24699929658E+03  0.92303835975E+03  0.50400001928E-02 0.  1.
       -1    1    3    3    0  502  0.68153178073E+03 -0.57140667907E+03  0.51983305476E+03  0.10301541467E+04  0.50400001928E-02 0. -1.
</event>
<event>
 5   0  0.7268013E-07  0.2938705E+04  0.7818609E-02  0.8261454E-01
       -2   -1    0    0    0  501  0.00000000000E+00  0.00000000000E+00  0.16504206617E+04  0.16504206617E+04  0.25500000920E-02 0.  1.
        2   -1    0    0  501    0  0.00000000000E+00  0.00000000000E+00 -0.13081495847E+04  0.13081495847E+04  0.25500000920E-02 0. -1.
    10030    2    1    2    0    0  0.00000000000E+00  0.00000000000E+00  0.34227107698E+03  0.29585702464E+04  0.29387052273E+04 0.  0.
        4    1    3    3  502    0 -0.27234116635E+02  0.18799421926E+03 -0.12957352243E+04  0.13095857772E+04  0.12699999809E+01 0. -1.
       -4    1    3    3    0  502  0.27234116635E+02 -0.18799421926E+03  0.16380063013E+04  0.16489844691E+04  0.12699999809E+01 0.  1.
</event>
<event>
 5   0  0.4316671E-07  0.3771812E+04  0.7818609E-02  0.8052231E-01
       -1   -1    0    0    0  501  0.00000000000E+00  0.00000000000E+00  0.17448556331E+04  0.17448556331E+04  0.50400001928E-02 0. -1.
        1   -1    0    0  501    0  0.00000000000E+00  0.00000000000E+00 -0.20383588574E+04  0.20383588574E+04  0.50400001928E-02 0.  1.
    10030    2    1    2    0    0  0.00000000000E+00  0.00000000000E+00 -0.29350322424E+03  0.37832144905E+04  0.37718122619E+04 0.  0.
        2    1    3    3  502    0  0.15659193712E+04  0.22380108996E+03  0.88321751480E+03  0.18117018473E+04  0.25500000920E-02 0. -1.
       -2    1    3    3    0  502 -0.15659193712E+04 -0.22380108996E+03 -0.11767207390E+04  0.19715126433E+04  0.25500000920E-02 0.  1.
</event>
<event>
 5   0  0.3471602E-07  0.4033244E+04  0.7818609E-02  0.7997874E-01
        1   -1    0    0  501    0  0.00000000000E+00  0.00000000000E+00  0.23056537380E+04  0.23056537381E+04  0.50400001928E-02 0. -1.
       -1   -1    0    0    0  501  0.00000000000E+00  0.00000000000E+00 -0.17638226241E+04  0.17638226241E+04  0.50400001928E-02 0.  1.
    10030    2    1    2    0    0  0.00000000000E+00  0.00000000000E+00  0.54183111398E+03  0.40694763621E+04  0.40332439680E+04 0.  0.
        5    1    3    3  502    0 -0.15298610398E+04 -0.25840707022E+03  0.15707012896E+04  0.22077983708E+04  0.46999998093E+01 0. -1.
       -5    1    3    3    0  502  0.15298610398E+04  0.25840707022E+03 -0.10288701756E+04  0.18616779913E+04  0.46999998093E+01 0.  1.
</event>
<event>
 5   0  0.7268013E-07  0.3890628E+04  0.7818609E-02  0.8026981E-01
       -2   -1    0    0    0  501  0.00000000000E+00  0.00000000000E+00  0.19226169619E+04  0.19226169619E+04  0.25500000920E-02 0. -1.
        2   -1    0    0  501    0  0.00000000000E+00  0.00000000000E+00 -0.19682793115E+04  0.19682793115E+04  0.25500000920E-02 0.  1.
    10030    2    1    2    0    0  0.00000000000E+00  0.00000000000E+00 -0.45662349571E+02  0.38908962734E+04  0.38906283246E+04 0.  0.
        4    1    3    3  502    0  0.17680935851E+04  0.56000909805E+03 -0.60979617551E+03  0.19523365756E+04  0.12699999809E+01 0.  1.
       -4    1    3    3    0  502 -0.17680935851E+04 -0.56000909805E+03  0.56413382594E+03  0.19385596979E+04  0.12699999809E+01 0. -1.
</event>
<event>
 5   0  0.4316671E-07  0.3822125E+04  0.7818609E-02  0.8041424E-01
       -1   -1    0    0    0  501  0.00000000000E+00  0.00000000000E+00  0.18716907317E+04  0.18716907317E+04  0.50400001928E-02 0.  1.
        1   -1    0    0  501    0  0.00000000000E+00  0.00000000000E+00 -0.19512624883E+04  0.19512624883E+04  0.50400001928E-02 0. -1.
    10030    2    1    2    0    0  0.00000000000E+00  0.00000000000E+00 -0.79571756629E+02  0.38229532200E+04  0.38221250186E+04 0.  0.
        2    1    3    3  502    0 -0.11319459905E+03 -0.57426517921E+03 -0.18594014506E+04  0.19493504733E+04  0.25500000920E-02 0. -1.
       -2    1    3    3    0  502  0.11319459905E+03  0.57426517921E+03  0.17798296939E+04  0.18736027468E+04  0.25500000920E-02 0.  1.
</event>
<event>
 5   0  0.4627905E-07  0.3848095E+04  0.7818609E-02  0.8035912E-01
        1   -1    0    0  501    0  0.00000000000E+00  0.00000000000E+00  0.22613269994E+04  0.22613269994E+04  0.50400001928E-02 0.  1.
       -1   -1    0    0    0  501  0.00000000000E+00  0.00000000000E+00 -0.16370740077E+04  0.16370740077E+04  0.50400001928E-02 0. -1.
    10030    2    1    2    0    0  0.00000000000E+00  0.00000000000E+00  0.62425299168E+03  0.38984010070E+04  0.38480954528E+04 0.  0.
        1    1    3    3  502    0 -0.14614891996E+04  0.92393766111E+03 -0.54291428980E+03  0.18122823754E+04  0.50400001928E-02 0. -1.
       -1    1    3    3    0  502  0.14614891996E+04 -0.92393766111E+03  0.11671672815E+04  0.20861186316E+04  0.50400001928E-02 0.  1.
</event>
<event>
 5   0  0.3471602E-07  0.3789113E+04  0.7818609E-02  0.8048495E-01
       -1   -1    0    0    0  501  0.00000000000E+00  0.00000000000E+00  0.13288937451E+04  0.13288937451E+04  0.50400001928E-02 0.  1.
        1   -1    0    0  501    0  0.00000000000E+00  0.00000000000E+00 -0.27010020816E+04  0.27010020816E+04  0.50400001928E-02 0. -1.
    10030    2    1    2    0    0  0.00000000000E+00  0.00000000000E+00 -0.13721083365E+04  0.40298958266E+04  0.37891132322E+04 0.  0.
        5    1    3    3  502    0 -0.16030604488E+04  0.68577950804E+03 -0.14742459762E+04  0.22833132997E+04  0.46999998093E+01 0. -1.
       -5    1    3    3    0  502  0.16030604488E+04 -0.68577950804E+03  0.10213763971E+03  0.17465825270E+04  0.46999998093E+01 0.  1.
</event>
<event>
 5   0  0.7268013E-07  0.1995448E+04  0.7818609E-02  0.8608752E-01
       -2   -1    0    0    0  501  0.00000000000E+00  0.00000000000E+00  0.58634580001E+03  0.58634580001E+03  0.25500000920E-02 0.  1.
        2   -1    0    0  501    0  0.00000000000E+00  0.00000000000E+00 -0.16977241115E+04  0.16977241115E+04  0.25500000920E-02 0. -1.
    10030    2    1    2    0    0  0.00000000000E+00  0.00000000000E+00 -0.11113783115E+04  0.22840699115E+04  0.19954482227E+04 0.  0.
        4    1    3    3  502    0 -0.76433320047E+03  0.61886026590E+03 -0.74810624090E+03  0.12356608882E+04  0.12699999809E+01 0. -1.
       -4    1    3    3    0  502  0.76433320047E+03 -0.61886026590E+03 -0.36327207063E+03  0.10484090233E+04  0.12699999809E+01 0.  1.
</event>
<event>
 5   0  0.1034683E-06  0.3831462E+04  0.7818609E-02  0.8039437E-01
       -2   -1    0    0    0  501  0.00000000000E+00  0.00000000000E+00  0.21205901361E+04  0.21205901361E+04  0.25500000920E-02 0. -1.
        2   -1    0    0  501    0  0.00000000000E+00  0.00000000000E+00 -0.17306621400E+04  0.17306621400E+04  0.25500000920E-02 0.  1.
    10030    2    1    2    0    0  0.00000000000E+00  0.00000000000E+00  0.38992799607E+03  0.38512522762E+04  0.38314618950E+04 0.  0.
        2    1    3    3  502    0 -0.94406701930E+03  0.47905715868E+03 -0.14099253675E+04  0.17631357974E+04  0.25500000920E-02 0.  1.
       -2    1    3    3    0  502  0.94406701930E+03 -0.47905715868E+03  0.17998533636E+04  0.20881164787E+04  0.25500000920E-02 0. -1.
</event>
<event>
 5   0  0.3471602E-07  0.3897499E+04  0.7818609E-02  0.8025549E-01
        1   -1    0    0  501    0  0.00000000000E+00  0.00000000000E+00  0.24246714047E+04  0.24246714047E+04  0.50400001928E-02 0.  1.
       -1   -1    0    0    0  501  0.00000000000E+00  0.00000000000E+00 -0.15662433323E+04  0.15662433323E+04  0.50400001928E-02 0. -1.
    10030    2    1    2    0    0  0.00000000000E+00  0.00000000000E+00  0.85842807244E+03  0.39909147371E+04  0.38974994141E+04 0.  0.
        5    1    3    3  502    0 -0.62790832910E+03  0.12306242767E+04 -0.97809891566E+03  0.16927505897E+04  0.46999998093E+01 0. -1.
       -5    1    3    3    0  502  0.62790832910E+03 -0.12306242767E+04  0.18365269881E+04  0.22981641473E+04  0.46999998093E+01 0.  1.
</event>
<event>
 5   0  0.4627905E-07  0.3933787E+04  0.7818609E-02  0.8018039E-01
        1   -1    0    0  501    0  0.00000000000E+00  0.00000000000E+00  0.22185966810E+04  0.22185966810E+04  0.50400001928E-02 0.  1.
       -1   -1    0    0    0  501  0.00000000000E+00  0.00000000000E+00 -0.17437461154E+04  0.17437461154E+04  0.50400001928E-02 0. -1.
    10030    2    1    2    0    0  0.00000000000E+00  0.00000000000E+00  0.47485056560E+03  0.39623427965E+04  0.39337866461E+04 0.  0.
        1    1    3    3  502    0  0.17447047970E+04  0.87515838118E+03 -0.67646040560E+01  0.19519074724E+04  0.50400001928E-02 0. -1.
       -1    1    3    3    0  502 -0.17447047970E+04 -0.87515838118E+03  0.48161516965E+03  0.20104353241E+04  0.50400001928E-02 0.  1.
</event>
<event>
 5   0  0.5533705E-07  0.3911231E+04  0.7818609E-02  0.8022697E-01
       -2   -1    0    0    0  501  0.00000000000E+00  0.00000000000E+00  0.16017197975E+04  0.16017197975E+04  0.25500000920E-02 0. -1.
        2   -1    0    0  501    0  0.00000000000E+00  0.00000000000E+00 -0.23877041068E+04  0.23877041068E+04  0.25500000920E-02 0.  1.
    10030    2    1    2    0    0  0.00000000000E+00  0.00000000000E+00 -0.78598430934E+03  0.39894239043E+04  0.39112314881E+04 0.  0.
        1    1    3    3  502    0 -0.18682463636E+04  0.47085952030E+03 -0.51059368827E+02  0.19273453822E+04  0.50400001928E-02 0.  1.
       -1    1    3    3    0  502  0.18682463636E+04 -0.47085952030E+03 -0.73492494051E+03  0.20620785221E+04  0.50400001928E-02 0. -1.
</event>
<event>
 5   0  0.7268013E-07  0.2383975E+04  0.7818609E-02  0.8445528E-01
       -2   -1    0    0    0  501  0.00000000000E+00  0.00000000000E+00  0.98439604962E+03  0.98439604963E+03  0.25500000920E-02 0. -1.
        2   -1    0    0  501    0  0.00000000000E+00  0.00000000000E+00 -0.14433556730E+04  0.14433556730E+04  0.25500000920E-02 0.  1.
    10030    2    1    2    0    0  0.00000000000E+00  0.00000000000E+00 -0.45895962338E+03  0.24277517226E+04  0.23839745156E+04 0.  0.
        4    1    3    3  502    0 -0.25085430310E+03 -0.86605413036E+03  0.56448715658E+03  0.10637786428E+04  0.12699999809E+01 0. -1.
       -4    1    3    3    0  502  0.25085430310E+03  0.86605413036E+03 -0.10234467800E+04  0.13639730798E+04  0.12699999809E+01 0.  1.
</event>
<event>
 5   0  0.7268013E-07  0.3886372E+04  0.7818609E-02  0.8027870E-01
       -2   -1    0    0    0  501  0.00000000000E+00  0.00000000000E+00  0.16646529714E+04  0.16646529714E+04  0.25500000920E-02 0. -1.
        2   -1    0    0  501    0  0.00000000000E+00  0.00000000000E+00 -0.22683232179E+04  0.22683232179E+04  0.25500000920E-02 0.  1.
    10030    2    1    2    0    0  0.00000000000E+00  0.00000000000E+00 -0.60367024653E+03  0.39329761892E+04  0.38863715647E+04 0.  0.
        4    1    3    3  502    0  0.17936223195E+04  0.28997871492E+03 -0.99915600180E+03  0.20735194740E+04  0.12699999809E+01 0.  1.
       -4    1    3    3    0  502 -0.17936223195E+04 -0.28997871492E+03  0.39548575527E+03  0.18594567152E+04  0.12699999809E+01 0. -1.
</event>
<event>
 5   0  0.5385714E-07  0.2567702E+04  0.7818609E-02  0.8379256E-01
        1   -1    0    0  501    0  0.00000000000E+00  0.00000000000E+00  0.19960902686E+04  0.19960902686E+04  0.50400001928E-02 0.  1.
       -1   -1    0    0    0  501  0.00000000000E+00  0.00000000000E+00 -0.82575090806E+03  0.82575090807E+03  0.50400001928E-02 0. -1.
    10030    2    1    2    0    0  0.00000000000E+00  0.00000000000E+00  0.11703393605E+04  0.28218411766E+04  0.25677019701E+04 0.  0.
        3    1    3    3  502    0 -0.42655536740E+03  0.12107900733E+04  0.60455837922E+03  0.14189619188E+04  0.10100000352E+00 0. -1.
       -3    1    3    3    0  502  0.42655536740E+03 -0.12107900733E+04  0.56578098129E+03  0.14028792578E+04  0.10100000352E+00 0.  1.
</event>
<event>
 5   0  0.3471602E-07  0.4005335E+04  0.7818609E-02  0.8003471E-01
       -1   -1    0    0    0  501  0.00000000000E+00  0.00000000000E+00  0.30542157117E+04  0.30542157117E+04  0.50400001928E-02 0.  1.
        1   -1    0    0  501    0  0.00000000000E+00  0.00000000000E+00 -0.13131613665E+04  0.13131613665E+04  0.50400001928E-02 0. -1.
    10030    2    1    2    0    0  0.00000000000E+00  0.00000000000E+00  0.17410543452E+04  0.43673770781E+04  0.40053354803E+04 0.  0.
        5    1    3    3  502    0 -0.12830843060E+04  0.10658511625E+04 -0.33794354439E+03  0.17019318336E+04  0.46999998093E+01 0. -1.
       -5    1    3    3    0  502  0.12830843060E+04 -0.10658511625E+04  0.20789978896E+04  0.26654452446E+04  0.46999998093E+01 0.  1.
</event>
<event>
 5   0  0.4627905E-07  0.3713479E+04  0.7818609E-02  0.8064981E-01
        1   -1    0    0  501    0  0.00000000000E+00  0.00000000000E+00  0.21231639127E+04  0.21231639127E+04  0.50400001928E-02 0.  1.
       -1   -1    0    0    0  501  0.00000000000E+00  0.00000000000E+00 -0.16237475536E+04  0.16237475536E+04  0.50400001928E-02 0. -1.
    10030    2    1    2    0    0  0.00000000000E+00  0.00000000000E+00  0.49941635916E+03  0.37469114663E+04  0.37134793438E+04 0.  0.
        1    1    3    3  502    0  0.90383559364E+02 -0.11695050263E+04  0.17019613455E+04  0.20670228871E+04  0.50400001928E-02 0.  1.
       -1    1    3    3    0  502 -0.90383559364E+02  0.11695050263E+04 -0.12025449863E+04  0.16798885792E+04  0.50400001928E-02 0. -1.
</event>
<event>
 5   0  0.1035864E-06  0.3905830E+04  0.7818609E-02  0.8023818E-01
       -2   -1    0    0    0  501  0.00000000000E+00  0.00000000000E+00  0.14722424788E+04  0.14722424788E+04  0.25500000920E-02 0. -1.
        2   -1    0    0  501    0  0.00000000000E+00  0.00000000000E+00 -0.25905229218E+04  0.25905229218E+04  0.25500000920E-02 0.  1.
    10030    2    1    2    0    0  0.00000000000E+00  0.00000000000E+00 -0.11182804431E+04  0.40627654006E+04  0.39058304560E+04 0.  0.
        5    1    3    3  502    0 -0.18688734683E+03  0.35270159085E+03  0.14293531764E+04  0.14840478043E+04  0.46999998093E+01 0. -1.
       -5    1    3    3    0  502  0.18688734683E+03 -0.35270159085E+03 -0.25476336194E+04  0.25787175963E+04  0.46999998093E+01 0.  1.
</event>
<event>
 5   0  0.5533705E-07  0.3916440E+04  0.7818609E-02  0.8021619E-01
        2   -1    0    0  501    0  0.00000000000E+00  0.00000000000E+00  0.22970783400E+04  0.22970783400E+04  0.25500000920E-02 0. -1.
       -2   -1    0    0    0  501  0.00000000000E+00  0.00000000000E+00 -0.16693488790E+04  0.16693488790E+04  0.25500000920E-02 0.  1.
    10030    2    1    2    0    0  0.00000000000E+00  0.00000000000E+00  0.62772946096E+03  0.39664272191E+04  0.39164397874E+04 0.  0.
        1    1    3    3  502    0  0.35072929361E+03  0.14888243352E+04 -0.92444985153E+03  0.17872371042E+04  0.50400001928E-02 0.  1.
       -1    1    3    3    0  502 -0.35072929361E+03 -0.14888243352E+04  0.15521793125E+04  0.21791901149E+04  0.50400001928E-02 0. -1.
</event>
<event>
 5   0  0.5533705E-07  0.3861202E+04  0.7818609E-02  0.8033147E-01
       -2   -1    0    0    0  501  0.00000000000E+00  0.00000000000E+00  0.12374794677E+04  0.12374794677E+04  0.25500000920E-02 0. -1.
        2   -1    0    0  501    0  0.00000000000E+00  0.00000000000E+00 -0.30119444316E+04  0.30119444316E+04  0.25500000920E-02 0.  1.
    10030    2    1    2    0    0  0.00000000000E+00  0.00000000000E+00 -0.17744649639E+04  0.42494238993E+04  0.38612015705E+04 0.  0.
        1    1    3    3  502    0  0.17728775472E+04  0.42832071336E+03 -0.19060788314E+03  0.18338170018E+04  0.50400001928E-02 0. -1.
       -1    1    3    3    0  502 -0.17728775472E+04 -0.42832071336E+03 -0.15838570807E+04  0.24156068975E+04  0.50400001928E-02 0.  1.
</event>
<event>
 5   0  0.5385714E-07  0.2239057E+04  0.7818609E-02  0.8502345E-01
       -1   -1    0    0    0  501  0.00000000000E+00  0.00000000000E+00  0.98483273310E+03  0.98483273311E+03  0.50400001928E-02 0.  1.
        1   -1    0    0  501    0  0.00000000000E+00  0.00000000000E+00 -0.12726468410E+04  0.12726468410E+04  0.50400001928E-02 0. -1.
    10030    2    1    2    0    0  0.00000000000E+00  0.00000000000E+00 -0.28781410789E+03  0.22574795741E+04  0.22390571826E+04 0.  0.
        3    1    3    3  502    0 -0.33393965055E+03  0.57903083381E+03 -0.10493785698E+04  0.12441815742E+04  0.10100000352E+00 0. -1.
       -3    1    3    3    0  502  0.33393965055E+03 -0.57903083381E+03  0.76156446191E+03  0.10132979999E+04  0.10100000352E+00 0.  1.
</event>
<event>
 5   0  0.7268013E-07  0.3752183E+04  0.7818609E-02  0.8056495E-01
       -2   -1    0    0    0  501  0.00000000000E+00  0.00000000000E+00  0.16799697014E+04  0.16799697014E+04  0.25500000920E-02 0. -1.
        2   -1    0    0  501    0  0.00000000000E+00  0.00000000000E+00 -0.20951085575E+04  0.20951085575E+04  0.25500000920E-02 0.  1.
    10030    2    1    2    0    0  0.00000000000E+00  0.00000000000E+00 -0.41513885616E+03  0.37750782589E+04  0.37521827768E+04 0.  0.
        4    1    3    3  502    0 -0.97659283869E+03 -0.15857120536E+04 -0.43589249213E+03  0.19126474237E+04  0.12699999809E+01 0. -1.
       -4    1    3    3    0  502  0.97659283869E+03  0.15857120536E+04  0.20753635970E+02  0.18624308352E+04  0.12699999809E+01 0.  1.
</event>
<event>
 5   0  0.5533705E-07  0.3960124E+04  0.7818609E-02  0.8012639E-01
        2   -1    0    0  501    0  0.00000000000E+00  0.00000000000E+00  0.24914738221E+04  0.24914738221E+04  0.25500000920E-02 0. -1.
       -2   -1    0    0    0  501  0.00000000000E+00  0.00000000000E+00 -0.15736252168E+04  0.15736252168E+04  0.25500000920E-02 0.  1.
    10030    2    1    2    0    0  0.00000000000E+00  0.00000000000E+00  0.91784860529E+03  0.40650990388E+04  0.39601242573E+04 0.  0.
        1    1    3    3  502    0  0.15369816297E+04 -0.12014601958E+04  0.11108060416E+03  0.19540107556E+04  0.50400001928E-02 0.  1.
       -1    1    3    3    0  502 -0.15369816297E+04  0.12014601958E+04  0.80676800113E+03  0.21110882833E+04  0.50400001928E-02 0. -1.
</event>
<event>
 5   0  0.7268013E-07  0.3824323E+04  0.7818609E-02  0.8040955E-01
       -2   -1    0    0    0  501  0.00000000000E+00  0.00000000000E+00  0.13350540468E+04  0.13350540468E+04  0.25500000920E-02 0.  1.
        2   -1    0    0  501    0  0.00000000000E+00  0.00000000000E+00 -0.27387360904E+04  0.27387360904E+04  0.25500000920E-02 0. -1.
    10030    2    1    2    0    0  0.00000000000E+00  0.00000000000E+00 -0.14036820437E+04  0.40737901372E+04  0.38243225286E+04 0.  0.
        4    1    3    3  502    0 -0.70393006419E+02 -0.18794489178E+04 -0.33425780722E+03  0.19102390700E+04  0.12699999809E+01 0.  1.
       -4    1    3    3    0  502  0.70393006419E+02  0.18794489178E+04 -0.10694242364E+04  0.21635510672E+04  0.12699999809E+01 0. -1.
</event>
<event>
 5   0  0.3471602E-07  0.3874400E+04  0.7818609E-02  0.8030375E-01
       -1   -1    0    0    0  501  0.00000000000E+00  0.00000000000E+00  0.17231943905E+04  0.17231943905E+04  0.50400001928E-02 0. -1.
        1   -1    0    0  501    0  0.00000000000E+00  0.00000000000E+00 -0.21777827858E+04  0.21777827858E+04  0.50400001928E-02 0.  1.
    10030    2    1    2    0    0  0.00000000000E+00  0.00000000000E+00 -0.45458839530E+03  0.39009771764E+04  0.38743996078E+04 0.  0.
        5    1    3    3  502    0  0.83305231325E+03 -0.83612372190E+03  0.13193558242E+04  0.17702544777E+04  0.46999998093E+01 0. -1.
       -5    1    3    3    0  502 -0.83305231325E+03  0.83612372190E+03 -0.17739442195E+04  0.21307226987E+04  0.46999998093E+01 0.  1.
</event>
<event>
 5   0  0.5533705E-07  0.3927690E+04  0.7818609E-02  0.8019295E-01
        2   -1    0    0  501    0  0.00000000000E+00  0.00000000000E+00  0.17640754939E+04  0.17640754939E+04  0.25500000920E-02 0. -1.
       -2   -1    0    0    0  501  0.00000000000E+00  0.00000000000E+00 -0.21862368718E+04  0.21862368718E+04  0.25500000920E-02 0.  1.
    10030    2    1    2    0    0  0.00000000000E+00  0.00000000000E+00 -0.42216137790E+03  0.39503123657E+04  0.39276898500E+04 0.  0.
        1    1    3    3  502    0  0.13217758887E+04 -0.68858684244E+03 -0.14972911308E+04  0.21126107237E+04  0.50400001928E-02 0.  1.
       -1    1    3    3    0  502 -0.13217758887E+04  0.68858684244E+03  0.10751297529E+04  0.18377016420E+04  0.50400001928E-02 0. -1.
</event>
<event>
 5   0  0.5533705E-07  0.3838257E+04  0.7818609E-02  0.8037994E-01
        2   -1    0    0  501    0  0.00000000000E+00  0.00000000000E+00  0.12406628205E+04  0.12406628205E+04  0.25500000920E-02 0. -1.
       -2   -1    0    0    0  501  0.00000000000E+00  0.00000000000E+00 -0.29686183790E+04  0.29686183790E+04  0.25500000920E-02 0.  1.
    10030    2    1    2    0    0  0.00000000000E+00  0.00000000000E+00 -0.17279555585E+04  0.42092811995E+04  0.38382571311E+04 0.  0.
        1    1    3    3  502    0  0.22732178520E+02 -0.74670663691E+03 -0.28026151700E+04  0.29004722623E+04  0.50400001928E-02 0.  1.
       -1    1    3    3    0  502 -0.22732178520E+02  0.74670663691E+03  0.10746596115E+04  0.13088089372E+04  0.50400001928E-02 0. -1.
</event>
<event>
 5   0  0.4316671E-07  0.3766274E+04  0.7818609E-02  0.8053431E-01
       -1   -1    0    0    0  501  0.00000000000E+00  0.00000000000E+00  0.21700283367E+04  0.21700283367E+04  0.50400001928E-02 0.  1.
        1   -1    0    0  501    0  0.00000000000E+00  0.00000000000E+00 -0.16341741380E+04  0.16341741380E+04  0.50400001928E-02 0. -1.
    10030    2    1    2    0    0  0.00000000000E+00  0.00000000000E+00  0.53585419876E+03  0.38042024747E+04  0.37662735889E+04 0.  0.
        2    1    3    3  502    0 -0.24084680095E+03  0.12530832070E+04 -0.11309312436E+04  0.17050601699E+04  0.25500000920E-02 0. -1.
       -2    1    3    3    0  502  0.24084680095E+03 -0.12530832070E+04  0.16667854423E+04  0.20991423048E+04  0.25500000920E-02 0.  1.
</event>
<event>
 5   0  0.1015219E-06  0.1955571E+04  0.7818609E-02  0.8627679E-01
       -2   -1    0    0    0  501  0.00000000000E+00  0.00000000000E+00  0.51033450947E+03  0.51033450948E+03  0.25500000920E-02 0. -1.
        2   -1    0    0  501    0  0.00000000000E+00  0.00000000000E+00 -0.18734066219E+04  0.18734066219E+04  0.25500000920E-02 0.  1.
    10030    2    1    2    0    0  0.00000000000E+00  0.00000000000E+00 -0.13630721124E+04  0.23837411314E+04  0.19555705556E+04 0.  0.
        3    1    3    3  502    0  0.83746063902E+03  0.55383353057E+02 -0.70045728665E+02  0.84220784371E+03  0.10100000352E+00 0. -1.
       -3    1    3    3    0  502 -0.83746063902E+03 -0.55383353057E+02 -0.12930263838E+04  0.15415332877E+04  0.10100000352E+00 0.  1.
</event>
<event>
 5   0  0.1034683E-06  0.3764290E+04  0.7818609E-02  0.8053862E-01
       -2   -1    0    0    0  501  0.00000000000E+00  0.00000000000E+00  0.14880654421E+04  0.14880654421E+04  0.25500000920E-02 0.  1.
        2   -1    0    0  501    0  0.00000000000E+00  0.00000000000E+00 -0.23805879216E+04  0.23805879216E+04  0.25500000920E-02 0. -1.
    10030    2    1    2    0    0  0.00000000000E+00  0.00000000000E+00 -0.89252247949E+03  0.38686533637E+04  0.37642904341E+04 0.  0.
        2    1    3    3  502    0  0.33602943577E+03  0.34685543384E+03 -0.23158290842E+04  0.23656476536E+04  0.25500000920E-02 0. -1.
       -2    1    3    3    0  502 -0.33602943577E+03 -0.34685543384E+03  0.14233066047E+04  0.15030057101E+04  0.25500000920E-02 0.  1.
</event>
<event>
 5   0  0.1034683E-06  0.3871673E+04  0.7818609E-02  0.8030947E-01
        2   -1    0    0  501    0  0.00000000000E+00  0.00000000000E+00  0.16639885333E+04  0.16639885333E+04  0.25500000920E-02 0. -1.
       -2   -1    0    0    0  501  0.00000000000E+00  0.00000000000E+00 -0.22520965290E+04  0.22520965290E+04  0.25500000920E-02 0.  1.
    10030    2    1    2    0    0  0.00000000000E+00  0.00000000000E+00 -0.58810799570E+03  0.39160850624E+04  0.38716729202E+04 0.  0.
        2    1    3    3  502    0  0.97681881284E+03 -0.69439015919E+03 -0.18317262408E+04  0.21889663560E+04  0.25500000920E-02 0.  1.
       -2    1    3    3    0  502 -0.97681881284E+03  0.69439015919E+03  0.12436182451E+04  0.17271187064E+04  0.25500000920E-02 0. -1.
</event>
<event>
 5   0  0.5385714E-07  0.2405982E+04  0.7818609E-02  0.8437267E-01
       -1   -1    0    0    0  501  0.00000000000E+00  0.00000000000E+00  0.83912459307E+03  0.83912459308E+03  0.50400001928E-02 0.  1.
        1   -1    0    0  501    0  0.00000000000E+00  0.00000000000E+00 -0.17246395253E+04  0.17246395254E+04  0.50400001928E-02 0. -1.
    10030    2    1    2    0    0  0.00000000000E+00  0.00000000000E+00 -0.88551493227E+03  0.25637641184E+04  0.24059820780E+04 0.  0.
        3    1    3    3  502    0 -0.70136583918E+03 -0.45490037603E+03  0.47903865743E+03  0.96349698391E+03  0.10100000352E+00 0.  1.
       -3    1    3    3    0  502  0.70136583918E+03  0.45490037603E+03 -0.13645535897E+04  0.16002671345E+04  0.10100000352E+00 0. -1.
</event>
<event>
 5   0  0.1035864E-06  0.3690077E+04  0.7818609E-02  0.8070165E-01
        2   -1    0    0  501    0  0.00000000000E+00  0.00000000000E+00  0.19401557533E+04  0.19401557533E+04  0.25500000920E-02 0. -1.
       -2   -1    0    0    0  501  0.00000000000E+00  0.00000000000E+00 -0.17545841081E+04  0.17545841081E+04  0.25500000920E-02 0.  1.
    10030    2    1    2    0    0  0.00000000000E+00  0.00000000000E+00  0.18557164512E+03  0.36947398614E+04  0.36900766670E+04 0.  0.
        5    1    3    3  502    0 -0.60717233920E+03 -0.88476248999E+02 -0.16494297431E+04  0.17598655811E+04  0.46999998093E+01 0.  1.
       -5    1    3    3    0  502  0.60717233920E+03  0.88476248999E+02  0.18350013882E+04  0.19348742803E+04  0.46999998093E+01 0. -1.
</event>
<event>
 5   0  0.7268013E-07  0.1974276E+04  0.7818609E-02  0.8618743E-01
       -2   -1    0    0    0  501  0.00000000000E+00  0.00000000000E+00  0.10314684741E+04  0.10314684741E+04  0.25500000920E-02 0.  1.
        2   -1    0    0  501    0  0.00000000000E+00  0.00000000000E+00 -0.94471304593E+03  0.94471304593E+03  0.25500000920E-02 0. -1.
    10030    2    1    2    0    0  0.00000000000E+00  0.00000000000E+00  0.86755428199E+02  0.19761815201E+04  0.19742762968E+04 0.  0.
        4    1    3    3  502    0  0.48452519021E+03  0.58642698574E+03 -0.58633895392E+03  0.96044586070E+03  0.12699999809E+01 0. -1.
       -4    1    3    3    0  502 -0.48452519021E+03 -0.58642698574E+03  0.67309438212E+03  0.10157356594E+04  0.12699999809E+01 0.  1.
</event>
<event>
 5   0  0.1035864E-06  0.3117950E+04  0.7818609E-02  0.8210829E-01
       -2   -1    0    0    0  501  0.00000000000E+00  0.00000000000E+00  0.18022818063E+04  0.18022818063E+04  0.25500000920E-02 0.  1.
        2   -1    0    0  501    0  0.00000000000E+00  0.00000000000E+00 -0.13485144962E+04  0.13485144962E+04  0.25500000920E-02 0. -1.
    10030    2    1    2    0    0  0.00000000000E+00  0.00000000000E+00  0.45376731010E+03  0.31507963025E+04  0.31179500587E+04 0.  0.
        5    1    3    3  502    0 -0.66458836290E+03 -0.12250619059E+04 -0.47899241402E+03  0.14737402038E+04  0.46999998093E+01 0. -1.
       -5    1    3    3    0  502  0.66458836290E+03  0.12250619059E+04  0.93275972412E+03  0.16770560988E+04  0.46999998093E+01 0.  1.
</event>
<event>
 5   0  0.3471602E-07  0.2353342E+04  0.7818609E-02  0.8457181E-01
       -1   -1    0    0    0  501  0.00000000000E+00  0.00000000000E+00  0.87426585295E+03  0.87426585297E+03  0.50400001928E-02 0. -1.
        1   -1    0    0  501    0  0.00000000000E+00  0.00000000000E+00 -0.15836769191E+04  0.15836769191E+04  0.50400001928E-02 0.  1.
    10030    2    1    2    0    0  0.00000000000E+00  0.00000000000E+00 -0.70941106617E+03  0.24579427721E+04  0.23533420087E+04 0.  0.
        5    1    3    3  502    0  0.72613386425E+03 -0.54416641781E+03 -0.11370973524E+04  0.14547851930E+04  0.46999998093E+01 0.  1.
       -5    1    3    3    0  502 -0.72613386425E+03  0.54416641781E+03  0.42768628618E+03  0.10031575791E+04  0.46999998093E+01 0. -1.
</event>
<event>
 5   0  0.1015219E-06  0.3903293E+04  0.7818609E-02  0.8024345E-01
        2   -1    0    0  501    0  0.00000000000E+00  0.00000000000E+00  0.25363817226E+04  0.25363817226E+04  0.25500000920E-02 0.  1.
       -2   -1    0    0    0  501  0.00000000000E+00  0.00000000000E+00 -0.15017153242E+04  0.15017153242E+04  0.25500000920E-02 0. -1.
    10030    2    1    2    0    0  0.00000000000E+00  0.00000000000E+00  0.10346663983E+04  0.40380970468E+04  0.39032926105E+04 0.  0.
        3    1    3    3  502    0  0.19286885623E+03  0.36219319446E+03 -0.14565825174E+04  0.15132795333E+04  0.10100000352E+00 0. -1.
       -3    1    3    3    0  502 -0.19286885623E+03 -0.36219319446E+03  0.24912489157E+04  0.25248175135E+04  0.10100000352E+00 0.  1.
</event>
<event>
 5   0  0.1035864E-06  0.3845071E+04  0.7818609E-02  0.8036551E-01
       -2   -1    0    0    0  501  0.00000000000E+00  0.00000000000E+00  0.13984183627E+04  0.13984183627E+04  0.25500000920E-02 0.  1.
        2   -1    0    0  501    0  0.00000000000E+00  0.00000000000E+00 -0.26430884181E+04  0.26430884181E+04  0.25500000920E-02 0. -1.
    10030    2    1    2    0    0  0.00000000000E+00  0.00000000000E+00 -0.12446700554E+04  0.40415067808E+04  0.38450713273E+04 0.  0.
        5    1    3    3  502    0  0.10538674719E+04  0.14552100276E+04  0.96603060716E+02  0.17993407443E+04  0.46999998093E+01 0.  1.
       -5    1    3    3    0  502 -0.10538674719E+04 -0.14552100276E+04 -0.13412731161E+04  0.22421660364E+04  0.46999998093E+01 0. -1.
</event>
<event>
 5   0  0.5385714E-07  0.3867540E+04  0.7818609E-02  0.8031814E-01
        1   -1    0    0  501    0  0.00000000000E+00  0.00000000000E+00  0.15598679124E+04  0.15598679124E+04  0.50400001928E-02 0. -1.
       -1   -1    0    0    0  501  0.00000000000E+00  0.00000000000E+00 -0.23972967205E+04  0.23972967205E+04  0.50400001928E-02 0.  1.
    10030    2    1    2    0    0  0.00000000000E+00  0.00000000000E+00 -0.83742880810E+03  0.39571646329E+04  0.38675399058E+04 0.  0.
        3    1    3    3  502    0  0.15156059531E+04 -0.64265703581E+03  0.61938923093E+03  0.17588952500E+04  0.10100000352E+00 0. -1.
       -3    1    3    3    0  502 -0.15156059531E+04  0.64265703581E+03 -0.14568180390E+04  0.21982693829E+04  0.10100000352E+00 0.  1.
</event>
<event>
 5   0  0.3471602E-07  0.2926028E+04  0.7818609E-02  0.8265175E-01
       -1   -1    0    0    0  501  0.00000000000E+00  0.00000000000E+00  0.18052088342E+04  0.18052088342E+04  0.50400001928E-02 0. -1.
        1   -1    0    0  501    0  0.00000000000E+00  0.00000000000E+00 -0.11856856847E+04  0.11856856847E+04  0.50400001928E-02 0.  1.
    10030    2    1    2    0    0  0.00000000000E+00  0.00000000000E+00  0.61952314958E+03  0.29908945189E+04  0.29260282108E+04 0.  0.
        5    1    3    3  502    0  0.10547344569E+04 -0.31080239860E+03 -0.67668435005E+03  0.12911183932E+04  0.46999998093E+01 0.  1.
       -5    1    3    3    0  502 -0.10547344569E+04  0.31080239860E+03  0.12962074996E+04  0.16997761257E+04  0.46999998093E+01 0. -1.
</event>
<event>
 5   0  0.1034683E-06  0.3887008E+04  0.7818609E-02  0.8027737E-01
        2   -1    0    0  501    0  0.00000000000E+00  0.00000000000E+00  0.17023981329E+04  0.17023981329E+04  0.25500000920E-02 0. -1.
       -2   -1    0    0    0  501  0.00000000000E+00  0.00000000000E+00 -0.22187565854E+04  0.22187565854E+04  0.25500000920E-02 0.  1.
    10030    2    1    2    0    0  0.00000000000E+00  0.00000000000E+00 -0.51635845255E+03  0.39211547183E+04  0.38870076246E+04 0.  0.
        2    1    3    3  502    0  0.56853256027E+03  0.32185016160E+03 -0.21046663588E+04  0.22037325792E+04  0.25500000920E-02 0.  1.
       -2    1    3    3    0  502 -0.56853256027E+03 -0.32185016160E+03  0.15883079063E+04  0.17174221391E+04  0.25500000920E-02 0. -1.
</event>
<event>
 5   0  0.5533705E-07  0.3278688E+04  0.7818609E-02  0.8168339E-01
        2   -1    0    0  501    0  0.00000000000E+00  0.00000000000E+00  0.92517382603E+03  0.92517382604E+03  0.25500000920E-02 0. -1.
       -2   -1    0    0    0  501  0.00000000000E+00  0.00000000000E+00 -0.29048049988E+04  0.29048049988E+04  0.25500000920E-02 0.  1.
    10030    2    1    2    0    0  0.00000000000E+00  0.00000000000E+00 -0.19796311728E+04  0.38299788249E+04  0.32786884906E+04 0.  0.
        1    1    3    3  502    0  0.13744039710E+04  0.35034450169E+03 -0.19500565945E+04  0.24113167082E+04  0.50400001928E-02 0.  1.
       -1    1    3    3    0  502 -0.13744039710E+04 -0.35034450169E+03 -0.29574578274E+02  0.14186621166E+04  0.50400001928E-02 0. -1.
</event>
<event>
 5   0  0.4627905E-07  0.3834473E+04  0.7818609E-02  0.8038797E-01
       -1   -1    0    0    0  501  0.00000000000E+00  0.00000000000E+00  0.26374146964E+04  0.26374146964E+04  0.50400001928E-02 0. -1.
        1   -1    0    0  501    0  0.00000000000E+00  0.00000000000E+00 -0.13937114860E+04  0.13937114860E+04  0.50400001928E-02 0.  1.
    10030    2    1    2    0    0  0.00000000000E+00  0.00000000000E+00  0.12437032104E+04  0.40311261824E+04  0.38344726655E+04 0.  0.
        1    1    3    3  502    0  0.26230739015E+03  0.31163257924E+03  0.25913996487E+04  0.26232179038E+04  0.50400001928E-02 0. -1.
       -1    1    3    3    0  502 -0.26230739015E+03 -0.31163257924E+03 -0.13476964383E+04  0.14079082786E+04  0.50400001928E-02 0.  1.
</event>
<event>
 5   0  0.5533705E-07  0.3707234E+04  0.7818609E-02  0.8066360E-01
        2   -1    0    0  501    0  0.00000000000E+00  0.00000000000E+00  0.14163917634E+04  0.14163917634E+04  0.25500000920E-02 0.  1.
       -2   -1    0    0    0  501  0.00000000000E+00  0.00000000000E+00 -0.24258096319E+04  0.24258096320E+04  0.25500000920E-02 0. -1.
    10030    2    1    2    0    0  0.00000000000E+00  0.00000000000E+00 -0.10094178686E+04  0.38422013954E+04  0.37072344314E+04 0.  0.
        1    1    3    3  502    0 -0.74824011081E+03  0.15589201820E+04  0.18728260111E+03  0.17393016328E+04  0.50400001928E-02 0.  1.
       -1    1    3    3    0  502  0.74824011081E+03 -0.15589201820E+04 -0.11967004697E+04  0.21028997625E+04  0.50400001928E-02 0. -1.
</event>
<event>
 5   0  0.5533705E-07  0.3500536E+04  0.7818609E-02  0.8113663E-01
        2   -1    0    0  501    0  0.00000000000E+00  0.00000000000E+00  0.11380213154E+04  0.11380213154E+04  0.25500000920E-02 0.  1.
       -2   -1    0    0    0  501  0.00000000000E+00  0.00000000000E+00 -0.26918990723E+04  0.26918990723E+04  0.25500000920E-02 0. -1.
    10030    2    1    2    0    0  0.00000000000E+00  0.00000000000E+00 -0.15538777569E+04  0.38299203877E+04  0.35005362579E+04 0.  0.
        1    1    3    3  502    0 -0.33414601831E+03  0.61369954015E+03  0.97878854455E+03  0.12026253374E+04  0.50400001928E-02 0.  1.
       -1    1    3    3    0  502  0.33414601831E+03 -0.61369954015E+03 -0.25326663014E+04  0.26272950503E+04  0.50400001928E-02 0. -1.
</event>
<event>
 5   0  0.1015219E-06  0.3449708E+04  0.7818609E-02  0.8125813E-01
        2   -1    0    0  501    0  0.00000000000E+00  0.00000000000E+00  0.19981370168E+04  0.19981370168E+04  0.25500000920E-02 0.  1.
       -2   -1    0    0    0  501  0.00000000000E+00  0.00000000000E+00 -0.14889476383E+04  0.14889476383E+04  0.25500000920E-02 0. -1.
    10030    2    1    2    0    0  0.00000000000E+00  0.00000000000E+00  0.50918937859E+03  0.34870846551E+04  0.34497080411E+04 0.  0.
        3    1    3    3  502    0  0.35270473512E+03  0.87181741014E+03 -0.12069811376E+04  0.15301208134E+04  0.10100000352E+00 0. -1.
       -3    1    3    3    0  502 -0.35270473512E+03 -0.87181741014E+03  0.17161705162E+04  0.19569638417E+04  0.10100000352E+00 0.  1.
</event>
<event>
 5   0  0.5533705E-07  0.3330441E+04  0.7818609E-02  0.8155193E-01
        2   -1    0    0  501    0  0.00000000000E+00  0.00000000000E+00  0.18643743819E+04  0.18643743819E+04  0.25500000920E-02 0. -1.
       -2   -1    0    0    0  501  0.00000000000E+00  0.00000000000E+00 -0.14873401581E+04  0.14873401581E+04  0.25500000920E-02 0.  1.
    10030    2    1    2    0    0  0.00000000000E+00  0.00000000000E+00  0.37703422373E+03  0.33517145400E+04  0.33304407444E+04 0.  0.
        1    1    3    3  502    0  0.19413700833E+03 -0.12383368882E+04  0.12917821843E+04  0.17999635103E+04  0.50400001928E-02 0. -1.
       -1    1    3    3    0  502 -0.19413700833E+03  0.12383368882E+04 -0.91474796059E+03  0.15517510297E+04  0.50400001928E-02 0.  1.
</event>
<event>
 5   0  0.3977376E-07  0.3883232E+04  0.7818609E-02  0.8028526E-01
       -1   -1    0    0    0  501  0.00000000000E+00  0.00000000000E+00  0.13161878529E+04  0.13161878529E+04  0.50400001928E-02 0.  1.
        1   -1    0    0  501    0  0.00000000000E+00  0.00000000000E+00 -0.28642357577E+04  0.28642357577E+04  0.50400001928E-02 0. -1.
    10030    2    1    2    0    0  0.00000000000E+00  0.00000000000E+00 -0.15480479047E+04  0.41804236106E+04  0.38832318047E+04 0.  0.
        4    1    3    3  502    0 -0.12666694130E+04  0.11481487494E+04  0.21683815487E+03  0.17232867872E+04  0.12699999809E+01 0.  1.
       -4    1    3    3    0  502  0.12666694130E+04 -0.11481487494E+04 -0.17648860596E+04  0.24571368234E+04  0.12699999809E+01 0. -1.
</event>
<event>
 5   0  0.4627905E-07  0.3841745E+04  0.7818609E-02  0.8037255E-01
       -1   -1    0    0    0  501  0.00000000000E+00  0.00000000000E+00  0.18701135173E+04  0.18701135173E+04  0.50400001928E-02 0. -1.
        1   -1    0    0  501    0  0.00000000000E+00  0.00000000000E+00 -0.19730095213E+04  0.19730095213E+04  0.50400001928E-02 0.  1.
    10030    2    1    2    0    0  0.00000000000E+00  0.00000000000E+00 -0.10289600402E+03  0.38431230385E+04  0.38417453197E+04 0.  0.
        1    1    3    3  502    0  0.13909209771E+04 -0.12814251090E+03  0.12676112719E+04  0.18862449481E+04  0.50400001928E-02 0. -1.
       -1    1    3    3    0  502 -0.13909209771E+04  0.12814251090E+03 -0.13705072759E+04  0.19568780905E+04  0.50400001928E-02 0.  1.
</event>
<event>
 5   0  0.4627905E-07  0.2987599E+04  0.7818609E-02  0.8247281E-01
       -1   -1    0    0    0  501  0.00000000000E+00  0.00000000000E+00  0.18370423601E+04  0.18370423601E+04  0.50400001928E-02 0.  1.
        1   -1    0    0  501    0  0.00000000000E+00  0.00000000000E+00 -0.12146900157E+04  0.12146900157E+04  0.50400001928E-02 0. -1.
    10030    2    1    2    0    0  0.00000000000E+00  0.00000000000E+00  0.62235234441E+03  0.30517323759E+04  0.29875990450E+04 0.  0.
        1    1    3    3  502    0 -0.93185998625E+03 -0.85927334554E+03  0.11185375763E+04  0.16905147222E+04  0.50400001928E-02 0. -1.
       -1    1    3    3    0  502  0.93185998625E+03  0.85927334554E+03 -0.49618523189E+03  0.13612176537E+04  0.50400001928E-02 0.  1.
</event>
<event>
 5   0  0.1015219E-06  0.2163928E+04  0.7818609E-02  0.8533594E-01
        2   -1    0    0  501    0  0.00000000000E+00  0.00000000000E+00  0.14093903820E+04  0.14093903820E+04  0.25500000920E-02 0.  1.
       -2   -1    0    0    0  501  0.00000000000E+00  0.00000000000E+00 -0.83060494489E+03  0.83060494489E+03  0.25500000920E-02 0. -1.
    10030    2    1    2    0    0  0.00000000000E+00  0.00000000000E+00  0.57878543709E+03  0.22399953269E+04  0.21639284836E+04 0.  0.
        3    1    3    3  502    0  0.10344801998E+04 -0.31968648956E+02  0.61587672234E+03  0.12043568514E+04  0.10100000352E+00 0. -1.
       -3    1    3    3    0  502 -0.10344801998E+04  0.31968648956E+02 -0.37091285244E+02  0.10356384755E+04  0.10100000352E+00 0.  1.
</event>
<event>
 5   0  0.5533705E-07  0.2325278E+04  0.7818609E-02  0.8468021E-01
        2   -1    0    0  501    0  0.00000000000E+00  0.00000000000E+00  0.13299043768E+04  0.13299043768E+04  0.25500000920E-02 0. -1.
       -2   -1    0    0    0  501  0.00000000000E+00  0.00000000000E+00 -0.10164108267E+04  0.10164108267E+04  0.25500000920E-02 0.  1.
    10030    2    1    2    0    0  0.00000000000E+00  0.00000000000E+00  0.31349355009E+03  0.23463152035E+04  0.23252777960E+04 0.  0.
        1    1    3    3  502    0  0.94738777300E+03 -0.45027000146E+03 -0.34923035588E+03  0.11055534850E+04  0.50400001928E-02 0.  1.
       -1    1    3    3    0  502 -0.94738777300E+03  0.45027000146E+03  0.66272390597E+03  0.12407617186E+04  0.50400001928E-02 0. -1.
</event>
<event>
 5   0  0.3471602E-07  0.3787295E+04  0.7818609E-02  0.8048887E-01
       -1   -1    0    0    0  501  0.00000000000E+00  0.00000000000E+00  0.16309020132E+04  0.16309020132E+04  0.50400001928E-02 0.  1.
        1   -1    0    0  501    0  0.00000000000E+00  0.00000000000E+00 -0.21987225351E+04  0.21987225352E+04  0.50400001928E-02 0. -1.
    10030    2    1    2    0    0  0.00000000000E+00  0.00000000000E+00 -0.56782052193E+03  0.38296245484E+04  0.37872950818E+04 0.  0.
        5    1    3    3  502    0  0.12923213177E+03  0.11512624215E+04 -0.17985749298E+04  0.21393924313E+04  0.46999998093E+01 0. -1.
       -5    1    3    3    0  502 -0.12923213177E+03 -0.11512624215E+04  0.12307544079E+04  0.16902321171E+04  0.46999998093E+01 0.  1.
</event>
<event>
 5   0  0.3471602E-07  0.2108792E+04  0.7818609E-02  0.8557380E-01
       -1   -1    0    0    0  501  0.00000000000E+00  0.00000000000E+00  0.59671279069E+03  0.59671279071E+03  0.50400001928E-02 0. -1.
        1   -1    0    0  501    0  0.00000000000E+00  0.00000000000E+00 -0.18631264148E+04  0.18631264148E+04  0.50400001928E-02 0.  1.
    10030    2    1    2    0    0  0.00000000000E+00  0.00000000000E+00 -0.12664136241E+04  0.24598392055E+04  0.21087924150E+04 0.  0.
        5    1    3    3  502    0 -0.31435721257E+03  0.27012994987E+03 -0.17641027305E+04  0.18121454635E+04  0.46999998093E+01 0.  1.
       -5    1    3    3    0  502  0.31435721257E+03 -0.27012994987E+03  0.49768910639E+03  0.64769374208E+03  0.46999998093E+01 0. -1.
</event>
<event>
 5   0  0.5533705E-07  0.3302395E+04  0.7818609E-02  0.8162286E-01
        2   -1    0    0  501    0  0.00000000000E+00  0.00000000000E+00  0.28281926429E+04  0.28281926429E+04  0.25500000920E-02 0.  1.
       -2   -1    0    0    0  501  0.00000000000E+00  0.00000000000E+00 -0.96402694707E+03  0.96402694707E+03  0.25500000920E-02 0. -1.
    10030    2    1    2    0    0  0.00000000000E+00  0.00000000000E+00  0.18641656958E+04  0.37922195899E+04  0.33023954453E+04 0.  0.
        1    1    3    3  502    0 -0.62527695911E+03 -0.14976392610E+04  0.12814438318E+04  0.20678474136E+04  0.50400001928E-02 0. -1.
       -1    1    3    3    0  502  0.62527695911E+03  0.14976392610E+04  0.58272186396E+03  0.17243721763E+04  0.50400001928E-02 0.  1.
</event>
<event>
 5   0  0.4627905E-07  0.3889253E+04  0.7818609E-02  0.8027268E-01
       -1   -1    0    0    0  501  0.00000000000E+00  0.00000000000E+00  0.16086358300E+04  0.16086358300E+04  0.50400001928E-02 0.  1.
        1   -1    0    0  501    0  0.00000000000E+00  0.00000000000E+00 -0.23507946522E+04  0.23507946522E+04  0.50400001928E-02 0. -1.
    10030    2    1    2    0    0  0.00000000000E+00  0.00000000000E+00 -0.74215882221E+03  0.39594304822E+04  0.38892531450E+04 0.  0.
        1    1    3    3  502    0 -0.17552625590E+04 -0.36121531565E+03 -0.11397863969E+04  0.21238022945E+04  0.50400001928E-02 0. -1.
       -1    1    3    3    0  502  0.17552625590E+04  0.36121531565E+03  0.39762757469E+03  0.18356281877E+04  0.50400001928E-02 0.  1.
</event>
<event>
 5   0  0.1035864E-06  0.3752709E+04  0.7818609E-02  0.8056380E-01
       -2   -1    0    0    0  501  0.00000000000E+00  0.00000000000E+00  0.18496558401E+04  0.18496558401E+04  0.25500000920E-02 0. -1.
        2   -1    0    0  501    0  0.00000000000E+00  0.00000000000E+00 -0.19034389115E+04  0.19034389115E+04  0.25500000920E-02 0.  1.
    10030    2    1    2    0    0  0.00000000000E+00  0.00000000000E+00 -0.53783071372E+02  0.37530947517E+04  0.37527093674E+04 0.  0.
        5    1    3    3  502    0 -0.45728265662E+03  0.18193936516E+04  0.10316066802E+02  0.18760141788E+04  0.46999998093E+01 0.  1.
       -5    1    3    3    0  502  0.45728265662E+03 -0.18193936516E+04 -0.64099138174E+02  0.18770805729E+04  0.46999998093E+01 0. -1.
</event>
<event>
 5   0  0.4316671E-07  0.2577520E+04  0.7818609E-02  0.8375878E-01
       -1   -1    0    0    0  501  0.00000000000E+00  0.00000000000E+00  0.17768803803E+04  0.17768803803E+04  0.50400001928E-02 0.  1.
        1   -1    0    0  501    0  0.00000000000E+00  0.00000000000E+00 -0.93472920829E+03  0.93472920831E+03  0.50400001928E-02 0. -1.
    10030    2    1    2    0    0  0.00000000000E+00  0.00000000000E+00  0.84215117203E+03  0.27116095886E+04  0.25775197312E+04 0.  0.
        2    1    3    3  502    0  0.41378716831E+03  0.59984100788E+03  0.15393283117E+04  0.17031032577E+04  0.25500000920E-02 0.  1.
       -2    1    3    3    0  502 -0.41378716831E+03 -0.59984100788E+03 -0.69717713965E+03  0.10085063309E+04  0.25500000920E-02 0. -1.
</event>
<event>
 5   0  0.4316671E-07  0.4140654E+04  0.7818609E-02  0.7976758E-01
       -1   -1    0    0    0  501  0.00000000000E+00  0.00000000000E+00  0.21563805978E+04  0.21563805978E+04  0.50400001928E-02 0.  1.
        1   -1    0    0  501    0  0.00000000000E+00  0.00000000000E+00 -0.19877075420E+04  0.19877075420E+04  0.50400001928E-02 0. -1.
    10030    2    1    2    0    0  0.00000000000E+00  0.00000000000E+00  0.16867305579E+03  0.41440881398E+04  0.41406540438E+04 0.  0.
        2    1    3    3  502    0 -0.13581040834E+04  0.51922954943E+03  0.15594000972E+04  0.21320822427E+04  0.25500000920E-02 0.  1.
       -2    1    3    3    0  502  0.13581040834E+04 -0.51922954943E+03 -0.13907270414E+04  0.20120058971E+04  0.25500000920E-02 0. -1.
</event>
<event>
 5   0  0.3977376E-07  0.3529259E+04  0.7818609E-02  0.8106891E-01
        1   -1    0    0  501    0  0.00000000000E+00  0.00000000000E+00  0.20205444297E+04  0.20205444297E+04  0.50400001928E-02 0.  1.
       -1   -1    0    0    0  501  0.00000000000E+00  0.00000000000E+00 -0.15411276202E+04  0.15411276202E+04  0.50400001928E-02 0. -1.
    10030    2    1    2    0    0  0.00000000000E+00  0.00000000000E+00  0.47941680948E+03  0.35616720499E+04  0.35292587485E+04 0.  0.
        4    1    3    3  502    0 -0.15927528640E+04 -0.62650041166E+02  0.10037138109E+04  0.18836745314E+04  0.12699999809E+01 0.  1.
       -4    1    3    3    0  502  0.15927528640E+04  0.62650041166E+02 -0.52429700141E+03  0.16779975184E+04  0.12699999809E+01 0. -1.
</event>
<event>
 5   0  0.5385714E-07  0.3897773E+04  0.7818609E-02  0.8025493E-01
        1   -1    0    0  501    0  0.00000000000E+00  0.00000000000E+00  0.27304930301E+04  0.27304930301E+04  0.50400001928E-02 0.  1.
       -1   -1    0    0    0  501  0.00000000000E+00  0.00000000000E+00 -0.13910157021E+04  0.13910157021E+04  0.50400001928E-02 0. -1.
    10030    2    1    2    0    0  0.00000000000E+00  0.00000000000E+00  0.13394773280E+04  0.41215087323E+04  0.38977730460E+04 0.  0.
        3    1    3    3  502    0 -0.16879555121E+04  0.91986143061E+03  0.10087998431E+04  0.21709481791E+04  0.10100000352E+00 0.  1.
       -3    1    3    3    0  502  0.16879555121E+04 -0.91986143061E+03  0.33067748489E+03  0.19505605532E+04  0.10100000352E+00 0. -1.
</event>
<event>
 5   0  0.4316671E-07  0.2665056E+04  0.7818609E-02  0.8346433E-01
       -1   -1    0    0    0  501  0.00000000000E+00  0.00000000000E+00  0.89867478554E+03  0.89867478555E+03  0.50400001928E-02 0.  1.
        1   -1    0    0  501    0  0.00000000000E+00  0.00000000000E+00 -0.19758323567E+04  0.19758323567E+04  0.50400001928E-02 0. -1.
    10030    2    1    2    0    0  0.00000000000E+00  0.00000000000E+00 -0.10771575711E+04  0.28745071422E+04  0.26650558864E+04 0.  0.
        2    1    3    3  502    0 -0.11225284044E+02  0.13095186175E+04 -0.80424032680E+03  0.15368043206E+04  0.25500000920E-02 0. -1.
       -2    1    3    3    0  502  0.11225284044E+02 -0.13095186175E+04 -0.27291724434E+03  0.13377028216E+04  0.25500000920E-02 0.  1.
</event>
<event>
 5   0  0.9853508E-07  0.1965687E+04  0.7818609E-02  0.8622833E-01
        2   -1    0    0  501    0  0.00000000000E+00  0.00000000000E+00  0.15873002601E+04  0.15873002601E+04  0.25500000920E-02 0.  1.
       -2   -1    0    0    0  501  0.00000000000E+00  0.00000000000E+00 -0.60856852756E+03  0.60856852757E+03  0.25500000920E-02 0. -1.
    10030    2    1    2    0    0  0.00000000000E+00  0.00000000000E+00  0.97873173258E+03  0.21958687877E+04  0.19656866303E+04 0.  0.
        1    1    3    3  502    0 -0.98274660365E+03 -0.13786804715E+02  0.48921136384E+03  0.10978655298E+04  0.50400001928E-02 0.  1.
       -1    1    3    3    0  502  0.98274660365E+03  0.13786804715E+02  0.48952036874E+03  0.10980032579E+04  0.50400001928E-02 0. -1.
</event>
<event>
 5   0  0.1035864E-06  0.3339851E+04  0.7818609E-02  0.8152829E-01
        2   -1    0    0  501    0  0.00000000000E+00  0.00000000000E+00  0.26525631678E+04  0.26525631678E+04  0.25500000920E-02 0.  1.
       -2   -1    0    0    0  501  0.00000000000E+00  0.00000000000E+00 -0.10513041499E+04  0.10513041499E+04  0.25500000920E-02 0. -1.
    10030    2    1    2    0    0  0.00000000000E+00  0.00000000000E+00  0.16012590178E+04  0.37038673177E+04  0.33398506950E+04 0.  0.
        5    1    3    3  502    0  0.12754680944E+04 -0.10493607887E+04  0.10737471067E+04  0.19700080872E+04  0.46999998093E+01 0.  1.
       -5    1    3    3    0  502 -0.12754680944E+04  0.10493607887E+04  0.52751191111E+03  0.17338592304E+04  0.46999998093E+01 0. -1.
</event>
<event>
 5   0  0.5385714E-07  0.3342556E+04  0.7818609E-02  0.8152151E-01
        1   -1    0    0  501    0  0.00000000000E+00  0.00000000000E+00  0.14286745565E+04  0.14286745565E+04  0.50400001928E-02 0. -1.
       -1   -1    0    0    0  501  0.00000000000E+00  0.00000000000E+00 -0.19550780313E+04  0.19550780313E+04  0.50400001928E-02 0.  1.
    10030    2    1    2    0    0  0.00000000000E+00  0.00000000000E+00 -0.52640347474E+03  0.33837525878E+04  0.33425560515E+04 0.  0.
        3    1    3    3  502    0  0.15990728474E+04 -0.45478289814E+03 -0.43650978198E+03  0.17188374722E+04  0.10100000352E+00 0.  1.
       -3    1    3    3    0  502 -0.15990728474E+04  0.45478289814E+03 -0.89893692763E+02  0.16649151156E+04  0.10100000352E+00 0. -1.
</event>
<event>
 5   0  0.1035864E-06  0.2408296E+04  0.7818609E-02  0.8436404E-01
       -2   -1    0    0    0  501  0.00000000000E+00  0.00000000000E+00  0.92049444123E+03  0.92049444123E+03  0.25500000920E-02 0.  1.
        2   -1    0    0  501    0  0.00000000000E+00  0.00000000000E+00 -0.15752108687E+04  0.15752108687E+04  0.25500000920E-02 0. -1.
    10030    2    1    2    0    0  0.00000000000E+00  0.00000000000E+00 -0.65471642743E+03  0.24957053099E+04  0.24082963674E+04 0.  0.
        5    1    3    3  502    0 -0.60426840322E+03  0.96738143442E+03  0.72635003779E+02  0.11429195407E+04  0.46999998093E+01 0.  1.
       -5    1    3    3    0  502  0.60426840322E+03 -0.96738143442E+03 -0.72735143121E+03  0.13527857692E+04  0.46999998093E+01 0. -1.
</event>
<event>
 5   0  0.5533705E-07  0.3907579E+04  0.7818609E-02  0.8023455E-01
       -2   -1    0    0    0  501  0.00000000000E+00  0.00000000000E+00  0.15952623885E+04  0.15952623885E+04  0.25500000920E-02 0. -1.
        2   -1    0    0  501    0  0.00000000000E+00  0.00000000000E+00 -0.23928943297E+04  0.23928943297E+04  0.25500000920E-02 0.  1.
    10030    2    1    2    0    0  0.00000000000E+00  0.00000000000E+00 -0.79763194123E+03  0.39881567183E+04  0.39075794676E+04 0.  0.
        1    1    3    3  502    0  0.13379248374E+04  0.13857187738E+04 -0.73272423534E+03  0.20608600621E+04  0.50400001928E-02 0.  1.
       -1    1    3    3    0  502 -0.13379248374E+04 -0.13857187738E+04 -0.64907705892E+02  0.19272966562E+04  0.50400001928E-02 0. -1.
</event>
<event>
 5   0  0.4627905E-07  0.2690898E+04  0.7818609E-02  0.8337964E-01
        1   -1    0    0  501    0  0.00000000000E+00  0.00000000000E+00  0.17307122415E+04  0.17307122415E+04  0.50400001928E-02 0. -1.
       -1   -1    0    0    0  501  0.00000000000E+00  0.00000000000E+00 -0.10459468035E+04  0.10459468035E+04  0.50400001928E-02 0.  1.
    10030    2    1    2    0    0  0.00000000000E+00  0.00000000000E+00  0.68476543805E+03  0.27766590450E+04  0.26908979444E+04 0.  0.
        1    1    3    3  502    0 -0.82544887982E+03 -0.25953311521E+03  0.14055149873E+04  0.16505137596E+04  0.50400001928E-02 0. -1.
       -1    1    3    3    0  502  0.82544887982E+03  0.25953311521E+03 -0.72074954924E+03  0.11261452854E+04  0.50400001928E-02 0.  1.
</event>
<event>
 5   0  0.1034683E-06  0.2522501E+04  0.7818609E-02  0.8395013E-01
       -2   -1    0    0    0  501  0.00000000000E+00  0.00000000000E+00  0.13158467706E+04  0.13158467706E+04  0.25500000920E-02 0.  1.
        2   -1    0    0  501    0  0.00000000000E+00  0.00000000000E+00 -0.12089193817E+04  0.12089193817E+04  0.25500000920E-02 0. -1.
    10030    2    1    2    0    0  0.00000000000E+00  0.00000000000E+00  0.10692738885E+03  0.25247661523E+04  0.25225008736E+04 0.  0.
        2    1    3    3  502    0 -0.47738700547E+03  0.10651719789E+04  0.53166148223E+03  0.12826354234E+04  0.25500000920E-02 0. -1.
       -2    1    3    3    0  502  0.47738700547E+03 -0.10651719789E+04 -0.42473409339E+03  0.12421307289E+04  0.25500000920E-02 0.  1.
</event>
<event>
 5   0  0.3191750E-07  0.2923782E+04  0.7818609E-02  0.8265837E-01
       -3   -1    0    0    0  501  0.00000000000E+00  0.00000000000E+00  0.79712861449E+03  0.79712862089E+03  0.10100000352E+00 0. -1.
        3   -1    0    0  501    0  0.00000000000E+00  0.00000000000E+00 -0.26810301007E+04  0.26810301026E+04  0.10100000352E+00 0.  1.
    10030    2    1    2    0    0  0.00000000000E+00  0.00000000000E+00 -0.18839014862E+04  0.34781587235E+04  0.29237823613E+04 0.  0.
        5    1    3    3  502    0  0.13819450579E+04 -0.20390240814E+03 -0.14546646268E+04  0.20167844707E+04  0.46999998093E+01 0.  1.
       -5    1    3    3    0  502 -0.13819450579E+04  0.20390240814E+03 -0.42923685943E+03  0.14613742527E+04  0.46999998093E+01 0. -1.
</event>
<event>
 5   0  0.3977376E-07  0.3876181E+04  0.7818609E-02  0.8030001E-01
        1   -1    0    0  501    0  0.00000000000E+00  0.00000000000E+00  0.14948370325E+04  0.14948370325E+04  0.50400001928E-02 0. -1.
       -1   -1    0    0    0  501  0.00000000000E+00  0.00000000000E+00 -0.25127788089E+04  0.25127788089E+04  0.50400001928E-02 0.  1.
    10030    2    1    2    0    0  0.00000000000E+00  0.00000000000E+00 -0.10179417764E+04  0.40076158414E+04  0.38761810164E+04 0.  0.
        4    1    3    3  502    0  0.66735165926E+03 -0.11883158956E+04 -0.19336426572E+04  0.23656771639E+04  0.12699999809E+01 0.  1.
       -4    1    3    3    0  502 -0.66735165926E+03  0.11883158956E+04  0.91570088078E+03  0.16419386775E+04  0.12699999809E+01 0. -1.
</event>
<event>
 5   0  0.5385714E-07  0.3425626E+04  0.7818609E-02  0.8131645E-01
       -1   -1    0    0    0  501  0.00000000000E+00  0.00000000000E+00  0.13195358610E+04  0.13195358610E+04  0.50400001928E-02 0. -1.
        1   -1    0    0  501    0  0.00000000000E+00  0.00000000000E+00 -0.22233037227E+04  0.22233037227E+04  0.50400001928E-02 0.  1.
    10030    2    1    2    0    0  0.00000000000E+00  0.00000000000E+00 -0.90376786163E+03  0.35428395837E+04  0.34256263614E+04 0.  0.
        3    1    3    3  502    0  0.16682527075E+04  0.59687374294E+02 -0.55225395225E+02  0.16702333768E+04  0.10100000352E+00 0. -1.
       -3    1    3    3    0  502 -0.16682527075E+04 -0.59687374294E+02 -0.84854246641E+03  0.18726062069E+04  0.10100000352E+00 0.  1.
</event>
<event>
 5   0  0.5533705E-07  0.3838049E+04  0.7818609E-02  0.8038039E-01
       -2   -1    0    0    0  501  0.00000000000E+00  0.00000000000E+00  0.15290190055E+04  0.15290190055E+04  0.25500000920E-02 0.  1.
        2   -1    0    0  501    0  0.00000000000E+00  0.00000000000E+00 -0.24085081173E+04  0.24085081173E+04  0.25500000920E-02 0. -1.
    10030    2    1    2    0    0  0.00000000000E+00  0.00000000000E+00 -0.87948911184E+03  0.39375271227E+04  0.38380488200E+04 0.  0.
        1    1    3    3  502    0  0.37140047456E+03 -0.99421057796E+03 -0.20800159851E+04  0.23351358599E+04  0.50400001928E-02 0. -1.
       -1    1    3    3    0  502 -0.37140047456E+03  0.99421057796E+03  0.12005268733E+04  0.16023912629E+04  0.50400001928E-02 0.  1.
</event>
<event>
 5   0  0.7268013E-07  0.3949844E+04  0.7818609E-02  0.8014742E-01
        2   -1    0    0  501    0  0.00000000000E+00  0.00000000000E+00  0.24165823709E+04  0.24165823709E+04  0.25500000920E-02 0.  1.
       -2   -1    0    0    0  501  0.00000000000E+00  0.00000000000E+00 -0.16139805042E+04  0.16139805042E+04  0.25500000920E-02 0. -1.
    10030    2    1    2    0    0  0.00000000000E+00  0.00000000000E+00  0.80260186664E+03  0.40305628751E+04  0.39498439632E+04 0.  0.
        4    1    3    3  502    0 -0.16719673138E+04 -0.54549122847E+03  0.13181499320E+04  0.21978526418E+04  0.12699999809E+01 0.  1.
       -4    1    3    3    0  502  0.16719673138E+04  0.54549122847E+03 -0.51554806541E+03  0.18327102333E+04  0.12699999809E+01 0. -1.
</event>
<event>
 5   0  0.3977376E-07  0.2658287E+04  0.7818609E-02  0.8348668E-01
        1   -1    0    0  501    0  0.00000000000E+00  0.00000000000E+00  0.17484040493E+04  0.17484040493E+04  0.50400001928E-02 0.  1.
       -1   -1    0    0    0  501  0.00000000000E+00  0.00000000000E+00 -0.10104197753E+04  0.10104197753E+04  0.50400001928E-02 0. -1.
    10030    2    1    2    0    0  0.00000000000E+00  0.00000000000E+00  0.73798427401E+03  0.27588238247E+04  0.26582866864E+04 0.  0.
        4    1    3    3  502    0 -0.73903187621E+03  0.10692234264E+04  0.80609604140E+02  0.13022696997E+04  0.12699999809E+01 0. -1.
       -4    1    3    3    0  502  0.73903187621E+03 -0.10692234264E+04  0.65737466987E+03  0.14565541250E+04  0.12699999809E+01 0.  1.
</event>
<event>
 5   0  0.3471602E-07  0.2113032E+04  0.7818609E-02  0.8555524E-01
       -1   -1    0    0    0  501  0.00000000000E+00  0.00000000000E+00  0.12585848009E+04  0.12585848009E+04  0.50400001928E-02 0.  1.
        1   -1    0    0  501    0  0.00000000000E+00  0.00000000000E+00 -0.88688985424E+03  0.88688985425E+03  0.50400001928E-02 0. -1.
    10030    2    1    2    0    0  0.00000000000E+00  0.00000000000E+00  0.37169494665E+03  0.21454746552E+04  0.21130320306E+04 0.  0.
        5    1    3    3  502    0 -0.18749032262E+03  0.66247892723E+03 -0.62781323814E+03  0.93177384707E+03  0.46999998093E+01 0. -1.
       -5    1    3    3    0  502  0.18749032262E+03 -0.66247892723E+03  0.99950818479E+03  0.12137008081E+04  0.46999998093E+01 0.  1.
</event>
<event>
 5   0  0.5533705E-07  0.3884912E+04  0.7818609E-02  0.8028174E-01
       -2   -1    0    0    0  501  0.00000000000E+00  0.00000000000E+00  0.19173874719E+04  0.19173874719E+04  0.25500000920E-02 0. -1.
        2   -1    0    0  501    0  0.00000000000E+00  0.00000000000E+00 -0.19678526530E+04  0.19678526530E+04  0.25500000920E-02 0.  1.
    10030    2    1    2    0    0  0.00000000000E+00  0.00000000000E+00 -0.50465181074E+02  0.38852401249E+04  0.38849123663E+04 0.  0.
        1    1    3    3  502    0  0.14684113939E+04  0.34734199629E+03 -0.12485518537E+04  0.19585096925E+04  0.50400001928E-02 0.  1.
       -1    1    3    3    0  502 -0.14684113939E+04 -0.34734199629E+03  0.11980866726E+04  0.19267304324E+04  0.50400001928E-02 0. -1.
</event>
<event>
 5   0  0.4316671E-07  0.3768749E+04  0.7818609E-02  0.8052895E-01
       -1   -1    0    0    0  501  0.00000000000E+00  0.00000000000E+00  0.15375777280E+04  0.15375777280E+04  0.50400001928E-02 0.  1.
        1   -1    0    0  501    0  0.00000000000E+00  0.00000000000E+00 -0.23093909779E+04  0.23093909779E+04  0.50400001928E-02 0. -1.
    10030    2    1    2    0    0  0.00000000000E+00  0.00000000000E+00 -0.77181324988E+03  0.38469687059E+04  0.37687494652E+04 0.  0.
        2    1    3    3  502    0 -0.10844430108E+04 -0.61822182495E+03 -0.18268179443E+04  0.22125728621E+04  0.25500000920E-02 0. -1.
       -2    1    3    3    0  502  0.10844430108E+04  0.61822182495E+03  0.10550046944E+04  0.16343958437E+04  0.25500000920E-02 0.  1.
</event>
<event>
 5   0  0.5533705E-07  0.3441624E+04  0.7818609E-02  0.8127765E-01
        2   -1    0    0  501    0  0.00000000000E+00  0.00000000000E+00  0.15470477040E+04  0.15470477040E+04  0.25500000920E-02 0. -1.
       -2   -1    0    0    0  501  0.00000000000E+00  0.00000000000E+00 -0.19140940195E+04  0.19140940195E+04  0.25500000920E-02 0.  1.
    10030    2    1    2    0    0  0.00000000000E+00  0.00000000000E+00 -0.36704631544E+03  0.34611417235E+04  0.34416244758E+04 0.  0.
        1    1    3    3  502    0 -0.69892128971E+03  0.97333333172E+03  0.10585215815E+04  0.15988548034E+04  0.50400001928E-02 0. -1.
       -1    1    3    3    0  502  0.69892128971E+03 -0.97333333172E+03 -0.14255678970E+04  0.18622869201E+04  0.50400001928E-02 0.  1.
</event>
<event>
 5   0  0.3191750E-07  0.3735660E+04  0.7818609E-02  0.8060105E-01
        3   -1    0    0  501    0  0.00000000000E+00  0.00000000000E+00  0.24592700850E+04  0.24592700871E+04  0.10100000352E+00 0. -1.
       -3   -1    0    0    0  501  0.00000000000E+00  0.00000000000E+00 -0.14186276648E+04  0.14186276684E+04  0.10100000352E+00 0.  1.
    10030    2    1    2    0    0  0.00000000000E+00  0.00000000000E+00  0.10406424202E+04  0.38778977555E+04  0.37356598286E+04 0.  0.
        3    1    3    3  502    0 -0.64578533149E+03  0.56697242550E+03  0.22418664779E+04  0.24009293494E+04  0.10100000352E+00 0. -1.
       -3    1    3    3    0  502  0.64578533149E+03 -0.56697242550E+03 -0.12012240577E+04  0.14769684061E+04  0.10100000352E+00 0.  1.
</event>
<event>
 5   0  0.1035864E-06  0.3909911E+04  0.7818609E-02  0.8022971E-01
       -2   -1    0    0    0  501  0.00000000000E+00  0.00000000000E+00  0.26529647145E+04  0.26529647145E+04  0.25500000920E-02 0. -1.
        2   -1    0    0  501    0  0.00000000000E+00  0.00000000000E+00 -0.14405961413E+04  0.14405961413E+04  0.25500000920E-02 0.  1.
    10030    2    1    2    0    0  0.00000000000E+00  0.00000000000E+00  0.12123685732E+04  0.40935608558E+04  0.39099108587E+04 0.  0.
        5    1    3    3  502    0  0.33105495476E+03 -0.17555844479E+04  0.14372931566E+04  0.22929256082E+04  0.46999998093E+01 0. -1.
       -5    1    3    3    0  502 -0.33105495476E+03  0.17555844479E+04 -0.22492458337E+03  0.18006352476E+04  0.46999998093E+01 0.  1.
</event>
<event>
 5   0  0.1015219E-06  0.3225941E+04  0.7818609E-02  0.8182000E-01
        2   -1    0    0  501    0  0.00000000000E+00  0.00000000000E+00  0.20557347440E+04  0.20557347440E+04  0.25500000920E-02 0. -1.
       -2   -1    0    0    0  501  0.00000000000E+00  0.00000000000E+00 -0.12655684738E+04  0.12655684738E+04  0.25500000920E-02 0.  1.
    10030    2    1    2    0    0  0.00000000000E+00  0.00000000000E+00  0.79016627026E+03  0.33213032178E+04  0.32259405341E+04 0.  0.
        3    1    3    3  502    0  0.18286594617E+03  0.52555063046E+03  0.19537822354E+04  0.20314793755E+04  0.10100000352E+00 0. -1.
       -3    1    3    3    0  502 -0.18286594617E+03 -0.52555063046E+03 -0.11636159652E+04  0.12898238423E+04  0.10100000352E+00 0.  1.
</event>
<event>
 5   0  0.4627905E-07  0.3945974E+04  0.7818609E-02  0.8015535E-01
        1   -1    0    0  501    0  0.00000000000E+00  0.00000000000E+00  0.23089920575E+04  0.23089920575E+04  0.50400001928E-02 0. -1.
       -1   -1    0    0    0  501  0.00000000000E+00  0.00000000000E+00 -0.16858774450E+04  0.16858774450E+04  0.50400001928E-02 0.  1.
    10030    2    1    2    0    0  0.00000000000E+00  0.00000000000E+00  0.62311461251E+03  0.39948695024E+04  0.39459739636E+04 0.  0.
        1    1    3    3  502    0 -0.49171930989E+03 -0.18695536890E+04 -0.87867614021E+02  0.19351329653E+04  0.50400001928E-02 0.  1.
       -1    1    3    3    0  502  0.49171930989E+03  0.18695536890E+04  0.71098222653E+03  0.20597365371E+04  0.50400001928E-02 0. -1.
</event>
<event>
 5   0  0.4627905E-07  0.3876979E+04  0.7818609E-02  0.8029834E-01
        1   -1    0    0  501    0  0.00000000000E+00  0.00000000000E+00  0.27284969981E+04  0.27284969981E+04  0.50400001928E-02 0. -1.
       -1   -1    0    0    0  501  0.00000000000E+00  0.00000000000E+00 -0.13772204545E+04  0.13772204545E+04  0.50400001928E-02 0.  1.
    10030    2    1    2    0    0  0.00000000000E+00  0.00000000000E+00  0.13512765437E+04  0.41057174526E+04  0.38769791724E+04 0.  0.
        1    1    3    3  502    0  0.55012455832E+03  0.96285482148E+03 -0.10081421358E+04  0.14986917638E+04  0.50400001928E-02 0.  1.
       -1    1    3    3    0  502 -0.55012455832E+03 -0.96285482148E+03  0.23594186795E+04  0.26070256888E+04  0.50400001928E-02 0. -1.
</event>
<event>
 5   0  0.5533705E-07  0.2632067E+04  0.7818609E-02  0.8357390E-01
        2   -1    0    0  501    0  0.00000000000E+00  0.00000000000E+00  0.15541051870E+04  0.15541051870E+04  0.25500000920E-02 0.  1.
       -2   -1    0    0    0  501  0.00000000000E+00  0.00000000000E+00 -0.11144317278E+04  0.11144317278E+04  0.25500000920E-02 0. -1.
    10030    2    1    2    0    0  0.00000000000E+00  0.00000000000E+00  0.43967345924E+03  0.26685369148E+04  0.26320669663E+04 0.  0.
        1    1    3    3  502    0  0.11713671807E+03  0.84162811071E+03  0.12386915230E+04  0.15021370033E+04  0.50400001928E-02 0.  1.
       -1    1    3    3    0  502 -0.11713671807E+03 -0.84162811071E+03 -0.79901806375E+03  0.11663999116E+04  0.50400001928E-02 0. -1.
</event>
<event>
 5   0  0.4316671E-07  0.2832555E+04  0.7818609E-02  0.8293232E-01
        1   -1    0    0  501    0  0.00000000000E+00  0.00000000000E+00  0.15470591318E+04  0.15470591318E+04  0.50400001928E-02 0.  1.
       -1   -1    0    0    0  501  0.00000000000E+00  0.00000000000E+00 -0.12965516623E+04  0.12965516623E+04  0.50400001928E-02 0. -1.
    10030    2    1    2    0    0  0.00000000000E+00  0.00000000000E+00  0.25050746952E+03  0.28436107941E+04  0.28325550932E+04 0.  0.
        2    1    3    3  502    0 -0.11734713998E+03 -0.53015053390E+03  0.14384158206E+04  0.15374882155E+04  0.25500000920E-02 0.  1.
       -2    1    3    3    0  502  0.11734713998E+03  0.53015053390E+03 -0.11879083510E+04  0.13061225786E+04  0.25500000920E-02 0. -1.
</event>
<event>
 5   0  0.3977376E-07  0.3813674E+04  0.7818609E-02  0.8043227E-01
        1   -1    0    0  501    0  0.00000000000E+00  0.00000000000E+00  0.25151203581E+04  0.25151203581E+04  0.50400001928E-02 0.  1.
       -1   -1    0    0    0  501  0.00000000000E+00  0.00000000000E+00 -0.14456672776E+04  0.14456672776E+04  0.50400001928E-02 0. -1.
    10030    2    1    2    0    0  0.00000000000E+00  0.00000000000E+00  0.10694530805E+04  0.39607876358E+04  0.38136739247E+04 0.  0.
        4    1    3    3  502    0  0.11722669080E+04 -0.14779188878E+04  0.82398728679E+03  0.20584971713E+04  0.12699999809E+01 0. -1.
       -4    1    3    3    0  502 -0.11722669080E+04  0.14779188878E+04  0.24546579372E+03  0.19022904645E+04  0.12699999809E+01 0.  1.
</event>
<event>
 5   0  0.1015219E-06  0.3894457E+04  0.7818609E-02  0.8026183E-01
       -2   -1    0    0    0  501  0.00000000000E+00  0.00000000000E+00  0.15650249720E+04  0.15650249720E+04  0.25500000920E-02 0.  1.
        2   -1    0    0  501    0  0.00000000000E+00  0.00000000000E+00 -0.24227717429E+04  0.24227717429E+04  0.25500000920E-02 0. -1.
    10030    2    1    2    0    0  0.00000000000E+00  0.00000000000E+00 -0.85774677089E+03  0.39877967149E+04  0.38944567165E+04 0.  0.
        3    1    3    3  502    0 -0.71008434233E+03 -0.16908987966E+04  0.24128942235E+03  0.18497510938E+04  0.10100000352E+00 0.  1.
       -3    1    3    3    0  502  0.71008434233E+03  0.16908987966E+04 -0.10990361932E+04  0.21380456211E+04  0.10100000352E+00 0. -1.
</event>
<event>
 5   0  0.3471602E-07  0.3816761E+04  0.7818609E-02  0.8042568E-01
        1   -1    0    0  501    0  0.00000000000E+00  0.00000000000E+00  0.20594987699E+04  0.20594987700E+04  0.50400001928E-02 0.  1.
       -1   -1    0    0    0  501  0.00000000000E+00  0.00000000000E+00 -0.17683508250E+04  0.17683508250E+04  0.50400001928E-02 0. -1.
    10030    2    1    2    0    0  0.00000000000E+00  0.00000000000E+00  0.29114794494E+03  0.38278495950E+04  0.38167611133E+04 0.  0.
        5    1    3    3  502    0 -0.27403208345E+03  0.10102901670E+04 -0.14547166025E+04  0.17922059837E+04  0.46999998093E+01 0. -1.
       -5    1    3    3    0  502  0.27403208345E+03 -0.10102901670E+04  0.17458645474E+04  0.20356436113E+04  0.46999998093E+01 0.  1.
</event>
<event>
 5   0  0.5533705E-07  0.3928331E+04  0.7818609E-02  0.8019163E-01
        2   -1    0    0  501    0  0.00000000000E+00  0.00000000000E+00  0.24581060796E+04  0.24581060796E+04  0.25500000920E-02 0. -1.
       -2   -1    0    0    0  501  0.00000000000E+00  0.00000000000E+00 -0.15694788638E+04  0.15694788638E+04  0.25500000920E-02 0.  1.
    10030    2    1    2    0    0  0.00000000000E+00  0.00000000000E+00  0.88862721582E+03  0.40275849434E+04  0.39283307075E+04 0.  0.
        1    1    3    3  502    0  0.18073374028E+04  0.50143770815E+03  0.10421742027E+04  0.21457015942E+04  0.50400001928E-02 0. -1.
       -1    1    3    3    0  502 -0.18073374028E+04 -0.50143770815E+03 -0.15354698687E+03  0.18818833492E+04  0.50400001928E-02 0.  1.
</event>
<event>
 5   0  0.1035864E-06  0.3862902E+04  0.7818609E-02  0.8032789E-01
        2   -1    0    0  501    0  0.00000000000E+00  0.00000000000E+00  0.11369526360E+04  0.11369526360E+04  0.25500000920E-02 0. -1.
       -2   -1    0    0    0  501  0.00000000000E+00  0.00000000000E+00 -0.32811414770E+04  0.32811414770E+04  0.25500000920E-02 0.  1.
    10030    2    1    2    0    0  0.00000000000E+00  0.00000000000E+00 -0.21441888410E+04  0.44180941130E+04  0.38629017339E+04 0.  0.
        5    1    3    3  502    0 -0.15407828526E+04 -0.11566093588E+04 -0.91559485933E+03  0.21330947105E+04  0.46999998093E+01 0. -1.
       -5    1    3    3    0  502  0.15407828526E+04  0.11566093588E+04 -0.12285939816E+04  0.22849994025E+04  0.46999998093E+01 0.  1.
</event>
<event>
 5   0  0.4316671E-07  0.2767417E+04  0.7818609E-02  0.8313456E-01
        1   -1    0    0  501    0  0.00000000000E+00  0.00000000000E+00  0.19066163043E+04  0.19066163043E+04  0.50400001928E-02 0. -1.
       -1   -1    0    0    0  501  0.00000000000E+00  0.00000000000E+00 -0.10042134130E+04  0.10042134130E+04  0.50400001928E-02 0.  1.
    10030    2    1    2    0    0  0.00000000000E+00  0.00000000000E+00  0.90240289133E+03  0.29108297173E+04  0.27674173275E+04 0.  0.
        2    1    3    3  502    0 -0.13588773359E+04  0.13533561185E+03  0.21651004536E+03  0.13826568416E+04  0.25500000920E-02 0.  1.
       -2    1    3    3    0  502  0.13588773359E+04 -0.13533561185E+03  0.68589284598E+03  0.15281728757E+04  0.25500000920E-02 0. -1.
</event>
<event>
 5   0  0.3977376E-07  0.2166249E+04  0.7818609E-02  0.8532609E-01
       -1   -1    0    0    0  501  0.00000000000E+00  0.00000000000E+00  0.58600968902E+03  0.58600968904E+03  0.50400001928E-02 0.  1.
        1   -1    0    0  501    0  0.00000000000E+00  0.00000000000E+00 -0.20019434039E+04  0.20019434039E+04  0.50400001928E-02 0. -1.
    10030    2    1    2    0    0  0.00000000000E+00  0.00000000000E+00 -0.14159337149E+04  0.25879530929E+04  0.21662485837E+04 0.  0.
        4    1    3    3  502    0 -0.64063615881E+03  0.84475230675E+03 -0.44314997403E+03  0.11490886215E+04  0.12699999809E+01 0. -1.
       -4    1    3    3    0  502  0.64063615881E+03 -0.84475230675E+03 -0.97278374082E+03  0.14388644714E+04  0.12699999809E+01 0.  1.
</event>
<event>
 5   0  0.4316671E-07  0.3495152E+04  0.7818609E-02  0.8114940E-01
        1   -1    0    0  501    0  0.00000000000E+00  0.00000000000E+00  0.29598120879E+04  0.29598120879E+04  0.50400001928E-02 0.  1.
       -1   -1    0    0    0  501  0.00000000000E+00  0.00000000000E+00 -0.10318295519E+04  0.10318295519E+04  0.50400001928E-02 0. -1.
    10030    2    1    2    0    0  0.00000000000E+00  0.00000000000E+00  0.19279825359E+04  0.39916416398E+04  0.34951518310E+04 0.  0.
        2    1    3    3  502    0 -0.19417907195E+03  0.63029647081E+02 -0.10181642807E+04  0.10384299451E+04  0.25500000920E-02 0. -1.
       -2    1    3    3    0  502  0.19417907195E+03 -0.63029647081E+02  0.29461468167E+04  0.29532116947E+04  0.25500000920E-02 0.  1.
</event>
<event>
 5   0  0.1034683E-06  0.2128809E+04  0.7818609E-02  0.8548658E-01
        2   -1    0    0  501    0  0.00000000000E+00  0.00000000000E+00  0.94663173266E+03  0.94663173266E+03  0.25500000920E-02 0. -1.
       -2   -1    0    0    0  501  0.00000000000E+00  0.00000000000E+00 -0.11968299724E+04  0.11968299724E+04  0.25500000920E-02 0.  1.
    10030    2    1    2    0    0  0.00000000000E+00  0.00000000000E+00 -0.25019823973E+03  0.21434617050E+04  0.21288092732E+04 0.  0.
        2    1    3    3  502    0 -0.59956318727E+03 -0.32657535770E+03  0.69711789412E+03  0.97575654653E+03  0.25500000920E-02 0.  1.
       -2    1    3    3    0  502  0.59956318727E+03  0.32657535770E+03 -0.94731613384E+03  0.11677051585E+04  0.25500000920E-02 0. -1.
</event>
<event>
 5   0  0.5533705E-07  0.3028717E+04  0.7818609E-02  0.8235578E-01
       -2   -1    0    0    0  501  0.00000000000E+00  0.00000000000E+00  0.83042484059E+03  0.83042484059E+03  0.25500000920E-02 0.  1.
        2   -1    0    0  501    0  0.00000000000E+00  0.00000000000E+00 -0.27615760284E+04  0.27615760284E+04  0.25500000920E-02 0. -1.
    10030    2    1    2    0    0  0.00000000000E+00  0.00000000000E+00 -0.19311511878E+04  0.35920008690E+04  0.30287167799E+04 0.  0.
        1    1    3    3  502    0  0.63529853930E+03 -0.98614474009E+03  0.17024244741E+03  0.11853557160E+04  0.50400001928E-02 0.  1.
       -1    1    3    3    0  502 -0.63529853930E+03  0.98614474009E+03 -0.21013936352E+04  0.24066451530E+04  0.50400001928E-02 0. -1.
</event>
<event>
 5   0  0.5533705E-07  0.3521000E+04  0.7818609E-02  0.8108831E-01
        2   -1    0    0  501    0  0.00000000000E+00  0.00000000000E+00  0.19669087020E+04  0.19669087020E+04  0.25500000920E-02 0.  1.
       -2   -1    0    0    0  501  0.00000000000E+00  0.00000000000E+00 -0.15757517582E+04  0.15757517582E+04  0.25500000920E-02 0. -1.
    10030    2    1    2    0    0  0.00000000000E+00  0.00000000000E+00  0.39115694373E+03  0.35426604602E+04  0.35209997702E+04 0.  0.
        1    1    3    3  502    0 -0.12247127614E+04 -0.43014400996E+03 -0.10010295310E+04  0.16392087540E+04  0.50400001928E-02 0. -1.
       -1    1    3    3    0  502  0.12247127614E+04  0.43014400996E+03  0.13921864747E+04  0.19034517062E+04  0.50400001928E-02 0.  1.
</event>
<event>
 5   0  0.5533705E-07  0.3697514E+04  0.7818609E-02  0.8068513E-01
       -2   -1    0    0    0  501  0.00000000000E+00  0.00000000000E+00  0.25712645971E+04  0.25712645971E+04  0.25500000920E-02 0.  1.
        2   -1    0    0  501    0  0.00000000000E+00  0.00000000000E+00 -0.13292693836E+04  0.13292693836E+04  0.25500000920E-02 0. -1.
    10030    2    1    2    0    0  0.00000000000E+00  0.00000000000E+00  0.12419952135E+04  0.39005339807E+04  0.36975144657E+04 0.  0.
        1    1    3    3  502    0  0.13973434813E+04 -0.76447636566E+03 -0.36910464808E+03  0.16350018837E+04  0.50400001928E-02 0. -1.
       -1    1    3    3    0  502 -0.13973434813E+04  0.76447636566E+03  0.16110998616E+04  0.22655320970E+04  0.50400001928E-02 0.  1.
</event>
<event>
 5   0  0.7268013E-07  0.2761837E+04  0.7818609E-02  0.8315215E-01
       -2   -1    0    0    0  501  0.00000000000E+00  0.00000000000E+00  0.11866866349E+04  0.11866866349E+04  0.25500000920E-02 0. -1.
        2   -1    0    0  501    0  0.00000000000E+00  0.00000000000E+00 -0.16069413574E+04  0.16069413574E+04  0.25500000920E-02 0.  1.
    10030    2    1    2    0    0  0.00000000000E+00  0.00000000000E+00 -0.42025472259E+03  0.27936279923E+04  0.27618369480E+04 0.  0.
        4    1    3    3  502    0 -0.86730713411E+03  0.10634467929E+04 -0.36615425238E+03  0.14202856388E+04  0.12699999809E+01 0.  1.
       -4    1    3    3    0  502  0.86730713411E+03 -0.10634467929E+04 -0.54100470212E+02  0.13733423535E+04  0.12699999809E+01 0. -1.
</event>
<event>
 5   0  0.4627905E-07  0.3522427E+04  0.7818609E-02  0.8108496E-01
        1   -1    0    0  501    0  0.00000000000E+00  0.00000000000E+00  0.12580044483E+04  0.12580044483E+04  0.50400001928E-02 0. -1.
       -1   -1    0    0    0  501  0.00000000000E+00  0.00000000000E+00 -0.24657090519E+04  0.24657090519E+04  0.50400001928E-02 0.  1.
    10030    2    1    2    0    0  0.00000000000E+00  0.00000000000E+00 -0.12077046036E+04  0.37237135003E+04  0.35224269790E+04 0.  0.
        1    1    3    3  502    0  0.27831259767E+03  0.14815563887E+04 -0.15666117154E+04  0.21741065985E+04  0.50400001928E-02 0.  1.
       -1    1    3    3    0  502 -0.27831259767E+03 -0.14815563887E+04  0.35890711182E+03  0.15496069017E+04  0.50400001928E-02 0. -1.
</event>
<event>
 5   0  0.4627905E-07  0.2412983E+04  0.7818609E-02  0.8434659E-01
        1   -1    0    0  501    0  0.00000000000E+00  0.00000000000E+00  0.18507887070E+04  0.18507887070E+04  0.50400001928E-02 0.  1.
       -1   -1    0    0    0  501  0.00000000000E+00  0.00000000000E+00 -0.78648734935E+03  0.78648734937E+03  0.50400001928E-02 0. -1.
    10030    2    1    2    0    0  0.00000000000E+00  0.00000000000E+00  0.10643013577E+04  0.26372760564E+04  0.24129831366E+04 0.  0.
        1    1    3    3  502    0  0.14990031515E+03 -0.11764759748E+04  0.77422444571E+03  0.14163295225E+04  0.50400001928E-02 0.  1.
       -1    1    3    3    0  502 -0.14990031515E+03  0.11764759748E+04  0.29007691196E+03  0.12209465339E+04  0.50400001928E-02 0. -1.
</event>
<event>
 5   0  0.3191750E-07  0.3054312E+04  0.7818609E-02  0.8228390E-01
        3   -1    0    0  501    0  0.00000000000E+00  0.00000000000E+00  0.14172356560E+04  0.14172356596E+04  0.10100000352E+00 0. -1.
       -3   -1    0    0    0  501  0.00000000000E+00  0.00000000000E+00 -0.16456012145E+04  0.16456012176E+04  0.10100000352E+00 0.  1.
    10030    2    1    2    0    0  0.00000000000E+00  0.00000000000E+00 -0.22836555853E+03  0.30628368772E+04  0.30543115277E+04 0.  0.
        5    1    3    3  502    0  0.41342302809E+03  0.70677392237E+03 -0.14068638083E+04  0.16278009222E+04  0.46999998093E+01 0.  1.
       -5    1    3    3    0  502 -0.41342302809E+03 -0.70677392237E+03  0.11784982497E+04  0.14350359550E+04  0.46999998093E+01 0. -1.
</event>
<event>
 5   0  0.3977376E-07  0.3783312E+04  0.7818609E-02  0.8049746E-01
       -1   -1    0    0    0  501  0.00000000000E+00  0.00000000000E+00  0.12676043033E+04  0.12676043033E+04  0.50400001928E-02 0.  1.
        1   -1    0    0  501    0  0.00000000000E+00  0.00000000000E+00 -0.28229333637E+04  0.28229333638E+04  0.50400001928E-02 0. -1.
    10030    2    1    2    0    0  0.00000000000E+00  0.00000000000E+00 -0.15553290605E+04  0.40905376671E+04  0.37833120304E+04 0.  0.
        4    1    3    3  502    0  0.76810541037E+02 -0.26953339635E+03  0.12450315814E+04  0.12761870406E+04  0.12699999809E+01 0.  1.
       -4    1    3    3    0  502 -0.76810541037E+02  0.26953339635E+03 -0.28003606419E+04  0.28143506264E+04  0.12699999809E+01 0. -1.
</event>
<event>
 5   0  0.4316671E-07  0.3788926E+04  0.7818609E-02  0.8048536E-01
        1   -1    0    0  501    0  0.00000000000E+00  0.00000000000E+00  0.11989116381E+04  0.11989116381E+04  0.50400001928E-02 0. -1.
       -1   -1    0    0    0  501  0.00000000000E+00  0.00000000000E+00 -0.29935393332E+04  0.29935393332E+04  0.50400001928E-02 0.  1.
    10030    2    1    2    0    0  0.00000000000E+00  0.00000000000E+00 -0.17946276951E+04  0.41924509713E+04  0.37889255182E+04 0.  0.
        2    1    3    3  502    0 -0.16020398921E+04 -0.96154531863E+03 -0.55112227083E+03  0.19480341304E+04  0.25500000920E-02 0. -1.
       -2    1    3    3    0  502  0.16020398921E+04  0.96154531863E+03 -0.12435054243E+04  0.22444168409E+04  0.25500000920E-02 0.  1.
</event>
<event>
 5   0  0.5385714E-07  0.3855757E+04  0.7818609E-02  0.8034294E-01
        1   -1    0    0  501    0  0.00000000000E+00  0.00000000000E+00  0.19860737387E+04  0.19860737387E+04  0.50400001928E-02 0.  1.
       -1   -1    0    0    0  501  0.00000000000E+00  0.00000000000E+00 -0.18713885221E+04  0.18713885221E+04  0.50400001928E-02 0. -1.
    10030    2    1    2    0    0  0.00000000000E+00  0.00000000000E+00  0.11468521658E+03  0.38574622608E+04  0.38557570456E+04 0.  0.
        3    1    3    3  502    0 -0.94939561010E+03 -0.14997557328E+04  0.81006907309E+03  0.19511102470E+04  0.10100000352E+00 0.  1.
       -3    1    3    3    0  502  0.94939561010E+03  0.14997557328E+04 -0.69538385651E+03  0.19063520138E+04  0.10100000352E+00 0. -1.
</event>
<event>
 5   0  0.7268013E-07  0.2579889E+04  0.7818609E-02  0.8375065E-01
        2   -1    0    0  501    0  0.00000000000E+00  0.00000000000E+00  0.16623693037E+04  0.16623693037E+04  0.25500000920E-02 0.  1.
       -2   -1    0    0    0  501  0.00000000000E+00  0.00000000000E+00 -0.10009548599E+04  0.10009548599E+04  0.25500000920E-02 0. -1.
    10030    2    1    2    0    0  0.00000000000E+00  0.00000000000E+00  0.66141444382E+03  0.26633241636E+04  0.25798888608E+04 0.  0.
        4    1    3    3  502    0  0.74873326964E+03 -0.70660627643E+03  0.11330564885E+04  0.15309188607E+04  0.12699999809E+01 0.  1.
       -4    1    3    3    0  502 -0.74873326964E+03  0.70660627643E+03 -0.47164204468E+03  0.11324053030E+04  0.12699999809E+01 0. -1.
</event>
<event>
 5   0  0.1035864E-06  0.3829636E+04  0.7818609E-02  0.8039825E-01
       -2   -1    0    0    0  501  0.00000000000E+00  0.00000000000E+00  0.16754085597E+04  0.16754085597E+04  0.25500000920E-02 0.  1.
        2   -1    0    0  501    0  0.00000000000E+00  0.00000000000E+00 -0.21884382403E+04  0.21884382403E+04  0.25500000920E-02 0. -1.
    10030    2    1    2    0    0  0.00000000000E+00  0.00000000000E+00 -0.51302968058E+03  0.38638467999E+04  0.38296360976E+04 0.  0.
        5    1    3    3  502    0 -0.90948751550E+03 -0.17044309408E+03  0.14348518766E+04  0.17073489353E+04  0.46999998093E+01 0.  1.
       -5    1    3    3    0  502  0.90948751550E+03  0.17044309408E+03 -0.19478815572E+04  0.21564978646E+04  0.46999998093E+01 0. -1.
</event>
<event>
 5   0  0.5385714E-07  0.3422897E+04  0.7818609E-02  0.8132310E-01
        1   -1    0    0  501    0  0.00000000000E+00  0.00000000000E+00  0.21168914958E+04  0.21168914958E+04  0.50400001928E-02 0.  1.
       -1   -1    0    0    0  501  0.00000000000E+00  0.00000000000E+00 -0.13836586878E+04  0.13836586878E+04  0.50400001928E-02 0. -1.
    10030    2    1    2    0    0  0.00000000000E+00  0.00000000000E+00  0.73323280807E+03  0.35005501836E+04  0.34228966150E+04 0.  0.
        3    1    3    3  502    0  0.89968421271E+03 -0.11164611520E+04  0.13222336943E+04  0.19504407550E+04  0.10100000352E+00 0. -1.
       -3    1    3    3    0  502 -0.89968421271E+03  0.11164611520E+04 -0.58900088619E+03  0.15501094286E+04  0.10100000352E+00 0.  1.
</event>
<event>
 5   0  0.1015219E-06  0.2818874E+04  0.7818609E-02  0.8297433E-01
        2   -1    0    0  501    0  0.00000000000E+00  0.00000000000E+00  0.13324943903E+04  0.13324943903E+04  0.25500000920E-02 0.  1.
       -2   -1    0    0    0  501  0.00000000000E+00  0.00000000000E+00 -0.14908222083E+04  0.14908222083E+04  0.25500000920E-02 0. -1.
    10030    2    1    2    0    0  0.00000000000E+00  0.00000000000E+00 -0.15832781799E+03  0.28233165986E+04  0.28188736967E+04 0.  0.
        3    1    3    3  502    0 -0.20205747859E+03  0.31179726749E+03  0.12825625276E+04  0.13352945024E+04  0.10100000352E+00 0.  1.
       -3    1    3    3    0  502  0.20205747859E+03 -0.31179726749E+03 -0.14408903456E+04  0.14880220962E+04  0.10100000352E+00 0. -1.
</event>
<event>
 5   0  0.1035864E-06  0.3807503E+04  0.7818609E-02  0.8044547E-01
       -2   -1    0    0    0  501  0.00000000000E+00  0.00000000000E+00  0.14056033400E+04  0.14056033400E+04  0.25500000920E-02 0.  1.
        2   -1    0    0  501    0  0.00000000000E+00  0.00000000000E+00 -0.25784444260E+04  0.25784444260E+04  0.25500000920E-02 0. -1.
    10030    2    1    2    0    0  0.00000000000E+00  0.00000000000E+00 -0.11728410860E+04  0.39840477660E+04  0.38075031699E+04 0.  0.
        5    1    3    3  502    0 -0.13742756719E+04 -0.32617809398E+03  0.74917335893E+03  0.15988460161E+04  0.46999998093E+01 0.  1.
       -5    1    3    3    0  502  0.13742756719E+04  0.32617809398E+03 -0.19220144449E+04  0.23852017499E+04  0.46999998093E+01 0. -1.
</event>
<event>
 5   0  0.3471602E-07  0.3769802E+04  0.7818609E-02  0.8052666E-01
       -1   -1    0    0    0  501  0.00000000000E+00  0.00000000000E+00  0.15569579793E+04  0.15569579793E+04  0.50400001928E-02 0. -1.
        1   -1    0    0  501    0  0.00000000000E+00  0.00000000000E+00 -0.22819192264E+04  0.22819192264E+04  0.50400001928E-02 0.  1.
    10030    2    1    2    0    0  0.00000000000E+00  0.00000000000E+00 -0.72496124705E+03  0.38388772057E+04  0.37698023012E+04 0.  0.
        5    1    3    3  502    0 -0.14205819082E+04 -0.64788749949E+03  0.71281232131E+03  0.17163725310E+04  0.46999998093E+01 0. -1.
       -5    1    3    3    0  502  0.14205819082E+04  0.64788749949E+03 -0.14377735684E+04  0.21225046746E+04  0.46999998093E+01 0.  1.
</event>
<event>
 5   0  0.3471602E-07  0.3827088E+04  0.7818609E-02  0.8040367E-01
        1   -1    0    0  501    0  0.00000000000E+00  0.00000000000E+00  0.17942991948E+04  0.17942991948E+04  0.50400001928E-02 0.  1.
       -1   -1    0    0    0  501  0.00000000000E+00  0.00000000000E+00 -0.20407132864E+04  0.20407132864E+04  0.50400001928E-02 0. -1.
    10030    2    1    2    0    0  0.00000000000E+00  0.00000000000E+00 -0.24641409157E+03  0.38350124812E+04  0.38270877736E+04 0.  0.
        5    1    3    3  502    0  0.22473104405E+03 -0.97634229121E+03 -0.17568834167E+04  0.20224761412E+04  0.46999998093E+01 0. -1.
       -5    1    3    3    0  502 -0.22473104405E+03  0.97634229121E+03  0.15104693251E+04  0.18125363400E+04  0.46999998093E+01 0.  1.
</event>
<event>
 5   0  0.1034683E-06  0.2123974E+04  0.7818609E-02  0.8550755E-01
       -2   -1    0    0    0  501  0.00000000000E+00  0.00000000000E+00  0.11389309471E+04  0.11389309471E+04  0.25500000920E-02 0.  1.
        2   -1    0    0  501    0  0.00000000000E+00  0.00000000000E+00 -0.99024157919E+03  0.99024157919E+03  0.25500000920E-02 0. -1.
    10030    2    1    2    0    0  0.00000000000E+00  0.00000000000E+00  0.14868936793E+03  0.21291725263E+04  0.21239743686E+04 0.  0.
        2    1    3    3  502    0  0.43341740564E+03  0.78127983217E+02  0.10430751738E+04  0.11322369220E+04  0.25500000920E-02 0.  1.
       -2    1    3    3    0  502 -0.43341740564E+03 -0.78127983217E+02 -0.89438580592E+03  0.99693560429E+03  0.25500000920E-02 0. -1.
</event>
<event>
 5   0  0.1034683E-06  0.2162622E+04  0.7818609E-02  0.8534149E-01
       -2   -1    0    0    0  501  0.00000000000E+00  0.00000000000E+00  0.57184655200E+03  0.57184655200E+03  0.25500000920E-02 0.  1.
        2   -1    0    0  501    0  0.00000000000E+00  0.00000000000E+00 -0.20446627579E+04  0.20446627579E+04  0.25500000920E-02 0. -1.
    10030    2    1    2    0    0  0.00000000000E+00  0.00000000000E+00 -0.14728162059E+04  0.26165093099E+04  0.21626218792E+04 0.  0.
        2    1    3    3  502    0 -0.25690809452E+03  0.42288387002E+03 -0.18996548613E+04  0.19630387487E+04  0.25500000920E-02 0. -1.
       -2    1    3    3    0  502  0.25690809452E+03 -0.42288387002E+03  0.42683865547E+03  0.65347056121E+03  0.25500000920E-02 0.  1.
</event>
<event>
 5   0  0.1015219E-06  0.3854036E+04  0.7818609E-02  0.8034657E-01
       -2   -1    0    0    0  501  0.00000000000E+00  0.00000000000E+00  0.21037805696E+04  0.21037805696E+04  0.25500000920E-02 0.  1.
        2   -1    0    0  501    0  0.00000000000E+00  0.00000000000E+00 -0.17651076486E+04  0.17651076486E+04  0.25500000920E-02 0. -1.
    10030    2    1    2    0    0  0.00000000000E+00  0.00000000000E+00  0.33867292102E+03  0.38688882183E+04  0.38540364163E+04 0.  0.
        3    1    3    3  502    0 -0.11464194115E+04 -0.20314864658E+03 -0.13721107946E+04  0.17995096228E+04  0.10100000352E+00 0. -1.
       -3    1    3    3    0  502  0.11464194115E+04  0.20314864658E+03  0.17107837156E+04  0.20693785955E+04  0.10100000352E+00 0.  1.
</event>
<event>
 5   0  0.7268013E-07  0.3842570E+04  0.7818609E-02  0.8037081E-01
        2   -1    0    0  501    0  0.00000000000E+00  0.00000000000E+00  0.26427721117E+04  0.26427721117E+04  0.25500000920E-02 0. -1.
       -2   -1    0    0    0  501  0.00000000000E+00  0.00000000000E+00 -0.13967667902E+04  0.13967667902E+04  0.25500000920E-02 0.  1.
    10030    2    1    2    0    0  0.00000000000E+00  0.00000000000E+00  0.12460053215E+04  0.40395389018E+04  0.38425701397E+04 0.  0.
        4    1    3    3  502    0  0.13427542288E+04 -0.15691666024E+03  0.20581638054E+04  0.24624482979E+04  0.12699999809E+01 0. -1.
       -4    1    3    3    0  502 -0.13427542288E+04  0.15691666024E+03 -0.81215848393E+03  0.15770906039E+04  0.12699999809E+01 0.  1.
</event>
<event>
 5   0  0.4627905E-07  0.3905097E+04  0.7818609E-02  0.8023970E-01
        1   -1    0    0  501    0  0.00000000000E+00  0.00000000000E+00  0.12839547736E+04  0.12839547736E+04  0.50400001928E-02 0. -1.
       -1   -1    0    0    0  501  0.00000000000E+00  0.00000000000E+00 -0.29692993387E+04  0.29692993387E+04  0.50400001928E-02 0.  1.
    10030    2    1    2    0    0  0.00000000000E+00  0.00000000000E+00 -0.16853445650E+04  0.42532541123E+04  0.39050972127E+04 0.  0.
        1    1    3    3  502    0  0.10475325207E+04  0.45651320599E+03 -0.25670887689E+04  0.28099240980E+04  0.50400001928E-02 0.  1.
       -1    1    3    3    0  502 -0.10475325207E+04 -0.45651320599E+03  0.88174420383E+03  0.14433300143E+04  0.50400001928E-02 0. -1.
</event>
<event>
 5   0  0.7268013E-07  0.3761500E+04  0.7818609E-02  0.8054468E-01
        2   -1    0    0  501    0  0.00000000000E+00  0.00000000000E+00  0.18186052040E+04  0.18186052040E+04  0.25500000920E-02 0. -1.
       -2   -1    0    0    0  501  0.00000000000E+00  0.00000000000E+00 -0.19450187564E+04  0.19450187564E+04  0.25500000920E-02 0.  1.
    10030    2    1    2    0    0  0.00000000000E+00  0.00000000000E+00 -0.12641355235E+03  0.37636239604E+04  0.37615003562E+04 0.  0.
        4    1    3    3  502    0 -0.72738827367E+03  0.10307283943E+04  0.13324731603E+04  0.18349335299E+04  0.12699999809E+01 0. -1.
       -4    1    3    3    0  502  0.72738827367E+03 -0.10307283943E+04 -0.14588867126E+04  0.19286904305E+04  0.12699999809E+01 0.  1.
</event>
<event>
 5   0  0.4316671E-07  0.1982435E+04  0.7818609E-02  0.8614877E-01
        1   -1    0    0  501    0  0.00000000000E+00  0.00000000000E+00  0.22079096197E+04  0.22079096197E+04  0.50400001928E-02 0.  1.
       -1   -1    0    0    0  501  0.00000000000E+00  0.00000000000E+00 -0.44499637629E+03  0.44499637632E+03  0.50400001928E-02 0. -1.
    10030    2    1    2    0    0  0.00000000000E+00  0.00000000000E+00  0.17629132434E+04  0.26529059960E+04  0.19824346446E+04 0.  0.
        2    1    3    3  502    0 -0.98959943343E+03 -0.44116004392E+02  0.92893030790E+03  0.13580002862E+04  0.25500000920E-02 0.  1.
       -2    1    3    3    0  502  0.98959943343E+03  0.44116004392E+02  0.83398293549E+03  0.12949057098E+04  0.25500000920E-02 0. -1.
</event>
<event>
 5   0  0.7268013E-07  0.3128519E+04  0.7818609E-02  0.8207955E-01
        2   -1    0    0  501    0  0.00000000000E+00  0.00000000000E+00  0.21049800573E+04  0.21049800573E+04  0.25500000920E-02 0.  1.
       -2   -1    0    0    0  501  0.00000000000E+00  0.00000000000E+00 -0.11624372113E+04  0.11624372113E+04  0.25500000920E-02 0. -1.
    10030    2    1    2    0    0  0.00000000000E+00  0.00000000000E+00  0.94254284604E+03  0.32674172686E+04  0.31285185936E+04 0.  0.
        4    1    3    3  502    0 -0.78888588076E+02  0.15431961369E+04  0.72544399934E+03  0.17070290962E+04  0.12699999809E+01 0.  1.
       -4    1    3    3    0  502  0.78888588076E+02 -0.15431961369E+04  0.21709884670E+03  0.15603881724E+04  0.12699999809E+01 0. -1.
</event>
<event>
 5   0  0.5385714E-07  0.3883926E+04  0.7818609E-02  0.8028381E-01
        1   -1    0    0  501    0  0.00000000000E+00  0.00000000000E+00  0.26828759612E+04  0.26828759612E+04  0.50400001928E-02 0.  1.
       -1   -1    0    0    0  501  0.00000000000E+00  0.00000000000E+00 -0.14056631981E+04  0.14056631981E+04  0.50400001928E-02 0. -1.
    10030    2    1    2    0    0  0.00000000000E+00  0.00000000000E+00  0.12772127631E+04  0.40885391593E+04  0.38839258509E+04 0.  0.
        3    1    3    3  502    0  0.53793780303E+03  0.98290768960E+02 -0.13229394605E+04  0.14315051454E+04  0.10100000352E+00 0. -1.
       -3    1    3    3    0  502 -0.53793780303E+03 -0.98290768960E+02  0.26001522235E+04  0.26570340139E+04  0.10100000352E+00 0.  1.
</event>
<event>
 5   0  0.5533705E-07  0.3831326E+04  0.7818609E-02  0.8039466E-01
       -2   -1    0    0    0  501  0.00000000000E+00  0.00000000000E+00  0.22689181690E+04  0.22689181690E+04  0.25500000920E-02 0. -1.
        2   -1    0    0  501    0  0.00000000000E+00  0.00000000000E+00 -0.16174070918E+04  0.16174070918E+04  0.25500000920E-02 0.  1.
    10030    2    1    2    0    0  0.00000000000E+00  0.00000000000E+00  0.65151107718E+03  0.38863252608E+04  0.38313257952E+04 0.  0.
        1    1    3    3  502    0 -0.16915391863E+04 -0.79590143825E+03  0.75009127263E+03  0.20142990929E+04  0.50400001928E-02 0. -1.
       -1    1    3    3    0  502  0.16915391863E+04  0.79590143825E+03 -0.98580195455E+02  0.18720261679E+04  0.50400001928E-02 0.  1.
</event>
<event>
 5   0  0.3471602E-07  0.3649544E+04  0.7818609E-02  0.8079236E-01
        1   -1    0    0  501    0  0.00000000000E+00  0.00000000000E+00  0.25152100651E+04  0.25152100651E+04  0.50400001928E-02 0. -1.
       -1   -1    0    0    0  501  0.00000000000E+00  0.00000000000E+00 -0.13238627760E+04  0.13238627760E+04  0.50400001928E-02 0.  1.
    10030    2    1    2    0    0  0.00000000000E+00  0.00000000000E+00  0.11913472890E+04  0.38390728411E+04  0.36495440696E+04 0.  0.
        5    1    3    3  502    0  0.73319390112E+03 -0.16435462851E+04  0.27842722102E+03  0.18210879977E+04  0.46999998093E+01 0. -1.
       -5    1    3    3    0  502 -0.73319390112E+03  0.16435462851E+04  0.91292006801E+03  0.20179848434E+04  0.46999998093E+01 0.  1.
</event>
<event>
 5   0  0.7268013E-07  0.3840386E+04  0.7818609E-02  0.8037543E-01
       -2   -1    0    0    0  501  0.00000000000E+00  0.00000000000E+00  0.16878802099E+04  0.16878802099E+04  0.25500000920E-02 0.  1.
        2   -1    0    0  501    0  0.00000000000E+00  0.00000000000E+00 -0.21844806060E+04  0.21844806060E+04  0.25500000920E-02 0. -1.
    10030    2    1    2    0    0  0.00000000000E+00  0.00000000000E+00 -0.49660039601E+03  0.38723608159E+04  0.38403862221E+04 0.  0.
        4    1    3    3  502    0 -0.53226950022E+02  0.14805077979E+04  0.98351071330E+03  0.17782101631E+04  0.12699999809E+01 0.  1.
       -4    1    3    3    0  502  0.53226950022E+02 -0.14805077979E+04 -0.14801111093E+04  0.20941506528E+04  0.12699999809E+01 0. -1.
</event>
<event>
 5   0  0.5533705E-07  0.3899063E+04  0.7818609E-02  0.8025224E-01
       -2   -1    0    0    0  501  0.00000000000E+00  0.00000000000E+00  0.16359845440E+04  0.16359845440E+04  0.25500000920E-02 0.  1.
        2   -1    0    0  501    0  0.00000000000E+00  0.00000000000E+00 -0.23231722488E+04  0.23231722488E+04  0.25500000920E-02 0. -1.
    10030    2    1    2    0    0  0.00000000000E+00  0.00000000000E+00 -0.68718770478E+03  0.39591567928E+04  0.38990634220E+04 0.  0.
        1    1    3    3  502    0 -0.14773989001E+04 -0.27223278604E+03  0.91807608078E+03  0.17605913467E+04  0.50400001928E-02 0.  1.
       -1    1    3    3    0  502  0.14773989001E+04  0.27223278604E+03 -0.16052637856E+04  0.21985654462E+04  0.50400001928E-02 0. -1.
</event>
<event>
 5   0  0.3191750E-07  0.2094308E+04  0.7818609E-02  0.8563755E-01
       -3   -1    0    0    0  501  0.00000000000E+00  0.00000000000E+00  0.83335503025E+03  0.83335503637E+03  0.10100000352E+00 0. -1.
        3   -1    0    0  501    0  0.00000000000E+00  0.00000000000E+00 -0.13158038233E+04  0.13158038272E+04  0.10100000352E+00 0.  1.
    10030    2    1    2    0    0  0.00000000000E+00  0.00000000000E+00 -0.48244879307E+03  0.21491588636E+04  0.20943082349E+04 0.  0.
        5    1    3    3  502    0 -0.75880397170E+03  0.66074131796E+03  0.56454120128E+02  0.10077557811E+04  0.46999998093E+01 0.  1.
       -5    1    3    3    0  502  0.75880397170E+03 -0.66074131796E+03 -0.53890291319E+03  0.11414030824E+04  0.46999998093E+01 0. -1.
</event>
<event>
 5   0  0.4316671E-07  0.3900481E+04  0.7818609E-02  0.8024929E-01
        1   -1    0    0  501    0  0.00000000000E+00  0.00000000000E+00  0.18803834476E+04  0.18803834476E+04  0.50400001928E-02 0. -1.
       -1   -1    0    0    0  501  0.00000000000E+00  0.00000000000E+00 -0.20226931265E+04  0.20226931265E+04  0.50400001928E-02 0.  1.
    10030    2    1    2    0    0  0.00000000000E+00  0.00000000000E+00 -0.14230967890E+03  0.39030765741E+04  0.39004813419E+04 0.  0.
        2    1    3    3  502    0  0.14720816872E+03  0.13108934454E+04 -0.15085390735E+04  0.20039466077E+04  0.25500000920E-02 0. -1.
       -2    1    3    3    0  502 -0.14720816872E+03 -0.13108934454E+04  0.13662293946E+04  0.18991299663E+04  0.25500000920E-02 0.  1.
</event>
<event>
 5   0  0.3191750E-07  0.2007508E+04  0.7818609E-02  0.8603119E-01
        4   -1    0    0  501    0  0.00000000000E+00  0.00000000000E+00  0.76253728415E+03  0.76253834174E+03  0.12699999809E+01 0. -1.
       -4   -1    0    0    0  501  0.00000000000E+00  0.00000000000E+00 -0.13212729800E+04  0.13212735903E+04  0.12699999809E+01 0.  1.
    10030    2    1    2    0    0  0.00000000000E+00  0.00000000000E+00 -0.55873569582E+03  0.20838119321E+04  0.20075075568E+04 0.  0.
        1    1    3    3  502    0 -0.79930724000E+03  0.60349290303E+03 -0.21031173734E+03  0.10233898450E+04  0.50400001928E-02 0.  1.
       -1    1    3    3    0  502  0.79930724000E+03 -0.60349290303E+03 -0.34842395848E+03  0.10604220871E+04  0.50400001928E-02 0. -1.
</event>
<event>
 5   0  0.7268013E-07  0.2559704E+04  0.7818609E-02  0.8382019E-01
        2   -1    0    0  501    0  0.00000000000E+00  0.00000000000E+00  0.25027247621E+04  0.25027247621E+04  0.25500000920E-02 0. -1.
       -2   -1    0    0    0  501  0.00000000000E+00  0.00000000000E+00 -0.65449492441E+03  0.65449492442E+03  0.25500000920E-02 0.  1.
    10030    2    1    2    0    0  0.00000000000E+00  0.00000000000E+00  0.18482298377E+04  0.31572196865E+04  0.25597036188E+04 0.  0.
        4    1    3    3  502    0  0.83405133488E+03 -0.95610674934E+03  0.71684958463E+03  0.14572771477E+04  0.12699999809E+01 0.  1.
       -4    1    3    3    0  502 -0.83405133488E+03  0.95610674934E+03  0.11313802531E+04  0.16999425388E+04  0.12699999809E+01 0. -1.
</event>
<event>
 5   0  0.5533705E-07  0.3876229E+04  0.7818609E-02  0.8029991E-01
       -2   -1    0    0    0  501  0.00000000000E+00  0.00000000000E+00  0.13104171208E+04  0.13104171208E+04  0.25500000920E-02 0.  1.
        2   -1    0    0  501    0  0.00000000000E+00  0.00000000000E+00 -0.28664820065E+04  0.28664820065E+04  0.25500000920E-02 0. -1.
    10030    2    1    2    0    0  0.00000000000E+00  0.00000000000E+00 -0.15560648858E+04  0.41768991273E+04  0.38762286299E+04 0.  0.
        1    1    3    3  502    0 -0.85404571745E+03 -0.10681447021E+04 -0.22578590445E+04  0.26397451879E+04  0.50400001928E-02 0. -1.
       -1    1    3    3    0  502  0.85404571745E+03  0.10681447021E+04  0.70179415877E+03  0.15371539394E+04  0.50400001928E-02 0.  1.
</event>
<event>
 5   0  0.3977376E-07  0.2699147E+04  0.7818609E-02  0.8335282E-01
       -1   -1    0    0    0  501  0.00000000000E+00  0.00000000000E+00  0.80389758878E+03  0.80389758880E+03  0.50400001928E-02 0. -1.
        1   -1    0    0  501    0  0.00000000000E+00  0.00000000000E+00 -0.22656476249E+04  0.22656476249E+04  0.50400001928E-02 0.  1.
    10030    2    1    2    0    0  0.00000000000E+00  0.00000000000E+00 -0.14617500361E+04  0.30695452137E+04  0.26991470228E+04 0.  0.
        4    1    3    3  502    0 -0.11088129496E+04  0.17498328999E+03  0.12110657703E+03  0.11290499213E+04  0.12699999809E+01 0. -1.
       -4    1    3    3    0  502  0.11088129496E+04 -0.17498328999E+03 -0.15828566131E+04  0.19404952923E+04  0.12699999809E+01 0.  1.
</event>
<event>
 5   0  0.1015219E-06  0.3849195E+04  0.7818609E-02  0.8035679E-01
        2   -1    0    0  501    0  0.00000000000E+00  0.00000000000E+00  0.18334868264E+04  0.18334868264E+04  0.25500000920E-02 0. -1.
       -2   -1    0    0    0  501  0.00000000000E+00  0.00000000000E+00 -0.20202357751E+04  0.20202357751E+04  0.25500000920E-02 0.  1.
    10030    2    1    2    0    0  0.00000000000E+00  0.00000000000E+00 -0.18674894873E+03  0.38537226015E+04  0.38491950742E+04 0.  0.
        3    1    3    3  502    0  0.10941737804E+04 -0.10029420644E+04  0.11332059979E+04  0.18674219904E+04  0.10100000352E+00 0. -1.
       -3    1    3    3    0  502 -0.10941737804E+04  0.10029420644E+04 -0.13199549467E+04  0.19863006111E+04  0.10100000352E+00 0.  1.
</event>
<event>
 5   0  0.4316671E-07  0.3942587E+04  0.7818609E-02  0.8016230E-01
       -1   -1    0    0    0  501  0.00000000000E+00  0.00000000000E+00  0.22345821698E+04  0.22345821698E+04  0.50400001928E-02 0.  1.
        1   -1    0    0  501    0  0.00000000000E+00  0.00000000000E+00 -0.17390263021E+04  0.17390263021E+04  0.50400001928E-02 0. -1.
    10030    2    1    2    0    0  0.00000000000E+00  0.00000000000E+00  0.49555586775E+03  0.39736084719E+04  0.39425865457E+04 0.  0.
        2    1    3    3  502    0  0.89683409432E+03 -0.49671944394E+03 -0.14492030112E+04  0.17751706866E+04  0.25500000920E-02 0. -1.
       -2    1    3    3    0  502 -0.89683409432E+03  0.49671944394E+03  0.19447588790E+04  0.21984377853E+04  0.25500000920E-02 0.  1.
</event>
<event>
 5   0  0.3471602E-07  0.2106707E+04  0.7818609E-02  0.8558295E-01
        1   -1    0    0  501    0  0.00000000000E+00  0.00000000000E+00  0.83805595451E+03  0.83805595453E+03  0.50400001928E-02 0. -1.
       -1   -1    0    0    0  501  0.00000000000E+00  0.00000000000E+00 -0.13239614447E+04  0.13239614447E+04  0.50400001928E-02 0.  1.
    10030    2    1    2    0    0  0.00000000000E+00  0.00000000000E+00 -0.48590549018E+03  0.21620173992E+04  0.21067071674E+04 0.  0.
        5    1    3    3  502    0  0.32846039706E+03  0.44327329341E+03  0.67790925788E+03  0.87404833791E+03  0.46999998093E+01 0. -1.
       -5    1    3    3    0  502 -0.32846039706E+03 -0.44327329341E+03 -0.11638147481E+04  0.12879690613E+04  0.46999998093E+01 0.  1.
</event>
<event>
 5   0  0.1035864E-06  0.3803412E+04  0.7818609E-02  0.8045423E-01
        2   -1    0    0  501    0  0.00000000000E+00  0.00000000000E+00  0.24125522212E+04  0.24125522212E+04  0.25500000920E-02 0. -1.
       -2   -1    0    0    0  501  0.00000000000E+00  0.00000000000E+00 -0.14990292460E+04  0.14990292460E+04  0.25500000920E-02 0.  1.
    10030    2    1    2    0    0  0.00000000000E+00  0.00000000000E+00  0.91352297515E+03  0.39115814672E+04  0.38034123296E+04 0.  0.
        5    1    3    3  502    0  0.16066042455E+04  0.87809633228E+03  0.98541755130E+03  0.20792547249E+04  0.46999998093E+01 0.  1.
       -5    1    3    3    0  502 -0.16066042455E+04 -0.87809633228E+03 -0.71894576145E+02  0.18323267423E+04  0.46999998093E+01 0. -1.
</event>
<event>
 5   0  0.7268013E-07  0.2048286E+04  0.7818609E-02  0.8584372E-01
        2   -1    0    0  501    0  0.00000000000E+00  0.00000000000E+00  0.12374824106E+04  0.12374824106E+04  0.25500000920E-02 0.  1.
       -2   -1    0    0    0  501  0.00000000000E+00  0.00000000000E+00 -0.84758267954E+03  0.84758267954E+03  0.25500000920E-02 0. -1.
    10030    2    1    2    0    0  0.00000000000E+00  0.00000000000E+00  0.38989973110E+03  0.20850650902E+04  0.20482857784E+04 0.  0.
        4    1    3    3  502    0 -0.44706905742E+03  0.55952885092E+03 -0.55026339855E+03  0.90318032407E+03  0.12699999809E+01 0. -1.
       -4    1    3    3    0  502  0.44706905742E+03 -0.55952885092E+03  0.94016312965E+03  0.11818847661E+04  0.12699999809E+01 0.  1.
</event>
<event>
 5   0  0.3977376E-07  0.2217572E+04  0.7818609E-02  0.8511149E-01
        1   -1    0    0  501    0  0.00000000000E+00  0.00000000000E+00  0.54168473437E+03  0.54168473439E+03  0.50400001928E-02 0. -1.
       -1   -1    0    0    0  501  0.00000000000E+00  0.00000000000E+00 -0.22695986293E+04  0.22695986293E+04  0.50400001928E-02 0.  1.
    10030    2    1    2    0    0  0.00000000000E+00  0.00000000000E+00 -0.17279138949E+04  0.28112833637E+04  0.22175724842E+04 0.  0.
        4    1    3    3  502    0  0.25201921002E+03 -0.24250327724E+03 -0.21978378217E+04  0.22254919063E+04  0.12699999809E+01 0.  1.
       -4    1    3    3    0  502 -0.25201921002E+03  0.24250327724E+03  0.46992392677E+03  0.58579145738E+03  0.12699999809E+01 0. -1.
</event>
<event>
 5   0  0.5385714E-07  0.4091368E+04  0.7818609E-02  0.7986364E-01
       -1   -1    0    0    0  501  0.00000000000E+00  0.00000000000E+00  0.19238447563E+04  0.19238447563E+04  0.50400001928E-02 0.  1.
        1   -1    0    0  501    0  0.00000000000E+00  0.00000000000E+00 -0.21752399431E+04  0.21752399431E+04  0.50400001928E-02 0. -1.
    10030    2    1    2    0    0  0.00000000000E+00  0.00000000000E+00 -0.25139518681E+03  0.40990846994E+04  0.40913684548E+04 0.  0.
        3    1    3    3  502    0  0.21471405990E+02 -0.14170618065E+04  0.13523130365E+04  0.19588965627E+04  0.10100000352E+00 0.  1.
       -3    1    3    3    0  502 -0.21471405990E+02  0.14170618065E+04 -0.16037082233E+04  0.21401881367E+04  0.10100000352E+00 0. -1.
</event>
<event>
 5   0  0.1034683E-06  0.1920380E+04  0.7818609E-02  0.8644778E-01
       -2   -1    0    0    0  501  0.00000000000E+00  0.00000000000E+00  0.12990332331E+04  0.12990332331E+04  0.25500000920E-02 0.  1.
        2   -1    0    0  501    0  0.00000000000E+00  0.00000000000E+00 -0.70973130244E+03  0.70973130244E+03  0.25500000920E-02 0. -1.
    10030    2    1    2    0    0  0.00000000000E+00  0.00000000000E+00  0.58930193067E+03  0.20087645356E+04  0.19203797004E+04 0.  0.
        2    1    3    3  502    0  0.70118535412E+03  0.32047241014E+03  0.89335831498E+03  0.11800222648E+04  0.25500000920E-02 0.  1.
       -2    1    3    3    0  502 -0.70118535412E+03 -0.32047241014E+03 -0.30405638430E+03  0.82874227075E+03  0.25500000920E-02 0. -1.
</event>
<event>
 5   0  0.7268013E-07  0.3428610E+04  0.7818609E-02  0.8130920E-01
        2   -1    0    0  501    0  0.00000000000E+00  0.00000000000E+00  0.17618131845E+04  0.17618131845E+04  0.25500000920E-02 0.  1.
       -2   -1    0    0    0  501  0.00000000000E+00  0.00000000000E+00 -0.16680776103E+04  0.16680776103E+04  0.25500000920E-02 0. -1.
    10030    2    1    2    0    0  0.00000000000E+00  0.00000000000E+00  0.93735574184E+02  0.34298907948E+04  0.34286097046E+04 0.  0.
        4    1    3    3  502    0 -0.11892481544E+04  0.79767128034E+03  0.98968949711E+03  0.17407117963E+04  0.12699999809E+01 0.  1.
       -4    1    3    3    0  502  0.11892481544E+04 -0.79767128034E+03 -0.89595392292E+03  0.16891789985E+04  0.12699999809E+01 0. -1.
</event>
<event>
 5   0  0.3471602E-07  0.3829445E+04  0.7818609E-02  0.8039865E-01
       -1   -1    0    0    0  501  0.00000000000E+00  0.00000000000E+00  0.31567177894E+04  0.31567177894E+04  0.50400001928E-02 0.  1.
        1   -1    0    0  501    0  0.00000000000E+00  0.00000000000E+00 -0.11613840732E+04  0.11613840732E+04  0.50400001928E-02 0. -1.
    10030    2    1    2    0    0  0.00000000000E+00  0.00000000000E+00  0.19953337161E+04  0.43181018626E+04  0.38294447453E+04 0.  0.
        5    1    3    3  502    0 -0.17520786033E+04  0.80289956524E+02  0.13160015781E+03  0.17588537747E+04  0.46999998093E+01 0. -1.
       -5    1    3    3    0  502  0.17520786033E+04 -0.80289956524E+02  0.18637335583E+04  0.25592480879E+04  0.46999998093E+01 0.  1.
</event>
<event>
 5   0  0.7268013E-07  0.3887489E+04  0.7818609E-02  0.8027636E-01
        2   -1    0    0  501    0  0.00000000000E+00  0.00000000000E+00  0.15589069271E+04  0.15589069271E+04  0.25500000920E-02 0. -1.
       -2   -1    0    0    0  501  0.00000000000E+00  0.00000000000E+00 -0.24235845891E+04  0.24235845891E+04  0.25500000920E-02 0.  1.
    10030    2    1    2    0    0  0.00000000000E+00  0.00000000000E+00 -0.86467766207E+03  0.39824915162E+04  0.38874890633E+04 0.  0.
        4    1    3    3  502    0 -0.24889490895E+03 -0.86025122407E+03 -0.21996533370E+04  0.23749646860E+04  0.12699999809E+01 0.  1.
       -4    1    3    3    0  502  0.24889490895E+03  0.86025122407E+03  0.13349756749E+04  0.16075268302E+04  0.12699999809E+01 0. -1.
</event>
<event>
 5   0  0.1035864E-06  0.3012840E+04  0.7818609E-02  0.8240074E-01
        2   -1    0    0  501    0  0.00000000000E+00  0.00000000000E+00  0.15292969468E+04  0.15292969468E+04  0.25500000920E-02 0. -1.
       -2   -1    0    0    0  501  0.00000000000E+00  0.00000000000E+00 -0.14838848633E+04  0.14838848633E+04  0.25500000920E-02 0.  1.
    10030    2    1    2    0    0  0.00000000000E+00  0.00000000000E+00  0.45412083470E+02  0.30131818101E+04  0.30128395848E+04 0.  0.
        5    1    3    3  502    0  0.77957801416E+03 -0.25346988277E+03 -0.12412767623E+04  0.14875412439E+04  0.46999998093E+01 0.  1.
       -5    1    3    3    0  502 -0.77957801416E+03  0.25346988277E+03  0.12866888458E+04  0.15256405663E+04  0.46999998093E+01 0. -1.
</event>
<event>
 5   0  0.1015219E-06  0.3409220E+04  0.7818609E-02  0.8135647E-01
        2   -1    0    0  501    0  0.00000000000E+00  0.00000000000E+00  0.19647004070E+04  0.19647004070E+04  0.25500000920E-02 0.  1.
       -2   -1    0    0    0  501  0.00000000000E+00  0.00000000000E+00 -0.14789508900E+04  0.14789508900E+04  0.25500000920E-02 0. -1.
    10030    2    1    2    0    0  0.00000000000E+00  0.00000000000E+00  0.48574951697E+03  0.34436512971E+04  0.34092200959E+04 0.  0.
        3    1    3    3  502    0 -0.85502534275E+03 -0.29220653971E+03 -0.12171443673E+04  0.15158804108E+04  0.10100000352E+00 0. -1.
       -3    1    3    3    0  502  0.85502534275E+03  0.29220653971E+03  0.17028938843E+04  0.19277708863E+04  0.10100000352E+00 0.  1.
</event>
<event>
 5   0  0.4316671E-07  0.3786155E+04  0.7818609E-02  0.8049132E-01
       -1   -1    0    0    0  501  0.00000000000E+00  0.00000000000E+00  0.14790070383E+04  0.14790070383E+04  0.50400001928E-02 0. -1.
        1   -1    0    0  501    0  0.00000000000E+00  0.00000000000E+00 -0.24230736762E+04  0.24230736762E+04  0.50400001928E-02 0.  1.
    10030    2    1    2    0    0  0.00000000000E+00  0.00000000000E+00 -0.94406663785E+03  0.39020807145E+04  0.37861553172E+04 0.  0.
        2    1    3    3  502    0  0.47696627777E+03 -0.16331780492E+04  0.38342678390E+03  0.17440709473E+04  0.25500000920E-02 0. -1.
       -2    1    3    3    0  502 -0.47696627777E+03  0.16331780492E+04 -0.13274934217E+04  0.21580097672E+04  0.25500000920E-02 0.  1.
</event>
<event>
 5   0  0.5533705E-07  0.3936840E+04  0.7818609E-02  0.8017411E-01
       -2   -1    0    0    0  501  0.00000000000E+00  0.00000000000E+00  0.18988096946E+04  0.18988096947E+04  0.25500000920E-02 0.  1.
        2   -1    0    0  501    0  0.00000000000E+00  0.00000000000E+00 -0.20405821082E+04  0.20405821082E+04  0.25500000920E-02 0. -1.
    10030    2    1    2    0    0  0.00000000000E+00  0.00000000000E+00 -0.14177241359E+03  0.39393918029E+04  0.39368398951E+04 0.  0.
        1    1    3    3  502    0  0.83295876115E+03 -0.17067985601E+04  0.44684212613E+03  0.19510636864E+04  0.50400001928E-02 0. -1.
       -1    1    3    3    0  502 -0.83295876115E+03  0.17067985601E+04 -0.58861453972E+03  0.19883281165E+04  0.50400001928E-02 0.  1.
</event>
<event>
 5   0  0.1035864E-06  0.2113160E+04  0.7818609E-02  0.8555468E-01
        2   -1    0    0  501    0  0.00000000000E+00  0.00000000000E+00  0.14650750602E+04  0.14650750602E+04  0.25500000920E-02 0. -1.
       -2   -1    0    0    0  501  0.00000000000E+00  0.00000000000E+00 -0.76198224059E+03  0.76198224059E+03  0.25500000920E-02 0.  1.
    10030    2    1    2    0    0  0.00000000000E+00  0.00000000000E+00  0.70309281963E+03  0.22270573008E+04  0.21131598870E+04 0.  0.
        5    1    3    3  502    0 -0.24090139962E+03 -0.67333413859E+03 -0.46814507691E+03  0.85474806204E+03  0.46999998093E+01 0.  1.
       -5    1    3    3    0  502  0.24090139962E+03  0.67333413859E+03  0.11712378965E+04  0.13723092388E+04  0.46999998093E+01 0. -1.
</event>
<event>
 5   0  0.1034683E-06  0.2897690E+04  0.7818609E-02  0.8273565E-01
        2   -1    0    0  501    0  0.00000000000E+00  0.00000000000E+00  0.14574949580E+04  0.14574949580E+04  0.25500000920E-02 0. -1.
       -2   -1    0    0    0  501  0.00000000000E+00  0.00000000000E+00 -0.14402461291E+04  0.14402461291E+04  0.25500000920E-02 0.  1.
    10030    2    1    2    0    0  0.00000000000E+00  0.00000000000E+00  0.17248828886E+02  0.28977410871E+04  0.28976897498E+04 0.  0.
        2    1    3    3  502    0 -0.13810405412E+04  0.42461821779E+02  0.44460861576E+03  0.14514657433E+04  0.25500000920E-02 0. -1.
       -2    1    3    3    0  502  0.13810405412E+04 -0.42461821779E+02 -0.42735978687E+03  0.14462753438E+04  0.25500000920E-02 0.  1.
</event>
<event>
 5   0  0.7268013E-07  0.2081611E+04  0.7818609E-02  0.8569387E-01
       -2   -1    0    0    0  501  0.00000000000E+00  0.00000000000E+00  0.43182759940E+03  0.43182759941E+03  0.25500000920E-02 0.  1.
        2   -1    0    0  501    0  0.00000000000E+00  0.00000000000E+00 -0.25085850856E+04  0.25085850856E+04  0.25500000920E-02 0. -1.
    10030    2    1    2    0    0  0.00000000000E+00  0.00000000000E+00 -0.20767574862E+04  0.29404126850E+04  0.20816111793E+04 0.  0.
        4    1    3    3  502    0 -0.26785758330E+03  0.56163147267E+03  0.14015922333E+03  0.63782741929E+03  0.12699999809E+01 0.  1.
       -4    1    3    3    0  502  0.26785758330E+03 -0.56163147267E+03 -0.22169167095E+04  0.23025852657E+04  0.12699999809E+01 0. -1.
</event>
<event>
 5   0  0.1015219E-06  0.3879437E+04  0.7818609E-02  0.8029320E-01
        2   -1    0    0  501    0  0.00000000000E+00  0.00000000000E+00  0.21050691822E+04  0.21050691822E+04  0.25500000920E-02 0.  1.
       -2   -1    0    0    0  501  0.00000000000E+00  0.00000000000E+00 -0.17873557703E+04  0.17873557704E+04  0.25500000920E-02 0. -1.
    10030    2    1    2    0    0  0.00000000000E+00  0.00000000000E+00  0.31771341184E+03  0.38924249525E+04  0.38794368405E+04 0.  0.
        3    1    3    3  502    0 -0.19392323405E+04  0.19147696682E+02  0.11975399669E+03  0.19430207756E+04  0.10100000352E+00 0. -1.
       -3    1    3    3    0  502  0.19392323405E+04 -0.19147696682E+02  0.19795941515E+03  0.19494041769E+04  0.10100000352E+00 0.  1.
</event>
<event>
 5   0  0.3977376E-07  0.3853332E+04  0.7818609E-02  0.8034806E-01
        1   -1    0    0  501    0  0.00000000000E+00  0.00000000000E+00  0.20785726526E+04  0.20785726526E+04  0.50400001928E-02 0.  1.
       -1   -1    0    0    0  501  0.00000000000E+00  0.00000000000E+00 -0.17858611490E+04  0.17858611490E+04  0.50400001928E-02 0. -1.
    10030    2    1    2    0    0  0.00000000000E+00  0.00000000000E+00  0.29271150359E+03  0.38644338015E+04  0.38533321401E+04 0.  0.
        4    1    3    3  502    0  0.91870541111E+03  0.67582966236E+03 -0.14109461504E+04  0.18142590822E+04  0.12699999809E+01 0. -1.
       -4    1    3    3    0  502 -0.91870541111E+03 -0.67582966236E+03  0.17036576540E+04  0.20501747194E+04  0.12699999809E+01 0.  1.
</event>
<event>
 5   0  0.1035864E-06  0.2541945E+04  0.7818609E-02  0.8388193E-01
       -2   -1    0    0    0  501  0.00000000000E+00  0.00000000000E+00  0.91833595672E+03  0.91833595672E+03  0.25500000920E-02 0. -1.
        2   -1    0    0  501    0  0.00000000000E+00  0.00000000000E+00 -0.17590197454E+04  0.17590197454E+04  0.25500000920E-02 0.  1.
    10030    2    1    2    0    0  0.00000000000E+00  0.00000000000E+00 -0.84068378866E+03  0.26773557021E+04  0.25419449882E+04 0.  0.
        5    1    3    3  502    0  0.11648171801E+04  0.50381203459E+03 -0.34795407113E+03  0.13159482341E+04  0.46999998093E+01 0.  1.
       -5    1    3    3    0  502 -0.11648171801E+04 -0.50381203459E+03 -0.49272971753E+03  0.13614074680E+04  0.46999998093E+01 0. -1.
</event>
<event>
 5   0  0.1015219E-06  0.3454774E+04  0.7818609E-02  0.8124592E-01
        2   -1    0    0  501    0  0.00000000000E+00  0.00000000000E+00  0.19995619509E+04  0.19995619509E+04  0.25500000920E-02 0. -1.
       -2   -1    0    0    0  501  0.00000000000E+00  0.00000000000E+00 -0.14922600684E+04  0.14922600684E+04  0.25500000920E-02 0.  1.
    10030    2    1    2    0    0  0.00000000000E+00  0.00000000000E+00  0.50730188244E+03  0.34918220193E+04  0.34547743507E+04 0.  0.
        3    1    3    3  502    0  0.41959617174E+03 -0.15588489683E+04  0.87489284210E+03  0.18361668085E+04  0.10100000352E+00 0.  1.
       -3    1    3    3    0  502 -0.41959617174E+03  0.15588489683E+04 -0.36759095966E+03  0.16556552108E+04  0.10100000352E+00 0. -1.
</event>
<event>
 5   0  0.5385714E-07  0.2709043E+04  0.7818609E-02  0.8332077E-01
       -1   -1    0    0    0  501  0.00000000000E+00  0.00000000000E+00  0.15848932143E+04  0.15848932143E+04  0.50400001928E-02 0. -1.
        1   -1    0    0  501    0  0.00000000000E+00  0.00000000000E+00 -0.11576352967E+04  0.11576352967E+04  0.50400001928E-02 0.  1.
    10030    2    1    2    0    0  0.00000000000E+00  0.00000000000E+00  0.42725791762E+03  0.27425285110E+04  0.27090428763E+04 0.  0.
        3    1    3    3  502    0 -0.29183901149E+03 -0.65112173411E+03 -0.95194899045E+03  0.11896791214E+04  0.10100000352E+00 0.  1.
       -3    1    3    3    0  502  0.29183901149E+03  0.65112173411E+03  0.13792069081E+04  0.15528493896E+04  0.10100000352E+00 0. -1.
</event>
<event>
 5   0  0.7268013E-07  0.3882127E+04  0.7818609E-02  0.8028757E-01
       -2   -1    0    0    0  501  0.00000000000E+00  0.00000000000E+00  0.13842937566E+04  0.13842937566E+04  0.25500000920E-02 0. -1.
        2   -1    0    0  501    0  0.00000000000E+00  0.00000000000E+00 -0.27217682074E+04  0.27217682074E+04  0.25500000920E-02 0.  1.
    10030    2    1    2    0    0  0.00000000000E+00  0.00000000000E+00 -0.13374744508E+04  0.41060619640E+04  0.38821266010E+04 0.  0.
        4    1    3    3  502    0 -0.10369975624E+04  0.15683407400E+04 -0.11789186029E+04  0.22192132179E+04  0.12699999809E+01 0. -1.
       -4    1    3    3    0  502  0.10369975624E+04 -0.15683407400E+04 -0.15855584787E+03  0.18868487462E+04  0.12699999809E+01 0.  1.
</event>
<event>
 5   0  0.3977376E-07  0.2366988E+04  0.7818609E-02  0.8451967E-01
        1   -1    0    0  501    0  0.00000000000E+00  0.00000000000E+00  0.16687535962E+04  0.16687535962E+04  0.50400001928E-02 0.  1.
       -1   -1    0    0    0  501  0.00000000000E+00  0.00000000000E+00 -0.83934364574E+03  0.83934364576E+03  0.50400001928E-02 0. -1.
    10030    2    1    2    0    0  0.00000000000E+00  0.00000000000E+00  0.82940995046E+03  0.25080972420E+04  0.23669877290E+04 0.  0.
        4    1    3    3  502    0 -0.16115584763E+03  0.59189452586E+03 -0.65773169342E+03  0.89940142895E+03  0.12699999809E+01 0. -1.
       -4    1    3    3    0  502  0.16115584763E+03 -0.59189452586E+03  0.14871416439E+04  0.16086958130E+04  0.12699999809E+01 0.  1.
</event>
<event>
 5   0  0.7268013E-07  0.3915629E+04  0.7818609E-02  0.8021787E-01
       -2   -1    0    0    0  501  0.00000000000E+00  0.00000000000E+00  0.18053849538E+04  0.18053849538E+04  0.25500000920E-02 0. -1.
        2   -1    0    0  501    0  0.00000000000E+00  0.00000000000E+00 -0.21231134071E+04  0.21231134071E+04  0.25500000920E-02 0.  1.
    10030    2    1    2    0    0  0.00000000000E+00  0.00000000000E+00 -0.31772845327E+03  0.39284983608E+04  0.39156286853E+04 0.  0.
        4    1    3    3  502    0  0.17277751462E+04  0.89970698308E+03 -0.35535423137E+03  0.19801408672E+04  0.12699999809E+01 0.  1.
       -4    1    3    3    0  502 -0.17277751462E+04 -0.89970698308E+03  0.37625778091E+02  0.19483574937E+04  0.12699999809E+01 0. -1.
</event>
<event>
 5   0  0.5533705E-07  0.2180075E+04  0.7818609E-02  0.8526767E-01
       -2   -1    0    0    0  501  0.00000000000E+00  0.00000000000E+00  0.91236980832E+03  0.91236980833E+03  0.25500000920E-02 0. -1.
        2   -1    0    0  501    0  0.00000000000E+00  0.00000000000E+00 -0.13023026701E+04  0.13023026701E+04  0.25500000920E-02 0.  1.
    10030    2    1    2    0    0  0.00000000000E+00  0.00000000000E+00 -0.38993286176E+03  0.22146724784E+04  0.21800748955E+04 0.  0.
        1    1    3    3  502    0  0.22482711039E+03 -0.17264548577E+03 -0.12642041055E+04  0.12955947336E+04  0.50400001928E-02 0.  1.
       -1    1    3    3    0  502 -0.22482711039E+03  0.17264548577E+03  0.87427124375E+03  0.91907774481E+03  0.50400001928E-02 0. -1.
</event>
<event>
 5   0  0.1015219E-06  0.3850849E+04  0.7818609E-02  0.8035330E-01
        2   -1    0    0  501    0  0.00000000000E+00  0.00000000000E+00  0.26953877898E+04  0.26953877898E+04  0.25500000920E-02 0. -1.
       -2   -1    0    0    0  501  0.00000000000E+00  0.00000000000E+00 -0.13754084770E+04  0.13754084770E+04  0.25500000920E-02 0.  1.
    10030    2    1    2    0    0  0.00000000000E+00  0.00000000000E+00  0.13199793128E+04  0.40707962669E+04  0.38508488493E+04 0.  0.
        3    1    3    3  502    0  0.16520422947E+04  0.43041440880E+03 -0.28123535197E+03  0.17302004624E+04  0.10100000352E+00 0.  1.
       -3    1    3    3    0  502 -0.16520422947E+04 -0.43041440880E+03  0.16012146647E+04  0.23405958044E+04  0.10100000352E+00 0. -1.
</event>
<event>
 5   0  0.5533705E-07  0.2146711E+04  0.7818609E-02  0.8540941E-01
       -2   -1    0    0    0  501  0.00000000000E+00  0.00000000000E+00  0.79218323635E+03  0.79218323636E+03  0.25500000920E-02 0.  1.
        2   -1    0    0  501    0  0.00000000000E+00  0.00000000000E+00 -0.14543255935E+04  0.14543255935E+04  0.25500000920E-02 0. -1.
    10030    2    1    2    0    0  0.00000000000E+00  0.00000000000E+00 -0.66214235716E+03  0.22465088299E+04  0.21467113037E+04 0.  0.
        1    1    3    3  502    0 -0.61348523086E+02  0.86640209380E+03 -0.99100326784E+03  0.13177646627E+04  0.50400001928E-02 0. -1.
       -1    1    3    3    0  502  0.61348523086E+02 -0.86640209380E+03  0.32886091068E+03  0.92874416715E+03  0.50400001928E-02 0.  1.
</event>
<event>
 5   0  0.4316671E-07  0.3915262E+04  0.7818609E-02  0.8021863E-01
       -1   -1    0    0    0  501  0.00000000000E+00  0.00000000000E+00  0.17303387680E+04  0.17303387680E+04  0.50400001928E-02 0.  1.
        1   -1    0    0  501    0  0.00000000000E+00  0.00000000000E+00 -0.22147792827E+04  0.22147792827E+04  0.50400001928E-02 0. -1.
    10030    2    1    2    0    0  0.00000000000E+00  0.00000000000E+00 -0.48444051469E+03  0.39451180506E+04  0.39152616542E+04 0.  0.
        2    1    3    3  502    0 -0.51684848052E+03  0.59020917293E+03  0.15650116719E+04  0.17506400980E+04  0.25500000920E-02 0.  1.
       -2    1    3    3    0  502  0.51684848052E+03 -0.59020917293E+03 -0.20494521866E+04  0.21944779526E+04  0.25500000920E-02 0. -1.
</event>
<event>
 5   0  0.5385714E-07  0.2604994E+04  0.7818609E-02  0.8366507E-01
       -1   -1    0    0    0  501  0.00000000000E+00  0.00000000000E+00  0.98352242554E+03  0.98352242556E+03  0.50400001928E-02 0. -1.
        1   -1    0    0  501    0  0.00000000000E+00  0.00000000000E+00 -0.17249204713E+04  0.17249204714E+04  0.50400001928E-02 0.  1.
    10030    2    1    2    0    0  0.00000000000E+00  0.00000000000E+00 -0.74139804580E+03  0.27084428969E+04  0.26049936398E+04 0.  0.
        3    1    3    3  502    0 -0.16417692832E+02 -0.26990185624E+03 -0.16954166024E+04  0.17168442033E+04  0.10100000352E+00 0.  1.
       -3    1    3    3    0  502  0.16417692832E+02  0.26990185624E+03  0.95401855658E+03  0.99159869359E+03  0.10100000352E+00 0. -1.
</event>
<event>
 5   0  0.1035864E-06  0.3952912E+04  0.7818609E-02  0.8014114E-01
        2   -1    0    0  501    0  0.00000000000E+00  0.00000000000E+00  0.17677916399E+04  0.17677916399E+04  0.25500000920E-02 0.  1.
       -2   -1    0    0    0  501  0.00000000000E+00  0.00000000000E+00 -0.22097499044E+04  0.22097499044E+04  0.25500000920E-02 0. -1.
    10030    2    1    2    0    0  0.00000000000E+00  0.00000000000E+00 -0.44195826446E+03  0.39775415443E+04  0.39529115383E+04 0.  0.
        5    1    3    3  502    0  0.76859304097E+02 -0.61656911885E+03 -0.21089134460E+04  0.21985456201E+04  0.46999998093E+01 0. -1.
       -5    1    3    3    0  502 -0.76859304097E+02  0.61656911885E+03  0.16669551816E+04  0.17789959242E+04  0.46999998093E+01 0.  1.
</event>
<event>
 5   0  0.4627905E-07  0.3886997E+04  0.7818609E-02  0.8027739E-01
       -1   -1    0    0    0  501  0.00000000000E+00  0.00000000000E+00  0.11443637384E+04  0.11443637384E+04  0.50400001928E-02 0. -1.
        1   -1    0    0  501    0  0.00000000000E+00  0.00000000000E+00 -0.33006873047E+04  0.33006873047E+04  0.50400001928E-02 0.  1.
    10030    2    1    2    0    0  0.00000000000E+00  0.00000000000E+00 -0.21563235663E+04  0.44450510432E+04  0.38869972284E+04 0.  0.
        1    1    3    3  502    0 -0.73133999675E+03 -0.90730527108E+03  0.70049334829E+03  0.13596881910E+04  0.50400001928E-02 0. -1.
       -1    1    3    3    0  502  0.73133999675E+03  0.90730527108E+03 -0.28568169146E+04  0.30853628521E+04  0.50400001928E-02 0.  1.
</event>
<event>
 5   0  0.7268013E-07  0.2411264E+04  0.7818609E-02  0.8435299E-01
        2   -1    0    0  501    0  0.00000000000E+00  0.00000000000E+00  0.11162418753E+04  0.11162418754E+04  0.25500000920E-02 0. -1.
       -2   -1    0    0    0  501  0.00000000000E+00  0.00000000000E+00 -0.13021805500E+04  0.13021805501E+04  0.25500000920E-02 0.  1.
    10030    2    1    2    0    0  0.00000000000E+00  0.00000000000E+00 -0.18593867470E+03  0.24184224254E+04  0.24112639501E+04 0.  0.
        4    1    3    3  502    0 -0.39892001403E+03 -0.83264886272E+03 -0.87058101414E+03  0.12689973291E+04  0.12699999809E+01 0.  1.
       -4    1    3    3    0  502  0.39892001403E+03  0.83264886272E+03  0.68464233943E+03  0.11494250963E+04  0.12699999809E+01 0. -1.
</event>
<event>
 5   0  0.5385714E-07  0.3659819E+04  0.7818609E-02  0.8076925E-01
        1   -1    0    0  501    0  0.00000000000E+00  0.00000000000E+00  0.22790911959E+04  0.22790911959E+04  0.50400001928E-02 0.  1.
       -1   -1    0    0    0  501  0.00000000000E+00  0.00000000000E+00 -0.14692564695E+04  0.14692564695E+04  0.50400001928E-02 0. -1.
    10030    2    1    2    0    0  0.00000000000E+00  0.00000000000E+00  0.80983472643E+03  0.37483476654E+04  0.36598193858E+04 0.  0.
        3    1    3    3  502    0  0.49398809939E+03  0.48609974347E+03 -0.13296408729E+04  0.14994205761E+04  0.10100000352E+00 0. -1.
       -3    1    3    3    0  502 -0.49398809939E+03 -0.48609974347E+03  0.21394755993E+04  0.22489270893E+04  0.10100000352E+00 0.  1.
</event>
<event>
 5   0  0.1034683E-06  0.3845912E+04  0.7818609E-02  0.8036373E-01
        2   -1    0    0  501    0  0.00000000000E+00  0.00000000000E+00  0.16388571953E+04  0.16388571953E+04  0.25500000920E-02 0.  1.
       -2   -1    0    0    0  501  0.00000000000E+00  0.00000000000E+00 -0.22563043438E+04  0.22563043438E+04  0.25500000920E-02 0. -1.
    10030    2    1    2    0    0  0.00000000000E+00  0.00000000000E+00 -0.61744714852E+03  0.38951615392E+04  0.38459124320E+04 0.  0.
        2    1    3    3  502    0  0.50791443315E+03 -0.24124258925E+03  0.15537334974E+04  0.16523507010E+04  0.25500000920E-02 0.  1.
       -2    1    3    3    0  502 -0.50791443315E+03  0.24124258925E+03 -0.21711806459E+04  0.22428108381E+04  0.25500000920E-02 0. -1.
</event>
<event>
 5   0  0.3471602E-07  0.1983238E+04  0.7818609E-02  0.8614498E-01
       -1   -1    0    0    0  501  0.00000000000E+00  0.00000000000E+00  0.11363660030E+04  0.11363660030E+04  0.50400001928E-02 0. -1.
        1   -1    0    0  501    0  0.00000000000E+00  0.00000000000E+00 -0.86530936994E+03  0.86530936995E+03  0.50400001928E-02 0.  1.
    10030    2    1    2    0    0  0.00000000000E+00  0.00000000000E+00  0.27105663309E+03  0.20016753730E+04  0.19832379082E+04 0.  0.
        5    1    3    3  502    0 -0.91547784769E+03 -0.27534962424E+03  0.40135673465E+03  0.10368348102E+04  0.46999998093E+01 0. -1.
       -5    1    3    3    0  502  0.91547784769E+03  0.27534962424E+03 -0.13030010155E+03  0.96484056281E+03  0.46999998093E+01 0.  1.
</event>
<event>
 5   0  0.7268013E-07  0.3689023E+04  0.7818609E-02  0.8070399E-01
       -2   -1    0    0    0  501  0.00000000000E+00  0.00000000000E+00  0.15896988755E+04  0.15896988755E+04  0.25500000920E-02 0. -1.
        2   -1    0    0  501    0  0.00000000000E+00  0.00000000000E+00 -0.21401677394E+04  0.21401677394E+04  0.25500000920E-02 0.  1.
    10030    2    1    2    0    0  0.00000000000E+00  0.00000000000E+00 -0.55046886390E+03  0.37298666149E+04  0.36890227697E+04 0.  0.
        4    1    3    3  502    0 -0.22113898887E+03 -0.80386132801E+03  0.13883166152E+04  0.16194196874E+04  0.12699999809E+01 0. -1.
       -4    1    3    3    0  502  0.22113898887E+03  0.80386132801E+03 -0.19387854791E+04  0.21104469275E+04  0.12699999809E+01 0.  1.
</event>
<event>
 5   0  0.5533705E-07  0.3734843E+04  0.7818609E-02  0.8060284E-01
       -2   -1    0    0    0  501  0.00000000000E+00  0.00000000000E+00  0.15697791777E+04  0.15697791777E+04  0.25500000920E-02 0.  1.
        2   -1    0    0  501    0  0.00000000000E+00  0.00000000000E+00 -0.22214987101E+04  0.22214987101E+04  0.25500000920E-02 0. -1.
    10030    2    1    2    0    0  0.00000000000E+00  0.00000000000E+00 -0.65171953245E+03  0.37912778878E+04  0.37348426572E+04 0.  0.
        1    1    3    3  502    0  0.75297258862E+03 -0.12149141162E+04 -0.15458005881E+04  0.21053464055E+04  0.50400001928E-02 0. -1.
       -1    1    3    3    0  502 -0.75297258862E+03  0.12149141162E+04  0.89408105566E+03  0.16859314823E+04  0.50400001928E-02 0.  1.
</event>
<event>
 5   0  0.5533705E-07  0.3886795E+04  0.7818609E-02  0.8027781E-01
       -2   -1    0    0    0  501  0.00000000000E+00  0.00000000000E+00  0.12249662242E+04  0.12249662242E+04  0.25500000920E-02 0. -1.
        2   -1    0    0  501    0  0.00000000000E+00  0.00000000000E+00 -0.30831813267E+04  0.30831813267E+04  0.25500000920E-02 0.  1.
    10030    2    1    2    0    0  0.00000000000E+00  0.00000000000E+00 -0.18582151025E+04  0.43081475508E+04  0.38867945601E+04 0.  0.
        1    1    3    3  502    0  0.14399379473E+04  0.46172490770E+03  0.42395729612E+03  0.15704620248E+04  0.50400001928E-02 0. -1.
       -1    1    3    3    0  502 -0.14399379473E+04 -0.46172490770E+03 -0.22821723986E+04  0.27376855260E+04  0.50400001928E-02 0.  1.
</event>
<event>
 5   0  0.4316671E-07  0.3760343E+04  0.7818609E-02  0.8054719E-01
       -1   -1    0    0    0  501  0.00000000000E+00  0.00000000000E+00  0.14092180077E+04  0.14092180077E+04  0.50400001928E-02 0.  1.
        1   -1    0    0  501    0  0.00000000000E+00  0.00000000000E+00 -0.25085146271E+04  0.25085146271E+04  0.50400001928E-02 0. -1.
    10030    2    1    2    0    0  0.00000000000E+00  0.00000000000E+00 -0.10992966194E+04  0.39177326348E+04  0.37603425297E+04 0.  0.
        2    1    3    3  502    0  0.99446424568E+03 -0.80551527259E+03  0.88540283270E+03  0.15561979843E+04  0.25500000920E-02 0.  1.
       -2    1    3    3    0  502 -0.99446424568E+03  0.80551527259E+03 -0.19846994521E+04  0.23615346505E+04  0.25500000920E-02 0. -1.
</event>
<event>
 5   0  0.7268013E-07  0.3692619E+04  0.7818609E-02  0.8069600E-01
        2   -1    0    0  501    0  0.00000000000E+00  0.00000000000E+00  0.21196001641E+04  0.21196001641E+04  0.25500000920E-02 0. -1.
       -2   -1    0    0    0  501  0.00000000000E+00  0.00000000000E+00 -0.16082552155E+04  0.16082552155E+04  0.25500000920E-02 0.  1.
    10030    2    1    2    0    0  0.00000000000E+00  0.00000000000E+00  0.51134494854E+03  0.37278553796E+04  0.36926185932E+04 0.  0.
        4    1    3    3  502    0  0.10606438973E+04  0.11856597364E+04  0.12016853917E+04  0.19936910195E+04  0.12699999809E+01 0. -1.
       -4    1    3    3    0  502 -0.10606438973E+04 -0.11856597364E+04 -0.69034044320E+03  0.17341643601E+04  0.12699999809E+01 0.  1.
</event>
<event>
 5   0  0.7268013E-07  0.3814674E+04  0.7818609E-02  0.8043013E-01
        2   -1    0    0  501    0  0.00000000000E+00  0.00000000000E+00  0.12659970541E+04  0.12659970541E+04  0.25500000920E-02 0. -1.
       -2   -1    0    0    0  501  0.00000000000E+00  0.00000000000E+00 -0.28735724566E+04  0.28735724566E+04  0.25500000920E-02 0.  1.
    10030    2    1    2    0    0  0.00000000000E+00  0.00000000000E+00 -0.16075754025E+04  0.41395695106E+04  0.38146739125E+04 0.  0.
        4    1    3    3  502    0  0.10271054573E+04 -0.69149990132E+03  0.77057472664E+03  0.14583911533E+04  0.12699999809E+01 0. -1.
       -4    1    3    3    0  502 -0.10271054573E+04  0.69149990132E+03 -0.23781501291E+04  0.26811783573E+04  0.12699999809E+01 0.  1.
</event>
<event>
 5   0  0.1035864E-06  0.3903889E+04  0.7818609E-02  0.8024221E-01
        2   -1    0    0  501    0  0.00000000000E+00  0.00000000000E+00  0.26734572527E+04  0.26734572527E+04  0.25500000920E-02 0.  1.
       -2   -1    0    0    0  501  0.00000000000E+00  0.00000000000E+00 -0.14251535908E+04  0.14251535908E+04  0.25500000920E-02 0. -1.
    10030    2    1    2    0    0  0.00000000000E+00  0.00000000000E+00  0.12483036619E+04  0.40986108435E+04  0.39038889347E+04 0.  0.
        5    1    3    3  502    0 -0.17750148556E+04  0.66592958360E+03  0.13629671675E+03  0.19007206088E+04  0.46999998093E+01 0.  1.
       -5    1    3    3    0  502  0.17750148556E+04 -0.66592958360E+03  0.11120069451E+04  0.21978902347E+04  0.46999998093E+01 0. -1.
</event>
<event>
 5   0  0.7268013E-07  0.2244433E+04  0.7818609E-02  0.8500158E-01
       -2   -1    0    0    0  501  0.00000000000E+00  0.00000000000E+00  0.69712565314E+03  0.69712565315E+03  0.25500000920E-02 0.  1.
        2   -1    0    0  501    0  0.00000000000E+00  0.00000000000E+00 -0.18065176035E+04  0.18065176035E+04  0.25500000920E-02 0. -1.
    10030    2    1    2    0    0  0.00000000000E+00  0.00000000000E+00 -0.11093919503E+04  0.25036432566E+04  0.22444329032E+04 0.  0.
        4    1    3    3  502    0  0.40743399440E+03  0.66668243067E+03  0.34387995909E+03  0.85365271763E+03  0.12699999809E+01 0.  1.
       -4    1    3    3    0  502 -0.40743399440E+03 -0.66668243067E+03 -0.14532719094E+04  0.16499905390E+04  0.12699999809E+01 0. -1.
</event>
<event>
 5   0  0.3471602E-07  0.2508581E+04  0.7818609E-02  0.8399935E-01
       -1   -1    0    0    0  501  0.00000000000E+00  0.00000000000E+00  0.15868929963E+04  0.15868929963E+04  0.50400001928E-02 0. -1.
        1   -1    0    0  501    0  0.00000000000E+00  0.00000000000E+00 -0.99139943143E+03  0.99139943145E+03  0.50400001928E-02 0.  1.
    10030    2    1    2    0    0  0.00000000000E+00  0.00000000000E+00  0.59549356490E+03  0.25782924278E+04  0.25085811243E+04 0.  0.
        5    1    3    3  502    0 -0.20073664283E+03  0.32576630213E+03  0.15254295444E+04  0.15726971318E+04  0.46999998093E+01 0. -1.
       -5    1    3    3    0  502  0.20073664283E+03 -0.32576630213E+03 -0.92993597950E+03  0.10055952960E+04  0.46999998093E+01 0.  1.
</event>
<event>
 5   0  0.3471602E-07  0.2023734E+04  0.7818609E-02  0.8595604E-01
        1   -1    0    0  501    0  0.00000000000E+00  0.00000000000E+00  0.84605798564E+03  0.84605798566E+03  0.50400001928E-02 0. -1.
       -1   -1    0    0    0  501  0.00000000000E+00  0.00000000000E+00 -0.12101710896E+04  0.12101710896E+04  0.50400001928E-02 0.  1.
    10030    2    1    2    0    0  0.00000000000E+00  0.00000000000E+00 -0.36411310398E+03  0.20562290753E+04  0.20237340877E+04 0.  0.
        5    1    3    3  502    0 -0.23956493376E+03 -0.66674084248E+03  0.55198261658E+03  0.89813228843E+03  0.46999998093E+01 0. -1.
       -5    1    3    3    0  502  0.23956493376E+03  0.66674084248E+03 -0.91609572056E+03  0.11580967869E+04  0.46999998093E+01 0.  1.
</event>
<event>
 5   0  0.3471602E-07  0.2084399E+04  0.7818609E-02  0.8568147E-01
        1   -1    0    0  501    0  0.00000000000E+00  0.00000000000E+00  0.24179383000E+04  0.24179383000E+04  0.50400001928E-02 0. -1.
       -1   -1    0    0    0  501  0.00000000000E+00  0.00000000000E+00 -0.44921723869E+03  0.44921723872E+03  0.50400001928E-02 0.  1.
    10030    2    1    2    0    0  0.00000000000E+00  0.00000000000E+00  0.19687210613E+04  0.28671555387E+04  0.20843987780E+04 0.  0.
        5    1    3    3  502    0 -0.28608116747E+03  0.81759617347E+03  0.17815179912E+04  0.19809428009E+04  0.46999998093E+01 0. -1.
       -5    1    3    3    0  502  0.28608116747E+03 -0.81759617347E+03  0.18720307007E+03  0.88621273784E+03  0.46999998093E+01 0.  1.
</event>
<event>
 5   0  0.1035864E-06  0.3833229E+04  0.7818609E-02  0.8039061E-01
        2   -1    0    0  501    0  0.00000000000E+00  0.00000000000E+00  0.21679849045E+04  0.21679849045E+04  0.25500000920E-02 0.  1.
       -2   -1    0    0    0  501  0.00000000000E+00  0.00000000000E+00 -0.16943895317E+04  0.16943895317E+04  0.25500000920E-02 0. -1.
    10030    2    1    2    0    0  0.00000000000E+00  0.00000000000E+00  0.47359537274E+03  0.38623744362E+04  0.38332288880E+04 0.  0.
        5    1    3    3  502    0 -0.11005311221E+04  0.15691000890E+04  0.22466465731E+03  0.19296994943E+04  0.46999998093E+01 0.  1.
       -5    1    3    3    0  502  0.11005311221E+04 -0.15691000890E+04  0.24893071543E+03  0.19326749419E+04  0.46999998093E+01 0. -1.
</event>
<event>
 5   0  0.5533705E-07  0.3965675E+04  0.7818609E-02  0.8011507E-01
        2   -1    0    0  501    0  0.00000000000E+00  0.00000000000E+00  0.17066420375E+04  0.17066420375E+04  0.25500000920E-02 0.  1.
       -2   -1    0    0    0  501  0.00000000000E+00  0.00000000000E+00 -0.23037316131E+04  0.23037316131E+04  0.25500000920E-02 0. -1.
    10030    2    1    2    0    0  0.00000000000E+00  0.00000000000E+00 -0.59708957559E+03  0.40103736506E+04  0.39656753342E+04 0.  0.
        1    1    3    3  502    0 -0.79554452203E+03 -0.48355193958E+03  0.14718824356E+04  0.17415945191E+04  0.50400001928E-02 0.  1.
       -1    1    3    3    0  502  0.79554452203E+03  0.48355193958E+03 -0.20689720112E+04  0.22687791316E+04  0.50400001928E-02 0. -1.
</event>
<event>
 5   0  0.1015219E-06  0.3506602E+04  0.7818609E-02  0.8112227E-01
        2   -1    0    0  501    0  0.00000000000E+00  0.00000000000E+00  0.13073970444E+04  0.13073970444E+04  0.25500000920E-02 0.  1.
       -2   -1    0    0    0  501  0.00000000000E+00  0.00000000000E+00 -0.23512866286E+04  0.23512866286E+04  0.25500000920E-02 0. -1.
    10030    2    1    2    0    0  0.00000000000E+00  0.00000000000E+00 -0.10438895842E+04  0.36586836730E+04  0.35066024518E+04 0.  0.
        3    1    3    3  502    0  0.99604900952E+03 -0.95264345423E+03  0.60876308821E+03  0.15067301311E+04  0.10100000352E+00 0.  1.
       -3    1    3    3    0  502 -0.99604900952E+03  0.95264345423E+03 -0.16526526724E+04  0.21519535418E+04  0.10100000352E+00 0. -1.
</event>
<event>
 5   0  0.1034683E-06  0.3267039E+04  0.7818609E-02  0.8171333E-01
        2   -1    0    0  501    0  0.00000000000E+00  0.00000000000E+00  0.19127779948E+04  0.19127779948E+04  0.25500000920E-02 0.  1.
       -2   -1    0    0    0  501  0.00000000000E+00  0.00000000000E+00 -0.13950320572E+04  0.13950320572E+04  0.25500000920E-02 0. -1.
    10030    2    1    2    0    0  0.00000000000E+00  0.00000000000E+00  0.51774593767E+03  0.33078100520E+04  0.32670394066E+04 0.  0.
        2    1    3    3  502    0  0.22084260905E+03  0.59935131622E+03 -0.12633496898E+04  0.14156432802E+04  0.25500000920E-02 0. -1.
       -2    1    3    3    0  502 -0.22084260905E+03 -0.59935131622E+03  0.17810956274E+04  0.18921667718E+04  0.25500000920E-02 0.  1.
</event>
<event>
 5   0  0.4316671E-07  0.3586946E+04  0.7818609E-02  0.8093488E-01
        1   -1    0    0  501    0  0.00000000000E+00  0.00000000000E+00  0.22315080276E+04  0.22315080276E+04  0.50400001928E-02 0.  1.
       -1   -1    0    0    0  501  0.00000000000E+00  0.00000000000E+00 -0.14414223442E+04  0.14414223442E+04  0.50400001928E-02 0. -1.
    10030    2    1    2    0    0  0.00000000000E+00  0.00000000000E+00  0.79008568341E+03  0.36729303717E+04  0.35869460727E+04 0.  0.
        2    1    3    3  502    0  0.12084226035E+04  0.49972298552E+03  0.16518764624E+04  0.21068232242E+04  0.25500000920E-02 0.  1.
       -2    1    3    3    0  502 -0.12084226035E+04 -0.49972298552E+03 -0.86179077902E+03  0.15661071476E+04  0.25500000920E-02 0. -1.
</event>
<event>
 5   0  0.7268013E-07  0.3878992E+04  0.7818609E-02  0.8029413E-01
        2   -1    0    0  501    0  0.00000000000E+00  0.00000000000E+00  0.16447101109E+04  0.16447101109E+04  0.25500000920E-02 0. -1.
       -2   -1    0    0    0  501  0.00000000000E+00  0.00000000000E+00 -0.22871166416E+04  0.22871166416E+04  0.25500000920E-02 0.  1.
    10030    2    1    2    0    0  0.00000000000E+00  0.00000000000E+00 -0.64240653076E+03  0.39318267525E+04  0.38789915521E+04 0.  0.
        4    1    3    3  502    0  0.79571851623E+03  0.15188581158E+04  0.59753337734E+03  0.18158044176E+04  0.12699999809E+01 0.  1.
       -4    1    3    3    0  502 -0.79571851623E+03 -0.15188581158E+04 -0.12399399081E+04  0.21160223349E+04  0.12699999809E+01 0. -1.
</event>
<event>
 5   0  0.1035864E-06  0.2227810E+04  0.7818609E-02  0.8506941E-01
        2   -1    0    0  501    0  0.00000000000E+00  0.00000000000E+00  0.23256118803E+04  0.23256118803E+04  0.25500000920E-02 0.  1.
       -2   -1    0    0    0  501  0.00000000000E+00  0.00000000000E+00 -0.53353047817E+03  0.53353047818E+03  0.25500000920E-02 0. -1.
    10030    2    1    2    0    0  0.00000000000E+00  0.00000000000E+00  0.17920814021E+04  0.28591423585E+04  0.22278104215E+04 0.  0.
        5    1    3    3  502    0 -0.64234122467E+03  0.15663120516E+03  0.20465359976E+04  0.21506899504E+04  0.46999998093E+01 0.  1.
       -5    1    3    3    0  502  0.64234122467E+03 -0.15663120516E+03 -0.25445459546E+03  0.70845240807E+03  0.46999998093E+01 0. -1.
</event>
<event>
 5   0  0.4627905E-07  0.2478150E+04  0.7818609E-02  0.8410811E-01
       -1   -1    0    0    0  501  0.00000000000E+00  0.00000000000E+00  0.79517086376E+03  0.79517086377E+03  0.50400001928E-02 0. -1.
        1   -1    0    0  501    0  0.00000000000E+00  0.00000000000E+00 -0.19307884722E+04  0.19307884722E+04  0.50400001928E-02 0.  1.
    10030    2    1    2    0    0  0.00000000000E+00  0.00000000000E+00 -0.11356176084E+04  0.27259593360E+04  0.24781499044E+04 0.  0.
        1    1    3    3  502    0  0.82739374359E+03 -0.92087921883E+03 -0.51056880019E+03  0.13391338403E+04  0.50400001928E-02 0. -1.
       -1    1    3    3    0  502 -0.82739374359E+03  0.92087921883E+03 -0.62504880825E+03  0.13868254956E+04  0.50400001928E-02 0.  1.
</event>
<event>
 5   0  0.5385714E-07  0.2080410E+04  0.7818609E-02  0.8569922E-01
       -1   -1    0    0    0  501  0.00000000000E+00  0.00000000000E+00  0.10306614024E+04  0.10306614025E+04  0.50400001928E-02 0. -1.
        1   -1    0    0  501    0  0.00000000000E+00  0.00000000000E+00 -0.10498367702E+04  0.10498367702E+04  0.50400001928E-02 0.  1.
    10030    2    1    2    0    0  0.00000000000E+00  0.00000000000E+00 -0.19175367716E+02  0.20804981726E+04  0.20804098038E+04 0.  0.
        3    1    3    3  502    0  0.93674032672E+03  0.28573239190E+03 -0.36017466202E+03  0.10434803481E+04  0.10100000352E+00 0.  1.
       -3    1    3    3    0  502 -0.93674032672E+03 -0.28573239190E+03  0.34099929430E+03  0.10370178245E+04  0.10100000352E+00 0. -1.
</event>
<event>
 5   0  0.1035864E-06  0.3883545E+04  0.7818609E-02  0.8028460E-01
        2   -1    0    0  501    0  0.00000000000E+00  0.00000000000E+00  0.20610758092E+04  0.20610758092E+04  0.25500000920E-02 0.  1.
       -2   -1    0    0    0  501  0.00000000000E+00  0.00000000000E+00 -0.18293748588E+04  0.18293748589E+04  0.25500000920E-02 0. -1.
    10030    2    1    2    0    0  0.00000000000E+00  0.00000000000E+00  0.23170095031E+03  0.38904506680E+04  0.38835449102E+04 0.  0.
        5    1    3    3  502    0  0.18974721718E+04  0.30665440553E+03  0.39205911355E+03  0.19616753059E+04  0.46999998093E+01 0.  1.
       -5    1    3    3    0  502 -0.18974721718E+04 -0.30665440553E+03 -0.16035816324E+03  0.19287753621E+04  0.46999998093E+01 0. -1.
</event>
<event>
 5   0  0.5385714E-07  0.2246702E+04  0.7818609E-02  0.8499237E-01
        1   -1    0    0  501    0  0.00000000000E+00  0.00000000000E+00  0.10703443905E+04  0.10703443905E+04  0.50400001928E-02 0. -1.
       -1   -1    0    0    0  501  0.00000000000E+00  0.00000000000E+00 -0.11789822388E+04  0.11789822388E+04  0.50400001928E-02 0.  1.
    10030    2    1    2    0    0  0.00000000000E+00  0.00000000000E+00 -0.10863784829E+03  0.22493266293E+04  0.22467016053E+04 0.  0.
        3    1    3    3  502    0  0.71490983368E+03 -0.86548012518E+02 -0.91749237217E+03  0.11663528162E+04  0.10100000352E+00 0.  1.
       -3    1    3    3    0  502 -0.71490983368E+03  0.86548012518E+02  0.80885452388E+03  0.10829738131E+04  0.10100000352E+00 0. -1.
</event>
<event>
 5   0  0.3977376E-07  0.2766499E+04  0.7818609E-02  0.8313745E-01
       -1   -1    0    0    0  501  0.00000000000E+00  0.00000000000E+00  0.49714109796E+03  0.49714109799E+03  0.50400001928E-02 0.  1.
        1   -1    0    0  501    0  0.00000000000E+00  0.00000000000E+00 -0.38487642422E+04  0.38487642422E+04  0.50400001928E-02 0. -1.
    10030    2    1    2    0    0  0.00000000000E+00  0.00000000000E+00 -0.33516231443E+04  0.43459053402E+04  0.27664987846E+04 0.  0.
        4    1    3    3  502    0 -0.10895655433E+04 -0.15857689375E+03 -0.36048736380E+03  0.11585561949E+04  0.12699999809E+01 0.  1.
       -4    1    3    3    0  502  0.10895655433E+04  0.15857689375E+03 -0.29911357805E+04  0.31873491454E+04  0.12699999809E+01 0. -1.
</event>
<event>
 5   0  0.1035864E-06  0.3910765E+04  0.7818609E-02  0.8022794E-01
        2   -1    0    0  501    0  0.00000000000E+00  0.00000000000E+00  0.27870415065E+04  0.27870415065E+04  0.25500000920E-02 0. -1.
       -2   -1    0    0    0  501  0.00000000000E+00  0.00000000000E+00 -0.13718921907E+04  0.13718921907E+04  0.25500000920E-02 0.  1.
    10030    2    1    2    0    0  0.00000000000E+00  0.00000000000E+00  0.14151493158E+04  0.41589336972E+04  0.39107648755E+04 0.  0.
        5    1    3    3  502    0 -0.30835459208E+03  0.25206442394E+03 -0.13282957623E+04  0.13867266315E+04  0.46999998093E+01 0.  1.
       -5    1    3    3    0  502  0.30835459208E+03 -0.25206442394E+03  0.27434450782E+04  0.27722070657E+04  0.46999998093E+01 0. -1.
</event>
<event>
 5   0  0.1034683E-06  0.3913513E+04  0.7818609E-02  0.8022225E-01
        2   -1    0    0  501    0  0.00000000000E+00  0.00000000000E+00  0.13676738368E+04  0.13676738368E+04  0.25500000920E-02 0.  1.
       -2   -1    0    0    0  501  0.00000000000E+00  0.00000000000E+00 -0.27995678324E+04  0.27995678324E+04  0.25500000920E-02 0. -1.
    10030    2    1    2    0    0  0.00000000000E+00  0.00000000000E+00 -0.14318939956E+04  0.41672416693E+04  0.39135128357E+04 0.  0.
        2    1    3    3  502    0  0.71330636547E+03  0.15529608885E+04 -0.17308417572E+04  0.24323459213E+04  0.25500000920E-02 0. -1.
       -2    1    3    3    0  502 -0.71330636547E+03 -0.15529608885E+04  0.29894776159E+03  0.17348957480E+04  0.25500000920E-02 0.  1.
</event>
<event>
 5   0  0.1035864E-06  0.3881218E+04  0.7818609E-02  0.8028947E-01
        2   -1    0    0  501    0  0.00000000000E+00  0.00000000000E+00  0.22880366605E+04  0.22880366605E+04  0.25500000920E-02 0. -1.
       -2   -1    0    0    0  501  0.00000000000E+00  0.00000000000E+00 -0.16459370153E+04  0.16459370153E+04  0.25500000920E-02 0.  1.
    10030    2    1    2    0    0  0.00000000000E+00  0.00000000000E+00  0.64209964521E+03  0.39339736758E+04  0.38812184849E+04 0.  0.
        5    1    3    3  502    0 -0.12996399467E+04  0.14061026102E+04  0.64118076142E+03  0.20192383218E+04  0.46999998093E+01 0.  1.
       -5    1    3    3    0  502  0.12996399467E+04 -0.14061026102E+04  0.91888378715E+00  0.19147353540E+04  0.46999998093E+01 0. -1.
</event>
<event>
 5   0  0.3471602E-07  0.3519399E+04  0.7818609E-02  0.8109208E-01
        1   -1    0    0  501    0  0.00000000000E+00  0.00000000000E+00  0.14009564040E+04  0.14009564040E+04  0.50400001928E-02 0.  1.
       -1   -1    0    0    0  501  0.00000000000E+00  0.00000000000E+00 -0.22103058831E+04  0.22103058831E+04  0.50400001928E-02 0. -1.
    10030    2    1    2    0    0  0.00000000000E+00  0.00000000000E+00 -0.80934947915E+03  0.36112622872E+04  0.35193989156E+04 0.  0.
        5    1    3    3  502    0 -0.78346181087E+03 -0.80822261815E+03  0.98321456977E+03  0.14945799376E+04  0.46999998093E+01 0.  1.
       -5    1    3    3    0  502  0.78346181087E+03  0.80822261815E+03 -0.17925640489E+04  0.21166823496E+04  0.46999998093E+01 0. -1.
</event>
<event>
 5   0  0.5533705E-07  0.2745384E+04  0.7818609E-02  0.8320428E-01
       -2   -1    0    0    0  501  0.00000000000E+00  0.00000000000E+00  0.15684903471E+04  0.15684903471E+04  0.25500000920E-02 0. -1.
        2   -1    0    0  501    0  0.00000000000E+00  0.00000000000E+00 -0.12013356332E+04  0.12013356332E+04  0.25500000920E-02 0.  1.
    10030    2    1    2    0    0  0.00000000000E+00  0.00000000000E+00  0.36715471385E+03  0.27698259803E+04  0.27453840127E+04 0.  0.
        1    1    3    3  502    0  0.73675639114E+03 -0.98984060033E+03  0.79033744377E+03  0.14653421679E+04  0.50400001928E-02 0. -1.
       -1    1    3    3    0  502 -0.73675639114E+03  0.98984060033E+03 -0.42318272992E+03  0.13044838124E+04  0.50400001928E-02 0.  1.
</event>
<event>
 5   0  0.5533705E-07  0.3997569E+04  0.7818609E-02  0.8005037E-01
        2   -1    0    0  501    0  0.00000000000E+00  0.00000000000E+00  0.26168872740E+04  0.26168872740E+04  0.25500000920E-02 0.  1.
       -2   -1    0    0    0  501  0.00000000000E+00  0.00000000000E+00 -0.15266758190E+04  0.15266758190E+04  0.25500000920E-02 0. -1.
    10030    2    1    2    0    0  0.00000000000E+00  0.00000000000E+00  0.10902114551E+04  0.41435630930E+04  0.39975685222E+04 0.  0.
        1    1    3    3  502    0  0.18151352458E+04 -0.15090637415E+03  0.13983643892E+04  0.22962821384E+04  0.50400001928E-02 0.  1.
       -1    1    3    3    0  502 -0.18151352458E+04  0.15090637415E+03 -0.30815293411E+03  0.18472809546E+04  0.50400001928E-02 0. -1.
</event>
<event>
 5   0  0.7268013E-07  0.3941409E+04  0.7818609E-02  0.8016472E-01
       -2   -1    0    0    0  501  0.00000000000E+00  0.00000000000E+00  0.15963015803E+04  0.15963015803E+04  0.25500000920E-02 0. -1.
        2   -1    0    0  501    0  0.00000000000E+00  0.00000000000E+00 -0.24329212260E+04  0.24329212260E+04  0.25500000920E-02 0.  1.
    10030    2    1    2    0    0  0.00000000000E+00  0.00000000000E+00 -0.83661964571E+03  0.40292228063E+04  0.39414088840E+04 0.  0.
        4    1    3    3  502    0 -0.86070249930E+03 -0.15651695925E+04  0.43277097693E+03  0.18378947132E+04  0.12699999809E+01 0. -1.
       -4    1    3    3    0  502  0.86070249930E+03  0.15651695925E+04 -0.12693906226E+04  0.21913280930E+04  0.12699999809E+01 0.  1.
</event>
<event>
 5   0  0.5533705E-07  0.3619113E+04  0.7818609E-02  0.8086128E-01
        2   -1    0    0  501    0  0.00000000000E+00  0.00000000000E+00  0.20334619795E+04  0.20334619795E+04  0.25500000920E-02 0.  1.
       -2   -1    0    0    0  501  0.00000000000E+00  0.00000000000E+00 -0.16103050596E+04  0.16103050596E+04  0.25500000920E-02 0. -1.
    10030    2    1    2    0    0  0.00000000000E+00  0.00000000000E+00  0.42315691994E+03  0.36437670391E+04  0.36191126615E+04 0.  0.
        1    1    3    3  502    0  0.13116714959E+03  0.49231862979E+03 -0.15366001252E+04  0.16188645401E+04  0.50400001928E-02 0. -1.
       -1    1    3    3    0  502 -0.13116714959E+03 -0.49231862979E+03  0.19597570452E+04  0.20249024990E+04  0.50400001928E-02 0.  1.
</event>
<event>
 5   0  0.5533705E-07  0.2676829E+04  0.7818609E-02  0.8342562E-01
        2   -1    0    0  501    0  0.00000000000E+00  0.00000000000E+00  0.24642310772E+04  0.24642310772E+04  0.25500000920E-02 0.  1.
       -2   -1    0    0    0  501  0.00000000000E+00  0.00000000000E+00 -0.72694237020E+03  0.72694237020E+03  0.25500000920E-02 0. -1.
    10030    2    1    2    0    0  0.00000000000E+00  0.00000000000E+00  0.17372887070E+04  0.31911734474E+04  0.26768294529E+04 0.  0.
        1    1    3    3  502    0  0.90005126759E+03  0.28498765396E+03 -0.26235280454E+03  0.97986695080E+03  0.50400001928E-02 0. -1.
       -1    1    3    3    0  502 -0.90005126759E+03 -0.28498765396E+03  0.19996415115E+04  0.22113064966E+04  0.50400001928E-02 0.  1.
</event>
<event>
 5   0  0.5533705E-07  0.3824922E+04  0.7818609E-02  0.8040828E-01
       -2   -1    0    0    0  501  0.00000000000E+00  0.00000000000E+00  0.14279819032E+04  0.14279819033E+04  0.25500000920E-02 0. -1.
        2   -1    0    0  501    0  0.00000000000E+00  0.00000000000E+00 -0.25613122964E+04  0.25613122964E+04  0.25500000920E-02 0.  1.
    10030    2    1    2    0    0  0.00000000000E+00  0.00000000000E+00 -0.11333303931E+04  0.39892941996E+04  0.38249222778E+04 0.  0.
        1    1    3    3  502    0 -0.13976298672E+04 -0.11434441179E+04 -0.12235515959E+04  0.21812639007E+04  0.50400001928E-02 0. -1.
       -1    1    3    3    0  502  0.13976298672E+04  0.11434441179E+04  0.90221202760E+02  0.18080302990E+04  0.50400001928E-02 0.  1.
</event>
<event>
 5   0  0.1015219E-06  0.3925305E+04  0.7818609E-02  0.8019787E-01
       -2   -1    0    0    0  501  0.00000000000E+00  0.00000000000E+00  0.17560897032E+04  0.17560897032E+04  0.25500000920E-02 0.  1.
        2   -1    0    0  501    0  0.00000000000E+00  0.00000000000E+00 -0.21935120327E+04  0.21935120327E+04  0.25500000920E-02 0. -1.
    10030    2    1    2    0    0  0.00000000000E+00  0.00000000000E+00 -0.43742232954E+03  0.39496017359E+04  0.39253045204E+04 0.  0.
        3    1    3    3  502    0 -0.54478570100E+03  0.38461491581E+03 -0.20760199127E+04  0.21804996633E+04  0.10100000352E+00 0. -1.
       -3    1    3    3    0  502  0.54478570100E+03 -0.38461491581E+03  0.16385975832E+04  0.17691020726E+04  0.10100000352E+00 0.  1.
</event>
<event>
 5   0  0.5385714E-07  0.2419009E+04  0.7818609E-02  0.8432421E-01
       -1   -1    0    0    0  501  0.00000000000E+00  0.00000000000E+00  0.13308142997E+04  0.13308142997E+04  0.50400001928E-02 0. -1.
        1   -1    0    0  501    0  0.00000000000E+00  0.00000000000E+00 -0.10992522239E+04  0.10992522239E+04  0.50400001928E-02 0.  1.
    10030    2    1    2    0    0  0.00000000000E+00  0.00000000000E+00  0.23156207575E+03  0.24300665236E+04  0.24190085395E+04 0.  0.
        3    1    3    3  502    0  0.80579951544E+03 -0.89969095488E+03  0.51113677724E+02  0.12088710815E+04  0.10100000352E+00 0.  1.
       -3    1    3    3    0  502 -0.80579951544E+03  0.89969095488E+03  0.18044839803E+03  0.12211954421E+04  0.10100000352E+00 0. -1.
</event>
<event>
 5   0  0.4627905E-07  0.3978094E+04  0.7818609E-02  0.8008980E-01
       -1   -1    0    0    0  501  0.00000000000E+00  0.00000000000E+00  0.29045089151E+04  0.29045089151E+04  0.50400001928E-02 0.  1.
        1   -1    0    0  501    0  0.00000000000E+00  0.00000000000E+00 -0.13621262792E+04  0.13621262792E+04  0.50400001928E-02 0. -1.
    10030    2    1    2    0    0  0.00000000000E+00  0.00000000000E+00  0.15423826359E+04  0.42666351943E+04  0.39780939765E+04 0.  0.
        1    1    3    3  502    0 -0.12509599200E+04  0.15076777986E+04  0.40227309178E+03  0.19999541761E+04  0.50400001928E-02 0.  1.
       -1    1    3    3    0  502  0.12509599200E+04 -0.15076777986E+04  0.11401095441E+04  0.22666810183E+04  0.50400001928E-02 0. -1.
</event>
<event>
 5   0  0.5385714E-07  0.3851799E+04  0.7818609E-02  0.8035130E-01
       -1   -1    0    0    0  501  0.00000000000E+00  0.00000000000E+00  0.29543354148E+04  0.29543354148E+04  0.50400001928E-02 0.  1.
        1   -1    0    0  501    0  0.00000000000E+00  0.00000000000E+00 -0.12554728937E+04  0.12554728938E+04  0.50400001928E-02 0. -1.
    10030    2    1    2    0    0  0.00000000000E+00  0.00000000000E+00  0.16988625211E+04  0.42098083086E+04  0.38517985577E+04 0.  0.
        3    1    3    3  502    0  0.42416157548E+03 -0.91244875583E+03  0.26441979730E+04  0.28291798644E+04  0.10100000352E+00 0.  1.
       -3    1    3    3    0  502 -0.42416157548E+03  0.91244875583E+03 -0.94533545193E+03  0.13806284442E+04  0.10100000352E+00 0. -1.
</event>
<event>
 5   0  0.3977376E-07  0.2072846E+04  0.7818609E-02  0.8573300E-01
        1   -1    0    0  501    0  0.00000000000E+00  0.00000000000E+00  0.12807895369E+04  0.12807895370E+04  0.50400001928E-02 0. -1.
       -1   -1    0    0    0  501  0.00000000000E+00  0.00000000000E+00 -0.83868018947E+03  0.83868018949E+03  0.50400001928E-02 0.  1.
    10030    2    1    2    0    0  0.00000000000E+00  0.00000000000E+00  0.44210934747E+03  0.21194697264E+04  0.20728461704E+04 0.  0.
        4    1    3    3  502    0 -0.23427235460E+03  0.68496957727E+03 -0.53731800752E+03  0.90154262907E+03  0.12699999809E+01 0.  1.
       -4    1    3    3    0  502  0.23427235460E+03 -0.68496957727E+03  0.97942735499E+03  0.12179270974E+04  0.12699999809E+01 0. -1.
</event>
<event>
 5   0  0.4316671E-07  0.3221569E+04  0.7818609E-02  0.8183144E-01
       -1   -1    0    0    0  501  0.00000000000E+00  0.00000000000E+00  0.21559856184E+04  0.21559856184E+04  0.50400001928E-02 0.  1.
        1   -1    0    0  501    0  0.00000000000E+00  0.00000000000E+00 -0.12034529754E+04  0.12034529754E+04  0.50400001928E-02 0. -1.
    10030    2    1    2    0    0  0.00000000000E+00  0.00000000000E+00  0.95253264309E+03  0.33594385938E+04  0.32215693737E+04 0.  0.
        2    1    3    3  502    0 -0.82706932022E+03  0.45238084730E+03 -0.88574427513E+03  0.12935358566E+04  0.25500000920E-02 0. -1.
       -2    1    3    3    0  502  0.82706932022E+03 -0.45238084730E+03  0.18382769182E+04  0.20659027372E+04  0.25500000920E-02 0.  1.
</event>
<event>
 5   0  0.7268013E-07  0.4062153E+04  0.7818609E-02  0.7992124E-01
       -2   -1    0    0    0  501  0.00000000000E+00  0.00000000000E+00  0.15723649942E+04  0.15723649942E+04  0.25500000920E-02 0. -1.
        2   -1    0    0  501    0  0.00000000000E+00  0.00000000000E+00 -0.26236096789E+04  0.26236096789E+04  0.25500000920E-02 0.  1.
    10030    2    1    2    0    0  0.00000000000E+00  0.00000000000E+00 -0.10512446847E+04  0.41959746730E+04  0.40621531322E+04 0.  0.
        4    1    3    3  502    0 -0.18662227138E+04 -0.63848777742E+02  0.29970308243E+03  0.18912132176E+04  0.12699999809E+01 0.  1.
       -4    1    3    3    0  502  0.18662227138E+04  0.63848777742E+02 -0.13509477671E+04  0.23047614554E+04  0.12699999809E+01 0. -1.
</event>
<event>
 5   0  0.1015219E-06  0.3052759E+04  0.7818609E-02  0.8228824E-01
        2   -1    0    0  501    0  0.00000000000E+00  0.00000000000E+00  0.24435752524E+04  0.24435752524E+04  0.25500000920E-02 0. -1.
       -2   -1    0    0    0  501  0.00000000000E+00  0.00000000000E+00 -0.95345312474E+03  0.95345312474E+03  0.25500000920E-02 0.  1.
    10030    2    1    2    0    0  0.00000000000E+00  0.00000000000E+00  0.14901221277E+04  0.33970283772E+04  0.30527590537E+04 0.  0.
        3    1    3    3  502    0 -0.30796142691E+03  0.12713743982E+04 -0.13014854730E+03  0.13145994657E+04  0.10100000352E+00 0.  1.
       -3    1    3    3    0  502  0.30796142691E+03 -0.12713743982E+04  0.16202706750E+04  0.20824289114E+04  0.10100000352E+00 0. -1.
</event>
<event>
 5   0  0.3977376E-07  0.3372240E+04  0.7818609E-02  0.8144753E-01
        1   -1    0    0  501    0  0.00000000000E+00  0.00000000000E+00  0.15522288324E+04  0.15522288324E+04  0.50400001928E-02 0.  1.
       -1   -1    0    0    0  501  0.00000000000E+00  0.00000000000E+00 -0.18315600540E+04  0.18315600540E+04  0.50400001928E-02 0. -1.
    10030    2    1    2    0    0  0.00000000000E+00  0.00000000000E+00 -0.27933122159E+03  0.33837888864E+04  0.33722398041E+04 0.  0.
        4    1    3    3  502    0  0.25669329847E+03 -0.84673166910E+03  0.13005732329E+04  0.15730029612E+04  0.12699999809E+01 0.  1.
       -4    1    3    3    0  502 -0.25669329847E+03  0.84673166910E+03 -0.15799044545E+04  0.18107859252E+04  0.12699999809E+01 0. -1.
</event>
<event>
 5   0  0.5533705E-07  0.2406197E+04  0.7818609E-02  0.8437187E-01
       -2   -1    0    0    0  501  0.00000000000E+00  0.00000000000E+00  0.14729796502E+04  0.14729796502E+04  0.25500000920E-02 0. -1.
        2   -1    0    0  501    0  0.00000000000E+00  0.00000000000E+00 -0.98266564426E+03  0.98266564427E+03  0.25500000920E-02 0.  1.
    10030    2    1    2    0    0  0.00000000000E+00  0.00000000000E+00  0.49031400594E+03  0.24556452945E+04  0.24061974125E+04 0.  0.
        1    1    3    3  502    0 -0.76451775903E+03  0.89845352367E+03  0.42112585846E+01  0.11797134706E+04  0.50400001928E-02 0. -1.
       -1    1    3    3    0  502  0.76451775903E+03 -0.89845352367E+03  0.48610274736E+03  0.12759318238E+04  0.50400001928E-02 0.  1.
</event>
<event>
 5   0  0.5533705E-07  0.3901688E+04  0.7818609E-02  0.8024678E-01
        2   -1    0    0  501    0  0.00000000000E+00  0.00000000000E+00  0.14428965603E+04  0.14428965603E+04  0.25500000920E-02 0.  1.
       -2   -1    0    0    0  501  0.00000000000E+00  0.00000000000E+00 -0.26376058863E+04  0.26376058863E+04  0.25500000920E-02 0. -1.
    10030    2    1    2    0    0  0.00000000000E+00  0.00000000000E+00 -0.11947093260E+04  0.40805024466E+04  0.39016880761E+04 0.  0.
        1    1    3    3  502    0 -0.50162856791E+03 -0.14939040479E+04  0.60530979479E+03  0.16881292818E+04  0.50400001928E-02 0.  1.
       -1    1    3    3    0  502  0.50162856791E+03  0.14939040479E+04 -0.18000191208E+04  0.23923731648E+04  0.50400001928E-02 0. -1.
</event>
<event>
 5   0  0.1034683E-06  0.2398075E+04  0.7818609E-02  0.8440225E-01
       -2   -1    0    0    0  501  0.00000000000E+00  0.00000000000E+00  0.12976669969E+04  0.12976669969E+04  0.25500000920E-02 0. -1.
        2   -1    0    0  501    0  0.00000000000E+00  0.00000000000E+00 -0.11079042189E+04  0.11079042189E+04  0.25500000920E-02 0.  1.
    10030    2    1    2    0    0  0.00000000000E+00  0.00000000000E+00  0.18976277799E+03  0.24055712157E+04  0.23980748450E+04 0.  0.
        2    1    3    3  502    0 -0.12986119247E+03 -0.85883524639E+03  0.92404183634E+03  0.12681936859E+04  0.25500000920E-02 0. -1.
       -2    1    3    3    0  502  0.12986119247E+03  0.85883524639E+03 -0.73427905834E+03  0.11373775298E+04  0.25500000920E-02 0.  1.
</event>
<event>
 5   0  0.1035864E-06  0.2808921E+04  0.7818609E-02  0.8300504E-01
       -2   -1    0    0    0  501  0.00000000000E+00  0.00000000000E+00  0.17802853369E+04  0.17802853369E+04  0.25500000920E-02 0. -1.
        2   -1    0    0  501    0  0.00000000000E+00  0.00000000000E+00 -0.11079733635E+04  0.11079733635E+04  0.25500000920E-02 0.  1.
    10030    2    1    2    0    0  0.00000000000E+00  0.00000000000E+00  0.67231197341E+03  0.28882587003E+04  0.28089205988E+04 0.  0.
        5    1    3    3  502    0  0.51120283775E+03 -0.61852462653E+03 -0.84904333914E+03  0.11682455806E+04  0.46999998093E+01 0.  1.
       -5    1    3    3    0  502 -0.51120283775E+03  0.61852462653E+03  0.15213553126E+04  0.17200131197E+04  0.46999998093E+01 0. -1.
</event>
<event>
 5   0  0.4316671E-07  0.3710557E+04  0.7818609E-02  0.8065626E-01
       -1   -1    0    0    0  501  0.00000000000E+00  0.00000000000E+00  0.13676748705E+04  0.13676748705E+04  0.50400001928E-02 0. -1.
        1   -1    0    0  501    0  0.00000000000E+00  0.00000000000E+00 -0.25167232721E+04  0.25167232721E+04  0.50400001928E-02 0.  1.
    10030    2    1    2    0    0  0.00000000000E+00  0.00000000000E+00 -0.11490484016E+04  0.38843981426E+04  0.37105574650E+04 0.  0.
        2    1    3    3  502    0  0.74683077296E+03 -0.13121367675E+04  0.55423096085E+03  0.16083006740E+04  0.25500000920E-02 0. -1.
       -2    1    3    3    0  502 -0.74683077296E+03  0.13121367675E+04 -0.17032793625E+04  0.22760974686E+04  0.25500000920E-02 0.  1.
</event>
<event>
 5   0  0.1015219E-06  0.3985159E+04  0.7818609E-02  0.8007547E-01
       -2   -1    0    0    0  501  0.00000000000E+00  0.00000000000E+00  0.17286440709E+04  0.17286440709E+04  0.25500000920E-02 0. -1.
        2   -1    0    0  501    0  0.00000000000E+00  0.00000000000E+00 -0.22968133223E+04  0.22968133223E+04  0.25500000920E-02 0.  1.
    10030    2    1    2    0    0  0.00000000000E+00  0.00000000000E+00 -0.56816925138E+03  0.40254573932E+04  0.39851588333E+04 0.  0.
        3    1    3    3  502    0  0.70900585084E+03  0.59732001384E+03 -0.20656923284E+04  0.22641919754E+04  0.10100000352E+00 0.  1.
       -3    1    3    3    0  502 -0.70900585084E+03 -0.59732001384E+03  0.14975230771E+04  0.17612654178E+04  0.10100000352E+00 0. -1.
</event>
<event>
 5   0  0.1035864E-06  0.3900705E+04  0.7818609E-02  0.8024883E-01
        2   -1    0    0  501    0  0.00000000000E+00  0.00000000000E+00  0.17963370115E+04  0.17963370115E+04  0.25500000920E-02 0. -1.
       -2   -1    0    0    0  501  0.00000000000E+00  0.00000000000E+00 -0.21175731541E+04  0.21175731541E+04  0.25500000920E-02 0.  1.
    10030    2    1    2    0    0  0.00000000000E+00  0.00000000000E+00 -0.32123614260E+03  0.39139101656E+04  0.39007050805E+04 0.  0.
        5    1    3    3  502    0 -0.92428074727E+03  0.26463162522E+03 -0.18632799049E+04  0.20967019080E+04  0.46999998093E+01 0.  1.
       -5    1    3    3    0  502  0.92428074727E+03 -0.26463162522E+03  0.15420437623E+04  0.18172082577E+04  0.46999998093E+01 0. -1.
</event>
<event>
 5   0  0.3471602E-07  0.3901325E+04  0.7818609E-02  0.8024754E-01
       -1   -1    0    0    0  501  0.00000000000E+00  0.00000000000E+00  0.27361338308E+04  0.27361338308E+04  0.50400001928E-02 0. -1.
        1   -1    0    0  501    0  0.00000000000E+00  0.00000000000E+00 -0.13906792186E+04  0.13906792186E+04  0.50400001928E-02 0.  1.
    10030    2    1    2    0    0  0.00000000000E+00  0.00000000000E+00  0.13454546122E+04  0.41268130493E+04  0.39013251378E+04 0.  0.
        5    1    3    3  502    0 -0.76054547673E+03 -0.86489227742E+03 -0.99262212053E+03  0.15204567859E+04  0.46999998093E+01 0.  1.
       -5    1    3    3    0  502  0.76054547673E+03  0.86489227742E+03  0.23380767327E+04  0.26063562634E+04  0.46999998093E+01 0. -1.
</event>
<event>
 5   0  0.4316671E-07  0.3899703E+04  0.7818609E-02  0.8025091E-01
       -1   -1    0    0    0  501  0.00000000000E+00  0.00000000000E+00  0.29655378567E+04  0.29655378567E+04  0.50400001928E-02 0.  1.
        1   -1    0    0  501    0  0.00000000000E+00  0.00000000000E+00 -0.12820340850E+04  0.12820340850E+04  0.50400001928E-02 0. -1.
    10030    2    1    2    0    0  0.00000000000E+00  0.00000000000E+00  0.16835037717E+04  0.42475719417E+04  0.38997028670E+04 0.  0.
        2    1    3    3  502    0  0.16574630750E+04 -0.13555230843E+03  0.19505820630E+04  0.25632652336E+04  0.25500000920E-02 0.  1.
       -2    1    3    3    0  502 -0.16574630750E+04  0.13555230843E+03 -0.26707829127E+03  0.16843067081E+04  0.25500000920E-02 0. -1.
</event>
<event>
 5   0  0.5385714E-07  0.3998837E+04  0.7818609E-02  0.8004781E-01
       -1   -1    0    0    0  501  0.00000000000E+00  0.00000000000E+00  0.27939657797E+04  0.27939657797E+04  0.50400001928E-02 0.  1.
        1   -1    0    0  501    0  0.00000000000E+00  0.00000000000E+00 -0.14308244503E+04  0.14308244503E+04  0.50400001928E-02 0. -1.
    10030    2    1    2    0    0  0.00000000000E+00  0.00000000000E+00  0.13631413294E+04  0.42247902300E+04  0.39988371064E+04 0.  0.
        3    1    3    3  502    0 -0.10472389145E+04  0.12564972937E+04  0.18964039622E+04  0.25043647480E+04  0.10100000352E+00 0. -1.
       -3    1    3    3    0  502  0.10472389145E+04 -0.12564972937E+04 -0.53326263284E+03  0.17204254819E+04  0.10100000352E+00 0.  1.
</event>
<event>
 5   0  0.3471602E-07  0.1920661E+04  0.7818609E-02  0.8644640E-01
        1   -1    0    0  501    0  0.00000000000E+00  0.00000000000E+00  0.10005162619E+04  0.10005162619E+04  0.50400001928E-02 0.  1.
       -1   -1    0    0    0  501  0.00000000000E+00  0.00000000000E+00 -0.92175833567E+03  0.92175833569E+03  0.50400001928E-02 0. -1.
    10030    2    1    2    0    0  0.00000000000E+00  0.00000000000E+00  0.78757926201E+02  0.19222745976E+04  0.19206605160E+04 0.  0.
        5    1    3    3  502    0 -0.37768969896E+03  0.81466194137E+03 -0.30133116186E+03  0.94717799094E+03  0.46999998093E+01 0.  1.
       -5    1    3    3    0  502  0.37768969896E+03 -0.81466194137E+03  0.38008908807E+03  0.97509660664E+03  0.46999998093E+01 0. -1.
</event>
<event>
 5   0  0.3977376E-07  0.2717086E+04  0.7818609E-02  0.8329482E-01
        1   -1    0    0  501    0  0.00000000000E+00  0.00000000000E+00  0.19374723942E+04  0.19374723942E+04  0.50400001928E-02 0.  1.
       -1   -1    0    0    0  501  0.00000000000E+00  0.00000000000E+00 -0.95260166212E+03  0.95260166214E+03  0.50400001928E-02 0. -1.
    10030    2    1    2    0    0  0.00000000000E+00  0.00000000000E+00  0.98487073205E+03  0.28900740563E+04  0.27170862504E+04 0.  0.
        4    1    3    3  502    0  0.87552110061E+03  0.27452071733E+03  0.15580886891E+04  0.18081871579E+04  0.12699999809E+01 0.  1.
       -4    1    3    3    0  502 -0.87552110061E+03 -0.27452071733E+03 -0.57321795705E+03  0.10818868985E+04  0.12699999809E+01 0. -1.
</event>
<event>
 5   0  0.5533705E-07  0.2579337E+04  0.7818609E-02  0.8375254E-01
       -2   -1    0    0    0  501  0.00000000000E+00  0.00000000000E+00  0.84834155412E+03  0.84834155412E+03  0.25500000920E-02 0.  1.
        2   -1    0    0  501    0  0.00000000000E+00  0.00000000000E+00 -0.19605846808E+04  0.19605846808E+04  0.25500000920E-02 0. -1.
    10030    2    1    2    0    0  0.00000000000E+00  0.00000000000E+00 -0.11122431267E+04  0.28089262349E+04  0.25793374770E+04 0.  0.
        1    1    3    3  502    0 -0.83550663274E+03  0.32991782425E+03  0.45162732409E+03  0.10054274434E+04  0.50400001928E-02 0.  1.
       -1    1    3    3    0  502  0.83550663274E+03 -0.32991782425E+03 -0.15638704508E+04  0.18034987915E+04  0.50400001928E-02 0. -1.
</event>
<event>
 5   0  0.4627905E-07  0.2805364E+04  0.7818609E-02  0.8301605E-01
       -1   -1    0    0    0  501  0.00000000000E+00  0.00000000000E+00  0.98844484304E+03  0.98844484306E+03  0.50400001928E-02 0.  1.
        1   -1    0    0  501    0  0.00000000000E+00  0.00000000000E+00 -0.19905169460E+04  0.19905169460E+04  0.50400001928E-02 0. -1.
    10030    2    1    2    0    0  0.00000000000E+00  0.00000000000E+00 -0.10020721030E+04  0.29789617891E+04  0.28053635845E+04 0.  0.
        1    1    3    3  502    0  0.70582741311E+02 -0.50108526075E+03  0.88814103787E+03  0.10221853379E+04  0.50400001928E-02 0.  1.
       -1    1    3    3    0  502 -0.70582741311E+02  0.50108526075E+03 -0.18902131408E+04  0.19567764511E+04  0.50400001928E-02 0. -1.
</event>
<event>
 5   0  0.7268013E-07  0.2168439E+04  0.7818609E-02  0.8531680E-01
        2   -1    0    0  501    0  0.00000000000E+00  0.00000000000E+00  0.72495373857E+03  0.72495373858E+03  0.25500000920E-02 0. -1.
       -2   -1    0    0    0  501  0.00000000000E+00  0.00000000000E+00 -0.16215268213E+04  0.16215268213E+04  0.25500000920E-02 0.  1.
    10030    2    1    2    0    0  0.00000000000E+00  0.00000000000E+00 -0.89657308269E+03  0.23464805598E+04  0.21684390065E+04 0.  0.
        4    1    3    3  502    0 -0.60084162054E+03 -0.34690087730E+03  0.45329627369E+03  0.82875207166E+03  0.12699999809E+01 0. -1.
       -4    1    3    3    0  502  0.60084162054E+03  0.34690087730E+03 -0.13498693564E+04  0.15177284882E+04  0.12699999809E+01 0.  1.
</event>
<event>
 5   0  0.1015219E-06  0.2008952E+04  0.7818609E-02  0.8602447E-01
        2   -1    0    0  501    0  0.00000000000E+00  0.00000000000E+00  0.17292532682E+04  0.17292532682E+04  0.25500000920E-02 0. -1.
       -2   -1    0    0    0  501  0.00000000000E+00  0.00000000000E+00 -0.58347253242E+03  0.58347253243E+03  0.25500000920E-02 0.  1.
    10030    2    1    2    0    0  0.00000000000E+00  0.00000000000E+00  0.11457807358E+04  0.23127258006E+04  0.20089517501E+04 0.  0.
        3    1    3    3  502    0 -0.43416515026E+03  0.12327501207E+03  0.16059536535E+04  0.16681676336E+04  0.10100000352E+00 0. -1.
       -3    1    3    3    0  502  0.43416515026E+03 -0.12327501207E+03 -0.46017291773E+03  0.64455816705E+03  0.10100000352E+00 0.  1.
</event>
<event>
 5   0  0.1035864E-06  0.3636484E+04  0.7818609E-02  0.8082185E-01
       -2   -1    0    0    0  501  0.00000000000E+00  0.00000000000E+00  0.20638211597E+04  0.20638211597E+04  0.25500000920E-02 0. -1.
        2   -1    0    0  501    0  0.00000000000E+00  0.00000000000E+00 -0.16018851194E+04  0.16018851194E+04  0.25500000920E-02 0.  1.
    10030    2    1    2    0    0  0.00000000000E+00  0.00000000000E+00  0.46193604023E+03  0.36657062791E+04  0.36364842388E+04 0.  0.
        5    1    3    3  502    0 -0.10788160559E+04  0.20939019146E+03 -0.12292211436E+04  0.16488465801E+04  0.46999998093E+01 0.  1.
       -5    1    3    3    0  502  0.10788160559E+04 -0.20939019146E+03  0.16911571839E+04  0.20168596990E+04  0.46999998093E+01 0. -1.
</event>
<event>
 5   0  0.4627905E-07  0.2167369E+04  0.7818609E-02  0.8532134E-01
        1   -1    0    0  501    0  0.00000000000E+00  0.00000000000E+00  0.97167752869E+03  0.97167752870E+03  0.50400001928E-02 0.  1.
       -1   -1    0    0    0  501  0.00000000000E+00  0.00000000000E+00 -0.12086031026E+04  0.12086031026E+04  0.50400001928E-02 0. -1.
    10030    2    1    2    0    0  0.00000000000E+00  0.00000000000E+00 -0.23692557394E+03  0.21802806313E+04  0.21673693510E+04 0.  0.
        1    1    3    3  502    0 -0.92227597451E+03  0.35206315736E+03  0.33122484079E+03  0.10412739001E+04  0.50400001928E-02 0.  1.
       -1    1    3    3    0  502  0.92227597451E+03 -0.35206315736E+03 -0.56815041473E+03  0.11390067312E+04  0.50400001928E-02 0. -1.
</event>
<event>
 5   0  0.1034683E-06  0.2184586E+04  0.7818609E-02  0.8524871E-01
       -2   -1    0    0    0  501  0.00000000000E+00  0.00000000000E+00  0.91976575064E+03  0.91976575064E+03  0.25500000920E-02 0. -1.
        2   -1    0    0  501    0  0.00000000000E+00  0.00000000000E+00 -0.12971826428E+04  0.12971826428E+04  0.25500000920E-02 0.  1.
    10030    2    1    2    0    0  0.00000000000E+00  0.00000000000E+00 -0.37741689213E+03  0.22169483934E+04  0.21845861550E+04 0.  0.
        2    1    3    3  502    0 -0.50208647160E+03 -0.73816398040E+03 -0.82741854458E+03  0.12172092404E+04  0.25500000920E-02 0.  1.
       -2    1    3    3    0  502  0.50208647160E+03  0.73816398040E+03  0.45000165245E+03  0.99973915305E+03  0.25500000920E-02 0. -1.
</event>
<event>
 5   0  0.5385714E-07  0.3789768E+04  0.7818609E-02  0.8048354E-01
       -1   -1    0    0    0  501  0.00000000000E+00  0.00000000000E+00  0.13533243021E+04  0.13533243021E+04  0.50400001928E-02 0. -1.
        1   -1    0    0  501    0  0.00000000000E+00  0.00000000000E+00 -0.26531602126E+04  0.26531602126E+04  0.50400001928E-02 0.  1.
    10030    2    1    2    0    0  0.00000000000E+00  0.00000000000E+00 -0.12998359105E+04  0.40064845148E+04  0.37897684326E+04 0.  0.
        3    1    3    3  502    0 -0.13910666478E+04 -0.12547545488E+04 -0.34883227452E+03  0.19055601177E+04  0.10100000352E+00 0. -1.
       -3    1    3    3    0  502  0.13910666478E+04  0.12547545488E+04 -0.95100363602E+03  0.21009243971E+04  0.10100000352E+00 0.  1.
</event>
<event>
 5   0  0.5385714E-07  0.3827265E+04  0.7818609E-02  0.8040329E-01
        1   -1    0    0  501    0  0.00000000000E+00  0.00000000000E+00  0.18893541768E+04  0.18893541768E+04  0.50400001928E-02 0.  1.
       -1   -1    0    0    0  501  0.00000000000E+00  0.00000000000E+00 -0.19382224311E+04  0.19382224311E+04  0.50400001928E-02 0. -1.
    10030    2    1    2    0    0  0.00000000000E+00  0.00000000000E+00 -0.48868254320E+02  0.38275766079E+04  0.38272646346E+04 0.  0.
        3    1    3    3  502    0  0.16305488092E+04  0.34800883935E+03 -0.96375989095E+03  0.19257810646E+04  0.10100000352E+00 0. -1.
       -3    1    3    3    0  502 -0.16305488092E+04 -0.34800883935E+03  0.91489163662E+03  0.19017955432E+04  0.10100000352E+00 0.  1.
</event>
<event>
 5   0  0.1034683E-06  0.3796681E+04  0.7818609E-02  0.8046868E-01
       -2   -1    0    0    0  501  0.00000000000E+00  0.00000000000E+00  0.14515861879E+04  0.14515861879E+04  0.25500000920E-02 0.  1.
        2   -1    0    0  501    0  0.00000000000E+00  0.00000000000E+00 -0.24825917571E+04  0.24825917571E+04  0.25500000920E-02 0. -1.
    10030    2    1    2    0    0  0.00000000000E+00  0.00000000000E+00 -0.10310055692E+04  0.39341779451E+04  0.37966806055E+04 0.  0.
        2    1    3    3  502    0  0.72740411551E+03  0.26514385933E+03 -0.23115592517E+04  0.24377703311E+04  0.25500000920E-02 0. -1.
       -2    1    3    3    0  502 -0.72740411551E+03 -0.26514385933E+03  0.12805536825E+04  0.14964076139E+04  0.25500000920E-02 0.  1.
</event>
<event>
 5   0  0.3471602E-07  0.4175488E+04  0.7818609E-02  0.7970051E-01
       -1   -1    0    0    0  501  0.00000000000E+00  0.00000000000E+00  0.23943171083E+04  0.23943171083E+04  0.50400001928E-02 0.  1.
        1   -1    0    0  501    0  0.00000000000E+00  0.00000000000E+00 -0.18204252624E+04  0.18204252624E+04  0.50400001928E-02 0. -1.
    10030    2    1    2    0    0  0.00000000000E+00  0.00000000000E+00  0.57389184587E+03  0.42147423708E+04  0.41754881632E+04 0.  0.
        5    1    3    3  502    0  0.12239321514E+04  0.25026506752E+03 -0.14015050914E+04  0.18774666778E+04  0.46999998093E+01 0. -1.
       -5    1    3    3    0  502 -0.12239321514E+04 -0.25026506752E+03  0.19753969372E+04  0.23372756929E+04  0.46999998093E+01 0.  1.
</event>
<event>
 5   0  0.5533705E-07  0.3927942E+04  0.7818609E-02  0.8019243E-01
        2   -1    0    0  501    0  0.00000000000E+00  0.00000000000E+00  0.21796648797E+04  0.21796648797E+04  0.25500000920E-02 0.  1.
       -2   -1    0    0    0  501  0.00000000000E+00  0.00000000000E+00 -0.17696214024E+04  0.17696214024E+04  0.25500000920E-02 0. -1.
    10030    2    1    2    0    0  0.00000000000E+00  0.00000000000E+00  0.41004347732E+03  0.39492862821E+04  0.39279417619E+04 0.  0.
        1    1    3    3  502    0 -0.15722006183E+04  0.51829895565E+03 -0.85747659449E+03  0.18643268763E+04  0.50400001928E-02 0. -1.
       -1    1    3    3    0  502  0.15722006183E+04 -0.51829895565E+03  0.12675200718E+04  0.20849594058E+04  0.50400001928E-02 0.  1.
</event>
<event>
 5   0  0.5533705E-07  0.3870393E+04  0.7818609E-02  0.8031215E-01
       -2   -1    0    0    0  501  0.00000000000E+00  0.00000000000E+00  0.16201962118E+04  0.16201962118E+04  0.25500000920E-02 0. -1.
        2   -1    0    0  501    0  0.00000000000E+00  0.00000000000E+00 -0.23114393083E+04  0.23114393083E+04  0.25500000920E-02 0.  1.
    10030    2    1    2    0    0  0.00000000000E+00  0.00000000000E+00 -0.69124309646E+03  0.39316355201E+04  0.38703928540E+04 0.  0.
        1    1    3    3  502    0 -0.18485285115E+04  0.56870565722E+03 -0.27746722777E+03  0.19538351631E+04  0.50400001928E-02 0.  1.
       -1    1    3    3    0  502  0.18485285115E+04 -0.56870565722E+03 -0.41377586869E+03  0.19778003569E+04  0.50400001928E-02 0. -1.
</event>
<event>
 5   0  0.1034683E-06  0.1927790E+04  0.7818609E-02  0.8641146E-01
        2   -1    0    0  501    0  0.00000000000E+00  0.00000000000E+00  0.70554368254E+03  0.70554368255E+03  0.25500000920E-02 0. -1.
       -2   -1    0    0    0  501  0.00000000000E+00  0.00000000000E+00 -0.13168476782E+04  0.13168476782E+04  0.25500000920E-02 0.  1.
    10030    2    1    2    0    0  0.00000000000E+00  0.00000000000E+00 -0.61130399561E+03  0.20223913607E+04  0.19277899888E+04 0.  0.
        2    1    3    3  502    0 -0.34967302405E+03  0.20017656052E+03 -0.12242655520E+04  0.12888630730E+04  0.25500000920E-02 0.  1.
       -2    1    3    3    0  502  0.34967302405E+03 -0.20017656052E+03  0.61296155643E+03  0.73352828766E+03  0.25500000920E-02 0. -1.
</event>
<event>
 5   0  0.4316671E-07  0.3971756E+04  0.7818609E-02  0.8010269E-01
        1   -1    0    0  501    0  0.00000000000E+00  0.00000000000E+00  0.14791581210E+04  0.14791581210E+04  0.50400001928E-02 0. -1.
       -1   -1    0    0    0  501  0.00000000000E+00  0.00000000000E+00 -0.26661862719E+04  0.26661862719E+04  0.50400001928E-02 0.  1.
    10030    2    1    2    0    0  0.00000000000E+00  0.00000000000E+00 -0.11870281508E+04  0.41453443929E+04  0.39717558214E+04 0.  0.
        2    1    3    3  502    0  0.16334409746E+04  0.24597055075E+03 -0.17439979584E+04  0.24021156942E+04  0.25500000920E-02 0.  1.
       -2    1    3    3    0  502 -0.16334409746E+04 -0.24597055075E+03  0.55696980756E+03  0.17432286987E+04  0.25500000920E-02 0. -1.
</event>
<event>
 5   0  0.7268013E-07  0.3672323E+04  0.7818609E-02  0.8074123E-01
        2   -1    0    0  501    0  0.00000000000E+00  0.00000000000E+00  0.17695424523E+04  0.17695424523E+04  0.25500000920E-02 0.  1.
       -2   -1    0    0    0  501  0.00000000000E+00  0.00000000000E+00 -0.19052888567E+04  0.19052888567E+04  0.25500000920E-02 0. -1.
    10030    2    1    2    0    0  0.00000000000E+00  0.00000000000E+00 -0.13574640440E+03  0.36748313090E+04  0.36723232515E+04 0.  0.
        4    1    3    3  502    0  0.10211219318E+04 -0.10396306158E+04  0.10500137756E+04  0.17961214766E+04  0.12699999809E+01 0.  1.
       -4    1    3    3    0  502 -0.10211219318E+04  0.10396306158E+04 -0.11857601800E+04  0.18787098324E+04  0.12699999809E+01 0. -1.
</event>
<event>
 5   0  0.1034683E-06  0.2567672E+04  0.7818609E-02  0.8379266E-01
       -2   -1    0    0    0  501  0.00000000000E+00  0.00000000000E+00  0.77190607255E+03  0.77190607255E+03  0.25500000920E-02 0. -1.
        2   -1    0    0  501    0  0.00000000000E+00  0.00000000000E+00 -0.21352792832E+04  0.21352792832E+04  0.25500000920E-02 0.  1.
    10030    2    1    2    0    0  0.00000000000E+00  0.00000000000E+00 -0.13633732106E+04  0.29071853557E+04  0.25676721327E+04 0.  0.
        2    1    3    3  502    0 -0.13789500522E+03  0.64410754842E+03  0.56599647229E+03  0.86847082452E+03  0.25500000920E-02 0. -1.
       -2    1    3    3    0  502  0.13789500522E+03 -0.64410754842E+03 -0.19293696829E+04  0.20387145312E+04  0.25500000920E-02 0.  1.
</event>
<event>
 5   0  0.7268013E-07  0.3761860E+04  0.7818609E-02  0.8054390E-01
       -2   -1    0    0    0  501  0.00000000000E+00  0.00000000000E+00  0.15781017295E+04  0.15781017295E+04  0.25500000920E-02 0. -1.
        2   -1    0    0  501    0  0.00000000000E+00  0.00000000000E+00 -0.22418687333E+04  0.22418687333E+04  0.25500000920E-02 0.  1.
    10030    2    1    2    0    0  0.00000000000E+00  0.00000000000E+00 -0.66376700379E+03  0.38199704628E+04  0.37618596068E+04 0.  0.
        4    1    3    3  502    0  0.13306766710E+04  0.11474974211E+04  0.34963571024E+03  0.17915628588E+04  0.12699999809E+01 0. -1.
       -4    1    3    3    0  502 -0.13306766710E+04 -0.11474974211E+04 -0.10134027140E+04  0.20284076040E+04  0.12699999809E+01 0.  1.
</event>
<event>
 5   0  0.5533705E-07  0.2279650E+04  0.7818609E-02  0.8485988E-01
        2   -1    0    0  501    0  0.00000000000E+00  0.00000000000E+00  0.25516414133E+04  0.25516414133E+04  0.25500000920E-02 0.  1.
       -2   -1    0    0    0  501  0.00000000000E+00  0.00000000000E+00 -0.50916269084E+03  0.50916269085E+03  0.25500000920E-02 0. -1.
    10030    2    1    2    0    0  0.00000000000E+00  0.00000000000E+00  0.20424787224E+04  0.30608041041E+04  0.22796496293E+04 0.  0.
        1    1    3    3  502    0 -0.10498081619E+04 -0.23313002016E+03  0.51394351236E+03  0.11918828453E+04  0.50400001928E-02 0. -1.
       -1    1    3    3    0  502  0.10498081619E+04  0.23313002016E+03  0.15285352101E+04  0.18689212588E+04  0.50400001928E-02 0.  1.
</event>
<event>
 5   0  0.1035864E-06  0.3666720E+04  0.7818609E-02  0.8075377E-01
        2   -1    0    0  501    0  0.00000000000E+00  0.00000000000E+00  0.22471139008E+04  0.22471139008E+04  0.25500000920E-02 0. -1.
       -2   -1    0    0    0  501  0.00000000000E+00  0.00000000000E+00 -0.14957893760E+04  0.14957893760E+04  0.25500000920E-02 0.  1.
    10030    2    1    2    0    0  0.00000000000E+00  0.00000000000E+00  0.75132452483E+03  0.37429032768E+04  0.36667201145E+04 0.  0.
        5    1    3    3  502    0  0.12846621977E+04 -0.13757635531E+03 -0.95209457681E+03  0.16049269108E+04  0.46999998093E+01 0. -1.
       -5    1    3    3    0  502 -0.12846621977E+04  0.13757635531E+03  0.17034191016E+04  0.21379763660E+04  0.46999998093E+01 0.  1.
</event>
<event>
 5   0  0.5533705E-07  0.2202867E+04  0.7818609E-02  0.8517236E-01
        2   -1    0    0  501    0  0.00000000000E+00  0.00000000000E+00  0.19158300165E+04  0.19158300165E+04  0.25500000920E-02 0. -1.
       -2   -1    0    0    0  501  0.00000000000E+00  0.00000000000E+00 -0.63322732882E+03  0.63322732883E+03  0.25500000920E-02 0.  1.
    10030    2    1    2    0    0  0.00000000000E+00  0.00000000000E+00  0.12826026877E+04  0.25490573453E+04  0.22028671534E+04 0.  0.
        1    1    3    3  502    0  0.29297215952E+02 -0.57998508762E+03 -0.44168318959E+03  0.72960610518E+03  0.50400001928E-02 0.  1.
       -1    1    3    3    0  502 -0.29297215952E+02  0.57998508762E+03  0.17242858773E+04  0.18194512402E+04  0.50400001928E-02 0. -1.
</event>
<event>
 5   0  0.7268013E-07  0.2478538E+04  0.7818609E-02  0.8410672E-01
       -2   -1    0    0    0  501  0.00000000000E+00  0.00000000000E+00  0.11101918437E+04  0.11101918437E+04  0.25500000920E-02 0.  1.
        2   -1    0    0  501    0  0.00000000000E+00  0.00000000000E+00 -0.13833535133E+04  0.13833535133E+04  0.25500000920E-02 0. -1.
    10030    2    1    2    0    0  0.00000000000E+00  0.00000000000E+00 -0.27316166967E+03  0.24935453570E+04  0.24785381074E+04 0.  0.
        4    1    3    3  502    0 -0.91573810663E+03 -0.81273011892E+03  0.56098107504E+02  0.12256651813E+04  0.12699999809E+01 0.  1.
       -4    1    3    3    0  502  0.91573810663E+03  0.81273011892E+03 -0.32925977717E+03  0.12678801757E+04  0.12699999809E+01 0. -1.
</event>
<event>
 5   0  0.3977376E-07  0.2219384E+04  0.7818609E-02  0.8510403E-01
        1   -1    0    0  501    0  0.00000000000E+00  0.00000000000E+00  0.74661043289E+03  0.74661043291E+03  0.50400001928E-02 0. -1.
       -1   -1    0    0    0  501  0.00000000000E+00  0.00000000000E+00 -0.16493419916E+04  0.16493419916E+04  0.50400001928E-02 0.  1.
    10030    2    1    2    0    0  0.00000000000E+00  0.00000000000E+00 -0.90273155866E+03  0.23959524245E+04  0.22193836427E+04 0.  0.
        4    1    3    3  502    0 -0.20515612894E+03 -0.10810724837E+04 -0.60633991950E+03  0.12563663729E+04  0.12699999809E+01 0. -1.
       -4    1    3    3    0  502  0.20515612894E+03  0.10810724837E+04 -0.29639163917E+03  0.11395860515E+04  0.12699999809E+01 0.  1.
</event>
<event>
 5   0  0.1035864E-06  0.3839372E+04  0.7818609E-02  0.8037758E-01
        2   -1    0    0  501    0  0.00000000000E+00  0.00000000000E+00  0.25305781271E+04  0.25305781271E+04  0.25500000920E-02 0.  1.
       -2   -1    0    0    0  501  0.00000000000E+00  0.00000000000E+00 -0.14562655568E+04  0.14562655568E+04  0.25500000920E-02 0. -1.
    10030    2    1    2    0    0  0.00000000000E+00  0.00000000000E+00  0.10743125703E+04  0.39868436839E+04  0.38393717013E+04 0.  0.
        5    1    3    3  502    0 -0.16137626780E+04 -0.59596436768E+03  0.14217992057E+04  0.22318016444E+04  0.46999998093E+01 0.  1.
       -5    1    3    3    0  502  0.16137626780E+04  0.59596436768E+03 -0.34748663546E+03  0.17550420395E+04  0.46999998093E+01 0. -1.
</event>
<event>
 5   0  0.3471602E-07  0.2315573E+04  0.7818609E-02  0.8471806E-01
        1   -1    0    0  501    0  0.00000000000E+00  0.00000000000E+00  0.12748144852E+04  0.12748144852E+04  0.50400001928E-02 0. -1.
       -1   -1    0    0    0  501  0.00000000000E+00  0.00000000000E+00 -0.10515019776E+04  0.10515019776E+04  0.50400001928E-02 0.  1.
    10030    2    1    2    0    0  0.00000000000E+00  0.00000000000E+00  0.22331250752E+03  0.23263164628E+04  0.23155733219E+04 0.  0.
        5    1    3    3  502    0  0.19600754785E+03 -0.64791055296E+03  0.10552907969E+04  0.12537415202E+04  0.46999998093E+01 0. -1.
       -5    1    3    3    0  502 -0.19600754785E+03  0.64791055296E+03 -0.83197828939E+03  0.10725749426E+04  0.46999998093E+01 0.  1.
</event>
<event>
 5   0  0.4627905E-07  0.3911480E+04  0.7818609E-02  0.8022646E-01
        1   -1    0    0  501    0  0.00000000000E+00  0.00000000000E+00  0.22550006968E+04  0.22550006968E+04  0.50400001928E-02 0. -1.
       -1   -1    0    0    0  501  0.00000000000E+00  0.00000000000E+00 -0.16961941657E+04  0.16961941657E+04  0.50400001928E-02 0.  1.
    10030    2    1    2    0    0  0.00000000000E+00  0.00000000000E+00  0.55880653107E+03  0.39511948626E+04  0.39114800399E+04 0.  0.
        1    1    3    3  502    0 -0.25007835102E+03 -0.11415926888E+03  0.22353867224E+04  0.22522267468E+04  0.50400001928E-02 0. -1.
       -1    1    3    3    0  502  0.25007835102E+03  0.11415926888E+03 -0.16765801913E+04  0.16989681157E+04  0.50400001928E-02 0.  1.
</event>
<event>
 5   0  0.7268013E-07  0.2760571E+04  0.7818609E-02  0.8315615E-01
       -2   -1    0    0    0  501  0.00000000000E+00  0.00000000000E+00  0.10855516176E+04  0.10855516176E+04  0.25500000920E-02 0. -1.
        2   -1    0    0  501    0  0.00000000000E+00  0.00000000000E+00 -0.17550412024E+04  0.17550412024E+04  0.25500000920E-02 0.  1.
    10030    2    1    2    0    0  0.00000000000E+00  0.00000000000E+00 -0.66948958483E+03  0.28405928200E+04  0.27605708223E+04 0.  0.
        4    1    3    3  502    0 -0.76333579281E+03  0.49841297063E+03 -0.14011696576E+04  0.16716384310E+04  0.12699999809E+01 0.  1.
       -4    1    3    3    0  502  0.76333579281E+03 -0.49841297063E+03  0.73168007274E+03  0.11689543890E+04  0.12699999809E+01 0. -1.
</event>
<event>
 5   0  0.4627905E-07  0.3899410E+04  0.7818609E-02  0.8025152E-01
       -1   -1    0    0    0  501  0.00000000000E+00  0.00000000000E+00  0.18919112407E+04  0.18919112407E+04  0.50400001928E-02 0. -1.
        1   -1    0    0  501    0  0.00000000000E+00  0.00000000000E+00 -0.20092639247E+04  0.20092639247E+04  0.50400001928E-02 0.  1.
    10030    2    1    2    0    0  0.00000000000E+00  0.00000000000E+00 -0.11735268395E+03  0.39011751654E+04  0.38994097013E+04 0.  0.
        1    1    3    3  502    0 -0.19359109831E+04  0.22201013268E+03 -0.12435033917E+03  0.19525631463E+04  0.50400001928E-02 0.  1.
       -1    1    3    3    0  502  0.19359109831E+04 -0.22201013268E+03  0.69976552144E+01  0.19486120190E+04  0.50400001928E-02 0. -1.
</event>
<event>
 5   0  0.1015219E-06  0.3827963E+04  0.7818609E-02  0.8040181E-01
       -2   -1    0    0    0  501  0.00000000000E+00  0.00000000000E+00  0.30088747788E+04  0.30088747788E+04  0.25500000920E-02 0.  1.
        2   -1    0    0  501    0  0.00000000000E+00  0.00000000000E+00 -0.12175069539E+04  0.12175069539E+04  0.25500000920E-02 0. -1.
    10030    2    1    2    0    0  0.00000000000E+00  0.00000000000E+00  0.17913678248E+04  0.42263817327E+04  0.38279634098E+04 0.  0.
        3    1    3    3  502    0 -0.12637495964E+04 -0.13538196664E+04  0.14291221436E+04  0.23392906709E+04  0.10100000352E+00 0.  1.
       -3    1    3    3    0  502  0.12637495964E+04  0.13538196664E+04  0.36224568120E+03  0.18870910618E+04  0.10100000352E+00 0. -1.
</event>
<event>
 5   0  0.1015219E-06  0.2900949E+04  0.7818609E-02  0.8272595E-01
       -2   -1    0    0    0  501  0.00000000000E+00  0.00000000000E+00  0.11806332957E+04  0.11806332957E+04  0.25500000920E-02 0. -1.
        2   -1    0    0  501    0  0.00000000000E+00  0.00000000000E+00 -0.17819891340E+04  0.17819891340E+04  0.25500000920E-02 0.  1.
    10030    2    1    2    0    0  0.00000000000E+00  0.00000000000E+00 -0.60135583828E+03  0.29626224297E+04  0.29009486063E+04 0.  0.
        3    1    3    3  502    0  0.10294347810E+04  0.93795604054E+03 -0.71473324067E+03  0.15653565466E+04  0.10100000352E+00 0.  1.
       -3    1    3    3    0  502 -0.10294347810E+04 -0.93795604054E+03  0.11337740239E+03  0.13972658831E+04  0.10100000352E+00 0. -1.
</event>
<event>
 5   0  0.1015219E-06  0.2495328E+04  0.7818609E-02  0.8404652E-01
       -2   -1    0    0    0  501  0.00000000000E+00  0.00000000000E+00  0.10043183832E+04  0.10043183832E+04  0.25500000920E-02 0.  1.
        2   -1    0    0  501    0  0.00000000000E+00  0.00000000000E+00 -0.15499715752E+04  0.15499715752E+04  0.25500000920E-02 0. -1.
    10030    2    1    2    0    0  0.00000000000E+00  0.00000000000E+00 -0.54565319198E+03  0.25542899584E+04  0.24953275908E+04 0.  0.
        3    1    3    3  502    0  0.69749827600E+03  0.24246403607E+03 -0.13022597499E+04  0.14970548154E+04  0.10100000352E+00 0. -1.
       -3    1    3    3    0  502 -0.69749827600E+03 -0.24246403607E+03  0.75660655795E+03  0.10572351430E+04  0.10100000352E+00 0.  1.
</event>
<event>
 5   0  0.1034683E-06  0.3918728E+04  0.7818609E-02  0.8021145E-01
        2   -1    0    0  501    0  0.00000000000E+00  0.00000000000E+00  0.14784786252E+04  0.14784786252E+04  0.25500000920E-02 0. -1.
       -2   -1    0    0    0  501  0.00000000000E+00  0.00000000000E+00 -0.25966608181E+04  0.25966608181E+04  0.25500000920E-02 0.  1.
    10030    2    1    2    0    0  0.00000000000E+00  0.00000000000E+00 -0.11181821929E+04  0.40751394433E+04  0.39187281184E+04 0.  0.
        2    1    3    3  502    0 -0.16299765667E+04 -0.36616141044E+03 -0.16237768289E+04  0.23297100628E+04  0.25500000920E-02 0.  1.
       -2    1    3    3    0  502  0.16299765667E+04  0.36616141044E+03  0.50559463601E+03  0.17454293806E+04  0.25500000920E-02 0. -1.
</event>
<event>
 5   0  0.3977376E-07  0.2032828E+04  0.7818609E-02  0.8591424E-01
        1   -1    0    0  501    0  0.00000000000E+00  0.00000000000E+00  0.97914067735E+03  0.97914067736E+03  0.50400001928E-02 0. -1.
       -1   -1    0    0    0  501  0.00000000000E+00  0.00000000000E+00 -0.10551064624E+04  0.10551064624E+04  0.50400001928E-02 0.  1.
    10030    2    1    2    0    0  0.00000000000E+00  0.00000000000E+00 -0.75965785048E+02  0.20342471398E+04  0.20328282331E+04 0.  0.
        4    1    3    3  502    0  0.31137556867E+03  0.55098489570E+03  0.75790673324E+03  0.98740231377E+03  0.12699999809E+01 0. -1.
       -4    1    3    3    0  502 -0.31137556867E+03 -0.55098489570E+03 -0.83387251829E+03  0.10468448260E+04  0.12699999809E+01 0.  1.
</event>
<event>
 5   0  0.7268013E-07  0.2206418E+04  0.7818609E-02  0.8515762E-01
        2   -1    0    0  501    0  0.00000000000E+00  0.00000000000E+00  0.18114452834E+04  0.18114452834E+04  0.25500000920E-02 0.  1.
       -2   -1    0    0    0  501  0.00000000000E+00  0.00000000000E+00 -0.67187768084E+03  0.67187768085E+03  0.25500000920E-02 0. -1.
    10030    2    1    2    0    0  0.00000000000E+00  0.00000000000E+00  0.11395676025E+04  0.24833229642E+04  0.22064175996E+04 0.  0.
        4    1    3    3  502    0 -0.41370266042E+03  0.10011550171E+04  0.80481337819E+03  0.13495137814E+04  0.12699999809E+01 0. -1.
       -4    1    3    3    0  502  0.41370266042E+03 -0.10011550171E+04  0.33475422435E+03  0.11338091829E+04  0.12699999809E+01 0.  1.
</event>
<event>
 5   0  0.1015219E-06  0.2065224E+04  0.7818609E-02  0.8576719E-01
       -2   -1    0    0    0  501  0.00000000000E+00  0.00000000000E+00  0.14294135555E+04  0.14294135555E+04  0.25500000920E-02 0. -1.
        2   -1    0    0  501    0  0.00000000000E+00  0.00000000000E+00 -0.74596175764E+03  0.74596175765E+03  0.25500000920E-02 0.  1.
    10030    2    1    2    0    0  0.00000000000E+00  0.00000000000E+00  0.68345179789E+03  0.21753753132E+04  0.20652242961E+04 0.  0.
        3    1    3    3  502    0  0.35756779858E+03  0.65269056596E+03 -0.41229512024E+03  0.85079197331E+03  0.10100000352E+00 0.  1.
       -3    1    3    3    0  502 -0.35756779858E+03 -0.65269056596E+03  0.10957469181E+04  0.13245833399E+04  0.10100000352E+00 0. -1.
</event>
<event>
 5   0  0.7268013E-07  0.2655574E+04  0.7818609E-02  0.8349565E-01
        2   -1    0    0  501    0  0.00000000000E+00  0.00000000000E+00  0.24684358127E+04  0.24684358127E+04  0.25500000920E-02 0.  1.
       -2   -1    0    0    0  501  0.00000000000E+00  0.00000000000E+00 -0.71422489130E+03  0.71422489131E+03  0.25500000920E-02 0. -1.
    10030    2    1    2    0    0  0.00000000000E+00  0.00000000000E+00  0.17542109214E+04  0.31826607040E+04  0.26555739869E+04 0.  0.
        4    1    3    3  502    0 -0.67172246884E+03 -0.74704171561E+03  0.19176030348E+04  0.21648291877E+04  0.12699999809E+01 0.  1.
       -4    1    3    3    0  502  0.67172246884E+03  0.74704171561E+03 -0.16339211338E+03  0.10178315163E+04  0.12699999809E+01 0. -1.
</event>
<event>
 5   0  0.5533705E-07  0.3770444E+04  0.7818609E-02  0.8052527E-01
       -2   -1    0    0    0  501  0.00000000000E+00  0.00000000000E+00  0.18503437398E+04  0.18503437398E+04  0.25500000920E-02 0.  1.
        2   -1    0    0  501    0  0.00000000000E+00  0.00000000000E+00 -0.19207574021E+04  0.19207574021E+04  0.25500000920E-02 0. -1.
    10030    2    1    2    0    0  0.00000000000E+00  0.00000000000E+00 -0.70413662291E+02  0.37711011420E+04  0.37704437059E+04 0.  0.
        1    1    3    3  502    0  0.80719548722E+03 -0.10872234253E+04  0.12766781212E+04  0.18610551728E+04  0.50400001928E-02 0. -1.
       -1    1    3    3    0  502 -0.80719548722E+03  0.10872234253E+04 -0.13470917835E+04  0.19100459692E+04  0.50400001928E-02 0.  1.
</event>
<event>
 5   0  0.1015219E-06  0.3545384E+04  0.7818609E-02  0.8103118E-01
       -2   -1    0    0    0  501  0.00000000000E+00  0.00000000000E+00  0.16698112367E+04  0.16698112367E+04  0.25500000920E-02 0.  1.
        2   -1    0    0  501    0  0.00000000000E+00  0.00000000000E+00 -0.18819118279E+04  0.18819118279E+04  0.25500000920E-02 0. -1.
    10030    2    1    2    0    0  0.00000000000E+00  0.00000000000E+00 -0.21210059121E+03  0.35517230646E+04  0.35453843327E+04 0.  0.
        3    1    3    3  502    0  0.51383295129E+03 -0.16579037100E+03 -0.17975378411E+04  0.18768732108E+04  0.10100000352E+00 0. -1.
       -3    1    3    3    0  502 -0.51383295129E+03  0.16579037100E+03  0.15854372499E+04  0.16748498537E+04  0.10100000352E+00 0.  1.
</event>
<event>
 5   0  0.3977376E-07  0.3875122E+04  0.7818609E-02  0.8030223E-01
       -1   -1    0    0    0  501  0.00000000000E+00  0.00000000000E+00  0.14801259747E+04  0.14801259747E+04  0.50400001928E-02 0. -1.
        1   -1    0    0  501    0  0.00000000000E+00  0.00000000000E+00 -0.25363664986E+04  0.25363664986E+04  0.50400001928E-02 0.  1.
    10030    2    1    2    0    0  0.00000000000E+00  0.00000000000E+00 -0.10562405239E+04  0.40164924733E+04  0.38751216424E+04 0.  0.
        4    1    3    3  502    0  0.18344430806E+04 -0.21305466593E+03  0.79408854220E+02  0.18484807506E+04  0.12699999809E+01 0. -1.
       -4    1    3    3    0  502 -0.18344430806E+04  0.21305466593E+03 -0.11356493781E+04  0.21680117226E+04  0.12699999809E+01 0.  1.
</event>
<event>
 5   0  0.8161983E-07  0.2005189E+04  0.7818609E-02  0.8604198E-01
        1   -1    0    0  501    0  0.00000000000E+00  0.00000000000E+00  0.16666345431E+04  0.16666345431E+04  0.50400001928E-02 0. -1.
       -1   -1    0    0    0  501  0.00000000000E+00  0.00000000000E+00 -0.60312933996E+03  0.60312933998E+03  0.50400001928E-02 0.  1.
    10030    2    1    2    0    0  0.00000000000E+00  0.00000000000E+00  0.10635052031E+04  0.22697638831E+04  0.20051894593E+04 0.  0.
        3    1    3    3  502    0  0.52403832635E+03  0.25552686317E+03  0.14550241920E+04  0.15674838292E+04  0.10100000352E+00 0. -1.
       -3    1    3    3    0  502 -0.52403832635E+03 -0.25552686317E+03 -0.39151898885E+03  0.70228005390E+03  0.10100000352E+00 0.  1.
</event>
<event>
 5   0  0.3471602E-07  0.1977943E+04  0.7818609E-02  0.8617003E-01
       -1   -1    0    0    0  501  0.00000000000E+00  0.00000000000E+00  0.14093342717E+04  0.14093342717E+04  0.50400001928E-02 0.  1.
        1   -1    0    0  501    0  0.00000000000E+00  0.00000000000E+00 -0.69399048803E+03  0.69399048805E+03  0.50400001928E-02 0. -1.
    10030    2    1    2    0    0  0.00000000000E+00  0.00000000000E+00  0.71534378371E+03  0.21033247598E+04  0.19779429507E+04 0.  0.
        5    1    3    3  502    0 -0.67895483432E+03  0.54791630586E+03  0.85286299217E+03  0.12200775872E+04  0.46999998093E+01 0.  1.
       -5    1    3    3    0  502  0.67895483432E+03 -0.54791630586E+03 -0.13751920847E+03  0.88324717263E+03  0.46999998093E+01 0. -1.
</event>
<event>
 5   0  0.5533705E-07  0.3935325E+04  0.7818609E-02  0.8017722E-01
        2   -1    0    0  501    0  0.00000000000E+00  0.00000000000E+00  0.31331152817E+04  0.31331152817E+04  0.25500000920E-02 0.  1.
       -2   -1    0    0    0  501  0.00000000000E+00  0.00000000000E+00 -0.12357336621E+04  0.12357336621E+04  0.25500000920E-02 0. -1.
    10030    2    1    2    0    0  0.00000000000E+00  0.00000000000E+00  0.18973816196E+04  0.43688489438E+04  0.39353251560E+04 0.  0.
        1    1    3    3  502    0 -0.80840535026E+03  0.11198371195E+03  0.29363574168E+04  0.30476637678E+04  0.50400001928E-02 0.  1.
       -1    1    3    3    0  502  0.80840535026E+03 -0.11198371195E+03 -0.10389757972E+04  0.13211851760E+04  0.50400001928E-02 0. -1.
</event>
<event>
 5   0  0.1015219E-06  0.3894955E+04  0.7818609E-02  0.8026079E-01
        2   -1    0    0  501    0  0.00000000000E+00  0.00000000000E+00  0.30231190703E+04  0.30231190703E+04  0.25500000920E-02 0.  1.
       -2   -1    0    0    0  501  0.00000000000E+00  0.00000000000E+00 -0.12545549657E+04  0.12545549657E+04  0.25500000920E-02 0. -1.
    10030    2    1    2    0    0  0.00000000000E+00  0.00000000000E+00  0.17685641046E+04  0.42776740360E+04  0.38949552201E+04 0.  0.
        3    1    3    3  502    0  0.95177541561E+03 -0.87218502233E+03  0.24856665500E+04  0.28009143798E+04  0.10100000352E+00 0.  1.
       -3    1    3    3    0  502 -0.95177541561E+03  0.87218502233E+03 -0.71710244537E+03  0.14767596562E+04  0.10100000352E+00 0. -1.
</event>
<event>
 5   0  0.3471602E-07  0.3835690E+04  0.7818609E-02  0.8038539E-01
       -1   -1    0    0    0  501  0.00000000000E+00  0.00000000000E+00  0.13357949430E+04  0.13357949430E+04  0.50400001928E-02 0. -1.
        1   -1    0    0  501    0  0.00000000000E+00  0.00000000000E+00 -0.27535131609E+04  0.27535131609E+04  0.50400001928E-02 0.  1.
    10030    2    1    2    0    0  0.00000000000E+00  0.00000000000E+00 -0.14177182179E+04  0.40893081038E+04  0.38356897454E+04 0.  0.
        5    1    3    3  502    0  0.45865334176E+03  0.14892424903E+04 -0.19007709430E+04  0.24578767973E+04  0.46999998093E+01 0.  1.
       -5    1    3    3    0  502 -0.45865334176E+03 -0.14892424903E+04  0.48305272512E+03  0.16314313066E+04  0.46999998093E+01 0. -1.
</event>
<event>
 5   0  0.4627905E-07  0.2174846E+04  0.7818609E-02  0.8528971E-01
        1   -1    0    0  501    0  0.00000000000E+00  0.00000000000E+00  0.90016809866E+03  0.90016809867E+03  0.50400001928E-02 0. -1.
       -1   -1    0    0    0  501  0.00000000000E+00  0.00000000000E+00 -0.13136310930E+04  0.13136310930E+04  0.50400001928E-02 0.  1.
    10030    2    1    2    0    0  0.00000000000E+00  0.00000000000E+00 -0.41346299437E+03  0.22137991917E+04  0.21748460206E+04 0.  0.
        1    1    3    3  502    0 -0.22423445204E+03  0.33688946081E+03  0.82065931633E+03  0.91501765654E+03  0.50400001928E-02 0. -1.
       -1    1    3    3    0  502  0.22423445204E+03 -0.33688946081E+03 -0.12341223107E+04  0.12987815352E+04  0.50400001928E-02 0.  1.
</event>
<event>
 5   0  0.7268013E-07  0.3304993E+04  0.7818609E-02  0.8161626E-01
       -2   -1    0    0    0  501  0.00000000000E+00  0.00000000000E+00  0.12246669501E+04  0.12246669501E+04  0.25500000920E-02 0.  1.
        2   -1    0    0  501    0  0.00000000000E+00  0.00000000000E+00 -0.22297861723E+04  0.22297861723E+04  0.25500000920E-02 0. -1.
    10030    2    1    2    0    0  0.00000000000E+00  0.00000000000E+00 -0.10051192222E+04  0.34544531224E+04  0.33049934530E+04 0.  0.
        4    1    3    3  502    0 -0.15437258746E+04  0.50472095425E+03 -0.82115704144E+03  0.18199267340E+04  0.12699999809E+01 0. -1.
       -4    1    3    3    0  502  0.15437258746E+04 -0.50472095425E+03 -0.18396218072E+03  0.16345263884E+04  0.12699999809E+01 0.  1.
</event>
<event>
 5   0  0.3977376E-07  0.3910014E+04  0.7818609E-02  0.8022950E-01
       -1   -1    0    0    0  501  0.00000000000E+00  0.00000000000E+00  0.25924840777E+04  0.25924840777E+04  0.50400001928E-02 0. -1.
        1   -1    0    0  501    0  0.00000000000E+00  0.00000000000E+00 -0.14742817577E+04  0.14742817577E+04  0.50400001928E-02 0.  1.
    10030    2    1    2    0    0  0.00000000000E+00  0.00000000000E+00  0.11182023200E+04  0.40667658354E+04  0.39100138019E+04 0.  0.
        4    1    3    3  502    0  0.62176829331E+03 -0.54136039746E+03 -0.12846421923E+04  0.15264252571E+04  0.12699999809E+01 0.  1.
       -4    1    3    3    0  502 -0.62176829331E+03  0.54136039746E+03  0.24028445122E+04  0.25403405782E+04  0.12699999809E+01 0. -1.
</event>
<event>
 5   0  0.7268013E-07  0.3615605E+04  0.7818609E-02  0.8086927E-01
       -2   -1    0    0    0  501  0.00000000000E+00  0.00000000000E+00  0.16006495473E+04  0.16006495473E+04  0.25500000920E-02 0. -1.
        2   -1    0    0  501    0  0.00000000000E+00  0.00000000000E+00 -0.20417648230E+04  0.20417648230E+04  0.25500000920E-02 0.  1.
    10030    2    1    2    0    0  0.00000000000E+00  0.00000000000E+00 -0.44111527568E+03  0.36424143703E+04  0.36156050335E+04 0.  0.
        4    1    3    3  502    0  0.49641659797E+03  0.10356828372E+04 -0.16270040685E+04  0.19915351440E+04  0.12699999809E+01 0.  1.
       -4    1    3    3    0  502 -0.49641659797E+03 -0.10356828372E+04  0.11858887928E+04  0.16508792263E+04  0.12699999809E+01 0. -1.
</event>
<event>
 5   0  0.5533705E-07  0.3927262E+04  0.7818609E-02  0.8019383E-01
       -2   -1    0    0    0  501  0.00000000000E+00  0.00000000000E+00  0.31464425474E+04  0.31464425474E+04  0.25500000920E-02 0.  1.
        2   -1    0    0  501    0  0.00000000000E+00  0.00000000000E+00 -0.12254620702E+04  0.12254620702E+04  0.25500000920E-02 0. -1.
    10030    2    1    2    0    0  0.00000000000E+00  0.00000000000E+00  0.19209804772E+04  0.43719046175E+04  0.39272616402E+04 0.  0.
        1    1    3    3  502    0  0.15810770679E+04 -0.79097799818E+02 -0.33285097175E+03  0.16176683610E+04  0.50400001928E-02 0. -1.
       -1    1    3    3    0  502 -0.15810770679E+04  0.79097799818E+02  0.22538314490E+04  0.27542362566E+04  0.50400001928E-02 0.  1.
</event>
<event>
 5   0  0.1220671E-06  0.1979347E+04  0.7818609E-02  0.8616338E-01
        2   -1    0    0  501    0  0.00000000000E+00  0.00000000000E+00  0.15137593880E+04  0.15137593880E+04  0.25500000920E-02 0. -1.
       -2   -1    0    0    0  501  0.00000000000E+00  0.00000000000E+00 -0.64703408010E+03  0.64703408010E+03  0.25500000920E-02 0.  1.
    10030    2    1    2    0    0  0.00000000000E+00  0.00000000000E+00  0.86672530792E+03  0.21607934681E+04  0.19793472794E+04 0.  0.
        5    1    3    3  502    0  0.77091381735E+03  0.42513932679E+03 -0.60164139949E+02  0.88243604567E+03  0.46999998093E+01 0.  1.
       -5    1    3    3    0  502 -0.77091381735E+03 -0.42513932679E+03  0.92688944787E+03  0.12783574224E+04  0.46999998093E+01 0. -1.
</event>
<event>
 5   0  0.5384511E-07  0.2011041E+04  0.7818609E-02  0.8601476E-01
       -1   -1    0    0    0  501  0.00000000000E+00  0.00000000000E+00  0.66914644713E+03  0.66914644714E+03  0.50400001928E-02 0. -1.
        1   -1    0    0  501    0  0.00000000000E+00  0.00000000000E+00 -0.15109865612E+04  0.15109865613E+04  0.50400001928E-02 0.  1.
    10030    2    1    2    0    0  0.00000000000E+00  0.00000000000E+00 -0.84184011412E+03  0.21801330084E+04  0.20110408142E+04 0.  0.
        1    1    3    3  502    0  0.28557096132E+02 -0.43773132703E+03 -0.14017878186E+04  0.14688203808E+04  0.50400001928E-02 0.  1.
       -1    1    3    3    0  502 -0.28557096132E+02  0.43773132703E+03  0.55994770453E+03  0.71131262764E+03  0.50400001928E-02 0. -1.
</event>
<event>
 5   0  0.7268013E-07  0.3796819E+04  0.7818609E-02  0.8046838E-01
       -2   -1    0    0    0  501  0.00000000000E+00  0.00000000000E+00  0.12755566531E+04  0.12755566531E+04  0.25500000920E-02 0.  1.
        2   -1    0    0  501    0  0.00000000000E+00  0.00000000000E+00 -0.28254009473E+04  0.28254009473E+04  0.25500000920E-02 0. -1.
    10030    2    1    2    0    0  0.00000000000E+00  0.00000000000E+00 -0.15498442941E+04  0.41009576004E+04  0.37968191825E+04 0.  0.
        4    1    3    3  502    0 -0.11726957811E+04 -0.41177158642E+03  0.77501171341E+03  0.14647238659E+04  0.12699999809E+01 0.  1.
       -4    1    3    3    0  502  0.11726957811E+04  0.41177158642E+03 -0.23248560076E+04  0.26362337346E+04  0.12699999809E+01 0. -1.
</event>
<event>
 5   0  0.4316671E-07  0.3128117E+04  0.7818609E-02  0.8208063E-01
       -1   -1    0    0    0  501  0.00000000000E+00  0.00000000000E+00  0.12118633823E+04  0.12118633823E+04  0.50400001928E-02 0.  1.
        1   -1    0    0  501    0  0.00000000000E+00  0.00000000000E+00 -0.20186100824E+04  0.20186100825E+04  0.50400001928E-02 0. -1.
    10030    2    1    2    0    0  0.00000000000E+00  0.00000000000E+00 -0.80674670011E+03  0.32304734648E+04  0.31281174161E+04 0.  0.
        2    1    3    3  502    0 -0.82246560217E+03  0.59480883092E+03  0.82553566940E+03  0.13083410693E+04  0.25500000920E-02 0.  1.
       -2    1    3    3    0  502  0.82246560217E+03 -0.59480883092E+03 -0.16322823695E+04  0.19221323955E+04  0.25500000920E-02 0. -1.
</event>
<event>
 5   0  0.7268013E-07  0.3895333E+04  0.7818609E-02  0.8026001E-01
        2   -1    0    0  501    0  0.00000000000E+00  0.00000000000E+00  0.28752649366E+04  0.28752649366E+04  0.25500000920E-02 0.  1.
       -2   -1    0    0    0  501  0.00000000000E+00  0.00000000000E+00 -0.13193233257E+04  0.13193233257E+04  0.25500000920E-02 0. -1.
    10030    2    1    2    0    0  0.00000000000E+00  0.00000000000E+00  0.15559416109E+04  0.41945882622E+04  0.38953326422E+04 0.  0.
        4    1    3    3  502    0  0.90945801523E+03  0.96967250418E+03  0.23107057628E+04  0.26658472165E+04  0.12699999809E+01 0.  1.
       -4    1    3    3    0  502 -0.90945801523E+03 -0.96967250418E+03 -0.75476415192E+03  0.15287410457E+04  0.12699999809E+01 0. -1.
</event>
<event>
 5   0  0.1035864E-06  0.3362406E+04  0.7818609E-02  0.8147195E-01
        2   -1    0    0  501    0  0.00000000000E+00  0.00000000000E+00  0.14246442655E+04  0.14246442655E+04  0.25500000920E-02 0. -1.
       -2   -1    0    0    0  501  0.00000000000E+00  0.00000000000E+00 -0.19839648281E+04  0.19839648281E+04  0.25500000920E-02 0.  1.
    10030    2    1    2    0    0  0.00000000000E+00  0.00000000000E+00 -0.55932056256E+03  0.34086090936E+04  0.33624063498E+04 0.  0.
        5    1    3    3  502    0  0.38829728444E+03  0.77436408470E+03 -0.17402944675E+04  0.19439808231E+04  0.46999998093E+01 0.  1.
       -5    1    3    3    0  502 -0.38829728444E+03 -0.77436408470E+03  0.11809739049E+04  0.14646282706E+04  0.46999998093E+01 0. -1.
</event>
<event>
 5   0  0.7268013E-07  0.3864098E+04  0.7818609E-02  0.8032538E-01
        2   -1    0    0  501    0  0.00000000000E+00  0.00000000000E+00  0.18795457009E+04  0.18795457009E+04  0.25500000920E-02 0.  1.
       -2   -1    0    0    0  501  0.00000000000E+00  0.00000000000E+00 -0.19860193173E+04  0.19860193173E+04  0.25500000920E-02 0. -1.
    10030    2    1    2    0    0  0.00000000000E+00  0.00000000000E+00 -0.10647361635E+03  0.38655650182E+04  0.38640983785E+04 0.  0.
        4    1    3    3  502    0  0.87924351971E+03  0.14474656396E+04 -0.98342117355E+03  0.19584036260E+04  0.12699999809E+01 0. -1.
       -4    1    3    3    0  502 -0.87924351971E+03 -0.14474656396E+04  0.87694755719E+03  0.19071613922E+04  0.12699999809E+01 0.  1.
</event>
<event>
 5   0  0.4627905E-07  0.3861152E+04  0.7818609E-02  0.8033158E-01
       -1   -1    0    0    0  501  0.00000000000E+00  0.00000000000E+00  0.20468737361E+04  0.20468737362E+04  0.50400001928E-02 0.  1.
        1   -1    0    0  501    0  0.00000000000E+00  0.00000000000E+00 -0.18208858028E+04  0.18208858028E+04  0.50400001928E-02 0. -1.
    10030    2    1    2    0    0  0.00000000000E+00  0.00000000000E+00  0.22598793339E+03  0.38677595389E+04  0.38611518107E+04 0.  0.
        1    1    3    3  502    0  0.11672506383E+02 -0.15939086283E+04  0.12040973721E+04  0.19976314586E+04  0.50400001928E-02 0.  1.
       -1    1    3    3    0  502 -0.11672506383E+02  0.15939086283E+04 -0.97810943871E+03  0.18701280803E+04  0.50400001928E-02 0. -1.
</event>
<event>
 5   0  0.3977376E-07  0.3926601E+04  0.7818609E-02  0.8019519E-01
        1   -1    0    0  501    0  0.00000000000E+00  0.00000000000E+00  0.17328433928E+04  0.17328433928E+04  0.50400001928E-02 0.  1.
       -1   -1    0    0    0  501  0.00000000000E+00  0.00000000000E+00 -0.22244067818E+04  0.22244067818E+04  0.50400001928E-02 0. -1.
    10030    2    1    2    0    0  0.00000000000E+00  0.00000000000E+00 -0.49156338900E+03  0.39572501746E+04  0.39266008683E+04 0.  0.
        4    1    3    3  502    0  0.30528995817E+03  0.16545198913E+04  0.77400048565E+03  0.18519493497E+04  0.12699999809E+01 0.  1.
       -4    1    3    3    0  502 -0.30528995817E+03 -0.16545198913E+04 -0.12655638747E+04  0.21053008248E+04  0.12699999809E+01 0. -1.
</event>
<event>
 5   0  0.5385714E-07  0.3913829E+04  0.7818609E-02  0.8022159E-01
       -1   -1    0    0    0  501  0.00000000000E+00  0.00000000000E+00  0.23059898058E+04  0.23059898058E+04  0.50400001928E-02 0.  1.
        1   -1    0    0  501    0  0.00000000000E+00  0.00000000000E+00 -0.16606814361E+04  0.16606814361E+04  0.50400001928E-02 0. -1.
    10030    2    1    2    0    0  0.00000000000E+00  0.00000000000E+00  0.64530836967E+03  0.39666712419E+04  0.39138290521E+04 0.  0.
        3    1    3    3  502    0  0.14145170334E+04  0.13510149784E+04  0.26343115547E+03  0.19737010648E+04  0.10100000352E+00 0. -1.
       -3    1    3    3    0  502 -0.14145170334E+04 -0.13510149784E+04  0.38187721420E+03  0.19929701770E+04  0.10100000352E+00 0.  1.
</event>
<event>
 5   0  0.5533705E-07  0.3913279E+04  0.7818609E-02  0.8022273E-01
       -2   -1    0    0    0  501  0.00000000000E+00  0.00000000000E+00  0.22174600129E+04  0.22174600129E+04  0.25500000920E-02 0.  1.
        2   -1    0    0  501    0  0.00000000000E+00  0.00000000000E+00 -0.17264973451E+04  0.17264973451E+04  0.25500000920E-02 0. -1.
    10030    2    1    2    0    0  0.00000000000E+00  0.00000000000E+00  0.49096266780E+03  0.39439573580E+04  0.39132793537E+04 0.  0.
        1    1    3    3  502    0  0.80233047687E+03  0.15085891990E+04  0.12062982330E+04  0.20915857602E+04  0.50400001928E-02 0.  1.
       -1    1    3    3    0  502 -0.80233047687E+03 -0.15085891990E+04 -0.71533556516E+03  0.18523715978E+04  0.50400001928E-02 0. -1.
</event>
<event>
 5   0  0.1034683E-06  0.3830228E+04  0.7818609E-02  0.8039699E-01
       -2   -1    0    0    0  501  0.00000000000E+00  0.00000000000E+00  0.18852717650E+04  0.18852717650E+04  0.25500000920E-02 0. -1.
        2   -1    0    0  501    0  0.00000000000E+00  0.00000000000E+00 -0.19454287357E+04  0.19454287357E+04  0.25500000920E-02 0.  1.
    10030    2    1    2    0    0  0.00000000000E+00  0.00000000000E+00 -0.60156970719E+02  0.38307005007E+04  0.38302281218E+04 0.  0.
        2    1    3    3  502    0 -0.92895597190E+03 -0.15917172501E+04 -0.55085266595E+03  0.19235284405E+04  0.25500000920E-02 0.  1.
       -2    1    3    3    0  502  0.92895597190E+03  0.15917172501E+04  0.49069569523E+03  0.19071720602E+04  0.25500000920E-02 0. -1.
</event>
<event>
 5   0  0.4316671E-07  0.3934056E+04  0.7818609E-02  0.8017983E-01
       -1   -1    0    0    0  501  0.00000000000E+00  0.00000000000E+00  0.17573497558E+04  0.17573497558E+04  0.50400001928E-02 0.  1.
        1   -1    0    0  501    0  0.00000000000E+00  0.00000000000E+00 -0.22017239653E+04  0.22017239653E+04  0.50400001928E-02 0. -1.
    10030    2    1    2    0    0  0.00000000000E+00  0.00000000000E+00 -0.44437420951E+03  0.39590737211E+04  0.39340559594E+04 0.  0.
        2    1    3    3  502    0  0.19318680614E+04 -0.15576298737E+03 -0.56021412062E+03  0.20174776767E+04  0.25500000920E-02 0. -1.
       -2    1    3    3    0  502 -0.19318680614E+04  0.15576298737E+03  0.11583991110E+03  0.19415960445E+04  0.25500000920E-02 0.  1.
</event>
<event>
 5   0  0.7268013E-07  0.3594412E+04  0.7818609E-02  0.8091773E-01
       -2   -1    0    0    0  501  0.00000000000E+00  0.00000000000E+00  0.12452262509E+04  0.12452262509E+04  0.25500000920E-02 0. -1.
        2   -1    0    0  501    0  0.00000000000E+00  0.00000000000E+00 -0.25938657845E+04  0.25938657845E+04  0.25500000920E-02 0.  1.
    10030    2    1    2    0    0  0.00000000000E+00  0.00000000000E+00 -0.13486395335E+04  0.38390920354E+04  0.35944122002E+04 0.  0.
        4    1    3    3  502    0  0.11211160195E+04 -0.46745747915E+03  0.74043481382E+03  0.14225550782E+04  0.12699999809E+01 0. -1.
       -4    1    3    3    0  502 -0.11211160195E+04  0.46745747915E+03 -0.20890743474E+04  0.24165369572E+04  0.12699999809E+01 0.  1.
</event>
<event>
 5   0  0.1015219E-06  0.3581133E+04  0.7818609E-02  0.8094827E-01
       -2   -1    0    0    0  501  0.00000000000E+00  0.00000000000E+00  0.20345071493E+04  0.20345071493E+04  0.25500000920E-02 0.  1.
        2   -1    0    0  501    0  0.00000000000E+00  0.00000000000E+00 -0.15758747183E+04  0.15758747183E+04  0.25500000920E-02 0. -1.
    10030    2    1    2    0    0  0.00000000000E+00  0.00000000000E+00  0.45863243092E+03  0.36103818676E+04  0.35811329944E+04 0.  0.
        3    1    3    3  502    0  0.11852171964E+04 -0.18792701455E+03 -0.11104742802E+04  0.16349952608E+04  0.10100000352E+00 0. -1.
       -3    1    3    3    0  502 -0.11852171964E+04  0.18792701455E+03  0.15691067111E+04  0.19753866069E+04  0.10100000352E+00 0.  1.
</event>
<event>
 5   0  0.4316671E-07  0.3864005E+04  0.7818609E-02  0.8032557E-01
       -1   -1    0    0    0  501  0.00000000000E+00  0.00000000000E+00  0.25681613674E+04  0.25681613674E+04  0.50400001928E-02 0.  1.
        1   -1    0    0  501    0  0.00000000000E+00  0.00000000000E+00 -0.14534264446E+04  0.14534264446E+04  0.50400001928E-02 0. -1.
    10030    2    1    2    0    0  0.00000000000E+00  0.00000000000E+00  0.11147349228E+04  0.40215878119E+04  0.38640049924E+04 0.  0.
        2    1    3    3  502    0  0.70233333118E+03  0.17667602048E+04  0.91476656393E+03  0.21098605631E+04  0.25500000920E-02 0.  1.
       -2    1    3    3    0  502 -0.70233333118E+03 -0.17667602048E+04  0.19996835886E+03  0.19117272488E+04  0.25500000920E-02 0. -1.
</event>
<event>
 5   0  0.7268013E-07  0.4048302E+04  0.7818609E-02  0.7994873E-01
        2   -1    0    0  501    0  0.00000000000E+00  0.00000000000E+00  0.29803603580E+04  0.29803603580E+04  0.25500000920E-02 0. -1.
       -2   -1    0    0    0  501  0.00000000000E+00  0.00000000000E+00 -0.13747287817E+04  0.13747287817E+04  0.25500000920E-02 0.  1.
    10030    2    1    2    0    0  0.00000000000E+00  0.00000000000E+00  0.16056315763E+04  0.43550891398E+04  0.40483019473E+04 0.  0.
        4    1    3    3  502    0 -0.76310851413E+03 -0.17869609100E+04  0.14129098402E+04  0.24024736685E+04  0.12699999809E+01 0. -1.
       -4    1    3    3    0  502  0.76310851413E+03  0.17869609100E+04  0.19272173612E+03  0.19526154713E+04  0.12699999809E+01 0.  1.
</event>
<event>
 5   0  0.3977376E-07  0.3692849E+04  0.7818609E-02  0.8069548E-01
        1   -1    0    0  501    0  0.00000000000E+00  0.00000000000E+00  0.14435145236E+04  0.14435145236E+04  0.50400001928E-02 0.  1.
       -1   -1    0    0    0  501  0.00000000000E+00  0.00000000000E+00 -0.23617938854E+04  0.23617938854E+04  0.50400001928E-02 0. -1.
    10030    2    1    2    0    0  0.00000000000E+00  0.00000000000E+00 -0.91827936176E+03  0.38053084090E+04  0.36928491848E+04 0.  0.
        4    1    3    3  502    0  0.12999515246E+04  0.40992763110E+03  0.82433007280E+03  0.15929332412E+04  0.12699999809E+01 0.  1.
       -4    1    3    3    0  502 -0.12999515246E+04 -0.40992763110E+03 -0.17426094346E+04  0.22123751679E+04  0.12699999809E+01 0. -1.
</event>
<event>
 5   0  0.5533705E-07  0.3926088E+04  0.7818609E-02  0.8019625E-01
        2   -1    0    0  501    0  0.00000000000E+00  0.00000000000E+00  0.22454748270E+04  0.22454748270E+04  0.25500000920E-02 0.  1.
       -2   -1    0    0    0  501  0.00000000000E+00  0.00000000000E+00 -0.17161365830E+04  0.17161365830E+04  0.25500000920E-02 0. -1.
    10030    2    1    2    0    0  0.00000000000E+00  0.00000000000E+00  0.52933824402E+03  0.39616114100E+04  0.39260878731E+04 0.  0.
        1    1    3    3  502    0 -0.53827816519E+03  0.56664470923E+03 -0.15523773716E+04  0.17380175815E+04  0.50400001928E-02 0. -1.
       -1    1    3    3    0  502  0.53827816519E+03 -0.56664470923E+03  0.20817156156E+04  0.22235938285E+04  0.50400001928E-02 0.  1.
</event>
<event>
 5   0  0.4316671E-07  0.2234184E+04  0.7818609E-02  0.8504333E-01
       -1   -1    0    0    0  501  0.00000000000E+00  0.00000000000E+00  0.79038117966E+03  0.79038117968E+03  0.50400001928E-02 0. -1.
        1   -1    0    0  501    0  0.00000000000E+00  0.00000000000E+00 -0.15788510520E+04  0.15788510520E+04  0.50400001928E-02 0.  1.
    10030    2    1    2    0    0  0.00000000000E+00  0.00000000000E+00 -0.78846987235E+03  0.23692322317E+04  0.22341836603E+04 0.  0.
        2    1    3    3  502    0 -0.10619987414E+04 -0.86801913410E+02 -0.38521507010E+02  0.10662362802E+04  0.25500000920E-02 0. -1.
       -2    1    3    3    0  502  0.10619987414E+04  0.86801913410E+02 -0.74994836534E+03  0.13029959514E+04  0.25500000920E-02 0.  1.
</event>
<event>
 5   0  0.1034683E-06  0.2130014E+04  0.7818609E-02  0.8548136E-01
        2   -1    0    0  501    0  0.00000000000E+00  0.00000000000E+00  0.13714971309E+04  0.13714971309E+04  0.25500000920E-02 0. -1.
       -2   -1    0    0    0  501  0.00000000000E+00  0.00000000000E+00 -0.82700896574E+03  0.82700896574E+03  0.25500000920E-02 0.  1.
    10030    2    1    2    0    0  0.00000000000E+00  0.00000000000E+00  0.54448816516E+03  0.21985060966E+04  0.21300144823E+04 0.  0.
        2    1    3    3  502    0  0.29806215728E+01  0.13107988332E+03 -0.81864688892E+03  0.82907994106E+03  0.25500000920E-02 0.  1.
       -2    1    3    3    0  502 -0.29806215728E+01 -0.13107988332E+03  0.13631350541E+04  0.13694261556E+04  0.25500000920E-02 0. -1.
</event>
<event>
 5   0  0.1034683E-06  0.3994361E+04  0.7818609E-02  0.8005685E-01
        2   -1    0    0  501    0  0.00000000000E+00  0.00000000000E+00  0.23891075352E+04  0.23891075352E+04  0.25500000920E-02 0. -1.
       -2   -1    0    0    0  501  0.00000000000E+00  0.00000000000E+00 -0.16695479514E+04  0.16695479514E+04  0.25500000920E-02 0.  1.
    10030    2    1    2    0    0  0.00000000000E+00  0.00000000000E+00  0.71955958384E+03  0.40586554866E+04  0.39943608204E+04 0.  0.
        2    1    3    3  502    0  0.16779746748E+04 -0.54813801832E+03 -0.58942787156E+03  0.18610425874E+04  0.25500000920E-02 0.  1.
       -2    1    3    3    0  502 -0.16779746748E+04  0.54813801832E+03  0.13089874554E+04  0.21976128992E+04  0.25500000920E-02 0. -1.
</event>
<event>
 5   0  0.3977376E-07  0.2363682E+04  0.7818609E-02  0.8453227E-01
       -1   -1    0    0    0  501  0.00000000000E+00  0.00000000000E+00  0.90719479595E+03  0.90719479597E+03  0.50400001928E-02 0. -1.
        1   -1    0    0  501    0  0.00000000000E+00  0.00000000000E+00 -0.15396338933E+04  0.15396338933E+04  0.50400001928E-02 0.  1.
    10030    2    1    2    0    0  0.00000000000E+00  0.00000000000E+00 -0.63243909736E+03  0.24468286893E+04  0.23636817516E+04 0.  0.
        4    1    3    3  502    0 -0.91681286584E+03 -0.73954322061E+03 -0.21651832869E+03  0.11976442734E+04  0.12699999809E+01 0.  1.
       -4    1    3    3    0  502  0.91681286584E+03  0.73954322061E+03 -0.41592076867E+03  0.12491844159E+04  0.12699999809E+01 0. -1.
</event>
<event>
 5   0  0.3471602E-07  0.3777958E+04  0.7818609E-02  0.8050902E-01
        1   -1    0    0  501    0  0.00000000000E+00  0.00000000000E+00  0.17941270032E+04  0.17941270032E+04  0.50400001928E-02 0. -1.
       -1   -1    0    0    0  501  0.00000000000E+00  0.00000000000E+00 -0.19888453083E+04  0.19888453083E+04  0.50400001928E-02 0.  1.
    10030    2    1    2    0    0  0.00000000000E+00  0.00000000000E+00 -0.19471830506E+03  0.37829723116E+04  0.37779576879E+04 0.  0.
        5    1    3    3  502    0 -0.73662262014E+03  0.75101407002E+03 -0.16683852522E+04  0.19723504905E+04  0.46999998093E+01 0.  1.
       -5    1    3    3    0  502  0.73662262014E+03 -0.75101407002E+03  0.14736669471E+04  0.18106218210E+04  0.46999998093E+01 0. -1.
</event>
<event>
 5   0  0.1035864E-06  0.2985661E+04  0.7818609E-02  0.8247837E-01
        2   -1    0    0  501    0  0.00000000000E+00  0.00000000000E+00  0.18490827471E+04  0.18490827471E+04  0.25500000920E-02 0. -1.
       -2   -1    0    0    0  501  0.00000000000E+00  0.00000000000E+00 -0.12052155608E+04  0.12052155608E+04  0.25500000920E-02 0.  1.
    10030    2    1    2    0    0  0.00000000000E+00  0.00000000000E+00  0.64386718631E+03  0.30542983079E+04  0.29856612668E+04 0.  0.
        5    1    3    3  502    0  0.49183919989E+03  0.48243986238E+03 -0.10328479440E+04  0.12415518454E+04  0.46999998093E+01 0.  1.
       -5    1    3    3    0  502 -0.49183919989E+03 -0.48243986238E+03  0.16767151303E+04  0.18127464625E+04  0.46999998093E+01 0. -1.
</event>
<event>
 5   0  0.5533705E-07  0.2763467E+04  0.7818609E-02  0.8314701E-01
        2   -1    0    0  501    0  0.00000000000E+00  0.00000000000E+00  0.20261200335E+04  0.20261200335E+04  0.25500000920E-02 0.  1.
       -2   -1    0    0    0  501  0.00000000000E+00  0.00000000000E+00 -0.94228714611E+03  0.94228714611E+03  0.25500000920E-02 0. -1.
    10030    2    1    2    0    0  0.00000000000E+00  0.00000000000E+00  0.10838328874E+04  0.29684071796E+04  0.27634665651E+04 0.  0.
        1    1    3    3  502    0  0.10541136364E+04  0.44827648611E+03  0.13719302917E+04  0.17872604992E+04  0.50400001928E-02 0.  1.
       -1    1    3    3    0  502 -0.10541136364E+04 -0.44827648611E+03 -0.28809740433E+03  0.11811466805E+04  0.50400001928E-02 0. -1.
</event>
<event>
 5   0  0.1035864E-06  0.3722102E+04  0.7818609E-02  0.8063081E-01
       -2   -1    0    0    0  501  0.00000000000E+00  0.00000000000E+00  0.12595271746E+04  0.12595271746E+04  0.25500000920E-02 0.  1.
        2   -1    0    0  501    0  0.00000000000E+00  0.00000000000E+00 -0.27498502104E+04  0.27498502104E+04  0.25500000920E-02 0. -1.
    10030    2    1    2    0    0  0.00000000000E+00  0.00000000000E+00 -0.14903230359E+04  0.40093773850E+04  0.37221021297E+04 0.  0.
        5    1    3    3  502    0  0.21201459446E+03 -0.18053522535E+04 -0.11750120824E+04  0.21644681637E+04  0.46999998093E+01 0. -1.
       -5    1    3    3    0  502 -0.21201459446E+03  0.18053522535E+04 -0.31531095346E+03  0.18449092213E+04  0.46999998093E+01 0.  1.
</event>
<event>
 5   0  0.4627905E-07  0.2911511E+04  0.7818609E-02  0.8269461E-01
        1   -1    0    0  501    0  0.00000000000E+00  0.00000000000E+00  0.10767171457E+04  0.10767171457E+04  0.50400001928E-02 0. -1.
       -1   -1    0    0    0  501  0.00000000000E+00  0.00000000000E+00 -0.19682269455E+04  0.19682269455E+04  0.50400001928E-02 0.  1.
    10030    2    1    2    0    0  0.00000000000E+00  0.00000000000E+00 -0.89150979977E+03  0.30449440912E+04  0.29115107411E+04 0.  0.
        1    1    3    3  502    0  0.13984365959E+04  0.39928239372E+03 -0.37820081520E+03  0.15026933151E+04  0.50400001928E-02 0.  1.
       -1    1    3    3    0  502 -0.13984365959E+04 -0.39928239372E+03 -0.51330898456E+03  0.15422507761E+04  0.50400001928E-02 0. -1.
</event>
<event>
 5   0  0.5533705E-07  0.3004213E+04  0.7818609E-02  0.8242529E-01
       -2   -1    0    0    0  501  0.00000000000E+00  0.00000000000E+00  0.14258078950E+04  0.14258078950E+04  0.25500000920E-02 0.  1.
        2   -1    0    0  501    0  0.00000000000E+00  0.00000000000E+00 -0.15824883641E+04  0.15824883641E+04  0.25500000920E-02 0. -1.
    10030    2    1    2    0    0  0.00000000000E+00  0.00000000000E+00 -0.15668046913E+03  0.30082962592E+04  0.30042133102E+04 0.  0.
        1    1    3    3  502    0 -0.76980120271E+03  0.94306981496E+03  0.80282720915E+03  0.14582544687E+04  0.50400001928E-02 0.  1.
       -1    1    3    3    0  502  0.76980120271E+03 -0.94306981496E+03 -0.95950767828E+03  0.15500417905E+04  0.50400001928E-02 0. -1.
</event>
<event>
 5   0  0.3191750E-07  0.3870384E+04  0.7818609E-02  0.8031217E-01
        3   -1    0    0  501    0  0.00000000000E+00  0.00000000000E+00  0.17106567095E+04  0.17106567125E+04  0.10100000352E+00 0. -1.
       -3   -1    0    0    0  501  0.00000000000E+00  0.00000000000E+00 -0.21891986599E+04  0.21891986623E+04  0.10100000352E+00 0.  1.
    10030    2    1    2    0    0  0.00000000000E+00  0.00000000000E+00 -0.47854195041E+03  0.38998553748E+04  0.38703836432E+04 0.  0.
        3    1    3    3  502    0 -0.30572311123E+03 -0.11835466875E+04 -0.17509341292E+04  0.21354202671E+04  0.10100000352E+00 0.  1.
       -3    1    3    3    0  502  0.30572311123E+03  0.11835466875E+04  0.12723921788E+04  0.17644351076E+04  0.10100000352E+00 0. -1.
</event>
<event>
 5   0  0.3471602E-07  0.3836562E+04  0.7818609E-02  0.8038354E-01
        1   -1    0    0  501    0  0.00000000000E+00  0.00000000000E+00  0.20953237342E+04  0.20953237342E+04  0.50400001928E-02 0.  1.
       -1   -1    0    0    0  501  0.00000000000E+00  0.00000000000E+00 -0.17561974585E+04  0.17561974585E+04  0.50400001928E-02 0. -1.
    10030    2    1    2    0    0  0.00000000000E+00  0.00000000000E+00  0.33912627570E+03  0.38515211927E+04  0.38365621156E+04 0.  0.
        5    1    3    3  502    0 -0.16259088140E+04 -0.57643115816E+03 -0.67271224688E+03  0.18515982849E+04  0.46999998093E+01 0. -1.
       -5    1    3    3    0  502  0.16259088140E+04  0.57643115816E+03  0.10118385226E+04  0.19999229078E+04  0.46999998093E+01 0.  1.
</event>
<event>
 5   0  0.1034683E-06  0.3806512E+04  0.7818609E-02  0.8044759E-01
       -2   -1    0    0    0  501  0.00000000000E+00  0.00000000000E+00  0.20482841784E+04  0.20482841784E+04  0.25500000920E-02 0. -1.
        2   -1    0    0  501    0  0.00000000000E+00  0.00000000000E+00 -0.17684964920E+04  0.17684964920E+04  0.25500000920E-02 0.  1.
    10030    2    1    2    0    0  0.00000000000E+00  0.00000000000E+00  0.27978768633E+03  0.38167806704E+04  0.38065119909E+04 0.  0.
        2    1    3    3  502    0 -0.36818051621E+03  0.24485293277E+03 -0.17162816762E+04  0.17723240797E+04  0.25500000920E-02 0.  1.
       -2    1    3    3    0  502  0.36818051621E+03 -0.24485293277E+03  0.19960693626E+04  0.20444565907E+04  0.25500000920E-02 0. -1.
</event>
<event>
 5   0  0.1034683E-06  0.3873156E+04  0.7818609E-02  0.8030635E-01
       -2   -1    0    0    0  501  0.00000000000E+00  0.00000000000E+00  0.21292958372E+04  0.21292958372E+04  0.25500000920E-02 0.  1.
        2   -1    0    0  501    0  0.00000000000E+00  0.00000000000E+00 -0.17613029050E+04  0.17613029051E+04  0.25500000920E-02 0. -1.
    10030    2    1    2    0    0  0.00000000000E+00  0.00000000000E+00  0.36799293217E+03  0.38905987423E+04  0.38731563066E+04 0.  0.
        2    1    3    3  502    0 -0.50277446568E+03 -0.13358619234E+04 -0.11307238007E+04  0.18209463350E+04  0.25500000920E-02 0. -1.
       -2    1    3    3    0  502  0.50277446568E+03  0.13358619234E+04  0.14987167328E+04  0.20696524073E+04  0.25500000920E-02 0.  1.
</event>
<event>
 5   0  0.4627905E-07  0.3845840E+04  0.7818609E-02  0.8036389E-01
        1   -1    0    0  501    0  0.00000000000E+00  0.00000000000E+00  0.22085727214E+04  0.22085727214E+04  0.50400001928E-02 0.  1.
       -1   -1    0    0    0  501  0.00000000000E+00  0.00000000000E+00 -0.16742134252E+04  0.16742134252E+04  0.50400001928E-02 0. -1.
    10030    2    1    2    0    0  0.00000000000E+00  0.00000000000E+00  0.53435929627E+03  0.38827861466E+04  0.38458404027E+04 0.  0.
        1    1    3    3  502    0  0.96256684009E+02  0.58943667763E+03 -0.15781983019E+04  0.16874272803E+04  0.50400001928E-02 0. -1.
       -1    1    3    3    0  502 -0.96256684009E+02 -0.58943667763E+03  0.21125575982E+04  0.21953588663E+04  0.50400001928E-02 0.  1.
</event>
<event>
 5   0  0.1015219E-06  0.2869190E+04  0.7818609E-02  0.8282104E-01
        2   -1    0    0  501    0  0.00000000000E+00  0.00000000000E+00  0.17871471091E+04  0.17871471091E+04  0.25500000920E-02 0.  1.
       -2   -1    0    0    0  501  0.00000000000E+00  0.00000000000E+00 -0.11515914814E+04  0.11515914814E+04  0.25500000920E-02 0. -1.
    10030    2    1    2    0    0  0.00000000000E+00  0.00000000000E+00  0.63555562773E+03  0.29387385905E+04  0.28691903993E+04 0.  0.
        3    1    3    3  502    0 -0.24868136160E+03  0.14082134917E+04  0.20029918277E+03  0.14439624062E+04  0.10100000352E+00 0.  1.
       -3    1    3    3    0  502  0.24868136160E+03 -0.14082134917E+04  0.43525644496E+03  0.14947761842E+04  0.10100000352E+00 0. -1.
</event>
<event>
 5   0  0.4316671E-07  0.2365075E+04  0.7818609E-02  0.8452696E-01
       -1   -1    0    0    0  501  0.00000000000E+00  0.00000000000E+00  0.89530353109E+03  0.89530353110E+03  0.50400001928E-02 0. -1.
        1   -1    0    0  501    0  0.00000000000E+00  0.00000000000E+00 -0.15619233807E+04  0.15619233807E+04  0.50400001928E-02 0.  1.
    10030    2    1    2    0    0  0.00000000000E+00  0.00000000000E+00 -0.66661984960E+03  0.24572269118E+04  0.23650754897E+04 0.  0.
        2    1    3    3  502    0 -0.49302868731E+03  0.32201808401E+03  0.73213304498E+03  0.93956996998E+03  0.25500000920E-02 0. -1.
       -2    1    3    3    0  502  0.49302868731E+03 -0.32201808401E+03 -0.13987528946E+04  0.15176569418E+04  0.25500000920E-02 0.  1.
</event>
<event>
 5   0  0.1034683E-06  0.2311543E+04  0.7818609E-02  0.8473384E-01
       -2   -1    0    0    0  501  0.00000000000E+00  0.00000000000E+00  0.15622080069E+04  0.15622080069E+04  0.25500000920E-02 0.  1.
        2   -1    0    0  501    0  0.00000000000E+00  0.00000000000E+00 -0.85507651955E+03  0.85507651955E+03  0.25500000920E-02 0. -1.
    10030    2    1    2    0    0  0.00000000000E+00  0.00000000000E+00  0.70713148732E+03  0.24172845264E+04  0.23115426756E+04 0.  0.
        2    1    3    3  502    0  0.18299385628E+02 -0.11358958201E+04  0.13120480597E+03  0.11435947196E+04  0.25500000920E-02 0.  1.
       -2    1    3    3    0  502 -0.18299385628E+02  0.11358958201E+04  0.57592668135E+03  0.12736898068E+04  0.25500000920E-02 0. -1.
</event>
<event>
 5   0  0.3471602E-07  0.3870823E+04  0.7818609E-02  0.8031125E-01
       -1   -1    0    0    0  501  0.00000000000E+00  0.00000000000E+00  0.13848265672E+04  0.13848265672E+04  0.50400001928E-02 0.  1.
        1   -1    0    0  501    0  0.00000000000E+00  0.00000000000E+00 -0.27048995599E+04  0.27048995599E+04  0.50400001928E-02 0. -1.
    10030    2    1    2    0    0  0.00000000000E+00  0.00000000000E+00 -0.13200729927E+04  0.40897261271E+04  0.38708225338E+04 0.  0.
        5    1    3    3  502    0 -0.16925870181E+04  0.70867664883E+03 -0.98307295115E+01  0.18349910462E+04  0.46999998093E+01 0. -1.
       -5    1    3    3    0  502  0.16925870181E+04 -0.70867664883E+03 -0.13102422632E+04  0.22547350808E+04  0.46999998093E+01 0.  1.
</event>
<event>
 5   0  0.3191750E-07  0.2347596E+04  0.7818609E-02  0.8459388E-01
        3   -1    0    0  501    0  0.00000000000E+00  0.00000000000E+00  0.14216986360E+04  0.14216986396E+04  0.10100000352E+00 0. -1.
       -3   -1    0    0    0  501  0.00000000000E+00  0.00000000000E+00 -0.96912348245E+03  0.96912348771E+03  0.10100000352E+00 0.  1.
    10030    2    1    2    0    0  0.00000000000E+00  0.00000000000E+00  0.45257515360E+03  0.23908221274E+04  0.23475958287E+04 0.  0.
        3    1    3    3  502    0  0.10959280111E+04  0.62827011113E+02 -0.19705397645E+03  0.11152738313E+04  0.10100000352E+00 0.  1.
       -3    1    3    3    0  502 -0.10959280111E+04 -0.62827011113E+02  0.64962913005E+03  0.12755482961E+04  0.10100000352E+00 0. -1.
</event>
<event>
 5   0  0.1035864E-06  0.3986220E+04  0.7818609E-02  0.8007332E-01
       -2   -1    0    0    0  501  0.00000000000E+00  0.00000000000E+00  0.18144588625E+04  0.18144588625E+04  0.25500000920E-02 0. -1.
        2   -1    0    0  501    0  0.00000000000E+00  0.00000000000E+00 -0.21893512408E+04  0.21893512408E+04  0.25500000920E-02 0.  1.
    10030    2    1    2    0    0  0.00000000000E+00  0.00000000000E+00 -0.37489237826E+03  0.40038101033E+04  0.39862201454E+04 0.  0.
        5    1    3    3  502    0 -0.10311102009E+04  0.87582697497E+03 -0.16575319082E+04  0.21395549195E+04  0.46999998093E+01 0.  1.
       -5    1    3    3    0  502  0.10311102009E+04 -0.87582697497E+03  0.12826395300E+04  0.18642551838E+04  0.46999998093E+01 0. -1.
</event>
<event>
 5   0  0.3471602E-07  0.3819461E+04  0.7818609E-02  0.8041991E-01
        1   -1    0    0  501    0  0.00000000000E+00  0.00000000000E+00  0.15716240324E+04  0.15716240324E+04  0.50400001928E-02 0. -1.
       -1   -1    0    0    0  501  0.00000000000E+00  0.00000000000E+00 -0.23205747476E+04  0.23205747476E+04  0.50400001928E-02 0.  1.
    10030    2    1    2    0    0  0.00000000000E+00  0.00000000000E+00 -0.74895071525E+03  0.38921987800E+04  0.38194612407E+04 0.  0.
        5    1    3    3  502    0 -0.53732377059E+03  0.14062747963E+04  0.82294388822E+03  0.17156877252E+04  0.46999998093E+01 0. -1.
       -5    1    3    3    0  502  0.53732377059E+03 -0.14062747963E+04 -0.15718946035E+04  0.21765110548E+04  0.46999998093E+01 0.  1.
</event>
<event>
 5   0  0.1034683E-06  0.1925219E+04  0.7818609E-02  0.8642404E-01
        2   -1    0    0  501    0  0.00000000000E+00  0.00000000000E+00  0.11026410504E+04  0.11026410505E+04  0.25500000920E-02 0.  1.
       -2   -1    0    0    0  501  0.00000000000E+00  0.00000000000E+00 -0.84036182709E+03  0.84036182710E+03  0.25500000920E-02 0. -1.
    10030    2    1    2    0    0  0.00000000000E+00  0.00000000000E+00  0.26227922336E+03  0.19430028775E+04  0.19252194138E+04 0.  0.
        2    1    3    3  502    0  0.53516323703E+03  0.77696676738E+03  0.32406076936E+03  0.99754319712E+03  0.25500000920E-02 0. -1.
       -2    1    3    3    0  502 -0.53516323703E+03 -0.77696676738E+03 -0.61781546009E+02  0.94545968043E+03  0.25500000920E-02 0.  1.
</event>
<event>
 5   0  0.1034683E-06  0.3898177E+04  0.7818609E-02  0.8025409E-01
       -2   -1    0    0    0  501  0.00000000000E+00  0.00000000000E+00  0.35794352640E+04  0.35794352640E+04  0.25500000920E-02 0.  1.
        2   -1    0    0  501    0  0.00000000000E+00  0.00000000000E+00 -0.10613252909E+04  0.10613252909E+04  0.25500000920E-02 0. -1.
    10030    2    1    2    0    0  0.00000000000E+00  0.00000000000E+00  0.25181099731E+04  0.46407605549E+04  0.38981765855E+04 0.  0.
        2    1    3    3  502    0 -0.72262197426E+03  0.17659532748E+04  0.78558546767E+03  0.20634723195E+04  0.25500000920E-02 0. -1.
       -2    1    3    3    0  502  0.72262197426E+03 -0.17659532748E+04  0.17325245055E+04  0.25772882354E+04  0.25500000920E-02 0.  1.
</event>
<event>
 5   0  0.4316671E-07  0.2862994E+04  0.7818609E-02  0.8283974E-01
       -1   -1    0    0    0  501  0.00000000000E+00  0.00000000000E+00  0.14306439466E+04  0.14306439466E+04  0.50400001928E-02 0.  1.
        1   -1    0    0  501    0  0.00000000000E+00  0.00000000000E+00 -0.14323509849E+04  0.14323509849E+04  0.50400001928E-02 0. -1.
    10030    2    1    2    0    0  0.00000000000E+00  0.00000000000E+00 -0.17070383627E+01  0.28629949315E+04  0.28629944226E+04 0.  0.
        2    1    3    3  502    0  0.22696634012E+03 -0.10055153357E+04 -0.99413585913E+03  0.14320897026E+04  0.25500000920E-02 0. -1.
       -2    1    3    3    0  502 -0.22696634012E+03  0.10055153357E+04  0.99242882077E+03  0.14309052289E+04  0.25500000920E-02 0.  1.
</event>
<event>
 5   0  0.7268013E-07  0.3513818E+04  0.7818609E-02  0.8110523E-01
        2   -1    0    0  501    0  0.00000000000E+00  0.00000000000E+00  0.23265136669E+04  0.23265136669E+04  0.25500000920E-02 0. -1.
       -2   -1    0    0    0  501  0.00000000000E+00  0.00000000000E+00 -0.13267615297E+04  0.13267615297E+04  0.25500000920E-02 0.  1.
    10030    2    1    2    0    0  0.00000000000E+00  0.00000000000E+00  0.99975213717E+03  0.36532751965E+04  0.35138177707E+04 0.  0.
        4    1    3    3  502    0 -0.16858569827E+03  0.82526078629E+03  0.21029023654E+04  0.22653203911E+04  0.12699999809E+01 0. -1.
       -4    1    3    3    0  502  0.16858569827E+03 -0.82526078629E+03 -0.11031502282E+04  0.13879548054E+04  0.12699999809E+01 0.  1.
</event>
<event>
 5   0  0.3191750E-07  0.3877374E+04  0.7818609E-02  0.8029752E-01
        3   -1    0    0  501    0  0.00000000000E+00  0.00000000000E+00  0.20980381943E+04  0.20980381967E+04  0.10100000352E+00 0.  1.
       -3   -1    0    0    0  501  0.00000000000E+00  0.00000000000E+00 -0.17914387906E+04  0.17914387934E+04  0.10100000352E+00 0. -1.
    10030    2    1    2    0    0  0.00000000000E+00  0.00000000000E+00  0.30659940369E+03  0.38894769901E+04  0.38773738616E+04 0.  0.
        3    1    3    3  502    0  0.10251796402E+04  0.16116858205E+04 -0.17937162818E+03  0.19185147041E+04  0.10100000352E+00 0. -1.
       -3    1    3    3    0  502 -0.10251796402E+04 -0.16116858205E+04  0.48597103187E+03  0.19709622860E+04  0.10100000352E+00 0.  1.
</event>
<event>
 5   0  0.5385714E-07  0.3887093E+04  0.7818609E-02  0.8027719E-01
       -1   -1    0    0    0  501  0.00000000000E+00  0.00000000000E+00  0.12334461211E+04  0.12334461211E+04  0.50400001928E-02 0.  1.
        1   -1    0    0  501    0  0.00000000000E+00  0.00000000000E+00 -0.30624542832E+04  0.30624542832E+04  0.50400001928E-02 0. -1.
    10030    2    1    2    0    0  0.00000000000E+00  0.00000000000E+00 -0.18290081621E+04  0.42959004043E+04  0.38870926702E+04 0.  0.
        3    1    3    3  502    0  0.15625945705E+04 -0.11530409768E+04 -0.10012938269E+04  0.21849015135E+04  0.10100000352E+00 0.  1.
       -3    1    3    3    0  502 -0.15625945705E+04  0.11530409768E+04 -0.82771433523E+03  0.21109988908E+04  0.10100000352E+00 0. -1.
</event>
<event>
 5   0  0.1034683E-06  0.3220674E+04  0.7818609E-02  0.8183378E-01
        2   -1    0    0  501    0  0.00000000000E+00  0.00000000000E+00  0.26424584090E+04  0.26424584090E+04  0.25500000920E-02 0.  1.
       -2   -1    0    0    0  501  0.00000000000E+00  0.00000000000E+00 -0.98135339454E+03  0.98135339454E+03  0.25500000920E-02 0. -1.
    10030    2    1    2    0    0  0.00000000000E+00  0.00000000000E+00  0.16611050145E+04  0.36238118036E+04  0.32206741714E+04 0.  0.
        2    1    3    3  502    0 -0.12389664569E+04  0.74972084790E+03  0.16230332295E+04  0.21751680613E+04  0.25500000920E-02 0.  1.
       -2    1    3    3    0  502  0.12389664569E+04 -0.74972084790E+03  0.38071785023E+02  0.14486437422E+04  0.25500000920E-02 0. -1.
</event>
<event>
 5   0  0.3977376E-07  0.3985945E+04  0.7818609E-02  0.8007388E-01
       -1   -1    0    0    0  501  0.00000000000E+00  0.00000000000E+00  0.18693335162E+04  0.18693335162E+04  0.50400001928E-02 0. -1.
        1   -1    0    0  501    0  0.00000000000E+00  0.00000000000E+00 -0.21247894457E+04  0.21247894457E+04  0.50400001928E-02 0.  1.
    10030    2    1    2    0    0  0.00000000000E+00  0.00000000000E+00 -0.25545592945E+03  0.39941229619E+04  0.39859453713E+04 0.  0.
        4    1    3    3  502    0 -0.70957507324E+03  0.11060063789E+04 -0.16291984329E+04  0.20930924589E+04  0.12699999809E+01 0.  1.
       -4    1    3    3    0  502  0.70957507324E+03 -0.11060063789E+04  0.13737425035E+04  0.19010305030E+04  0.12699999809E+01 0. -1.
</event>
<event>
 5   0  0.1034683E-06  0.3932736E+04  0.7818609E-02  0.8018255E-01
       -2   -1    0    0    0  501  0.00000000000E+00  0.00000000000E+00  0.28505367684E+04  0.28505367684E+04  0.25500000920E-02 0.  1.
        2   -1    0    0  501    0  0.00000000000E+00  0.00000000000E+00 -0.13564472799E+04  0.13564472799E+04  0.25500000920E-02 0. -1.
    10030    2    1    2    0    0  0.00000000000E+00  0.00000000000E+00  0.14940894884E+04  0.42069840483E+04  0.39327358649E+04 0.  0.
        2    1    3    3  502    0 -0.23556878421E+03  0.17577743823E+04  0.16555886468E+04  0.24261568784E+04  0.25500000920E-02 0.  1.
       -2    1    3    3    0  502  0.23556878421E+03 -0.17577743823E+04 -0.16149915841E+03  0.17808271699E+04  0.25500000920E-02 0. -1.
</event>
<event>
 5   0  0.1034683E-06  0.2698035E+04  0.7818609E-02  0.8335643E-01
       -2   -1    0    0    0  501  0.00000000000E+00  0.00000000000E+00  0.88408338944E+03  0.88408338944E+03  0.25500000920E-02 0. -1.
        2   -1    0    0  501    0  0.00000000000E+00  0.00000000000E+00 -0.20584582253E+04  0.20584582253E+04  0.25500000920E-02 0.  1.
    10030    2    1    2    0    0  0.00000000000E+00  0.00000000000E+00 -0.11743748358E+04  0.29425416147E+04  0.26980353777E+04 0.  0.
        2    1    3    3  502    0  0.38077387090E+03 -0.39054181016E+03 -0.19328320590E+04  0.20083205458E+04  0.25500000920E-02 0.  1.
       -2    1    3    3    0  502 -0.38077387090E+03  0.39054181016E+03  0.75845722318E+03  0.93422106894E+03  0.25500000920E-02 0. -1.
</event>
<event>
 5   0  0.5385714E-07  0.3178113E+04  0.7818609E-02  0.8194621E-01
        1   -1    0    0  501    0  0.00000000000E+00  0.00000000000E+00  0.18712887384E+04  0.18712887384E+04  0.50400001928E-02 0.  1.
       -1   -1    0    0    0  501  0.00000000000E+00  0.00000000000E+00 -0.13493916141E+04  0.13493916141E+04  0.50400001928E-02 0. -1.
    10030    2    1    2    0    0  0.00000000000E+00  0.00000000000E+00  0.52189712433E+03  0.32206803525E+04  0.31781134851E+04 0.  0.
        3    1    3    3  502    0 -0.86705611367E+03 -0.77440858322E+03 -0.83689244951E+03  0.14324398557E+04  0.10100000352E+00 0. -1.
       -3    1    3    3    0  502  0.86705611367E+03  0.77440858322E+03  0.13587895738E+04  0.17882404967E+04  0.10100000352E+00 0.  1.
</event>
<event>
 5   0  0.3977376E-07  0.3842616E+04  0.7818609E-02  0.8037071E-01
        1   -1    0    0  501    0  0.00000000000E+00  0.00000000000E+00  0.16125675121E+04  0.16125675121E+04  0.50400001928E-02 0. -1.
       -1   -1    0    0    0  501  0.00000000000E+00  0.00000000000E+00 -0.22891593269E+04  0.22891593269E+04  0.50400001928E-02 0.  1.
    10030    2    1    2    0    0  0.00000000000E+00  0.00000000000E+00 -0.67659181487E+03  0.39017268390E+04  0.38426157552E+04 0.  0.
        4    1    3    3  502    0 -0.17391768611E+03  0.17617191882E+03 -0.22728972993E+04  0.22863393564E+04  0.12699999809E+01 0.  1.
       -4    1    3    3    0  502  0.17391768611E+03 -0.17617191882E+03  0.15963054844E+04  0.16153874826E+04  0.12699999809E+01 0. -1.
</event>
<event>
 5   0  0.7122819E-07  0.1986444E+04  0.7818609E-02  0.8612985E-01
       -1   -1    0    0    0  501  0.00000000000E+00  0.00000000000E+00  0.63929331195E+03  0.63929331197E+03  0.50400001928E-02 0. -1.
        1   -1    0    0  501    0  0.00000000000E+00  0.00000000000E+00 -0.15430945852E+04  0.15430945852E+04  0.50400001928E-02 0.  1.
    10030    2    1    2    0    0  0.00000000000E+00  0.00000000000E+00 -0.90380127328E+03  0.21823878972E+04  0.19864441075E+04 0.  0.
        3    1    3    3  502    0 -0.37389298920E+03  0.17380404235E+03  0.54082680212E+03  0.68007165255E+03  0.10100000352E+00 0. -1.
       -3    1    3    3    0  502  0.37389298920E+03 -0.17380404235E+03 -0.14446280754E+04  0.15023162447E+04  0.10100000352E+00 0.  1.
</event>
<event>
 5   0  0.4316671E-07  0.2760781E+04  0.7818609E-02  0.8315549E-01
        1   -1    0    0  501    0  0.00000000000E+00  0.00000000000E+00  0.10652574927E+04  0.10652574927E+04  0.50400001928E-02 0. -1.
       -1   -1    0    0    0  501  0.00000000000E+00  0.00000000000E+00 -0.17887487383E+04  0.17887487383E+04  0.50400001928E-02 0.  1.
    10030    2    1    2    0    0  0.00000000000E+00  0.00000000000E+00 -0.72349124561E+03  0.28540062309E+04  0.27607810460E+04 0.  0.
        2    1    3    3  502    0  0.92126740979E+03  0.47517210671E+03 -0.13040949406E+04  0.16658888874E+04  0.25500000920E-02 0.  1.
       -2    1    3    3    0  502 -0.92126740979E+03 -0.47517210671E+03  0.58060369494E+03  0.11881173435E+04  0.25500000920E-02 0. -1.
</event>
<event>
 5   0  0.4316671E-07  0.2275244E+04  0.7818609E-02  0.8487746E-01
        1   -1    0    0  501    0  0.00000000000E+00  0.00000000000E+00  0.20142364225E+04  0.20142364225E+04  0.50400001928E-02 0.  1.
       -1   -1    0    0    0  501  0.00000000000E+00  0.00000000000E+00 -0.64251854297E+03  0.64251854299E+03  0.50400001928E-02 0. -1.
    10030    2    1    2    0    0  0.00000000000E+00  0.00000000000E+00  0.13717178796E+04  0.26567549655E+04  0.22752443837E+04 0.  0.
        2    1    3    3  502    0 -0.41730082172E+02  0.11319689757E+04  0.80882107526E+03  0.13918644667E+04  0.25500000920E-02 0. -1.
       -2    1    3    3    0  502  0.41730082172E+02 -0.11319689757E+04  0.56289680430E+03  0.12648904989E+04  0.25500000920E-02 0.  1.
</event>
<event>
 5   0  0.7268013E-07  0.4027628E+04  0.7818609E-02  0.7998996E-01
        2   -1    0    0  501    0  0.00000000000E+00  0.00000000000E+00  0.19167987524E+04  0.19167987524E+04  0.25500000920E-02 0.  1.
       -2   -1    0    0    0  501  0.00000000000E+00  0.00000000000E+00 -0.21157398404E+04  0.21157398404E+04  0.25500000920E-02 0. -1.
    10030    2    1    2    0    0  0.00000000000E+00  0.00000000000E+00 -0.19894108801E+03  0.40325385928E+04  0.40276283277E+04 0.  0.
        4    1    3    3  502    0 -0.16179151424E+04 -0.11978034649E+04 -0.44055754955E+02  0.20135354655E+04  0.12699999809E+01 0. -1.
       -4    1    3    3    0  502  0.16179151424E+04  0.11978034649E+04 -0.15488533306E+03  0.20190031273E+04  0.12699999809E+01 0.  1.
</event>
<event>
 5   0  0.5533705E-07  0.2426491E+04  0.7818609E-02  0.8429652E-01
       -2   -1    0    0    0  501  0.00000000000E+00  0.00000000000E+00  0.10602976517E+04  0.10602976517E+04  0.25500000920E-02 0. -1.
        2   -1    0    0  501    0  0.00000000000E+00  0.00000000000E+00 -0.13882565927E+04  0.13882565927E+04  0.25500000920E-02 0.  1.
    10030    2    1    2    0    0  0.00000000000E+00  0.00000000000E+00 -0.32795894106E+03  0.24485542444E+04  0.24264914632E+04 0.  0.
        1    1    3    3  502    0  0.93855078749E+03 -0.57885393342E+03 -0.67456006232E+03  0.12926642003E+04  0.50400001928E-02 0.  1.
       -1    1    3    3    0  502 -0.93855078749E+03  0.57885393342E+03  0.34660112126E+03  0.11558900442E+04  0.50400001928E-02 0. -1.
</event>
<event>
 5   0  0.3191750E-07  0.2027869E+04  0.7818609E-02  0.8593701E-01
       -3   -1    0    0    0  501  0.00000000000E+00  0.00000000000E+00  0.60017562676E+03  0.60017563525E+03  0.10100000352E+00 0.  1.
        3   -1    0    0  501    0  0.00000000000E+00  0.00000000000E+00 -0.17129379533E+04  0.17129379563E+04  0.10100000352E+00 0. -1.
    10030    2    1    2    0    0  0.00000000000E+00  0.00000000000E+00 -0.11127623265E+04  0.23131135915E+04  0.20278694465E+04 0.  0.
        3    1    3    3  502    0  0.90682936159E+03 -0.17048195804E+03 -0.10358121619E+04  0.13871951679E+04  0.10100000352E+00 0. -1.
       -3    1    3    3    0  502 -0.90682936159E+03  0.17048195804E+03 -0.76950164640E+02  0.92591842357E+03  0.10100000352E+00 0.  1.
</event>
<event>
 5   0  0.1034683E-06  0.3859463E+04  0.7818609E-02  0.8033513E-01
       -2   -1    0    0    0  501  0.00000000000E+00  0.00000000000E+00  0.15794216872E+04  0.15794216872E+04  0.25500000920E-02 0.  1.
        2   -1    0    0  501    0  0.00000000000E+00  0.00000000000E+00 -0.23577387484E+04  0.23577387484E+04  0.25500000920E-02 0. -1.
    10030    2    1    2    0    0  0.00000000000E+00  0.00000000000E+00 -0.77831706122E+03  0.39371604356E+04  0.38594630258E+04 0.  0.
        2    1    3    3  502    0  0.64307812299E+03  0.12516970320E+03 -0.22408160289E+04  0.23346248954E+04  0.25500000920E-02 0. -1.
       -2    1    3    3    0  502 -0.64307812299E+03 -0.12516970320E+03  0.14624989677E+04  0.16025355402E+04  0.25500000920E-02 0.  1.
</event>
<event>
 5   0  0.7268013E-07  0.3910338E+04  0.7818609E-02  0.8022883E-01
       -2   -1    0    0    0  501  0.00000000000E+00  0.00000000000E+00  0.11792319627E+04  0.11792319627E+04  0.25500000920E-02 0.  1.
        2   -1    0    0  501    0  0.00000000000E+00  0.00000000000E+00 -0.32416738037E+04  0.32416738037E+04  0.25500000920E-02 0. -1.
    10030    2    1    2    0    0  0.00000000000E+00  0.00000000000E+00 -0.20624418410E+04  0.44209057664E+04  0.39103377665E+04 0.  0.
        4    1    3    3  502    0 -0.13985793532E+04  0.13539892101E+04 -0.12377556328E+04  0.23068054984E+04  0.12699999809E+01 0.  1.
       -4    1    3    3    0  502  0.13985793532E+04 -0.13539892101E+04 -0.82468620820E+03  0.21141002680E+04  0.12699999809E+01 0. -1.
</event>
<event>
 5   0  0.4316671E-07  0.3551106E+04  0.7818609E-02  0.8101784E-01
        1   -1    0    0  501    0  0.00000000000E+00  0.00000000000E+00  0.17063471287E+04  0.17063471287E+04  0.50400001928E-02 0. -1.
       -1   -1    0    0    0  501  0.00000000000E+00  0.00000000000E+00 -0.18475659989E+04  0.18475659989E+04  0.50400001928E-02 0.  1.
    10030    2    1    2    0    0  0.00000000000E+00  0.00000000000E+00 -0.14121887020E+03  0.35539131277E+04  0.35511062712E+04 0.  0.
        2    1    3    3  502    0 -0.60101107228E+03 -0.52620475612E+03  0.15163561401E+04  0.17138966416E+04  0.25500000920E-02 0. -1.
       -2    1    3    3    0  502  0.60101107228E+03  0.52620475612E+03 -0.16575750103E+04  0.18400164861E+04  0.25500000920E-02 0.  1.
</event>
<event>
 5   0  0.1015219E-06  0.3791008E+04  0.7818609E-02  0.8048087E-01
       -2   -1    0    0    0  501  0.00000000000E+00  0.00000000000E+00  0.26549915165E+04  0.26549915165E+04  0.25500000920E-02 0. -1.
        2   -1    0    0  501    0  0.00000000000E+00  0.00000000000E+00 -0.13532755660E+04  0.13532755661E+04  0.25500000920E-02 0.  1.
    10030    2    1    2    0    0  0.00000000000E+00  0.00000000000E+00  0.13017159504E+04  0.40082670825E+04  0.37910078593E+04 0.  0.
        3    1    3    3  502    0  0.18849103800E+04  0.19194951185E+03  0.71070000223E+03  0.20235677056E+04  0.10100000352E+00 0.  1.
       -3    1    3    3    0  502 -0.18849103800E+04 -0.19194951185E+03  0.59101594821E+03  0.19846993770E+04  0.10100000352E+00 0. -1.
</event>
<event>
 5   0  0.5533705E-07  0.3971281E+04  0.7818609E-02  0.8010365E-01
        2   -1    0    0  501    0  0.00000000000E+00  0.00000000000E+00  0.13942055409E+04  0.13942055409E+04  0.25500000920E-02 0. -1.
       -2   -1    0    0    0  501  0.00000000000E+00  0.00000000000E+00 -0.28279671046E+04  0.28279671046E+04  0.25500000920E-02 0.  1.
    10030    2    1    2    0    0  0.00000000000E+00  0.00000000000E+00 -0.14337615636E+04  0.42221726455E+04  0.39712806029E+04 0.  0.
        1    1    3    3  502    0  0.13320660531E+04  0.92474901447E+03 -0.19352304732E+04  0.25248124077E+04  0.50400001928E-02 0.  1.
       -1    1    3    3    0  502 -0.13320660531E+04 -0.92474901447E+03  0.50146890957E+03  0.16973602378E+04  0.50400001928E-02 0. -1.
</event>
<event>
 5   0  0.3977376E-07  0.3918675E+04  0.7818609E-02  0.8021156E-01
        1   -1    0    0  501    0  0.00000000000E+00  0.00000000000E+00  0.18719531252E+04  0.18719531253E+04  0.50400001928E-02 0. -1.
       -1   -1    0    0    0  501  0.00000000000E+00  0.00000000000E+00 -0.20508009255E+04  0.20508009255E+04  0.50400001928E-02 0.  1.
    10030    2    1    2    0    0  0.00000000000E+00  0.00000000000E+00 -0.17884780023E+03  0.39227540507E+04  0.39186748790E+04 0.  0.
        4    1    3    3  502    0 -0.17964468157E+04 -0.72810819911E+03  0.19659870597E+03  0.19483365662E+04  0.12699999809E+01 0.  1.
       -4    1    3    3    0  502  0.17964468157E+04  0.72810819911E+03 -0.37544650620E+03  0.19744174845E+04  0.12699999809E+01 0. -1.
</event>
<event>
 5   0  0.4627905E-07  0.3886360E+04  0.7818609E-02  0.8027872E-01
       -1   -1    0    0    0  501  0.00000000000E+00  0.00000000000E+00  0.14108687386E+04  0.14108687386E+04  0.50400001928E-02 0.  1.
        1   -1    0    0  501    0  0.00000000000E+00  0.00000000000E+00 -0.26763293705E+04  0.26763293705E+04  0.50400001928E-02 0. -1.
    10030    2    1    2    0    0  0.00000000000E+00  0.00000000000E+00 -0.12654606319E+04  0.40871981092E+04  0.38863604790E+04 0.  0.
        1    1    3    3  502    0 -0.61833379547E+02  0.18255821331E+04 -0.13298394115E+04  0.22594349630E+04  0.50400001928E-02 0. -1.
       -1    1    3    3    0  502  0.61833379547E+02 -0.18255821331E+04  0.64378779576E+02  0.18277631462E+04  0.50400001928E-02 0.  1.
</event>
<event>
 5   0  0.8156946E-07  0.1948900E+04  0.7818609E-02  0.8630891E-01
       -2   -1    0    0    0  501  0.00000000000E+00  0.00000000000E+00  0.83865154124E+03  0.83865154125E+03  0.25500000920E-02 0.  1.
        2   -1    0    0  501    0  0.00000000000E+00  0.00000000000E+00 -0.11322374793E+04  0.11322374793E+04  0.25500000920E-02 0. -1.
    10030    2    1    2    0    0  0.00000000000E+00  0.00000000000E+00 -0.29358593807E+03  0.19708890206E+04  0.19488999021E+04 0.  0.
        4    1    3    3  502    0  0.46655843010E+03 -0.84064311682E+03 -0.30730835942E+03  0.10093550709E+04  0.12699999809E+01 0. -1.
       -4    1    3    3    0  502 -0.46655843010E+03  0.84064311682E+03  0.13722421343E+02  0.96153394964E+03  0.12699999809E+01 0.  1.
</event>
<event>
 5   0  0.5533705E-07  0.3883536E+04  0.7818609E-02  0.8028462E-01
        2   -1    0    0  501    0  0.00000000000E+00  0.00000000000E+00  0.15096637309E+04  0.15096637309E+04  0.25500000920E-02 0. -1.
       -2   -1    0    0    0  501  0.00000000000E+00  0.00000000000E+00 -0.24975521126E+04  0.24975521126E+04  0.25500000920E-02 0.  1.
    10030    2    1    2    0    0  0.00000000000E+00  0.00000000000E+00 -0.98788838171E+03  0.40072158436E+04  0.38835364505E+04 0.  0.
        1    1    3    3  502    0 -0.55591207351E+03  0.17151427245E+04  0.24992457214E+03  0.18202239123E+04  0.50400001928E-02 0. -1.
       -1    1    3    3    0  502  0.55591207351E+03 -0.17151427245E+04 -0.12378129538E+04  0.21869919313E+04  0.50400001928E-02 0.  1.
</event>
<event>
 5   0  0.1034683E-06  0.3277752E+04  0.7818609E-02  0.8168580E-01
       -2   -1    0    0    0  501  0.00000000000E+00  0.00000000000E+00  0.11599222625E+04  0.11599222625E+04  0.25500000920E-02 0.  1.
        2   -1    0    0  501    0  0.00000000000E+00  0.00000000000E+00 -0.23155980693E+04  0.23155980693E+04  0.25500000920E-02 0. -1.
    10030    2    1    2    0    0  0.00000000000E+00  0.00000000000E+00 -0.11556758068E+04  0.34755203318E+04  0.32777515169E+04 0.  0.
        2    1    3    3  502    0  0.10616940843E+04 -0.26659659768E+03  0.71544506638E+03  0.13077192809E+04  0.25500000920E-02 0.  1.
       -2    1    3    3    0  502 -0.10616940843E+04  0.26659659768E+03 -0.18711208731E+04  0.21678010509E+04  0.25500000920E-02 0. -1.
</event>
<event>
 5   0  0.1034683E-06  0.3853405E+04  0.7818609E-02  0.8034790E-01
        2   -1    0    0  501    0  0.00000000000E+00  0.00000000000E+00  0.17275430883E+04  0.17275430883E+04  0.25500000920E-02 0.  1.
       -2   -1    0    0    0  501  0.00000000000E+00  0.00000000000E+00 -0.21488223822E+04  0.21488223822E+04  0.25500000920E-02 0. -1.
    10030    2    1    2    0    0  0.00000000000E+00  0.00000000000E+00 -0.42127929390E+03  0.38763654706E+04  0.38534053794E+04 0.  0.
        2    1    3    3  502    0  0.13955768668E+04  0.10703954077E+04 -0.10019665276E+04  0.20241833026E+04  0.25500000920E-02 0. -1.
       -2    1    3    3    0  502 -0.13955768668E+04 -0.10703954077E+04  0.58068723367E+03  0.18521821680E+04  0.25500000920E-02 0.  1.
</event>
<event>
 5   0  0.7268013E-07  0.3774442E+04  0.7818609E-02  0.8051662E-01
        2   -1    0    0  501    0  0.00000000000E+00  0.00000000000E+00  0.27880793749E+04  0.27880793749E+04  0.25500000920E-02 0. -1.
       -2   -1    0    0    0  501  0.00000000000E+00  0.00000000000E+00 -0.12774395605E+04  0.12774395605E+04  0.25500000920E-02 0.  1.
    10030    2    1    2    0    0  0.00000000000E+00  0.00000000000E+00  0.15106398144E+04  0.40655189354E+04  0.37744418879E+04 0.  0.
        4    1    3    3  502    0  0.15296303985E+04  0.34159490845E+03 -0.37700975603E+03  0.16120155726E+04  0.12699999809E+01 0.  1.
       -4    1    3    3    0  502 -0.15296303985E+04 -0.34159490845E+03  0.18876495704E+04  0.24535033628E+04  0.12699999809E+01 0. -1.
</event>
<event>
 5   0  0.1015219E-06  0.3962491E+04  0.7818609E-02  0.8012156E-01
       -2   -1    0    0    0  501  0.00000000000E+00  0.00000000000E+00  0.32722148419E+04  0.32722148419E+04  0.25500000920E-02 0.  1.
        2   -1    0    0  501    0  0.00000000000E+00  0.00000000000E+00 -0.11995951764E+04  0.11995951764E+04  0.25500000920E-02 0. -1.
    10030    2    1    2    0    0  0.00000000000E+00  0.00000000000E+00  0.20726196655E+04  0.44718100183E+04  0.39624907019E+04 0.  0.
        3    1    3    3  502    0  0.48444831913E+02 -0.19142111122E+04  0.16104027120E+04  0.25019888067E+04  0.10100000352E+00 0.  1.
       -3    1    3    3    0  502 -0.48444831913E+02  0.19142111122E+04  0.46221695352E+03  0.19698212117E+04  0.10100000352E+00 0. -1.
</event>
<event>
 5   0  0.1015219E-06  0.3191845E+04  0.7818609E-02  0.8190974E-01
       -2   -1    0    0    0  501  0.00000000000E+00  0.00000000000E+00  0.81058334055E+03  0.81058334056E+03  0.25500000920E-02 0.  1.
        2   -1    0    0  501    0  0.00000000000E+00  0.00000000000E+00 -0.31421419087E+04  0.31421419087E+04  0.25500000920E-02 0. -1.
    10030    2    1    2    0    0  0.00000000000E+00  0.00000000000E+00 -0.23315585681E+04  0.39527252493E+04  0.31918445356E+04 0.  0.
        3    1    3    3  502    0  0.40998336864E+03  0.16129266071E+03  0.73378288751E+03  0.85588493453E+03  0.10100000352E+00 0.  1.
       -3    1    3    3    0  502 -0.40998336864E+03 -0.16129266071E+03 -0.30653414557E+04  0.30968403147E+04  0.10100000352E+00 0. -1.
</event>
<event>
 5   0  0.5533705E-07  0.4528097E+04  0.7818609E-02  0.7905736E-01
       -2   -1    0    0    0  501  0.00000000000E+00  0.00000000000E+00  0.28538036597E+04  0.28538036597E+04  0.25500000920E-02 0. -1.
        2   -1    0    0  501    0  0.00000000000E+00  0.00000000000E+00 -0.17961700435E+04  0.17961700435E+04  0.25500000920E-02 0.  1.
    10030    2    1    2    0    0  0.00000000000E+00  0.00000000000E+00  0.10576336162E+04  0.46499737032E+04  0.45280974563E+04 0.  0.
        1    1    3    3  502    0  0.75223269720E+03  0.21201682838E+04  0.79052732174E+03  0.23845127446E+04  0.50400001928E-02 0.  1.
       -1    1    3    3    0  502 -0.75223269720E+03 -0.21201682838E+04  0.26710629447E+03  0.22654609586E+04  0.50400001928E-02 0. -1.
</event>
<event>
 5   0  0.3977376E-07  0.3253636E+04  0.7818609E-02  0.8174794E-01
       -1   -1    0    0    0  501  0.00000000000E+00  0.00000000000E+00  0.13220500448E+04  0.13220500448E+04  0.50400001928E-02 0.  1.
        1   -1    0    0  501    0  0.00000000000E+00  0.00000000000E+00 -0.20018429564E+04  0.20018429564E+04  0.50400001928E-02 0. -1.
    10030    2    1    2    0    0  0.00000000000E+00  0.00000000000E+00 -0.67979291167E+03  0.33238930012E+04  0.32536358556E+04 0.  0.
        4    1    3    3  502    0  0.70299890398E+03  0.13689893673E+04 -0.87872826565E+03  0.17721468123E+04  0.12699999809E+01 0.  1.
       -4    1    3    3    0  502 -0.70299890398E+03 -0.13689893673E+04  0.19893535398E+03  0.15517461889E+04  0.12699999809E+01 0. -1.
</event>
<event>
 5   0  0.4627905E-07  0.3887165E+04  0.7818609E-02  0.8027704E-01
        1   -1    0    0  501    0  0.00000000000E+00  0.00000000000E+00  0.14683321675E+04  0.14683321675E+04  0.50400001928E-02 0.  1.
       -1   -1    0    0    0  501  0.00000000000E+00  0.00000000000E+00 -0.25726560003E+04  0.25726560003E+04  0.50400001928E-02 0. -1.
    10030    2    1    2    0    0  0.00000000000E+00  0.00000000000E+00 -0.11043238328E+04  0.40409881679E+04  0.38871653226E+04 0.  0.
        1    1    3    3  502    0 -0.17161453516E+04  0.64594530888E+03 -0.12219507733E+04  0.22035344114E+04  0.50400001928E-02 0. -1.
       -1    1    3    3    0  502  0.17161453516E+04 -0.64594530888E+03  0.11762694049E+03  0.18374537564E+04  0.50400001928E-02 0.  1.
</event>
<event>
 5   0  0.1034683E-06  0.2229607E+04  0.7818609E-02  0.8506205E-01
        2   -1    0    0  501    0  0.00000000000E+00  0.00000000000E+00  0.12674819267E+04  0.12674819267E+04  0.25500000920E-02 0. -1.
       -2   -1    0    0    0  501  0.00000000000E+00  0.00000000000E+00 -0.98051681210E+03  0.98051681211E+03  0.25500000920E-02 0.  1.
    10030    2    1    2    0    0  0.00000000000E+00  0.00000000000E+00  0.28696511457E+03  0.22479987388E+04  0.22296074436E+04 0.  0.
        2    1    3    3  502    0  0.85819467267E+03 -0.26568010902E+03 -0.52204047958E+03  0.10390429630E+04  0.25500000920E-02 0.  1.
       -2    1    3    3    0  502 -0.85819467267E+03  0.26568010902E+03  0.80900559415E+03  0.12089557758E+04  0.25500000920E-02 0. -1.
</event>
<event>
 5   0  0.7268013E-07  0.3793977E+04  0.7818609E-02  0.8047449E-01
       -2   -1    0    0    0  501  0.00000000000E+00  0.00000000000E+00  0.15179327730E+04  0.15179327730E+04  0.25500000920E-02 0.  1.
        2   -1    0    0  501    0  0.00000000000E+00  0.00000000000E+00 -0.23707012750E+04  0.23707012750E+04  0.25500000920E-02 0. -1.
    10030    2    1    2    0    0  0.00000000000E+00  0.00000000000E+00 -0.85276850198E+03  0.38886340480E+04  0.37939768900E+04 0.  0.
        4    1    3    3  502    0 -0.87964303983E+03 -0.13480811606E+04  0.60238555110E+03  0.17187101728E+04  0.12699999809E+01 0.  1.
       -4    1    3    3    0  502  0.87964303983E+03  0.13480811606E+04 -0.14551540531E+04  0.21699238752E+04  0.12699999809E+01 0. -1.
</event>
<event>
 5   0  0.3471602E-07  0.3409082E+04  0.7818609E-02  0.8135681E-01
        1   -1    0    0  501    0  0.00000000000E+00  0.00000000000E+00  0.23952179324E+04  0.23952179324E+04  0.50400001928E-02 0.  1.
       -1   -1    0    0    0  501  0.00000000000E+00  0.00000000000E+00 -0.12130251094E+04  0.12130251094E+04  0.50400001928E-02 0. -1.
    10030    2    1    2    0    0  0.00000000000E+00  0.00000000000E+00  0.11821928230E+04  0.36082430419E+04  0.34090816914E+04 0.  0.
        5    1    3    3  502    0  0.15479412418E+04 -0.52016928511E+03  0.73941956556E+02  0.16346827448E+04  0.46999998093E+01 0. -1.
       -5    1    3    3    0  502 -0.15479412418E+04  0.52016928511E+03  0.11082508664E+04  0.19735602971E+04  0.46999998093E+01 0.  1.
</event>
<event>
 5   0  0.7268013E-07  0.2093646E+04  0.7818609E-02  0.8564048E-01
        2   -1    0    0  501    0  0.00000000000E+00  0.00000000000E+00  0.11966424784E+04  0.11966424784E+04  0.25500000920E-02 0.  1.
       -2   -1    0    0    0  501  0.00000000000E+00  0.00000000000E+00 -0.91576088885E+03  0.91576088885E+03  0.25500000920E-02 0. -1.
    10030    2    1    2    0    0  0.00000000000E+00  0.00000000000E+00  0.28088158950E+03  0.21124033672E+04  0.20936459869E+04 0.  0.
        4    1    3    3  502    0 -0.68552344738E+03  0.78677394786E+03  0.22413652804E+03  0.10673305196E+04  0.12699999809E+01 0.  1.
       -4    1    3    3    0  502  0.68552344738E+03 -0.78677394786E+03  0.56745061465E+02  0.10450728476E+04  0.12699999809E+01 0. -1.
</event>
<event>
 5   0  0.3471602E-07  0.3668800E+04  0.7818609E-02  0.8074911E-01
       -1   -1    0    0    0  501  0.00000000000E+00  0.00000000000E+00  0.30790437228E+04  0.30790437228E+04  0.50400001928E-02 0.  1.
        1   -1    0    0  501    0  0.00000000000E+00  0.00000000000E+00 -0.10928795445E+04  0.10928795445E+04  0.50400001928E-02 0. -1.
    10030    2    1    2    0    0  0.00000000000E+00  0.00000000000E+00  0.19861641783E+04  0.41719232673E+04  0.36688002950E+04 0.  0.
        5    1    3    3  502    0  0.18004829848E+04 -0.23908083528E+03  0.70071839623E+03  0.19467734807E+04  0.46999998093E+01 0. -1.
       -5    1    3    3    0  502 -0.18004829848E+04  0.23908083528E+03  0.12854457821E+04  0.22251497866E+04  0.46999998093E+01 0.  1.
</event>
<event>
 5   0  0.5162434E-07  0.1947596E+04  0.7818609E-02  0.8631521E-01
        1   -1    0    0  501    0  0.00000000000E+00  0.00000000000E+00  0.94168760106E+03  0.94168760108E+03  0.50400001928E-02 0. -1.
       -1   -1    0    0    0  501  0.00000000000E+00  0.00000000000E+00 -0.10070028455E+04  0.10070028455E+04  0.50400001928E-02 0.  1.
    10030    2    1    2    0    0  0.00000000000E+00  0.00000000000E+00 -0.65315244453E+02  0.19486904466E+04  0.19475955369E+04 0.  0.
        2    1    3    3  502    0  0.33960106182E+03  0.57942708619E+03  0.67287528159E+03  0.95069751971E+03  0.25500000920E-02 0. -1.
       -2    1    3    3    0  502 -0.33960106182E+03 -0.57942708619E+03 -0.73819052604E+03  0.99799292690E+03  0.25500000920E-02 0.  1.
</event>
<event>
 5   0  0.3977376E-07  0.2613416E+04  0.7818609E-02  0.8363658E-01
       -1   -1    0    0    0  501  0.00000000000E+00  0.00000000000E+00  0.20293821140E+04  0.20293821140E+04  0.50400001928E-02 0.  1.
        1   -1    0    0  501    0  0.00000000000E+00  0.00000000000E+00 -0.84138224195E+03  0.84138224196E+03  0.50400001928E-02 0. -1.
    10030    2    1    2    0    0  0.00000000000E+00  0.00000000000E+00  0.11879998721E+04  0.28707643560E+04  0.26134162109E+04 0.  0.
        4    1    3    3  502    0  0.79714024731E+03 -0.34593254221E+03  0.16659996813E+04  0.18790046431E+04  0.12699999809E+01 0.  1.
       -4    1    3    3    0  502 -0.79714024731E+03  0.34593254221E+03 -0.47799980924E+03  0.99175971292E+03  0.12699999809E+01 0. -1.
</event>
<event>
 5   0  0.3977376E-07  0.4005564E+04  0.7818609E-02  0.8003425E-01
        1   -1    0    0  501    0  0.00000000000E+00  0.00000000000E+00  0.21129672883E+04  0.21129672883E+04  0.50400001928E-02 0.  1.
       -1   -1    0    0    0  501  0.00000000000E+00  0.00000000000E+00 -0.18983424324E+04  0.18983424324E+04  0.50400001928E-02 0. -1.
    10030    2    1    2    0    0  0.00000000000E+00  0.00000000000E+00  0.21462485587E+03  0.40113097208E+04  0.40055638613E+04 0.  0.
        4    1    3    3  502    0  0.54756847254E+02 -0.27956147221E+03  0.20925740940E+04  0.21118761518E+04  0.12699999809E+01 0.  1.
       -4    1    3    3    0  502 -0.54756847254E+02  0.27956147221E+03 -0.18779492381E+04  0.18994335689E+04  0.12699999809E+01 0. -1.
</event>
<event>
 5   0  0.4627905E-07  0.3956841E+04  0.7818609E-02  0.8013310E-01
        1   -1    0    0  501    0  0.00000000000E+00  0.00000000000E+00  0.13747460285E+04  0.13747460285E+04  0.50400001928E-02 0. -1.
       -1   -1    0    0    0  501  0.00000000000E+00  0.00000000000E+00 -0.28471787047E+04  0.28471787047E+04  0.50400001928E-02 0.  1.
    10030    2    1    2    0    0  0.00000000000E+00  0.00000000000E+00 -0.14724326762E+04  0.42219247332E+04  0.39568409706E+04 0.  0.
        1    1    3    3  502    0 -0.49482808105E+03  0.14375471585E+04  0.61459567026E+03  0.16398550242E+04  0.50400001928E-02 0. -1.
       -1    1    3    3    0  502  0.49482808105E+03 -0.14375471585E+04 -0.20870283465E+04  0.25820697089E+04  0.50400001928E-02 0.  1.
</event>
<event>
 5   0  0.1035864E-06  0.2093236E+04  0.7818609E-02  0.8564229E-01
        2   -1    0    0  501    0  0.00000000000E+00  0.00000000000E+00  0.12014578277E+04  0.12014578277E+04  0.25500000920E-02 0. -1.
       -2   -1    0    0    0  501  0.00000000000E+00  0.00000000000E+00 -0.91173359239E+03  0.91173359240E+03  0.25500000920E-02 0.  1.
    10030    2    1    2    0    0  0.00000000000E+00  0.00000000000E+00  0.28972423527E+03  0.21131914201E+04  0.20932362135E+04 0.  0.
        5    1    3    3  502    0  0.68110662070E+03 -0.69989057638E+03 -0.23506899170E+03  0.10045061317E+04  0.46999998093E+01 0.  1.
       -5    1    3    3    0  502 -0.68110662070E+03  0.69989057638E+03  0.52479322697E+03  0.11086852884E+04  0.46999998093E+01 0. -1.
</event>
<event>
 5   0  0.3471602E-07  0.3874328E+04  0.7818609E-02  0.8030390E-01
       -1   -1    0    0    0  501  0.00000000000E+00  0.00000000000E+00  0.13440831893E+04  0.13440831893E+04  0.50400001928E-02 0. -1.
        1   -1    0    0  501    0  0.00000000000E+00  0.00000000000E+00 -0.27919432613E+04  0.27919432613E+04  0.50400001928E-02 0.  1.
    10030    2    1    2    0    0  0.00000000000E+00  0.00000000000E+00 -0.14478600720E+04  0.41360264506E+04  0.38743278142E+04 0.  0.
        5    1    3    3  502    0  0.10753404893E+04 -0.14757577767E+03 -0.24368175666E+04  0.26676277329E+04  0.46999998093E+01 0.  1.
       -5    1    3    3    0  502 -0.10753404893E+04  0.14757577767E+03  0.98895749460E+03  0.14683987177E+04  0.46999998093E+01 0. -1.
</event>
<event>
 5   0  0.5533705E-07  0.4671056E+04  0.7818609E-02  0.7881356E-01
        2   -1    0    0  501    0  0.00000000000E+00  0.00000000000E+00  0.27269006651E+04  0.27269006651E+04  0.25500000920E-02 0. -1.
       -2   -1    0    0    0  501  0.00000000000E+00  0.00000000000E+00 -0.20003266987E+04  0.20003266988E+04  0.25500000920E-02 0.  1.
    10030    2    1    2    0    0  0.00000000000E+00  0.00000000000E+00  0.72657396633E+03  0.47272273638E+04  0.46710564994E+04 0.  0.
        1    1    3    3  502    0 -0.16568570861E+04 -0.23203829474E+03 -0.12859339391E+04  0.21101287330E+04  0.50400001928E-02 0.  1.
       -1    1    3    3    0  502  0.16568570861E+04  0.23203829474E+03  0.20125079054E+04  0.26170986308E+04  0.50400001928E-02 0. -1.
</event>
<event>
 5   0  0.5385714E-07  0.2365346E+04  0.7818609E-02  0.8452593E-01
       -1   -1    0    0    0  501  0.00000000000E+00  0.00000000000E+00  0.77188986580E+03  0.77188986582E+03  0.50400001928E-02 0.  1.
        1   -1    0    0  501    0  0.00000000000E+00  0.00000000000E+00 -0.18120658559E+04  0.18120658559E+04  0.50400001928E-02 0. -1.
    10030    2    1    2    0    0  0.00000000000E+00  0.00000000000E+00 -0.10401759901E+04  0.25839557217E+04  0.23653458693E+04 0.  0.
        3    1    3    3  502    0  0.66416904192E+03  0.99321415561E+02 -0.15835763230E+04  0.17200869864E+04  0.10100000352E+00 0. -1.
       -3    1    3    3    0  502 -0.66416904192E+03 -0.99321415561E+02  0.54340033291E+03  0.86386873531E+03  0.10100000352E+00 0.  1.
</event>
<event>
 5   0  0.1035864E-06  0.3071752E+04  0.7818609E-02  0.8223533E-01
       -2   -1    0    0    0  501  0.00000000000E+00  0.00000000000E+00  0.13301235779E+04  0.13301235779E+04  0.25500000920E-02 0.  1.
        2   -1    0    0  501    0  0.00000000000E+00  0.00000000000E+00 -0.17734551097E+04  0.17734551097E+04  0.25500000920E-02 0. -1.
    10030    2    1    2    0    0  0.00000000000E+00  0.00000000000E+00 -0.44333153184E+03  0.31035786876E+04  0.30717515887E+04 0.  0.
        5    1    3    3  502    0  0.46040743582E+03 -0.14065764747E+04 -0.63635717773E+03  0.16110260500E+04  0.46999998093E+01 0. -1.
       -5    1    3    3    0  502 -0.46040743582E+03  0.14065764747E+04  0.19302564589E+03  0.14925526376E+04  0.46999998093E+01 0.  1.
</event>
<event>
 5   0  0.1015219E-06  0.3848056E+04  0.7818609E-02  0.8035920E-01
        2   -1    0    0  501    0  0.00000000000E+00  0.00000000000E+00  0.24662059225E+04  0.24662059225E+04  0.25500000920E-02 0.  1.
       -2   -1    0    0    0  501  0.00000000000E+00  0.00000000000E+00 -0.15010442476E+04  0.15010442476E+04  0.25500000920E-02 0. -1.
    10030    2    1    2    0    0  0.00000000000E+00  0.00000000000E+00  0.96516167496E+03  0.39672501701E+04  0.38480562435E+04 0.  0.
        3    1    3    3  502    0 -0.85608106917E+03  0.80099816779E+03 -0.10902599013E+04  0.16009808008E+04  0.10100000352E+00 0. -1.
       -3    1    3    3    0  502  0.85608106917E+03 -0.80099816779E+03  0.20554215763E+04  0.23662693693E+04  0.10100000352E+00 0.  1.
</event>
<event>
 5   0  0.5533705E-07  0.3848832E+04  0.7818609E-02  0.8035756E-01
       -2   -1    0    0    0  501  0.00000000000E+00  0.00000000000E+00  0.16798844457E+04  0.16798844457E+04  0.25500000920E-02 0. -1.
        2   -1    0    0  501    0  0.00000000000E+00  0.00000000000E+00 -0.22045424058E+04  0.22045424058E+04  0.25500000920E-02 0.  1.
    10030    2    1    2    0    0  0.00000000000E+00  0.00000000000E+00 -0.52465796014E+03  0.38844268515E+04  0.38488317695E+04 0.  0.
        1    1    3    3  502    0  0.66860595218E+03 -0.84309501316E+03 -0.18725571378E+04  0.21597021449E+04  0.50400001928E-02 0.  1.
       -1    1    3    3    0  502 -0.66860595218E+03  0.84309501316E+03  0.13478991776E+04  0.17247247066E+04  0.50400001928E-02 0. -1.
</event>
<event>
 5   0  0.4627905E-07  0.3171009E+04  0.7818609E-02  0.8196516E-01
        1   -1    0    0  501    0  0.00000000000E+00  0.00000000000E+00  0.18334997446E+04  0.18334997446E+04  0.50400001928E-02 0.  1.
       -1   -1    0    0    0  501  0.00000000000E+00  0.00000000000E+00 -0.13710527186E+04  0.13710527186E+04  0.50400001928E-02 0. -1.
    10030    2    1    2    0    0  0.00000000000E+00  0.00000000000E+00  0.46244702603E+03  0.32045524632E+04  0.31710091828E+04 0.  0.
        1    1    3    3  502    0 -0.12787191815E+04  0.19855185077E+03  0.11570361901E+04  0.17358796986E+04  0.50400001928E-02 0. -1.
       -1    1    3    3    0  502  0.12787191815E+04 -0.19855185077E+03 -0.69458916408E+03  0.14686727646E+04  0.50400001928E-02 0.  1.
</event>
<event>
 5   0  0.7268013E-07  0.3865034E+04  0.7818609E-02  0.8032341E-01
       -2   -1    0    0    0  501  0.00000000000E+00  0.00000000000E+00  0.29873008780E+04  0.29873008780E+04  0.25500000920E-02 0. -1.
        2   -1    0    0  501    0  0.00000000000E+00  0.00000000000E+00 -0.12501663007E+04  0.12501663007E+04  0.25500000920E-02 0.  1.
    10030    2    1    2    0    0  0.00000000000E+00  0.00000000000E+00  0.17371345773E+04  0.42374671787E+04  0.38650344826E+04 0.  0.
        4    1    3    3  502    0 -0.10552506225E+04  0.30591182087E+03 -0.87443235596E+03  0.14041970932E+04  0.12699999809E+01 0.  1.
       -4    1    3    3    0  502  0.10552506225E+04 -0.30591182087E+03  0.26115669332E+04  0.28332700856E+04  0.12699999809E+01 0. -1.
</event>
<event>
 5   0  0.5533705E-07  0.3860752E+04  0.7818609E-02  0.8033242E-01
        2   -1    0    0  501    0  0.00000000000E+00  0.00000000000E+00  0.19700463407E+04  0.19700463407E+04  0.25500000920E-02 0.  1.
       -2   -1    0    0    0  501  0.00000000000E+00  0.00000000000E+00 -0.18915046095E+04  0.18915046095E+04  0.25500000920E-02 0. -1.
    10030    2    1    2    0    0  0.00000000000E+00  0.00000000000E+00  0.78541731169E+02  0.38615509502E+04  0.38607521207E+04 0.  0.
        1    1    3    3  502    0  0.86327329246E+03 -0.65150210562E+03  0.16385563529E+04  0.19633040245E+04  0.50400001928E-02 0.  1.
       -1    1    3    3    0  502 -0.86327329246E+03  0.65150210562E+03 -0.15600146217E+04  0.18982469257E+04  0.50400001928E-02 0. -1.
</event>
<event>
 5   0  0.5533705E-07  0.3992273E+04  0.7818609E-02  0.8006107E-01
        2   -1    0    0  501    0  0.00000000000E+00  0.00000000000E+00  0.22352702915E+04  0.22352702915E+04  0.25500000920E-02 0. -1.
       -2   -1    0    0    0  501  0.00000000000E+00  0.00000000000E+00 -0.17825859224E+04  0.17825859224E+04  0.25500000920E-02 0.  1.
    10030    2    1    2    0    0  0.00000000000E+00  0.00000000000E+00  0.45268436907E+03  0.40178562139E+04  0.39922732143E+04 0.  0.
        1    1    3    3  502    0  0.15676178560E+03 -0.10915505381E+03 -0.17733662702E+04  0.17836246834E+04  0.50400001928E-02 0.  1.
       -1    1    3    3    0  502 -0.15676178560E+03  0.10915505381E+03  0.22260506392E+04  0.22342315305E+04  0.50400001928E-02 0. -1.
</event>
<event>
 5   0  0.3471602E-07  0.3849097E+04  0.7818609E-02  0.8035700E-01
        1   -1    0    0  501    0  0.00000000000E+00  0.00000000000E+00  0.18897150629E+04  0.18897150629E+04  0.50400001928E-02 0. -1.
       -1   -1    0    0    0  501  0.00000000000E+00  0.00000000000E+00 -0.19600235409E+04  0.19600235409E+04  0.50400001928E-02 0.  1.
    10030    2    1    2    0    0  0.00000000000E+00  0.00000000000E+00 -0.70308478016E+02  0.38497386038E+04  0.38490965220E+04 0.  0.
        5    1    3    3  502    0  0.31824182810E+03 -0.16826012546E+04 -0.91361679961E+03  0.19409128238E+04  0.46999998093E+01 0.  1.
       -5    1    3    3    0  502 -0.31824182810E+03  0.16826012546E+04  0.84330832159E+03  0.19088257800E+04  0.46999998093E+01 0. -1.
</event>
<event>
 5   0  0.1035864E-06  0.3061357E+04  0.7818609E-02  0.8226424E-01
       -2   -1    0    0    0  501  0.00000000000E+00  0.00000000000E+00  0.88806301892E+03  0.88806301893E+03  0.25500000920E-02 0. -1.
        2   -1    0    0  501    0  0.00000000000E+00  0.00000000000E+00 -0.26382993383E+04  0.26382993383E+04  0.25500000920E-02 0.  1.
    10030    2    1    2    0    0  0.00000000000E+00  0.00000000000E+00 -0.17502363194E+04  0.35263623573E+04  0.30613566112E+04 0.  0.
        5    1    3    3  502    0 -0.96766414081E+03 -0.87723133421E+02 -0.22375161107E+04  0.24393789524E+04  0.46999998093E+01 0.  1.
       -5    1    3    3    0  502  0.96766414081E+03  0.87723133421E+02  0.48727979129E+03  0.10869834049E+04  0.46999998093E+01 0. -1.
</event>
<event>
 5   0  0.4627905E-07  0.2436398E+04  0.7818609E-02  0.8426001E-01
        1   -1    0    0  501    0  0.00000000000E+00  0.00000000000E+00  0.21962791934E+04  0.21962791934E+04  0.50400001928E-02 0. -1.
       -1   -1    0    0    0  501  0.00000000000E+00  0.00000000000E+00 -0.67569197171E+03  0.67569197173E+03  0.50400001928E-02 0.  1.
    10030    2    1    2    0    0  0.00000000000E+00  0.00000000000E+00  0.15205872217E+04  0.28719711652E+04  0.24363975198E+04 0.  0.
        1    1    3    3  502    0  0.26912593713E+03  0.10455810375E+04  0.95208298606E+02  0.10838510488E+04  0.50400001928E-02 0.  1.
       -1    1    3    3    0  502 -0.26912593713E+03 -0.10455810375E+04  0.14253789231E+04  0.17881201163E+04  0.50400001928E-02 0. -1.
</event>
<event>
 5   0  0.1034683E-06  0.3917896E+04  0.7818609E-02  0.8021317E-01
       -2   -1    0    0    0  501  0.00000000000E+00  0.00000000000E+00  0.16688260571E+04  0.16688260571E+04  0.25500000920E-02 0.  1.
        2   -1    0    0  501    0  0.00000000000E+00  0.00000000000E+00 -0.22995067760E+04  0.22995067760E+04  0.25500000920E-02 0. -1.
    10030    2    1    2    0    0  0.00000000000E+00  0.00000000000E+00 -0.63068071886E+03  0.39683328331E+04  0.39178957752E+04 0.  0.
        2    1    3    3  502    0 -0.61537017084E+02  0.17320695776E+04  0.60944421487E+03  0.18371918999E+04  0.25500000920E-02 0.  1.
       -2    1    3    3    0  502  0.61537017084E+02 -0.17320695776E+04 -0.12401249337E+04  0.21311409332E+04  0.25500000920E-02 0. -1.
</event>
<event>
 5   0  0.7268013E-07  0.2042404E+04  0.7818609E-02  0.8587048E-01
        2   -1    0    0  501    0  0.00000000000E+00  0.00000000000E+00  0.19797754747E+04  0.19797754747E+04  0.25500000920E-02 0. -1.
       -2   -1    0    0    0  501  0.00000000000E+00  0.00000000000E+00 -0.52675323999E+03  0.52675323999E+03  0.25500000920E-02 0.  1.
    10030    2    1    2    0    0  0.00000000000E+00  0.00000000000E+00  0.14530222347E+04  0.25065287147E+04  0.20424036288E+04 0.  0.
        4    1    3    3  502    0 -0.60225882388E+03  0.29275739557E+03  0.16727070716E+04  0.18017694480E+04  0.12699999809E+01 0. -1.
       -4    1    3    3    0  502  0.60225882388E+03 -0.29275739557E+03 -0.21968483682E+03  0.70475926672E+03  0.12699999809E+01 0.  1.
</event>
<event>
 5   0  0.1035864E-06  0.3813513E+04  0.7818609E-02  0.8043261E-01
       -2   -1    0    0    0  501  0.00000000000E+00  0.00000000000E+00  0.18534887999E+04  0.18534887999E+04  0.25500000920E-02 0. -1.
        2   -1    0    0  501    0  0.00000000000E+00  0.00000000000E+00 -0.19615555419E+04  0.19615555419E+04  0.25500000920E-02 0.  1.
    10030    2    1    2    0    0  0.00000000000E+00  0.00000000000E+00 -0.10806674193E+03  0.38150443418E+04  0.38135134599E+04 0.  0.
        5    1    3    3  502    0 -0.17541284931E+04 -0.46660868578E+03  0.53016055465E+03  0.18909740187E+04  0.46999998093E+01 0. -1.
       -5    1    3    3    0  502  0.17541284931E+04  0.46660868578E+03 -0.63822729658E+03  0.19240703230E+04  0.46999998093E+01 0.  1.
</event>
<event>
 5   0  0.3471602E-07  0.2890261E+04  0.7818609E-02  0.8275781E-01
       -1   -1    0    0    0  501  0.00000000000E+00  0.00000000000E+00  0.14912661573E+04  0.14912661573E+04  0.50400001928E-02 0. -1.
        1   -1    0    0  501    0  0.00000000000E+00  0.00000000000E+00 -0.14004218526E+04  0.14004218526E+04  0.50400001928E-02 0.  1.
    10030    2    1    2    0    0  0.00000000000E+00  0.00000000000E+00  0.90844304692E+02  0.28916880099E+04  0.28902606905E+04 0.  0.
        5    1    3    3  502    0  0.14687096143E+03  0.11428733940E+04 -0.82716045708E+03  0.14184312411E+04  0.46999998093E+01 0.  1.
       -5    1    3    3    0  502 -0.14687096143E+03 -0.11428733940E+04  0.91800476177E+03  0.14732567688E+04  0.46999998093E+01 0. -1.
</event>
<event>
 5   0  0.1035864E-06  0.4235007E+04  0.7818609E-02  0.7958746E-01
        2   -1    0    0  501    0  0.00000000000E+00  0.00000000000E+00  0.13802516405E+04  0.13802516405E+04  0.25500000920E-02 0.  1.
       -2   -1    0    0    0  501  0.00000000000E+00  0.00000000000E+00 -0.32485528980E+04  0.32485528980E+04  0.25500000920E-02 0. -1.
    10030    2    1    2    0    0  0.00000000000E+00  0.00000000000E+00 -0.18683012575E+04  0.46288045385E+04  0.42350067139E+04 0.  0.
        5    1    3    3  502    0 -0.16406908079E+04 -0.37356943472E+03  0.47082707214E+03  0.17473181369E+04  0.46999998093E+01 0.  1.
       -5    1    3    3    0  502  0.16406908079E+04  0.37356943472E+03 -0.23391283297E+04  0.28814864016E+04  0.46999998093E+01 0. -1.
</event>
<event>
 5   0  0.1034683E-06  0.1960281E+04  0.7818609E-02  0.8625419E-01
        2   -1    0    0  501    0  0.00000000000E+00  0.00000000000E+00  0.20455870496E+04  0.20455870496E+04  0.25500000920E-02 0.  1.
       -2   -1    0    0    0  501  0.00000000000E+00  0.00000000000E+00 -0.46963291657E+03  0.46963291658E+03  0.25500000920E-02 0. -1.
    10030    2    1    2    0    0  0.00000000000E+00  0.00000000000E+00  0.15759541331E+04  0.25152199662E+04  0.19602806046E+04 0.  0.
        2    1    3    3  502    0  0.20319804517E+03 -0.59260591011E+03  0.17551626102E+04  0.18636166448E+04  0.25500000920E-02 0.  1.
       -2    1    3    3    0  502 -0.20319804517E+03  0.59260591011E+03 -0.17920847715E+03  0.65160332147E+03  0.25500000920E-02 0. -1.
</event>
<event>
 5   0  0.5533705E-07  0.3637148E+04  0.7818609E-02  0.8082035E-01
       -2   -1    0    0    0  501  0.00000000000E+00  0.00000000000E+00  0.19541873232E+04  0.19541873232E+04  0.25500000920E-02 0.  1.
        2   -1    0    0  501    0  0.00000000000E+00  0.00000000000E+00 -0.16923721528E+04  0.16923721528E+04  0.25500000920E-02 0. -1.
    10030    2    1    2    0    0  0.00000000000E+00  0.00000000000E+00  0.26181517038E+03  0.36465594761E+04  0.36371484475E+04 0.  0.
        1    1    3    3  502    0  0.16927561195E+03 -0.17163831194E+04 -0.44728815073E+03  0.17817665210E+04  0.50400001928E-02 0. -1.
       -1    1    3    3    0  502 -0.16927561195E+03  0.17163831194E+04  0.70910332111E+03  0.18647929551E+04  0.50400001928E-02 0.  1.
</event>
<event>
 5   0  0.1034683E-06  0.3119285E+04  0.7818609E-02  0.8210465E-01
        2   -1    0    0  501    0  0.00000000000E+00  0.00000000000E+00  0.32006997880E+04  0.32006997880E+04  0.25500000920E-02 0. -1.
       -2   -1    0    0    0  501  0.00000000000E+00  0.00000000000E+00 -0.75998536862E+03  0.75998536862E+03  0.25500000920E-02 0.  1.
    10030    2    1    2    0    0  0.00000000000E+00  0.00000000000E+00  0.24407144194E+04  0.39606851566E+04  0.31192851798E+04 0.  0.
        2    1    3    3  502    0  0.91381342853E+03 -0.55657998701E+01 -0.38444661076E+03  0.99140564696E+03  0.25500000920E-02 0.  1.
       -2    1    3    3    0  502 -0.91381342853E+03  0.55657998701E+01  0.28251610302E+04  0.29692795097E+04  0.25500000920E-02 0. -1.
</event>
<event>
 5   0  0.6233989E-07  0.2107034E+04  0.7818609E-02  0.8558151E-01
       -1   -1    0    0    0  501  0.00000000000E+00  0.00000000000E+00  0.10815319343E+04  0.10815319343E+04  0.50400001928E-02 0.  1.
        1   -1    0    0  501    0  0.00000000000E+00  0.00000000000E+00 -0.10262280928E+04  0.10262280928E+04  0.50400001928E-02 0. -1.
    10030    2    1    2    0    0  0.00000000000E+00  0.00000000000E+00  0.55303841495E+02  0.21077600271E+04  0.21070343654E+04 0.  0.
        3    1    3    3  502    0  0.55270472291E+02  0.21534959675E+03  0.10577969326E+04  0.10809091704E+04  0.10100000352E+00 0.  1.
       -3    1    3    3    0  502 -0.55270472291E+02 -0.21534959675E+03 -0.10024930911E+04  0.10268508567E+04  0.10100000352E+00 0. -1.
</event>
<event>
 5   0  0.3471602E-07  0.4075210E+04  0.7818609E-02  0.7989544E-01
        1   -1    0    0  501    0  0.00000000000E+00  0.00000000000E+00  0.22257556833E+04  0.22257556833E+04  0.50400001928E-02 0.  1.
       -1   -1    0    0    0  501  0.00000000000E+00  0.00000000000E+00 -0.18653592256E+04  0.18653592256E+04  0.50400001928E-02 0. -1.
    10030    2    1    2    0    0  0.00000000000E+00  0.00000000000E+00  0.36039645768E+03  0.40911149089E+04  0.40752098831E+04 0.  0.
        5    1    3    3  502    0  0.78406914736E+03  0.12835623349E+04  0.15601594488E+04  0.21671216604E+04  0.46999998093E+01 0. -1.
       -5    1    3    3    0  502 -0.78406914736E+03 -0.12835623349E+04 -0.11997629911E+04  0.19239932485E+04  0.46999998093E+01 0.  1.
</event>
<event>
 5   0  0.1015219E-06  0.3743736E+04  0.7818609E-02  0.8058338E-01
       -2   -1    0    0    0  501  0.00000000000E+00  0.00000000000E+00  0.12857182697E+04  0.12857182697E+04  0.25500000920E-02 0. -1.
        2   -1    0    0  501    0  0.00000000000E+00  0.00000000000E+00 -0.27252392223E+04  0.27252392223E+04  0.25500000920E-02 0.  1.
    10030    2    1    2    0    0  0.00000000000E+00  0.00000000000E+00 -0.14395209526E+04  0.40109574920E+04  0.37437360257E+04 0.  0.
        3    1    3    3  502    0 -0.86023491686E+03  0.16610565093E+04 -0.64571119957E+03  0.19789026764E+04  0.10100000352E+00 0. -1.
       -3    1    3    3    0  502  0.86023491686E+03 -0.16610565093E+04 -0.79380975299E+03  0.20320548156E+04  0.10100000352E+00 0.  1.
</event>
<event>
 5   0  0.3471602E-07  0.2121511E+04  0.7818609E-02  0.8551826E-01
        1   -1    0    0  501    0  0.00000000000E+00  0.00000000000E+00  0.73136851007E+03  0.73136851009E+03  0.50400001928E-02 0.  1.
       -1   -1    0    0    0  501  0.00000000000E+00  0.00000000000E+00 -0.15384887684E+04  0.15384887684E+04  0.50400001928E-02 0. -1.
    10030    2    1    2    0    0  0.00000000000E+00  0.00000000000E+00 -0.80712025837E+03  0.22698572785E+04  0.21215110072E+04 0.  0.
        5    1    3    3  502    0 -0.97554881266E+03  0.16815354968E+03  0.41486826989E+01  0.98995474831E+03  0.46999998093E+01 0.  1.
       -5    1    3    3    0  502  0.97554881266E+03 -0.16815354968E+03 -0.81126894107E+03  0.12799025302E+04  0.46999998093E+01 0. -1.
</event>
<event>
 5   0  0.1035864E-06  0.3358806E+04  0.7818609E-02  0.8148091E-01
        2   -1    0    0  501    0  0.00000000000E+00  0.00000000000E+00  0.24156279509E+04  0.24156279509E+04  0.25500000920E-02 0. -1.
       -2   -1    0    0    0  501  0.00000000000E+00  0.00000000000E+00 -0.11675615691E+04  0.11675615691E+04  0.25500000920E-02 0.  1.
    10030    2    1    2    0    0  0.00000000000E+00  0.00000000000E+00  0.12480663819E+04  0.35831895200E+04  0.33588059549E+04 0.  0.
        5    1    3    3  502    0  0.11277832761E+04 -0.48750044357E+03  0.18454291313E+04  0.22170211026E+04  0.46999998093E+01 0. -1.
       -5    1    3    3    0  502 -0.11277832761E+04  0.48750044357E+03 -0.59736274943E+03  0.13661684174E+04  0.46999998093E+01 0.  1.
</event>
<event>
 5   0  0.1015219E-06  0.3624497E+04  0.7818609E-02  0.8084903E-01
        2   -1    0    0  501    0  0.00000000000E+00  0.00000000000E+00  0.23145153374E+04  0.23145153374E+04  0.25500000920E-02 0.  1.
       -2   -1    0    0    0  501  0.00000000000E+00  0.00000000000E+00 -0.14189775520E+04  0.14189775520E+04  0.25500000920E-02 0. -1.
    10030    2    1    2    0    0  0.00000000000E+00  0.00000000000E+00  0.89553778538E+03  0.37334928893E+04  0.36244973761E+04 0.  0.
        3    1    3    3  502    0  0.11351091660E+03  0.17646129951E+04  0.38969774916E+02  0.17686894596E+04  0.10100000352E+00 0. -1.
       -3    1    3    3    0  502 -0.11351091660E+03 -0.17646129951E+04  0.85656801047E+03  0.19648034298E+04  0.10100000352E+00 0.  1.
</event>
<event>
 5   0  0.4627905E-07  0.3622752E+04  0.7818609E-02  0.8085300E-01
       -1   -1    0    0    0  501  0.00000000000E+00  0.00000000000E+00  0.20199920753E+04  0.20199920753E+04  0.50400001928E-02 0.  1.
        1   -1    0    0  501    0  0.00000000000E+00  0.00000000000E+00 -0.16243046439E+04  0.16243046439E+04  0.50400001928E-02 0. -1.
    10030    2    1    2    0    0  0.00000000000E+00  0.00000000000E+00  0.39568743135E+03  0.36442967192E+04  0.36227517213E+04 0.  0.
        1    1    3    3  502    0  0.50017949079E+03  0.17352328226E+04  0.56044282414E+02  0.18067521781E+04  0.50400001928E-02 0. -1.
       -1    1    3    3    0  502 -0.50017949079E+03 -0.17352328226E+04  0.33964314893E+03  0.18375445410E+04  0.50400001928E-02 0.  1.
</event>
<event>
 5   0  0.5533705E-07  0.3891131E+04  0.7818609E-02  0.8026876E-01
       -2   -1    0    0    0  501  0.00000000000E+00  0.00000000000E+00  0.16288195435E+04  0.16288195435E+04  0.25500000920E-02 0.  1.
        2   -1    0    0  501    0  0.00000000000E+00  0.00000000000E+00 -0.23239063948E+04  0.23239063948E+04  0.25500000920E-02 0. -1.
    10030    2    1    2    0    0  0.00000000000E+00  0.00000000000E+00 -0.69508685123E+03  0.39527259383E+04  0.38911305057E+04 0.  0.
        1    1    3    3  502    0 -0.23201273188E+03 -0.13802349432E+04  0.10252728061E+04  0.17349532366E+04  0.50400001928E-02 0.  1.
       -1    1    3    3    0  502  0.23201273188E+03  0.13802349432E+04 -0.17203596573E+04  0.22177727018E+04  0.50400001928E-02 0. -1.
</event>
<event>
 5   0  0.7268013E-07  0.3201007E+04  0.7818609E-02  0.8188551E-01
        2   -1    0    0  501    0  0.00000000000E+00  0.00000000000E+00  0.14849315872E+04  0.14849315872E+04  0.25500000920E-02 0.  1.
       -2   -1    0    0    0  501  0.00000000000E+00  0.00000000000E+00 -0.17250699329E+04  0.17250699329E+04  0.25500000920E-02 0. -1.
    10030    2    1    2    0    0  0.00000000000E+00  0.00000000000E+00 -0.24013834570E+03  0.32100015202E+04  0.32010066127E+04 0.  0.
        4    1    3    3  502    0 -0.11129717274E+04  0.76064365713E+03  0.74509751548E+03  0.15402781436E+04  0.12699999809E+01 0.  1.
       -4    1    3    3    0  502  0.11129717274E+04 -0.76064365713E+03 -0.98523586118E+03  0.16697233766E+04  0.12699999809E+01 0. -1.
</event>
<event>
 5   0  0.5533705E-07  0.3632374E+04  0.7818609E-02  0.8083116E-01
       -2   -1    0    0    0  501  0.00000000000E+00  0.00000000000E+00  0.22950457030E+04  0.22950457030E+04  0.25500000920E-02 0. -1.
        2   -1    0    0  501    0  0.00000000000E+00  0.00000000000E+00 -0.14372417981E+04  0.14372417981E+04  0.25500000920E-02 0.  1.
    10030    2    1    2    0    0  0.00000000000E+00  0.00000000000E+00  0.85780390491E+03  0.37322875010E+04  0.36323742168E+04 0.  0.
        1    1    3    3  502    0 -0.16473135427E+04 -0.40421078465E+02  0.12136234380E+04  0.20464988690E+04  0.50400001928E-02 0. -1.
       -1    1    3    3    0  502  0.16473135427E+04  0.40421078465E+02 -0.35581953308E+03  0.16857886320E+04  0.50400001928E-02 0.  1.
</event>
<event>
 5   0  0.1035864E-06  0.2034172E+04  0.7818609E-02  0.8590809E-01
        2   -1    0    0  501    0  0.00000000000E+00  0.00000000000E+00  0.53334210686E+03  0.53334210686E+03  0.25500000920E-02 0.  1.
       -2   -1    0    0    0  501  0.00000000000E+00  0.00000000000E+00 -0.19395876350E+04  0.19395876350E+04  0.25500000920E-02 0. -1.
    10030    2    1    2    0    0  0.00000000000E+00  0.00000000000E+00 -0.14062455281E+04  0.24729297419E+04  0.20341718273E+04 0.  0.
        5    1    3    3  502    0  0.62365219308E+03 -0.60484937981E+03 -0.60232480229E+02  0.87088166352E+03  0.46999998093E+01 0.  1.
       -5    1    3    3    0  502 -0.62365219308E+03  0.60484937981E+03 -0.13460130479E+04  0.16020480784E+04  0.46999998093E+01 0. -1.
</event>
<event>
 5   0  0.7268013E-07  0.2364126E+04  0.7818609E-02  0.8453058E-01
        2   -1    0    0  501    0  0.00000000000E+00  0.00000000000E+00  0.13519347604E+04  0.13519347604E+04  0.25500000920E-02 0.  1.
       -2   -1    0    0    0  501  0.00000000000E+00  0.00000000000E+00 -0.10335358188E+04  0.10335358188E+04  0.25500000920E-02 0. -1.
    10030    2    1    2    0    0  0.00000000000E+00  0.00000000000E+00  0.31839894159E+03  0.23854705792E+04  0.23641260538E+04 0.  0.
        4    1    3    3  502    0  0.11720545473E+04  0.15262024848E+03  0.17567429779E+03  0.11949342551E+04  0.12699999809E+01 0. -1.
       -4    1    3    3    0  502 -0.11720545473E+04 -0.15262024848E+03  0.14272464380E+03  0.11905363241E+04  0.12699999809E+01 0.  1.
</event>
<event>
 5   0  0.3471602E-07  0.3009423E+04  0.7818609E-02  0.8241045E-01
        1   -1    0    0  501    0  0.00000000000E+00  0.00000000000E+00  0.15947149490E+04  0.15947149490E+04  0.50400001928E-02 0. -1.
       -1   -1    0    0    0  501  0.00000000000E+00  0.00000000000E+00 -0.14197874780E+04  0.14197874780E+04  0.50400001928E-02 0.  1.
    10030    2    1    2    0    0  0.00000000000E+00  0.00000000000E+00  0.17492747094E+03  0.30145024270E+04  0.30094227457E+04 0.  0.
        5    1    3    3  502    0  0.75691464036E+03  0.47684244503E+03 -0.11244692649E+04  0.14369243918E+04  0.46999998093E+01 0.  1.
       -5    1    3    3    0  502 -0.75691464036E+03 -0.47684244503E+03  0.12993967358E+04  0.15775780352E+04  0.46999998093E+01 0. -1.
</event>
<event>
 5   0  0.1035864E-06  0.3908406E+04  0.7818609E-02  0.8023283E-01
       -2   -1    0    0    0  501  0.00000000000E+00  0.00000000000E+00  0.18342638712E+04  0.18342638712E+04  0.25500000920E-02 0.  1.
        2   -1    0    0  501    0  0.00000000000E+00  0.00000000000E+00 -0.20819845745E+04  0.20819845745E+04  0.25500000920E-02 0. -1.
    10030    2    1    2    0    0  0.00000000000E+00  0.00000000000E+00 -0.24772070322E+03  0.39162484457E+04  0.39084058568E+04 0.  0.
        5    1    3    3  502    0 -0.13812521238E+03 -0.29682662676E+03 -0.20543041060E+04  0.20802336577E+04  0.46999998093E+01 0. -1.
       -5    1    3    3    0  502  0.13812521238E+03  0.29682662676E+03  0.18065834028E+04  0.18360147880E+04  0.46999998093E+01 0.  1.
</event>
<event>
 5   0  0.1035864E-06  0.3349745E+04  0.7818609E-02  0.8150352E-01
       -2   -1    0    0    0  501  0.00000000000E+00  0.00000000000E+00  0.11106968211E+04  0.11106968211E+04  0.25500000920E-02 0.  1.
        2   -1    0    0  501    0  0.00000000000E+00  0.00000000000E+00 -0.25256192404E+04  0.25256192404E+04  0.25500000920E-02 0. -1.
    10030    2    1    2    0    0  0.00000000000E+00  0.00000000000E+00 -0.14149224193E+04  0.36363160615E+04  0.33497446240E+04 0.  0.
        5    1    3    3  502    0 -0.16089030672E+03  0.12864275156E+04 -0.18585508162E+04  0.22660570757E+04  0.46999998093E+01 0. -1.
       -5    1    3    3    0  502  0.16089030672E+03 -0.12864275156E+04  0.44362839692E+03  0.13702589858E+04  0.46999998093E+01 0.  1.
</event>
<event>
 5   0  0.5385714E-07  0.3750420E+04  0.7818609E-02  0.8056879E-01
       -1   -1    0    0    0  501  0.00000000000E+00  0.00000000000E+00  0.17440037640E+04  0.17440037640E+04  0.50400001928E-02 0.  1.
        1   -1    0    0  501    0  0.00000000000E+00  0.00000000000E+00 -0.20162869324E+04  0.20162869324E+04  0.50400001928E-02 0. -1.
    10030    2    1    2    0    0  0.00000000000E+00  0.00000000000E+00 -0.27228316842E+03  0.37602906965E+04  0.37504197096E+04 0.  0.
        3    1    3    3  502    0  0.11890646165E+04 -0.10206526093E+04 -0.11688065544E+04  0.19549207613E+04  0.10100000352E+00 0. -1.
       -3    1    3    3    0  502 -0.11890646165E+04  0.10206526093E+04  0.89652338598E+03  0.18053699352E+04  0.10100000352E+00 0.  1.
</event>
<event>
 5   0  0.3471602E-07  0.2600140E+04  0.7818609E-02  0.8368154E-01
       -1   -1    0    0    0  501  0.00000000000E+00  0.00000000000E+00  0.13679941620E+04  0.13679941620E+04  0.50400001928E-02 0.  1.
        1   -1    0    0  501    0  0.00000000000E+00  0.00000000000E+00 -0.12355180475E+04  0.12355180475E+04  0.50400001928E-02 0. -1.
    10030    2    1    2    0    0  0.00000000000E+00  0.00000000000E+00  0.13247611447E+03  0.26035122095E+04  0.26001395932E+04 0.  0.
        5    1    3    3  502    0 -0.14485426231E+03  0.83581514090E+03  0.10527010303E+04  0.13519509075E+04  0.46999998093E+01 0.  1.
       -5    1    3    3    0  502  0.14485426231E+03 -0.83581514090E+03 -0.92022491582E+03  0.12515613020E+04  0.46999998093E+01 0. -1.
</event>
<event>
 5   0  0.1015219E-06  0.3804993E+04  0.7818609E-02  0.8045084E-01
        2   -1    0    0  501    0  0.00000000000E+00  0.00000000000E+00  0.20192543454E+04  0.20192543454E+04  0.25500000920E-02 0.  1.
       -2   -1    0    0    0  501  0.00000000000E+00  0.00000000000E+00 -0.17924901288E+04  0.17924901288E+04  0.25500000920E-02 0. -1.
    10030    2    1    2    0    0  0.00000000000E+00  0.00000000000E+00  0.22676421661E+03  0.38117444742E+04  0.38049932886E+04 0.  0.
        3    1    3    3  502    0  0.10826638892E+04  0.75935138523E+03  0.14835507669E+04  0.19873848423E+04  0.10100000352E+00 0.  1.
       -3    1    3    3    0  502 -0.10826638892E+04 -0.75935138523E+03 -0.12567865503E+04  0.18243596319E+04  0.10100000352E+00 0. -1.
</event>
<event>
 5   0  0.4627905E-07  0.3961023E+04  0.7818609E-02  0.8012456E-01
        1   -1    0    0  501    0  0.00000000000E+00  0.00000000000E+00  0.18846332866E+04  0.18846332866E+04  0.50400001928E-02 0. -1.
       -1   -1    0    0    0  501  0.00000000000E+00  0.00000000000E+00 -0.20812670028E+04  0.20812670028E+04  0.50400001928E-02 0.  1.
    10030    2    1    2    0    0  0.00000000000E+00  0.00000000000E+00 -0.19663371622E+03  0.39659002895E+04  0.39610226315E+04 0.  0.
        1    1    3    3  502    0 -0.12897377955E+03 -0.11269477876E+04 -0.17238244673E+04  0.20635446072E+04  0.50400001928E-02 0.  1.
       -1    1    3    3    0  502  0.12897377955E+03  0.11269477876E+04  0.15271907511E+04  0.19023556823E+04  0.50400001928E-02 0. -1.
</event>
<event>
 5   0  0.3471602E-07  0.2148253E+04  0.7818609E-02  0.8540281E-01
       -1   -1    0    0    0  501  0.00000000000E+00  0.00000000000E+00  0.10430912968E+04  0.10430912968E+04  0.50400001928E-02 0.  1.
        1   -1    0    0  501    0  0.00000000000E+00  0.00000000000E+00 -0.11060847272E+04  0.11060847272E+04  0.50400001928E-02 0. -1.
    10030    2    1    2    0    0  0.00000000000E+00  0.00000000000E+00 -0.62993430361E+02  0.21491760240E+04  0.21482526411E+04 0.  0.
        5    1    3    3  502    0 -0.55879212450E+03  0.91379572718E+03 -0.11186799438E+03  0.10769437346E+04  0.46999998093E+01 0. -1.
       -5    1    3    3    0  502  0.55879212450E+03 -0.91379572718E+03  0.48874564022E+02  0.10722322894E+04  0.46999998093E+01 0.  1.
</event>
<event>
 5   0  0.3977376E-07  0.3883142E+04  0.7818609E-02  0.8028544E-01
        1   -1    0    0  501    0  0.00000000000E+00  0.00000000000E+00  0.21670269987E+04  0.21670269988E+04  0.50400001928E-02 0.  1.
       -1   -1    0    0    0  501  0.00000000000E+00  0.00000000000E+00 -0.17395717184E+04  0.17395717184E+04  0.50400001928E-02 0. -1.
    10030    2    1    2    0    0  0.00000000000E+00  0.00000000000E+00  0.42745528030E+03  0.39065987172E+04  0.38831424801E+04 0.  0.
        4    1    3    3  502    0  0.35672433860E+03  0.94225098656E+03  0.18834543200E+04  0.21359988211E+04  0.12699999809E+01 0.  1.
       -4    1    3    3    0  502 -0.35672433860E+03 -0.94225098656E+03 -0.14559990397E+04  0.17705998961E+04  0.12699999809E+01 0. -1.
</event>
<event>
 5   0  0.1101174E-06  0.1976866E+04  0.7818609E-02  0.8617514E-01
        2   -1    0    0  501    0  0.00000000000E+00  0.00000000000E+00  0.12372690627E+04  0.12372690627E+04  0.25500000920E-02 0.  1.
       -2   -1    0    0    0  501  0.00000000000E+00  0.00000000000E+00 -0.78964192521E+03  0.78964192522E+03  0.25500000920E-02 0. -1.
    10030    2    1    2    0    0  0.00000000000E+00  0.00000000000E+00  0.44762713748E+03  0.20269109879E+04  0.19768657260E+04 0.  0.
        5    1    3    3  502    0 -0.68446087961E+03 -0.52784423053E+03  0.71539989413E+03  0.11220184160E+04  0.46999998093E+01 0. -1.
       -5    1    3    3    0  502  0.68446087961E+03  0.52784423053E+03 -0.26777275665E+03  0.90489257187E+03  0.46999998093E+01 0.  1.
</event>
<event>
 5   0  0.1034683E-06  0.2244783E+04  0.7818609E-02  0.8500016E-01
       -2   -1    0    0    0  501  0.00000000000E+00  0.00000000000E+00  0.84519159201E+03  0.84519159202E+03  0.25500000920E-02 0. -1.
        2   -1    0    0  501    0  0.00000000000E+00  0.00000000000E+00 -0.14905049991E+04  0.14905049991E+04  0.25500000920E-02 0.  1.
    10030    2    1    2    0    0  0.00000000000E+00  0.00000000000E+00 -0.64531340708E+03  0.23356965911E+04  0.22447826559E+04 0.  0.
        2    1    3    3  502    0 -0.44965360119E+02 -0.11010856567E+04 -0.10107467296E+03  0.11066289336E+04  0.25500000920E-02 0.  1.
       -2    1    3    3    0  502  0.44965360119E+02  0.11010856567E+04 -0.54423873411E+03  0.12290676575E+04  0.25500000920E-02 0. -1.
</event>
<event>
 5   0  0.9303510E-07  0.1921047E+04  0.7818609E-02  0.8644450E-01
       -2   -1    0    0    0  501  0.00000000000E+00  0.00000000000E+00  0.54213016852E+03  0.54213016853E+03  0.25500000920E-02 0.  1.
        2   -1    0    0  501    0  0.00000000000E+00  0.00000000000E+00 -0.17018159186E+04  0.17018159186E+04  0.25500000920E-02 0. -1.
    10030    2    1    2    0    0  0.00000000000E+00  0.00000000000E+00 -0.11596857501E+04  0.22439460872E+04  0.19210473714E+04 0.  0.
        1    1    3    3  502    0  0.19292480634E+03 -0.66939723661E+02 -0.16761666768E+04  0.16885602257E+04  0.50400001928E-02 0. -1.
       -1    1    3    3    0  502 -0.19292480634E+03  0.66939723661E+02  0.51648092664E+03  0.55538586147E+03  0.50400001928E-02 0.  1.
</event>
<event>
 5   0  0.7268013E-07  0.3837678E+04  0.7818609E-02  0.8038117E-01
       -2   -1    0    0    0  501  0.00000000000E+00  0.00000000000E+00  0.18564191491E+04  0.18564191491E+04  0.25500000920E-02 0. -1.
        2   -1    0    0  501    0  0.00000000000E+00  0.00000000000E+00 -0.19833571280E+04  0.19833571280E+04  0.25500000920E-02 0.  1.
    10030    2    1    2    0    0  0.00000000000E+00  0.00000000000E+00 -0.12693797893E+03  0.38397762771E+04  0.38376775018E+04 0.  0.
        4    1    3    3  502    0  0.55838457199E+03  0.10417616745E+04  0.14489395688E+04  0.18698898908E+04  0.12699999809E+01 0. -1.
       -4    1    3    3    0  502 -0.55838457199E+03 -0.10417616745E+04 -0.15758775477E+04  0.19698863863E+04  0.12699999809E+01 0.  1.
</event>
<event>
 5   0  0.3471602E-07  0.1985700E+04  0.7818609E-02  0.8613336E-01
        1   -1    0    0  501    0  0.00000000000E+00  0.00000000000E+00  0.10464346326E+04  0.10464346326E+04  0.50400001928E-02 0.  1.
       -1   -1    0    0    0  501  0.00000000000E+00  0.00000000000E+00 -0.94200949105E+03  0.94200949106E+03  0.50400001928E-02 0. -1.
    10030    2    1    2    0    0  0.00000000000E+00  0.00000000000E+00  0.10442514154E+03  0.19884441237E+04  0.19857002349E+04 0.  0.
        5    1    3    3  502    0  0.34617721876E+03 -0.63461809786E+02  0.98186128413E+03  0.10430434983E+04  0.46999998093E+01 0.  1.
       -5    1    3    3    0  502 -0.34617721876E+03  0.63461809786E+02 -0.87743614259E+03  0.94540062535E+03  0.46999998093E+01 0. -1.
</event>
<event>
 5   0  0.7268013E-07  0.3888394E+04  0.7818609E-02  0.8027447E-01
        2   -1    0    0  501    0  0.00000000000E+00  0.00000000000E+00  0.32019214407E+04  0.32019214407E+04  0.25500000920E-02 0.  1.
       -2   -1    0    0    0  501  0.00000000000E+00  0.00000000000E+00 -0.11805107810E+04  0.11805107810E+04  0.25500000920E-02 0. -1.
    10030    2    1    2    0    0  0.00000000000E+00  0.00000000000E+00  0.20214106597E+04  0.43824322218E+04  0.38883944146E+04 0.  0.
        4    1    3    3  502    0  0.32892056402E+03  0.11414159114E+04  0.27453743602E+04  0.29913376625E+04  0.12699999809E+01 0.  1.
       -4    1    3    3    0  502 -0.32892056402E+03 -0.11414159114E+04 -0.72396370057E+03  0.13910945593E+04  0.12699999809E+01 0. -1.
</event>
<event>
 5   0  0.1015219E-06  0.3056639E+04  0.7818609E-02  0.8227740E-01
       -2   -1    0    0    0  501  0.00000000000E+00  0.00000000000E+00  0.11013901320E+04  0.11013901320E+04  0.25500000920E-02 0. -1.
        2   -1    0    0  501    0  0.00000000000E+00  0.00000000000E+00 -0.21207389561E+04  0.21207389561E+04  0.25500000920E-02 0.  1.
    10030    2    1    2    0    0  0.00000000000E+00  0.00000000000E+00 -0.10193488241E+04  0.32221290882E+04  0.30566393041E+04 0.  0.
        3    1    3    3  502    0 -0.61263239231E+02  0.89943037655E+03 -0.18106027235E+04  0.20226246362E+04  0.10100000352E+00 0.  1.
       -3    1    3    3    0  502  0.61263239231E+02 -0.89943037655E+03  0.79125389934E+03  0.11995044519E+04  0.10100000352E+00 0. -1.
</event>
<event>
 5   0  0.4316671E-07  0.3933473E+04  0.7818609E-02  0.8018103E-01
        1   -1    0    0  501    0  0.00000000000E+00  0.00000000000E+00  0.28555742853E+04  0.28555742853E+04  0.50400001928E-02 0.  1.
       -1   -1    0    0    0  501  0.00000000000E+00  0.00000000000E+00 -0.13545620650E+04  0.13545620650E+04  0.50400001928E-02 0. -1.
    10030    2    1    2    0    0  0.00000000000E+00  0.00000000000E+00  0.15010122203E+04  0.42101363503E+04  0.39334730713E+04 0.  0.
        2    1    3    3  502    0  0.16512415864E+03 -0.73864989813E+03  0.26934477022E+04  0.27977723610E+04  0.25500000920E-02 0.  1.
       -2    1    3    3    0  502 -0.16512415864E+03  0.73864989813E+03 -0.11924354819E+04  0.14123639893E+04  0.25500000920E-02 0. -1.
</event>
<event>
 5   0  0.1035864E-06  0.1996881E+04  0.7818609E-02  0.8608080E-01
        2   -1    0    0  501    0  0.00000000000E+00  0.00000000000E+00  0.19332311971E+04  0.19332311971E+04  0.25500000920E-02 0.  1.
       -2   -1    0    0    0  501  0.00000000000E+00  0.00000000000E+00 -0.51565671486E+03  0.51565671487E+03  0.25500000920E-02 0. -1.
    10030    2    1    2    0    0  0.00000000000E+00  0.00000000000E+00  0.14175744823E+04  0.24488879120E+04  0.19968812165E+04 0.  0.
        5    1    3    3  502    0  0.80196032385E+03 -0.47787640519E+03  0.27458896719E+03  0.97310195281E+03  0.46999998093E+01 0. -1.
       -5    1    3    3    0  502 -0.80196032385E+03  0.47787640519E+03  0.11429855151E+04  0.14757859592E+04  0.46999998093E+01 0.  1.
</event>
<event>
 5   0  0.1035864E-06  0.3891137E+04  0.7818609E-02  0.8026875E-01
       -2   -1    0    0    0  501  0.00000000000E+00  0.00000000000E+00  0.19805276661E+04  0.19805276661E+04  0.25500000920E-02 0.  1.
        2   -1    0    0  501    0  0.00000000000E+00  0.00000000000E+00 -0.19112263762E+04  0.19112263762E+04  0.25500000920E-02 0. -1.
    10030    2    1    2    0    0  0.00000000000E+00  0.00000000000E+00  0.69301289846E+02  0.38917540423E+04  0.38911369620E+04 0.  0.
        5    1    3    3  502    0 -0.22855475505E+03 -0.98270663953E+03 -0.16291230110E+04  0.19162498507E+04  0.46999998093E+01 0. -1.
       -5    1    3    3    0  502  0.22855475505E+03  0.98270663953E+03  0.16984243008E+04  0.19755041916E+04  0.46999998093E+01 0.  1.
</event>
<event>
 5   0  0.3471602E-07  0.3105484E+04  0.7818609E-02  0.8214235E-01
        1   -1    0    0  501    0  0.00000000000E+00  0.00000000000E+00  0.23386295131E+04  0.23386295132E+04  0.50400001928E-02 0. -1.
       -1   -1    0    0    0  501  0.00000000000E+00  0.00000000000E+00 -0.10309487189E+04  0.10309487190E+04  0.50400001928E-02 0.  1.
    10030    2    1    2    0    0  0.00000000000E+00  0.00000000000E+00  0.13076807942E+04  0.33695782321E+04  0.31054836021E+04 0.  0.
        5    1    3    3  502    0 -0.84664602893E+03  0.13006063057E+04  0.59852722606E+03  0.16633229365E+04  0.46999998093E+01 0.  1.
       -5    1    3    3    0  502  0.84664602893E+03 -0.13006063057E+04  0.70915356814E+03  0.17062552956E+04  0.46999998093E+01 0. -1.
</event>
<event>
 5   0  0.4316671E-07  0.2139894E+04  0.7818609E-02  0.8543870E-01
        1   -1    0    0  501    0  0.00000000000E+00  0.00000000000E+00  0.18090337611E+04  0.18090337612E+04  0.50400001928E-02 0.  1.
       -1   -1    0    0    0  501  0.00000000000E+00  0.00000000000E+00 -0.63281680566E+03  0.63281680568E+03  0.50400001928E-02 0. -1.
    10030    2    1    2    0    0  0.00000000000E+00  0.00000000000E+00  0.11762169555E+04  0.24418505668E+04  0.21398943582E+04 0.  0.
        2    1    3    3  502    0  0.92368732780E+03 -0.17226377977E+03  0.41176800598E+01  0.93962228830E+03  0.25500000920E-02 0. -1.
       -2    1    3    3    0  502 -0.92368732780E+03  0.17226377977E+03  0.11720992754E+04  0.15022282785E+04  0.25500000920E-02 0.  1.
</event>
<event>
 5   0  0.1034683E-06  0.3553072E+04  0.7818609E-02  0.8101327E-01
       -2   -1    0    0    0  501  0.00000000000E+00  0.00000000000E+00  0.22448217390E+04  0.22448217390E+04  0.25500000920E-02 0.  1.
        2   -1    0    0  501    0  0.00000000000E+00  0.00000000000E+00 -0.14059376470E+04  0.14059376470E+04  0.25500000920E-02 0. -1.
    10030    2    1    2    0    0  0.00000000000E+00  0.00000000000E+00  0.83888409201E+03  0.36507593860E+04  0.35530715690E+04 0.  0.
        2    1    3    3  502    0  0.11766861934E+04 -0.68166873066E+03 -0.75514876514E+03  0.15554781624E+04  0.25500000920E-02 0. -1.
       -2    1    3    3    0  502 -0.11766861934E+04  0.68166873066E+03  0.15940328572E+04  0.20952812236E+04  0.25500000920E-02 0.  1.
</event>
<event>
 5   0  0.1034683E-06  0.4102834E+04  0.7818609E-02  0.7984117E-01
       -2   -1    0    0    0  501  0.00000000000E+00  0.00000000000E+00  0.15754783978E+04  0.15754783978E+04  0.25500000920E-02 0.  1.
        2   -1    0    0  501    0  0.00000000000E+00  0.00000000000E+00 -0.26711326867E+04  0.26711326867E+04  0.25500000920E-02 0. -1.
    10030    2    1    2    0    0  0.00000000000E+00  0.00000000000E+00 -0.10956542889E+04  0.42466110845E+04  0.41028340671E+04 0.  0.
        2    1    3    3  502    0 -0.59552037247E+03  0.12136152295E+04 -0.21448843998E+04  0.25353570809E+04  0.25500000920E-02 0. -1.
       -2    1    3    3    0  502  0.59552037247E+03 -0.12136152295E+04  0.10492301109E+04  0.17112540036E+04  0.25500000920E-02 0.  1.
</event>
<event>
 5   0  0.5533705E-07  0.3900320E+04  0.7818609E-02  0.8024963E-01
        2   -1    0    0  501    0  0.00000000000E+00  0.00000000000E+00  0.24450680583E+04  0.24450680583E+04  0.25500000920E-02 0. -1.
       -2   -1    0    0    0  501  0.00000000000E+00  0.00000000000E+00 -0.15554265188E+04  0.15554265188E+04  0.25500000920E-02 0.  1.
    10030    2    1    2    0    0  0.00000000000E+00  0.00000000000E+00  0.88964153950E+03  0.40004945772E+04  0.39003198322E+04 0.  0.
        1    1    3    3  502    0 -0.45222436806E+03 -0.80392641342E+03 -0.13175412135E+04  0.16083281402E+04  0.50400001928E-02 0.  1.
       -1    1    3    3    0  502  0.45222436806E+03  0.80392641342E+03  0.22071827530E+04  0.23921664370E+04  0.50400001928E-02 0. -1.
</event>
<event>
 5   0  0.3977376E-07  0.3903893E+04  0.7818609E-02  0.8024220E-01
       -1   -1    0    0    0  501  0.00000000000E+00  0.00000000000E+00  0.15116406512E+04  0.15116406512E+04  0.50400001928E-02 0.  1.
        1   -1    0    0  501    0  0.00000000000E+00  0.00000000000E+00 -0.25205028718E+04  0.25205028718E+04  0.50400001928E-02 0. -1.
    10030    2    1    2    0    0  0.00000000000E+00  0.00000000000E+00 -0.10088622206E+04  0.40321435230E+04  0.39038927252E+04 0.  0.
        4    1    3    3  502    0 -0.61794511565E+03 -0.31561005186E+03 -0.23888206320E+04  0.24875553251E+04  0.12699999809E+01 0. -1.
       -4    1    3    3    0  502  0.61794511565E+03  0.31561005186E+03  0.13799584114E+04  0.15445881978E+04  0.12699999809E+01 0.  1.
</event>
<event>
 5   0  0.1035864E-06  0.2296312E+04  0.7818609E-02  0.8479376E-01
        2   -1    0    0  501    0  0.00000000000E+00  0.00000000000E+00  0.88466747795E+03  0.88466747795E+03  0.25500000920E-02 0.  1.
       -2   -1    0    0    0  501  0.00000000000E+00  0.00000000000E+00 -0.14901222428E+04  0.14901222428E+04  0.25500000920E-02 0. -1.
    10030    2    1    2    0    0  0.00000000000E+00  0.00000000000E+00 -0.60545476488E+03  0.23747897208E+04  0.22963124233E+04 0.  0.
        5    1    3    3  502    0  0.89290129795E+03  0.83309453154E+02 -0.10441866900E+04  0.13764305745E+04  0.46999998093E+01 0. -1.
       -5    1    3    3    0  502 -0.89290129795E+03 -0.83309453154E+02  0.43873192510E+03  0.99835914629E+03  0.46999998093E+01 0.  1.
</event>
<event>
 5   0  0.1327415E-06  0.1964503E+04  0.7818609E-02  0.8623399E-01
        2   -1    0    0  501    0  0.00000000000E+00  0.00000000000E+00  0.20091389893E+04  0.20091389893E+04  0.25500000920E-02 0. -1.
       -2   -1    0    0    0  501  0.00000000000E+00  0.00000000000E+00 -0.48021475100E+03  0.48021475101E+03  0.25500000920E-02 0.  1.
    10030    2    1    2    0    0  0.00000000000E+00  0.00000000000E+00  0.15289242383E+04  0.24893537403E+04  0.19645031733E+04 0.  0.
        5    1    3    3  502    0  0.14553854860E+03 -0.41050392496E+03  0.18800738445E+04  0.19298690869E+04  0.46999998093E+01 0. -1.
       -5    1    3    3    0  502 -0.14553854860E+03  0.41050392496E+03 -0.35114960620E+03  0.55948465347E+03  0.46999998093E+01 0.  1.
</event>
<event>
 5   0  0.5533705E-07  0.3875063E+04  0.7818609E-02  0.8030236E-01
        2   -1    0    0  501    0  0.00000000000E+00  0.00000000000E+00  0.25922364448E+04  0.25922364448E+04  0.25500000920E-02 0. -1.
       -2   -1    0    0    0  501  0.00000000000E+00  0.00000000000E+00 -0.14481815219E+04  0.14481815219E+04  0.25500000920E-02 0.  1.
    10030    2    1    2    0    0  0.00000000000E+00  0.00000000000E+00  0.11440549229E+04  0.40404179667E+04  0.38750633129E+04 0.  0.
        1    1    3    3  502    0  0.45057542709E+03  0.18361777940E+04  0.13032123961E+03  0.18951387105E+04  0.50400001928E-02 0.  1.
       -1    1    3    3    0  502 -0.45057542709E+03 -0.18361777940E+04  0.10137336833E+04  0.21452792562E+04  0.50400001928E-02 0. -1.
</event>
<event>
 5   0  0.1034683E-06  0.3797778E+04  0.7818609E-02  0.8046632E-01
        2   -1    0    0  501    0  0.00000000000E+00  0.00000000000E+00  0.19368880886E+04  0.19368880886E+04  0.25500000920E-02 0. -1.
       -2   -1    0    0    0  501  0.00000000000E+00  0.00000000000E+00 -0.18616353247E+04  0.18616353247E+04  0.25500000920E-02 0.  1.
    10030    2    1    2    0    0  0.00000000000E+00  0.00000000000E+00  0.75252763922E+02  0.37985234134E+04  0.37977779218E+04 0.  0.
        2    1    3    3  502    0 -0.10897128346E+04 -0.41464043788E+03 -0.14614601838E+04  0.18695632173E+04  0.25500000920E-02 0.  1.
       -2    1    3    3    0  502  0.10897128346E+04  0.41464043788E+03  0.15367129477E+04  0.19289601961E+04  0.25500000920E-02 0. -1.
</event>
<event>
 5   0  0.1034683E-06  0.3808713E+04  0.7818609E-02  0.8044288E-01
       -2   -1    0    0    0  501  0.00000000000E+00  0.00000000000E+00  0.15210994309E+04  0.15210994309E+04  0.25500000920E-02 0. -1.
        2   -1    0    0  501    0  0.00000000000E+00  0.00000000000E+00 -0.23841786936E+04  0.23841786936E+04  0.25500000920E-02 0.  1.
    10030    2    1    2    0    0  0.00000000000E+00  0.00000000000E+00 -0.86307926266E+03  0.39052781245E+04  0.38087125668E+04 0.  0.
        2    1    3    3  502    0  0.96478685380E+03 -0.14051617727E+04 -0.13023539999E+04  0.21450918913E+04  0.25500000920E-02 0.  1.
       -2    1    3    3    0  502 -0.96478685380E+03  0.14051617727E+04  0.43927473729E+03  0.17601862332E+04  0.25500000920E-02 0. -1.
</event>
<event>
 5   0  0.4316671E-07  0.3342323E+04  0.7818609E-02  0.8152209E-01
       -1   -1    0    0    0  501  0.00000000000E+00  0.00000000000E+00  0.20018188517E+04  0.20018188517E+04  0.50400001928E-02 0.  1.
        1   -1    0    0  501    0  0.00000000000E+00  0.00000000000E+00 -0.13951212395E+04  0.13951212395E+04  0.50400001928E-02 0. -1.
    10030    2    1    2    0    0  0.00000000000E+00  0.00000000000E+00  0.60669761225E+03  0.33969400912E+04  0.33423225443E+04 0.  0.
        2    1    3    3  502    0 -0.58896055160E+00 -0.81658617991E+03  0.17852449033E+04  0.19631384824E+04  0.25500000920E-02 0.  1.
       -2    1    3    3    0  502  0.58896055160E+00  0.81658617991E+03 -0.11785472911E+04  0.14338016088E+04  0.25500000920E-02 0. -1.
</event>
<event>
 5   0  0.7268013E-07  0.3488780E+04  0.7818609E-02  0.8116454E-01
        2   -1    0    0  501    0  0.00000000000E+00  0.00000000000E+00  0.20409571660E+04  0.20409571660E+04  0.25500000920E-02 0.  1.
       -2   -1    0    0    0  501  0.00000000000E+00  0.00000000000E+00 -0.14909163176E+04  0.14909163176E+04  0.25500000920E-02 0. -1.
    10030    2    1    2    0    0  0.00000000000E+00  0.00000000000E+00  0.55004084842E+03  0.35318734835E+04  0.34887799255E+04 0.  0.
        4    1    3    3  502    0 -0.95077502833E+03 -0.66299318915E+03  0.15947181382E+04  0.19714615585E+04  0.12699999809E+01 0.  1.
       -4    1    3    3    0  502  0.95077502833E+03  0.66299318915E+03 -0.10446772898E+04  0.15604119251E+04  0.12699999809E+01 0. -1.
</event>
<event>
 5   0  0.5533705E-07  0.2676004E+04  0.7818609E-02  0.8342833E-01
        2   -1    0    0  501    0  0.00000000000E+00  0.00000000000E+00  0.10939044074E+04  0.10939044074E+04  0.25500000920E-02 0. -1.
       -2   -1    0    0    0  501  0.00000000000E+00  0.00000000000E+00 -0.16365688713E+04  0.16365688713E+04  0.25500000920E-02 0.  1.
    10030    2    1    2    0    0  0.00000000000E+00  0.00000000000E+00 -0.54266446395E+03  0.27304732787E+04  0.26760044105E+04 0.  0.
        1    1    3    3  502    0  0.10732616452E+03  0.12871594310E+04  0.84991581844E+02  0.12944195129E+04  0.50400001928E-02 0.  1.
       -1    1    3    3    0  502 -0.10732616452E+03 -0.12871594310E+04 -0.62765604579E+03  0.14360537658E+04  0.50400001928E-02 0. -1.
</event>
<event>
 5   0  0.1035864E-06  0.3220178E+04  0.7818609E-02  0.8183508E-01
        2   -1    0    0  501    0  0.00000000000E+00  0.00000000000E+00  0.23631976060E+04  0.23631976060E+04  0.25500000920E-02 0. -1.
       -2   -1    0    0    0  501  0.00000000000E+00  0.00000000000E+00 -0.10969828379E+04  0.10969828379E+04  0.25500000920E-02 0.  1.
    10030    2    1    2    0    0  0.00000000000E+00  0.00000000000E+00  0.12662147682E+04  0.34601804439E+04  0.32201783903E+04 0.  0.
        5    1    3    3  502    0  0.39517274214E+03  0.92890370138E+03  0.19809224951E+04  0.22233082567E+04  0.46999998093E+01 0. -1.
       -5    1    3    3    0  502 -0.39517274214E+03 -0.92890370138E+03 -0.71470772693E+03  0.12368721872E+04  0.46999998093E+01 0.  1.
</event>
<event>
 5   0  0.5533705E-07  0.3331821E+04  0.7818609E-02  0.8154845E-01
       -2   -1    0    0    0  501  0.00000000000E+00  0.00000000000E+00  0.17459219818E+04  0.17459219818E+04  0.25500000920E-02 0.  1.
        2   -1    0    0  501    0  0.00000000000E+00  0.00000000000E+00 -0.15895657657E+04  0.15895657657E+04  0.25500000920E-02 0. -1.
    10030    2    1    2    0    0  0.00000000000E+00  0.00000000000E+00  0.15635621609E+03  0.33354877476E+04  0.33318210108E+04 0.  0.
        1    1    3    3  502    0  0.75863238514E+03 -0.13381153042E+04  0.71855555222E+03  0.16977625702E+04  0.50400001928E-02 0.  1.
       -1    1    3    3    0  502 -0.75863238514E+03  0.13381153042E+04 -0.56219933613E+03  0.16377251774E+04  0.50400001928E-02 0. -1.
</event>
<event>
 5   0  0.1034683E-06  0.3948454E+04  0.7818609E-02  0.8015027E-01
       -2   -1    0    0    0  501  0.00000000000E+00  0.00000000000E+00  0.21198657913E+04  0.21198657913E+04  0.25500000920E-02 0. -1.
        2   -1    0    0  501    0  0.00000000000E+00  0.00000000000E+00 -0.18385935224E+04  0.18385935224E+04  0.25500000920E-02 0.  1.
    10030    2    1    2    0    0  0.00000000000E+00  0.00000000000E+00  0.28127226891E+03  0.39584593136E+04  0.39484536275E+04 0.  0.
        2    1    3    3  502    0  0.17847095157E+04 -0.47654065224E+03  0.83903080583E+03  0.20288547858E+04  0.25500000920E-02 0. -1.
       -2    1    3    3    0  502 -0.17847095157E+04  0.47654065224E+03 -0.55775853691E+03  0.19296045279E+04  0.25500000920E-02 0.  1.
</event>
<event>
 5   0  0.5533705E-07  0.3912340E+04  0.7818609E-02  0.8022468E-01
        2   -1    0    0  501    0  0.00000000000E+00  0.00000000000E+00  0.23205441357E+04  0.23205441357E+04  0.25500000920E-02 0. -1.
       -2   -1    0    0    0  501  0.00000000000E+00  0.00000000000E+00 -0.16490104080E+04  0.16490104080E+04  0.25500000920E-02 0.  1.
    10030    2    1    2    0    0  0.00000000000E+00  0.00000000000E+00  0.67153372766E+03  0.39695545437E+04  0.39123401856E+04 0.  0.
        1    1    3    3  502    0  0.60969233423E+03 -0.15880985738E+04 -0.64418331566E+03  0.18189980667E+04  0.50400001928E-02 0.  1.
       -1    1    3    3    0  502 -0.60969233423E+03  0.15880985738E+04  0.13157170433E+04  0.21505564770E+04  0.50400001928E-02 0. -1.
</event>
<event>
 5   0  0.3471602E-07  0.3884873E+04  0.7818609E-02  0.8028183E-01
       -1   -1    0    0    0  501  0.00000000000E+00  0.00000000000E+00  0.19144901107E+04  0.19144901107E+04  0.50400001928E-02 0.  1.
        1   -1    0    0  501    0  0.00000000000E+00  0.00000000000E+00 -0.19707903984E+04  0.19707903984E+04  0.50400001928E-02 0. -1.
    10030    2    1    2    0    0  0.00000000000E+00  0.00000000000E+00 -0.56300287733E+02  0.38852805091E+04  0.38848725734E+04 0.  0.
        5    1    3    3  502    0 -0.10960696194E+04  0.92210168416E+03 -0.13403079259E+04  0.19616542898E+04  0.46999998093E+01 0. -1.
       -5    1    3    3    0  502  0.10960696194E+04 -0.92210168416E+03  0.12840076381E+04  0.19236262192E+04  0.46999998093E+01 0.  1.
</event>
<event>
 5   0  0.3471602E-07  0.2474188E+04  0.7818609E-02  0.8412239E-01
        1   -1    0    0  501    0  0.00000000000E+00  0.00000000000E+00  0.89985878400E+03  0.89985878401E+03  0.50400001928E-02 0. -1.
       -1   -1    0    0    0  501  0.00000000000E+00  0.00000000000E+00 -0.17007128762E+04  0.17007128762E+04  0.50400001928E-02 0.  1.
    10030    2    1    2    0    0  0.00000000000E+00  0.00000000000E+00 -0.80085409221E+03  0.26005716602E+04  0.24741878835E+04 0.  0.
        5    1    3    3  502    0  0.58664660733E+02 -0.10504510551E+04  0.28357581592E+03  0.10896450316E+04  0.46999998093E+01 0. -1.
       -5    1    3    3    0  502 -0.58664660733E+02  0.10504510551E+04 -0.10844299081E+04  0.15109266286E+04  0.46999998093E+01 0.  1.
</event>
<event>
 5   0  0.5533705E-07  0.2334275E+04  0.7818609E-02  0.8464528E-01
       -2   -1    0    0    0  501  0.00000000000E+00  0.00000000000E+00  0.90756914092E+03  0.90756914092E+03  0.25500000920E-02 0.  1.
        2   -1    0    0  501    0  0.00000000000E+00  0.00000000000E+00 -0.15009434532E+04  0.15009434532E+04  0.25500000920E-02 0. -1.
    10030    2    1    2    0    0  0.00000000000E+00  0.00000000000E+00 -0.59337431224E+03  0.24085125941E+04  0.23342750141E+04 0.  0.
        1    1    3    3  502    0 -0.20038819900E+03  0.10939834738E+04 -0.66185615166E+03  0.12942213245E+04  0.50400001928E-02 0. -1.
       -1    1    3    3    0  502  0.20038819900E+03 -0.10939834738E+04  0.68481839423E+02  0.11142912696E+04  0.50400001928E-02 0.  1.
</event>
<event>
 5   0  0.4316671E-07  0.3946030E+04  0.7818609E-02  0.8015523E-01
       -1   -1    0    0    0  501  0.00000000000E+00  0.00000000000E+00  0.26334296294E+04  0.26334296294E+04  0.50400001928E-02 0.  1.
        1   -1    0    0  501    0  0.00000000000E+00  0.00000000000E+00 -0.14782201482E+04  0.14782201482E+04  0.50400001928E-02 0. -1.
    10030    2    1    2    0    0  0.00000000000E+00  0.00000000000E+00  0.11552094812E+04  0.41116497777E+04  0.39460302772E+04 0.  0.
        2    1    3    3  502    0  0.11991976817E+04 -0.48063332567E+03 -0.97619238623E+03  0.16192699122E+04  0.25500000920E-02 0. -1.
       -2    1    3    3    0  502 -0.11991976817E+04  0.48063332567E+03  0.21314018674E+04  0.24923798655E+04  0.25500000920E-02 0.  1.
</event>
<event>
 5   0  0.1034683E-06  0.2814409E+04  0.7818609E-02  0.8298809E-01
       -2   -1    0    0    0  501  0.00000000000E+00  0.00000000000E+00  0.98965802077E+03  0.98965802078E+03  0.25500000920E-02 0.  1.
        2   -1    0    0  501    0  0.00000000000E+00  0.00000000000E+00 -0.20009185907E+04  0.20009185907E+04  0.25500000920E-02 0. -1.
    10030    2    1    2    0    0  0.00000000000E+00  0.00000000000E+00 -0.10112605699E+04  0.29905766115E+04  0.28144094458E+04 0.  0.
        2    1    3    3  502    0  0.45657990720E+02  0.73022499940E+03 -0.17829168415E+04  0.19272015114E+04  0.25500000920E-02 0. -1.
       -2    1    3    3    0  502 -0.45657990720E+02 -0.73022499940E+03  0.77165627161E+03  0.10633751000E+04  0.25500000920E-02 0.  1.
</event>
<event>
 5   0  0.4627905E-07  0.1994643E+04  0.7818609E-02  0.8609129E-01
       -1   -1    0    0    0  501  0.00000000000E+00  0.00000000000E+00  0.10954084322E+04  0.10954084322E+04  0.50400001928E-02 0. -1.
        1   -1    0    0  501    0  0.00000000000E+00  0.00000000000E+00 -0.90801760637E+03  0.90801760639E+03  0.50400001928E-02 0.  1.
    10030    2    1    2    0    0  0.00000000000E+00  0.00000000000E+00  0.18739082587E+03  0.20034260386E+04  0.19946429682E+04 0.  0.
        1    1    3    3  502    0  0.84301728923E+03  0.38977505327E+03  0.45867877874E+03  0.10358518061E+04  0.50400001928E-02 0. -1.
       -1    1    3    3    0  502 -0.84301728923E+03 -0.38977505327E+03 -0.27128795287E+03  0.96757423255E+03  0.50400001928E-02 0.  1.
</event>
<event>
 5   0  0.7268013E-07  0.3849988E+04  0.7818609E-02  0.8035512E-01
       -2   -1    0    0    0  501  0.00000000000E+00  0.00000000000E+00  0.16146945445E+04  0.16146945445E+04  0.25500000920E-02 0.  1.
        2   -1    0    0  501    0  0.00000000000E+00  0.00000000000E+00 -0.22949242847E+04  0.22949242847E+04  0.25500000920E-02 0. -1.
    10030    2    1    2    0    0  0.00000000000E+00  0.00000000000E+00 -0.68022974014E+03  0.39096188292E+04  0.38499879078E+04 0.  0.
        4    1    3    3  502    0 -0.40442961105E+03  0.37866638016E+03 -0.22122111579E+04  0.22805331301E+04  0.12699999809E+01 0. -1.
       -4    1    3    3    0  502  0.40442961105E+03 -0.37866638016E+03  0.15319814177E+04  0.16290856991E+04  0.12699999809E+01 0.  1.
</event>
<event>
 5   0  0.4316671E-07  0.3983364E+04  0.7818609E-02  0.8007911E-01
       -1   -1    0    0    0  501  0.00000000000E+00  0.00000000000E+00  0.16622647258E+04  0.16622647258E+04  0.50400001928E-02 0.  1.
        1   -1    0    0  501    0  0.00000000000E+00  0.00000000000E+00 -0.23863815675E+04  0.23863815675E+04  0.50400001928E-02 0. -1.
    10030    2    1    2    0    0  0.00000000000E+00  0.00000000000E+00 -0.72411684167E+03  0.40486462933E+04  0.39833643579E+04 0.  0.
        2    1    3    3  502    0  0.13099345391E+04  0.22440895436E+02 -0.18867653154E+04  0.22970231706E+04  0.25500000920E-02 0. -1.
       -2    1    3    3    0  502 -0.13099345391E+04 -0.22440895436E+02  0.11626484738E+04  0.17516231227E+04  0.25500000920E-02 0.  1.
</event>
<event>
 5   0  0.1015219E-06  0.2012420E+04  0.7818609E-02  0.8600836E-01
        2   -1    0    0  501    0  0.00000000000E+00  0.00000000000E+00  0.20770734043E+04  0.20770734043E+04  0.25500000920E-02 0. -1.
       -2   -1    0    0    0  501  0.00000000000E+00  0.00000000000E+00 -0.48744459388E+03  0.48744459388E+03  0.25500000920E-02 0.  1.
    10030    2    1    2    0    0  0.00000000000E+00  0.00000000000E+00  0.15896288105E+04  0.25645179982E+04  0.20124196402E+04 0.  0.
        3    1    3    3  502    0 -0.30487946467E+03 -0.78713167821E+03  0.96907547685E+02  0.84965807818E+03  0.10100000352E+00 0.  1.
       -3    1    3    3    0  502  0.30487946467E+03  0.78713167821E+03  0.14927212628E+04  0.17148599200E+04  0.10100000352E+00 0. -1.
</event>
<event>
 5   0  0.4316671E-07  0.3121461E+04  0.7818609E-02  0.8209873E-01
        1   -1    0    0  501    0  0.00000000000E+00  0.00000000000E+00  0.20001207406E+04  0.20001207406E+04  0.50400001928E-02 0.  1.
       -1   -1    0    0    0  501  0.00000000000E+00  0.00000000000E+00 -0.12178663830E+04  0.12178663831E+04  0.50400001928E-02 0. -1.
    10030    2    1    2    0    0  0.00000000000E+00  0.00000000000E+00  0.78225435758E+03  0.32179871237E+04  0.31214610759E+04 0.  0.
        2    1    3    3  502    0 -0.97300947656E+03 -0.12850386206E+03  0.16421683343E+04  0.19131067723E+04  0.25500000920E-02 0.  1.
       -2    1    3    3    0  502  0.97300947656E+03  0.12850386206E+03 -0.85991397673E+03  0.13048803514E+04  0.25500000920E-02 0. -1.
</event>
<event>
 5   0  0.3471602E-07  0.2038310E+04  0.7818609E-02  0.8588916E-01
        1   -1    0    0  501    0  0.00000000000E+00  0.00000000000E+00  0.17541556366E+04  0.17541556366E+04  0.50400001928E-02 0.  1.
       -1   -1    0    0    0  501  0.00000000000E+00  0.00000000000E+00 -0.59212334666E+03  0.59212334668E+03  0.50400001928E-02 0. -1.
    10030    2    1    2    0    0  0.00000000000E+00  0.00000000000E+00  0.11620322899E+04  0.23462789833E+04  0.20383095998E+04 0.  0.
        5    1    3    3  502    0 -0.90976298238E+03 -0.45598344798E+03  0.51729075582E+03  0.11415784708E+04  0.46999998093E+01 0. -1.
       -5    1    3    3    0  502  0.90976298238E+03  0.45598344798E+03  0.64474153410E+03  0.12047005125E+04  0.46999998093E+01 0.  1.
</event>
<event>
 5   0  0.7268013E-07  0.2797032E+04  0.7818609E-02  0.8304191E-01
        2   -1    0    0  501    0  0.00000000000E+00  0.00000000000E+00  0.94268854838E+03  0.94268854839E+03  0.25500000920E-02 0.  1.
       -2   -1    0    0    0  501  0.00000000000E+00  0.00000000000E+00 -0.20747536174E+04  0.20747536174E+04  0.25500000920E-02 0. -1.
    10030    2    1    2    0    0  0.00000000000E+00  0.00000000000E+00 -0.11320650690E+04  0.30174421658E+04  0.27970316236E+04 0.  0.
        4    1    3    3  502    0  0.95927231674E+03  0.73312494495E+03 -0.13274626657E+04  0.17943896746E+04  0.12699999809E+01 0. -1.
       -4    1    3    3    0  502 -0.95927231674E+03 -0.73312494495E+03  0.19539759665E+03  0.12230524912E+04  0.12699999809E+01 0.  1.
</event>
<event>
 5   0  0.3471602E-07  0.2947309E+04  0.7818609E-02  0.8258939E-01
       -1   -1    0    0    0  501  0.00000000000E+00  0.00000000000E+00  0.13834982107E+04  0.13834982107E+04  0.50400001928E-02 0.  1.
        1   -1    0    0  501    0  0.00000000000E+00  0.00000000000E+00 -0.15696863670E+04  0.15696863670E+04  0.50400001928E-02 0. -1.
    10030    2    1    2    0    0  0.00000000000E+00  0.00000000000E+00 -0.18618815633E+03  0.29531845777E+04  0.29473094715E+04 0.  0.
        5    1    3    3  502    0  0.83468444303E+03 -0.14144056820E+03 -0.13017043890E+04  0.15527910227E+04  0.46999998093E+01 0. -1.
       -5    1    3    3    0  502 -0.83468444303E+03  0.14144056820E+03  0.11155162326E+04  0.14003935551E+04  0.46999998093E+01 0.  1.
</event>
<event>
 5   0  0.5648076E-07  0.1954714E+04  0.7818609E-02  0.8628091E-01
       -2   -1    0    0    0  501  0.00000000000E+00  0.00000000000E+00  0.53286087381E+03  0.53286087382E+03  0.25500000920E-02 0. -1.
        2   -1    0    0  501    0  0.00000000000E+00  0.00000000000E+00 -0.17926383605E+04  0.17926383605E+04  0.25500000920E-02 0.  1.
    10030    2    1    2    0    0  0.00000000000E+00  0.00000000000E+00 -0.12597774867E+04  0.23254992343E+04  0.19547141410E+04 0.  0.
        1    1    3    3  502    0  0.82289705276E+03  0.46361948582E+03 -0.33098518673E+03  0.10008265489E+04  0.50400001928E-02 0. -1.
       -1    1    3    3    0  502 -0.82289705276E+03 -0.46361948582E+03 -0.92879229994E+03  0.13246726854E+04  0.50400001928E-02 0.  1.
</event>
<event>
 5   0  0.5385714E-07  0.3099291E+04  0.7818609E-02  0.8215932E-01
        1   -1    0    0  501    0  0.00000000000E+00  0.00000000000E+00  0.28128220576E+04  0.28128220576E+04  0.50400001928E-02 0. -1.
       -1   -1    0    0    0  501  0.00000000000E+00  0.00000000000E+00 -0.85373384179E+03  0.85373384180E+03  0.50400001928E-02 0.  1.
    10030    2    1    2    0    0  0.00000000000E+00  0.00000000000E+00  0.19590882158E+04  0.36665558994E+04  0.30992911328E+04 0.  0.
        3    1    3    3  502    0  0.19350587221E+03 -0.15364124285E+04  0.10484620886E+04  0.18701017177E+04  0.10100000352E+00 0. -1.
       -3    1    3    3    0  502 -0.19350587221E+03  0.15364124285E+04  0.91062612723E+03  0.17964541817E+04  0.10100000352E+00 0.  1.
</event>
<event>
 5   0  0.3471602E-07  0.2866229E+04  0.7818609E-02  0.8282997E-01
       -1   -1    0    0    0  501  0.00000000000E+00  0.00000000000E+00  0.14110488539E+04  0.14110488539E+04  0.50400001928E-02 0.  1.
        1   -1    0    0  501    0  0.00000000000E+00  0.00000000000E+00 -0.14555255122E+04  0.14555255122E+04  0.50400001928E-02 0. -1.
    10030    2    1    2    0    0  0.00000000000E+00  0.00000000000E+00 -0.44476658296E+02  0.28665743661E+04  0.28662293040E+04 0.  0.
        5    1    3    3  502    0  0.45501756133E+03  0.11864889425E+04 -0.68488773224E+03  0.14435685947E+04  0.46999998093E+01 0.  1.
       -5    1    3    3    0  502 -0.45501756133E+03 -0.11864889425E+04  0.64041107394E+03  0.14230057714E+04  0.46999998093E+01 0. -1.
</event>
<event>
 5   0  0.7268013E-07  0.3807342E+04  0.7818609E-02  0.8044581E-01
       -2   -1    0    0    0  501  0.00000000000E+00  0.00000000000E+00  0.19361102812E+04  0.19361102812E+04  0.25500000920E-02 0.  1.
        2   -1    0    0  501    0  0.00000000000E+00  0.00000000000E+00 -0.18717753904E+04  0.18717753904E+04  0.25500000920E-02 0. -1.
    10030    2    1    2    0    0  0.00000000000E+00  0.00000000000E+00  0.64334890776E+02  0.38078856717E+04  0.38073421583E+04 0.  0.
        4    1    3    3  502    0  0.17957354944E+04  0.31096604512E+03  0.58233334531E+03  0.19132379844E+04  0.12699999809E+01 0.  1.
       -4    1    3    3    0  502 -0.17957354944E+04 -0.31096604512E+03 -0.51799845454E+03  0.18946476873E+04  0.12699999809E+01 0. -1.
</event>
<event>
 5   0  0.1034683E-06  0.3942792E+04  0.7818609E-02  0.8016188E-01
        2   -1    0    0  501    0  0.00000000000E+00  0.00000000000E+00  0.20438828667E+04  0.20438828667E+04  0.25500000920E-02 0. -1.
       -2   -1    0    0    0  501  0.00000000000E+00  0.00000000000E+00 -0.19014803511E+04  0.19014803511E+04  0.25500000920E-02 0.  1.
    10030    2    1    2    0    0  0.00000000000E+00  0.00000000000E+00  0.14240251554E+03  0.39453632178E+04  0.39427924677E+04 0.  0.
        2    1    3    3  502    0 -0.72657929636E+03  0.11111690854E+04  0.15294739612E+04  0.20253159773E+04  0.25500000920E-02 0. -1.
       -2    1    3    3    0  502  0.72657929636E+03 -0.11111690854E+04 -0.13870714456E+04  0.19200472404E+04  0.25500000920E-02 0.  1.
</event>
<event>
 5   0  0.3977376E-07  0.3890486E+04  0.7818609E-02  0.8027011E-01
        1   -1    0    0  501    0  0.00000000000E+00  0.00000000000E+00  0.24390427401E+04  0.24390427401E+04  0.50400001928E-02 0.  1.
       -1   -1    0    0    0  501  0.00000000000E+00  0.00000000000E+00 -0.15514160002E+04  0.15514160003E+04  0.50400001928E-02 0. -1.
    10030    2    1    2    0    0  0.00000000000E+00  0.00000000000E+00  0.88762673985E+03  0.39904587404E+04  0.38904857960E+04 0.  0.
        4    1    3    3  502    0 -0.19203252026E+04  0.30873088725E+03  0.47632447559E+03  0.20024610517E+04  0.12699999809E+01 0.  1.
       -4    1    3    3    0  502  0.19203252026E+04 -0.30873088725E+03  0.41130226426E+03  0.19879976887E+04  0.12699999809E+01 0. -1.
</event>
<event>
 5   0  0.1015219E-06  0.3934025E+04  0.7818609E-02  0.8017990E-01
       -2   -1    0    0    0  501  0.00000000000E+00  0.00000000000E+00  0.17753731492E+04  0.17753731492E+04  0.25500000920E-02 0.  1.
        2   -1    0    0  501    0  0.00000000000E+00  0.00000000000E+00 -0.21793382458E+04  0.21793382458E+04  0.25500000920E-02 0. -1.
    10030    2    1    2    0    0  0.00000000000E+00  0.00000000000E+00 -0.40396509660E+03  0.39547113951E+04  0.39340252184E+04 0.  0.
        3    1    3    3  502    0  0.17522649511E+04 -0.70541033821E+02 -0.10975825387E+04  0.20688392726E+04  0.10100000352E+00 0. -1.
       -3    1    3    3    0  502 -0.17522649511E+04  0.70541033821E+02  0.69361744205E+03  0.18858721225E+04  0.10100000352E+00 0.  1.
</event>
<event>
 5   0  0.3977376E-07  0.3872050E+04  0.7818609E-02  0.8030867E-01
       -1   -1    0    0    0  501  0.00000000000E+00  0.00000000000E+00  0.17133637774E+04  0.17133637774E+04  0.50400001928E-02 0.  1.
        1   -1    0    0  501    0  0.00000000000E+00  0.00000000000E+00 -0.21876228538E+04  0.21876228538E+04  0.50400001928E-02 0. -1.
    10030    2    1    2    0    0  0.00000000000E+00  0.00000000000E+00 -0.47425907636E+03  0.39009866312E+04  0.38720504936E+04 0.  0.
        4    1    3    3  502    0 -0.12398925710E+04  0.80627280785E+03 -0.14957786488E+04  0.21035124928E+04  0.12699999809E+01 0. -1.
       -4    1    3    3    0  502  0.12398925710E+04 -0.80627280785E+03  0.10215195724E+04  0.17974741384E+04  0.12699999809E+01 0.  1.
</event>
<event>
 5   0  0.7268013E-07  0.2620392E+04  0.7818609E-02  0.8361307E-01
        2   -1    0    0  501    0  0.00000000000E+00  0.00000000000E+00  0.90818891370E+03  0.90818891370E+03  0.25500000920E-02 0.  1.
       -2   -1    0    0    0  501  0.00000000000E+00  0.00000000000E+00 -0.18901499111E+04  0.18901499111E+04  0.25500000920E-02 0. -1.
    10030    2    1    2    0    0  0.00000000000E+00  0.00000000000E+00 -0.98196099737E+03  0.27983388248E+04  0.26203917222E+04 0.  0.
        4    1    3    3  502    0 -0.29669658493E+03 -0.54557577289E+03 -0.17229831794E+04  0.18314896770E+04  0.12699999809E+01 0. -1.
       -4    1    3    3    0  502  0.29669658493E+03  0.54557577289E+03  0.74102218201E+03  0.96684914781E+03  0.12699999809E+01 0.  1.
</event>
<event>
 5   0  0.3191750E-07  0.2176041E+04  0.7818609E-02  0.8528467E-01
       -4   -1    0    0    0  501  0.00000000000E+00  0.00000000000E+00  0.92613698948E+03  0.92613786025E+03  0.12699999809E+01 0.  1.
        4   -1    0    0  501    0  0.00000000000E+00  0.00000000000E+00 -0.12781982623E+04  0.12781988932E+04  0.12699999809E+01 0. -1.
    10030    2    1    2    0    0  0.00000000000E+00  0.00000000000E+00 -0.35206127278E+03  0.22043367534E+04  0.21760407585E+04 0.  0.
        5    1    3    3  502    0  0.17991504309E+03  0.79662157606E+03  0.55219899112E+03  0.98586062604E+03  0.46999998093E+01 0.  1.
       -5    1    3    3    0  502 -0.17991504309E+03 -0.79662157606E+03 -0.90426026390E+03  0.12184761274E+04  0.46999998093E+01 0. -1.
</event>
<event>
 5   0  0.1035864E-06  0.3814306E+04  0.7818609E-02  0.8043092E-01
        2   -1    0    0  501    0  0.00000000000E+00  0.00000000000E+00  0.13827516232E+04  0.13827516233E+04  0.25500000920E-02 0.  1.
       -2   -1    0    0    0  501  0.00000000000E+00  0.00000000000E+00 -0.26304302448E+04  0.26304302448E+04  0.25500000920E-02 0. -1.
    10030    2    1    2    0    0  0.00000000000E+00  0.00000000000E+00 -0.12476786216E+04  0.40131818681E+04  0.38143055415E+04 0.  0.
        5    1    3    3  502    0  0.98787446822E+03 -0.23045294743E+03  0.10753596365E+04  0.14783182890E+04  0.46999998093E+01 0.  1.
       -5    1    3    3    0  502 -0.98787446822E+03  0.23045294743E+03 -0.23230382581E+04  0.25348635791E+04  0.46999998093E+01 0. -1.
</event>
<event>
 5   0  0.1034683E-06  0.3914818E+04  0.7818609E-02  0.8021954E-01
       -2   -1    0    0    0  501  0.00000000000E+00  0.00000000000E+00  0.13158591105E+04  0.13158591105E+04  0.25500000920E-02 0.  1.
        2   -1    0    0  501    0  0.00000000000E+00  0.00000000000E+00 -0.29117475961E+04  0.29117475961E+04  0.25500000920E-02 0. -1.
    10030    2    1    2    0    0  0.00000000000E+00  0.00000000000E+00 -0.15958884856E+04  0.42276067066E+04  0.39148178000E+04 0.  0.
        2    1    3    3  502    0  0.67778812114E+03  0.11107799566E+04  0.78115452274E+03  0.15177059127E+04  0.25500000920E-02 0.  1.
       -2    1    3    3    0  502 -0.67778812114E+03 -0.11107799566E+04 -0.23770430083E+04  0.27099007939E+04  0.25500000920E-02 0. -1.
</event>
<event>
 5   0  0.3191750E-07  0.3563188E+04  0.7818609E-02  0.8098976E-01
       -3   -1    0    0    0  501  0.00000000000E+00  0.00000000000E+00  0.17282085544E+04  0.17282085573E+04  0.10100000352E+00 0.  1.
        3   -1    0    0  501    0  0.00000000000E+00  0.00000000000E+00 -0.18366286507E+04  0.18366286534E+04  0.10100000352E+00 0. -1.
    10030    2    1    2    0    0  0.00000000000E+00  0.00000000000E+00 -0.10842009628E+03  0.35648372107E+04  0.35631880980E+04 0.  0.
        2    1    3    3  502    0 -0.10109937362E+04 -0.10731385261E+04 -0.10548442945E+04  0.18128516532E+04  0.25500000920E-02 0. -1.
       -2    1    3    3    0  502  0.10109937362E+04  0.10731385261E+04  0.94642419825E+03  0.17519855575E+04  0.25500000920E-02 0.  1.
</event>
<event>
 5   0  0.3977376E-07  0.3816326E+04  0.7818609E-02  0.8042660E-01
       -1   -1    0    0    0  501  0.00000000000E+00  0.00000000000E+00  0.26829620578E+04  0.26829620578E+04  0.50400001928E-02 0.  1.
        1   -1    0    0  501    0  0.00000000000E+00  0.00000000000E+00 -0.13571145452E+04  0.13571145452E+04  0.50400001928E-02 0. -1.
    10030    2    1    2    0    0  0.00000000000E+00  0.00000000000E+00  0.13258475126E+04  0.40400766030E+04  0.38163264184E+04 0.  0.
        4    1    3    3  502    0  0.13320631380E+04 -0.51897339975E+03 -0.67504335378E+03  0.15809524774E+04  0.12699999809E+01 0. -1.
       -4    1    3    3    0  502 -0.13320631380E+04  0.51897339975E+03  0.20008908663E+04  0.24591241256E+04  0.12699999809E+01 0.  1.
</event>
<event>
 5   0  0.3471602E-07  0.3926733E+04  0.7818609E-02  0.8019492E-01
        1   -1    0    0  501    0  0.00000000000E+00  0.00000000000E+00  0.19282959852E+04  0.19282959852E+04  0.50400001928E-02 0.  1.
       -1   -1    0    0    0  501  0.00000000000E+00  0.00000000000E+00 -0.19990745116E+04  0.19990745116E+04  0.50400001928E-02 0. -1.
    10030    2    1    2    0    0  0.00000000000E+00  0.00000000000E+00 -0.70778526375E+02  0.39273704969E+04  0.39267326647E+04 0.  0.
        5    1    3    3  502    0  0.73804115416E+03 -0.17263951204E+04 -0.60962571797E+03  0.19740340582E+04  0.46999998093E+01 0. -1.
       -5    1    3    3    0  502 -0.73804115416E+03  0.17263951204E+04  0.53884719160E+03  0.19533364387E+04  0.46999998093E+01 0.  1.
</event>
<event>
 5   0  0.1034683E-06  0.3899057E+04  0.7818609E-02  0.8025225E-01
        2   -1    0    0  501    0  0.00000000000E+00  0.00000000000E+00  0.31927225847E+04  0.31927225847E+04  0.25500000920E-02 0.  1.
       -2   -1    0    0    0  501  0.00000000000E+00  0.00000000000E+00 -0.11904139707E+04  0.11904139707E+04  0.25500000920E-02 0. -1.
    10030    2    1    2    0    0  0.00000000000E+00  0.00000000000E+00  0.20023086141E+04  0.43831365554E+04  0.38990571011E+04 0.  0.
        2    1    3    3  502    0 -0.41415418031E+03 -0.10797264370E+04  0.27655118142E+04  0.29975637538E+04  0.25500000920E-02 0.  1.
       -2    1    3    3    0  502  0.41415418031E+03  0.10797264370E+04 -0.76320320015E+03  0.13855728016E+04  0.25500000920E-02 0. -1.
</event>
<event>
 5   0  0.1034683E-06  0.2030900E+04  0.7818609E-02  0.8592309E-01
       -2   -1    0    0    0  501  0.00000000000E+00  0.00000000000E+00  0.87618136029E+03  0.87618136029E+03  0.25500000920E-02 0. -1.
        2   -1    0    0  501    0  0.00000000000E+00  0.00000000000E+00 -0.11768550971E+04  0.11768550971E+04  0.25500000920E-02 0.  1.
    10030    2    1    2    0    0  0.00000000000E+00  0.00000000000E+00 -0.30067373686E+03  0.20530364574E+04  0.20308998005E+04 0.  0.
        2    1    3    3  502    0  0.38350751842E+03 -0.21903964083E+03  0.77400501556E+03  0.89114541184E+03  0.25500000920E-02 0. -1.
       -2    1    3    3    0  502 -0.38350751842E+03  0.21903964083E+03 -0.10746787524E+04  0.11618910456E+04  0.25500000920E-02 0.  1.
</event>
<event>
 5   0  0.3977376E-07  0.3032623E+04  0.7818609E-02  0.8234476E-01
        1   -1    0    0  501    0  0.00000000000E+00  0.00000000000E+00  0.17999252744E+04  0.17999252744E+04  0.50400001928E-02 0.  1.
       -1   -1    0    0    0  501  0.00000000000E+00  0.00000000000E+00 -0.12773869315E+04  0.12773869315E+04  0.50400001928E-02 0. -1.
    10030    2    1    2    0    0  0.00000000000E+00  0.00000000000E+00  0.52253834290E+03  0.30773122059E+04  0.30326233022E+04 0.  0.
        4    1    3    3  502    0 -0.95981632987E+03  0.27823680752E+03  0.14184849095E+04  0.17351553704E+04  0.12699999809E+01 0.  1.
       -4    1    3    3    0  502  0.95981632987E+03 -0.27823680752E+03 -0.89594656655E+03  0.13421568355E+04  0.12699999809E+01 0. -1.
</event>
<event>
 5   0  0.5533707E-07  0.1920614E+04  0.7818609E-02  0.8644663E-01
       -2   -1    0    0    0  501  0.00000000000E+00  0.00000000000E+00  0.39873545492E+03  0.39873545492E+03  0.25500000920E-02 0. -1.
        2   -1    0    0  501    0  0.00000000000E+00  0.00000000000E+00 -0.23127854216E+04  0.23127854216E+04  0.25500000920E-02 0.  1.
    10030    2    1    2    0    0  0.00000000000E+00  0.00000000000E+00 -0.19140499667E+04  0.27115208765E+04  0.19206140135E+04 0.  0.
        1    1    3    3  502    0  0.73717009021E+03  0.51410977692E+03 -0.47938407218E+03  0.10185959421E+04  0.50400001928E-02 0. -1.
       -1    1    3    3    0  502 -0.73717009021E+03 -0.51410977692E+03 -0.14346658945E+04  0.16929249344E+04  0.50400001928E-02 0.  1.
</event>
<event>
 5   0  0.5533705E-07  0.1926073E+04  0.7818609E-02  0.8641986E-01
        2   -1    0    0  501    0  0.00000000000E+00  0.00000000000E+00  0.77212623843E+03  0.77212623843E+03  0.25500000920E-02 0.  1.
       -2   -1    0    0    0  501  0.00000000000E+00  0.00000000000E+00 -0.12011503695E+04  0.12011503695E+04  0.25500000920E-02 0. -1.
    10030    2    1    2    0    0  0.00000000000E+00  0.00000000000E+00 -0.42902413112E+03  0.19732766080E+04  0.19260734323E+04 0.  0.
        1    1    3    3  502    0 -0.25516467189E+03  0.91593115794E+03 -0.57789810630E+02  0.95256420157E+03  0.50400001928E-02 0.  1.
       -1    1    3    3    0  502  0.25516467189E+03 -0.91593115794E+03 -0.37123432049E+03  0.10207124064E+04  0.50400001928E-02 0. -1.
</event>
<event>
 5   0  0.7268013E-07  0.3753809E+04  0.7818609E-02  0.8056141E-01
       -2   -1    0    0    0  501  0.00000000000E+00  0.00000000000E+00  0.21026915460E+04  0.21026915460E+04  0.25500000920E-02 0. -1.
        2   -1    0    0  501    0  0.00000000000E+00  0.00000000000E+00 -0.16753627980E+04  0.16753627980E+04  0.25500000920E-02 0.  1.
    10030    2    1    2    0    0  0.00000000000E+00  0.00000000000E+00  0.42732874794E+03  0.37780543440E+04  0.37538093675E+04 0.  0.
        4    1    3    3  502    0  0.10932592343E+04 -0.10426835435E+04 -0.90724554618E+03  0.17622431215E+04  0.12699999809E+01 0.  1.
       -4    1    3    3    0  502 -0.10932592343E+04  0.10426835435E+04  0.13345742941E+04  0.20158112225E+04  0.12699999809E+01 0. -1.
</event>
<event>
 5   0  0.4316671E-07  0.2721166E+04  0.7818609E-02  0.8328170E-01
       -1   -1    0    0    0  501  0.00000000000E+00  0.00000000000E+00  0.22068030520E+04  0.22068030520E+04  0.50400001928E-02 0.  1.
        1   -1    0    0  501    0  0.00000000000E+00  0.00000000000E+00 -0.83885398194E+03  0.83885398195E+03  0.50400001928E-02 0. -1.
    10030    2    1    2    0    0  0.00000000000E+00  0.00000000000E+00  0.13679490700E+04  0.30456570339E+04  0.27211655793E+04 0.  0.
        2    1    3    3  502    0 -0.51633894226E+03  0.12294532857E+04  0.38152037793E+03  0.13869820056E+04  0.25500000920E-02 0. -1.
       -2    1    3    3    0  502  0.51633894226E+03 -0.12294532857E+04  0.98642869212E+03  0.16586750284E+04  0.25500000920E-02 0.  1.
</event>
<event>
 5   0  0.4316671E-07  0.1929140E+04  0.7818609E-02  0.8640486E-01
       -1   -1    0    0    0  501  0.00000000000E+00  0.00000000000E+00  0.34524787563E+03  0.34524787566E+03  0.50400001928E-02 0. -1.
        1   -1    0    0  501    0  0.00000000000E+00  0.00000000000E+00 -0.26948618039E+04  0.26948618039E+04  0.50400001928E-02 0.  1.
    10030    2    1    2    0    0  0.00000000000E+00  0.00000000000E+00 -0.23496139282E+04  0.30401096795E+04  0.19291400291E+04 0.  0.
        2    1    3    3  502    0  0.74491694714E+03  0.52031080987E+03 -0.66471855462E+03  0.11258220791E+04  0.25500000920E-02 0. -1.
       -2    1    3    3    0  502 -0.74491694714E+03 -0.52031080987E+03 -0.16848953736E+04  0.19142876004E+04  0.25500000920E-02 0.  1.
</event>
<event>
 5   0  0.1015219E-06  0.3800081E+04  0.7818609E-02  0.8046137E-01
       -2   -1    0    0    0  501  0.00000000000E+00  0.00000000000E+00  0.13081676326E+04  0.13081676326E+04  0.25500000920E-02 0. -1.
        2   -1    0    0  501    0  0.00000000000E+00  0.00000000000E+00 -0.27597033617E+04  0.27597033617E+04  0.25500000920E-02 0.  1.
    10030    2    1    2    0    0  0.00000000000E+00  0.00000000000E+00 -0.14515357291E+04  0.40678709943E+04  0.38000813745E+04 0.  0.
        3    1    3    3  502    0  0.10179682028E+04 -0.49083759320E+03  0.90927523657E+03  0.14505041437E+04  0.10100000352E+00 0. -1.
       -3    1    3    3    0  502 -0.10179682028E+04  0.49083759320E+03 -0.23608109657E+04  0.26173668506E+04  0.10100000352E+00 0.  1.
</event>
<event>
 5   0  0.4316671E-07  0.3907009E+04  0.7818609E-02  0.8023573E-01
        1   -1    0    0  501    0  0.00000000000E+00  0.00000000000E+00  0.25019116658E+04  0.25019116658E+04  0.50400001928E-02 0. -1.
       -1   -1    0    0    0  501  0.00000000000E+00  0.00000000000E+00 -0.15253057475E+04  0.15253057475E+04  0.50400001928E-02 0.  1.
    10030    2    1    2    0    0  0.00000000000E+00  0.00000000000E+00  0.97660591831E+03  0.40272174133E+04  0.39070092110E+04 0.  0.
        2    1    3    3  502    0  0.26843363382E+03 -0.12897257126E+04 -0.99855209039E+03  0.16530442543E+04  0.25500000920E-02 0.  1.
       -2    1    3    3    0  502 -0.26843363382E+03  0.12897257126E+04  0.19751580087E+04  0.23741731590E+04  0.25500000920E-02 0. -1.
</event>
<event>
 5   0  0.5533705E-07  0.3003296E+04  0.7818609E-02  0.8242790E-01
       -2   -1    0    0    0  501  0.00000000000E+00  0.00000000000E+00  0.20171917552E+04  0.20171917552E+04  0.25500000920E-02 0.  1.
        2   -1    0    0  501    0  0.00000000000E+00  0.00000000000E+00 -0.11178642321E+04  0.11178642321E+04  0.25500000920E-02 0. -1.
    10030    2    1    2    0    0  0.00000000000E+00  0.00000000000E+00  0.89932752309E+03  0.31350559874E+04  0.30032958646E+04 0.  0.
        1    1    3    3  502    0  0.14724970401E+04  0.27126098860E+03  0.56921537108E+03  0.16018227729E+04  0.50400001928E-02 0. -1.
       -1    1    3    3    0  502 -0.14724970401E+04 -0.27126098860E+03  0.33011215201E+03  0.15332332145E+04  0.50400001928E-02 0.  1.
</event>
<event>
 5   0  0.5533705E-07  0.3859799E+04  0.7818609E-02  0.8033443E-01
        2   -1    0    0  501    0  0.00000000000E+00  0.00000000000E+00  0.23041292319E+04  0.23041292319E+04  0.25500000920E-02 0.  1.
       -2   -1    0    0    0  501  0.00000000000E+00  0.00000000000E+00 -0.16164509837E+04  0.16164509837E+04  0.25500000920E-02 0. -1.
    10030    2    1    2    0    0  0.00000000000E+00  0.00000000000E+00  0.68767824823E+03  0.39205802156E+04  0.38597989395E+04 0.  0.
        1    1    3    3  502    0 -0.17906507216E+03  0.15523174289E+04  0.14942634915E+04  0.21620770297E+04  0.50400001928E-02 0. -1.
       -1    1    3    3    0  502  0.17906507216E+03 -0.15523174289E+04 -0.80658524324E+03  0.17585031859E+04  0.50400001928E-02 0.  1.
</event>
<event>
 5   0  0.4316671E-07  0.3613988E+04  0.7818609E-02  0.8087295E-01
       -1   -1    0    0    0  501  0.00000000000E+00  0.00000000000E+00  0.12509006612E+04  0.12509006612E+04  0.50400001928E-02 0. -1.
        1   -1    0    0  501    0  0.00000000000E+00  0.00000000000E+00 -0.26103010019E+04  0.26103010019E+04  0.50400001928E-02 0.  1.
    10030    2    1    2    0    0  0.00000000000E+00  0.00000000000E+00 -0.13594003406E+04  0.38612016631E+04  0.36139879630E+04 0.  0.
        2    1    3    3  502    0 -0.13956437308E+04 -0.35925456042E+03 -0.18443798647E+04  0.23406457117E+04  0.25500000920E-02 0.  1.
       -2    1    3    3    0  502  0.13956437308E+04  0.35925456042E+03  0.48497952401E+03  0.15205559514E+04  0.25500000920E-02 0. -1.
</event>
<event>
 5   0  0.5385714E-07  0.2632130E+04  0.7818609E-02  0.8357369E-01
       -1   -1    0    0    0  501  0.00000000000E+00  0.00000000000E+00  0.20297892861E+04  0.20297892861E+04  0.50400001928E-02 0. -1.
        1   -1    0    0  501    0  0.00000000000E+00  0.00000000000E+00 -0.85330380677E+03  0.85330380678E+03  0.50400001928E-02 0.  1.
    10030    2    1    2    0    0  0.00000000000E+00  0.00000000000E+00  0.11764854794E+04  0.28830930929E+04  0.26321298789E+04 0.  0.
        3    1    3    3  502    0 -0.33360016269E+03 -0.94302942371E+03  0.15250251559E+04  0.18238133948E+04  0.10100000352E+00 0. -1.
       -3    1    3    3    0  502  0.33360016269E+03  0.94302942371E+03 -0.34853967658E+03  0.10592796981E+04  0.10100000352E+00 0.  1.
</event>
<event>
 5   0  0.4316671E-07  0.3828120E+04  0.7818609E-02  0.8040147E-01
        1   -1    0    0  501    0  0.00000000000E+00  0.00000000000E+00  0.19793369755E+04  0.19793369755E+04  0.50400001928E-02 0. -1.
       -1   -1    0    0    0  501  0.00000000000E+00  0.00000000000E+00 -0.18509362324E+04  0.18509362325E+04  0.50400001928E-02 0.  1.
    10030    2    1    2    0    0  0.00000000000E+00  0.00000000000E+00  0.12840074303E+03  0.38302732079E+04  0.38281204391E+04 0.  0.
        2    1    3    3  502    0  0.10354720610E+04 -0.87396060368E+03  0.14168544741E+04  0.19604810957E+04  0.25500000920E-02 0. -1.
       -2    1    3    3    0  502 -0.10354720610E+04  0.87396060368E+03 -0.12884537311E+04  0.18697921122E+04  0.25500000920E-02 0.  1.
</event>
<event>
 5   0  0.1015219E-06  0.4007941E+04  0.7818609E-02  0.8002946E-01
       -2   -1    0    0    0  501  0.00000000000E+00  0.00000000000E+00  0.22212101375E+04  0.22212101375E+04  0.25500000920E-02 0. -1.
        2   -1    0    0  501    0  0.00000000000E+00  0.00000000000E+00 -0.18079777066E+04  0.18079777066E+04  0.25500000920E-02 0.  1.
    10030    2    1    2    0    0  0.00000000000E+00  0.00000000000E+00  0.41323243092E+03  0.40291878440E+04  0.40079413220E+04 0.  0.
        3    1    3    3  502    0 -0.53170450412E+03  0.18965096256E+04  0.57795212804E+03  0.20526780342E+04  0.10100000352E+00 0.  1.
       -3    1    3    3    0  502  0.53170450412E+03 -0.18965096256E+04 -0.16471969712E+03  0.19765098098E+04  0.10100000352E+00 0. -1.
</event>
<event>
 5   0  0.5358277E-07  0.1917699E+04  0.7818609E-02  0.8646096E-01
       -1   -1    0    0    0  501  0.00000000000E+00  0.00000000000E+00  0.57720125179E+03  0.57720125181E+03  0.50400001928E-02 0. -1.
        1   -1    0    0  501    0  0.00000000000E+00  0.00000000000E+00 -0.15928448487E+04  0.15928448487E+04  0.50400001928E-02 0.  1.
    10030    2    1    2    0    0  0.00000000000E+00  0.00000000000E+00 -0.10156435969E+04  0.21700461005E+04  0.19176986631E+04 0.  0.
        2    1    3    3  502    0 -0.71233643573E+03  0.13644253370E+02  0.21832199736E+03  0.74516699998E+03  0.25500000920E-02 0. -1.
       -2    1    3    3    0  502  0.71233643573E+03 -0.13644253370E+02 -0.12339655943E+04  0.14248791005E+04  0.25500000920E-02 0.  1.
</event>
<event>
 5   0  0.1066278E-06  0.1996365E+04  0.7818609E-02  0.8608322E-01
       -2   -1    0    0    0  501  0.00000000000E+00  0.00000000000E+00  0.84254357291E+03  0.84254357291E+03  0.25500000920E-02 0. -1.
        2   -1    0    0  501    0  0.00000000000E+00  0.00000000000E+00 -0.11825717240E+04  0.11825717240E+04  0.25500000920E-02 0.  1.
    10030    2    1    2    0    0  0.00000000000E+00  0.00000000000E+00 -0.34002815109E+03  0.20251152969E+04  0.19963649021E+04 0.  0.
        5    1    3    3  502    0 -0.59521438828E+03  0.61272535812E+03  0.35378804541E+03  0.92460835145E+03  0.46999998093E+01 0. -1.
       -5    1    3    3    0  502  0.59521438828E+03 -0.61272535812E+03 -0.69381619650E+03  0.11005069455E+04  0.46999998093E+01 0.  1.
</event>
<event>
 5   0  0.3471602E-07  0.3862844E+04  0.7818609E-02  0.8032802E-01
       -1   -1    0    0    0  501  0.00000000000E+00  0.00000000000E+00  0.13604426279E+04  0.13604426279E+04  0.50400001928E-02 0. -1.
        1   -1    0    0  501    0  0.00000000000E+00  0.00000000000E+00 -0.27420425308E+04  0.27420425308E+04  0.50400001928E-02 0.  1.
    10030    2    1    2    0    0  0.00000000000E+00  0.00000000000E+00 -0.13815999029E+04  0.41024851587E+04  0.38628443129E+04 0.  0.
        5    1    3    3  502    0 -0.84193655154E+03  0.13671622915E+04  0.44928598540E+03  0.16672941777E+04  0.46999998093E+01 0. -1.
       -5    1    3    3    0  502  0.84193655154E+03 -0.13671622915E+04 -0.18308858883E+04  0.24351909810E+04  0.46999998093E+01 0.  1.
</event>
<event>
 5   0  0.1034683E-06  0.3743645E+04  0.7818609E-02  0.8058358E-01
        2   -1    0    0  501    0  0.00000000000E+00  0.00000000000E+00  0.13583315328E+04  0.13583315328E+04  0.25500000920E-02 0. -1.
       -2   -1    0    0    0  501  0.00000000000E+00  0.00000000000E+00 -0.25794292026E+04  0.25794292026E+04  0.25500000920E-02 0.  1.
    10030    2    1    2    0    0  0.00000000000E+00  0.00000000000E+00 -0.12210976698E+04  0.39377607354E+04  0.37436452944E+04 0.  0.
        2    1    3    3  502    0 -0.17560223610E+04  0.35248733360E+02 -0.12913035206E+04  0.21799820613E+04  0.25500000920E-02 0.  1.
       -2    1    3    3    0  502  0.17560223610E+04 -0.35248733360E+02  0.70205850816E+02  0.17577786741E+04  0.25500000920E-02 0. -1.
</event>
<event>
 5   0  0.7268013E-07  0.3444780E+04  0.7818609E-02  0.8127002E-01
       -2   -1    0    0    0  501  0.00000000000E+00  0.00000000000E+00  0.14176310238E+04  0.14176310238E+04  0.25500000920E-02 0. -1.
        2   -1    0    0  501    0  0.00000000000E+00  0.00000000000E+00 -0.20926652930E+04  0.20926652930E+04  0.25500000920E-02 0.  1.
    10030    2    1    2    0    0  0.00000000000E+00  0.00000000000E+00 -0.67503426921E+03  0.35102963168E+04  0.34447799592E+04 0.  0.
        4    1    3    3  502    0  0.74809656939E+02 -0.75129790084E+03  0.12400153571E+04  0.14517867335E+04  0.12699999809E+01 0. -1.
       -4    1    3    3    0  502 -0.74809656939E+02  0.75129790084E+03 -0.19150496264E+04  0.20585095834E+04  0.12699999809E+01 0.  1.
</event>
<event>
 5   0  0.5533705E-07  0.3875971E+04  0.7818609E-02  0.8030045E-01
        2   -1    0    0  501    0  0.00000000000E+00  0.00000000000E+00  0.33806179029E+04  0.33806179029E+04  0.25500000920E-02 0.  1.
       -2   -1    0    0    0  501  0.00000000000E+00  0.00000000000E+00 -0.11109766739E+04  0.11109766739E+04  0.25500000920E-02 0. -1.
    10030    2    1    2    0    0  0.00000000000E+00  0.00000000000E+00  0.22696412290E+04  0.44915945768E+04  0.38759709149E+04 0.  0.
        1    1    3    3  502    0 -0.12781633297E+04  0.11072037212E+03 -0.54840943671E+03  0.13952467196E+04  0.50400001928E-02 0. -1.
       -1    1    3    3    0  502  0.12781633297E+04 -0.11072037212E+03  0.28180506657E+04  0.30963478572E+04  0.50400001928E-02 0.  1.
</event>
<event>
 5   0  0.3977376E-07  0.2815297E+04  0.7818609E-02  0.8298535E-01
       -1   -1    0    0    0  501  0.00000000000E+00  0.00000000000E+00  0.14954723918E+04  0.14954723918E+04  0.50400001928E-02 0. -1.
        1   -1    0    0  501    0  0.00000000000E+00  0.00000000000E+00 -0.13249824323E+04  0.13249824323E+04  0.50400001928E-02 0.  1.
    10030    2    1    2    0    0  0.00000000000E+00  0.00000000000E+00  0.17048995950E+03  0.28204548241E+04  0.28152972469E+04 0.  0.
        4    1    3    3  502    0  0.13863644814E+03  0.93454658483E+03 -0.96015872622E+03  0.13470351801E+04  0.12699999809E+01 0.  1.
       -4    1    3    3    0  502 -0.13863644814E+03 -0.93454658483E+03  0.11306486857E+04  0.14734196440E+04  0.12699999809E+01 0. -1.
</event>
<event>
 5   0  0.5385714E-07  0.2285704E+04  0.7818609E-02  0.8483579E-01
        1   -1    0    0  501    0  0.00000000000E+00  0.00000000000E+00  0.84519479867E+03  0.84519479869E+03  0.50400001928E-02 0. -1.
       -1   -1    0    0    0  501  0.00000000000E+00  0.00000000000E+00 -0.15453367774E+04  0.15453367774E+04  0.50400001928E-02 0.  1.
    10030    2    1    2    0    0  0.00000000000E+00  0.00000000000E+00 -0.70014197876E+03  0.23905315761E+04  0.22857039235E+04 0.  0.
        3    1    3    3  502    0  0.55264694432E+03 -0.31911712559E+03 -0.13416324140E+04  0.14856755801E+04  0.10100000352E+00 0.  1.
       -3    1    3    3    0  502 -0.55264694432E+03  0.31911712559E+03  0.64149043520E+03  0.90485599604E+03  0.10100000352E+00 0. -1.
</event>
<event>
 5   0  0.3471602E-07  0.3929719E+04  0.7818609E-02  0.8018876E-01
       -1   -1    0    0    0  501  0.00000000000E+00  0.00000000000E+00  0.12724912582E+04  0.12724912582E+04  0.50400001928E-02 0.  1.
        1   -1    0    0  501    0  0.00000000000E+00  0.00000000000E+00 -0.30339489060E+04  0.30339489060E+04  0.50400001928E-02 0. -1.
    10030    2    1    2    0    0  0.00000000000E+00  0.00000000000E+00 -0.17614576477E+04  0.43064401642E+04  0.39297193084E+04 0.  0.
        5    1    3    3  502    0  0.27599767685E+03 -0.15597340980E+04  0.39335510880E+03  0.16320831798E+04  0.46999998093E+01 0.  1.
       -5    1    3    3    0  502 -0.27599767685E+03  0.15597340980E+04 -0.21548127565E+04  0.26743569844E+04  0.46999998093E+01 0. -1.
</event>
<event>
 5   0  0.3471602E-07  0.3891449E+04  0.7818609E-02  0.8026810E-01
        1   -1    0    0  501    0  0.00000000000E+00  0.00000000000E+00  0.26369782855E+04  0.26369782855E+04  0.50400001928E-02 0.  1.
       -1   -1    0    0    0  501  0.00000000000E+00  0.00000000000E+00 -0.14356749050E+04  0.14356749050E+04  0.50400001928E-02 0. -1.
    10030    2    1    2    0    0  0.00000000000E+00  0.00000000000E+00  0.12013033806E+04  0.40726531905E+04  0.38914488559E+04 0.  0.
        5    1    3    3  502    0  0.18558876420E+04 -0.55480613892E+03  0.79275453814E+03  0.20929908359E+04  0.46999998093E+01 0.  1.
       -5    1    3    3    0  502 -0.18558876420E+04  0.55480613892E+03  0.40854884242E+03  0.19796623546E+04  0.46999998093E+01 0. -1.
</event>
<event>
 5   0  0.1034683E-06  0.4005388E+04  0.7818609E-02  0.8003460E-01
        2   -1    0    0  501    0  0.00000000000E+00  0.00000000000E+00  0.24919908999E+04  0.24919908999E+04  0.25500000920E-02 0. -1.
       -2   -1    0    0    0  501  0.00000000000E+00  0.00000000000E+00 -0.16094698505E+04  0.16094698505E+04  0.25500000920E-02 0.  1.
    10030    2    1    2    0    0  0.00000000000E+00  0.00000000000E+00  0.88252104937E+03  0.41014607504E+04  0.40053884811E+04 0.  0.
        2    1    3    3  502    0  0.52739873465E+03  0.63416444166E+03 -0.14274700665E+04  0.16486311762E+04  0.25500000920E-02 0.  1.
       -2    1    3    3    0  502 -0.52739873465E+03 -0.63416444166E+03  0.23099911159E+04  0.24528295742E+04  0.25500000920E-02 0. -1.
</event>
<event>
 5   0  0.1034683E-06  0.3876446E+04  0.7818609E-02  0.8029946E-01
       -2   -1    0    0    0  501  0.00000000000E+00  0.00000000000E+00  0.22143076590E+04  0.22143076590E+04  0.25500000920E-02 0.  1.
        2   -1    0    0  501    0  0.00000000000E+00  0.00000000000E+00 -0.16965613599E+04  0.16965613599E+04  0.25500000920E-02 0. -1.
    10030    2    1    2    0    0  0.00000000000E+00  0.00000000000E+00  0.51774629917E+03  0.39108690189E+04  0.38764462143E+04 0.  0.
        2    1    3    3  502    0 -0.14581130292E+04  0.46741268650E+03  0.14577607717E+04  0.21141510572E+04  0.25500000920E-02 0.  1.
       -2    1    3    3    0  502  0.14581130292E+04 -0.46741268650E+03 -0.94001447250E+03  0.17967179617E+04  0.25500000920E-02 0. -1.
</event>
<event>
 5   0  0.4627905E-07  0.3910536E+04  0.7818609E-02  0.8022842E-01
       -1   -1    0    0    0  501  0.00000000000E+00  0.00000000000E+00  0.14352329512E+04  0.14352329512E+04  0.50400001928E-02 0.  1.
        1   -1    0    0  501    0  0.00000000000E+00  0.00000000000E+00 -0.26637293088E+04  0.26637293088E+04  0.50400001928E-02 0. -1.
    10030    2    1    2    0    0  0.00000000000E+00  0.00000000000E+00 -0.12284963576E+04  0.40989622600E+04  0.39105355526E+04 0.  0.
        1    1    3    3  502    0  0.57059181038E+03  0.17692066178E+04  0.21097698324E+02  0.18590621785E+04  0.50400001928E-02 0.  1.
       -1    1    3    3    0  502 -0.57059181038E+03 -0.17692066178E+04 -0.12495940559E+04  0.22399000815E+04  0.50400001928E-02 0. -1.
</event>
<event>
 5   0  0.3977376E-07  0.3874129E+04  0.7818609E-02  0.8030431E-01
       -1   -1    0    0    0  501  0.00000000000E+00  0.00000000000E+00  0.17964385965E+04  0.17964385965E+04  0.50400001928E-02 0. -1.
        1   -1    0    0  501    0  0.00000000000E+00  0.00000000000E+00 -0.20886986640E+04  0.20886986640E+04  0.50400001928E-02 0.  1.
    10030    2    1    2    0    0  0.00000000000E+00  0.00000000000E+00 -0.29226006756E+03  0.38851372605E+04  0.38741290100E+04 0.  0.
        4    1    3    3  502    0  0.50352162872E+03  0.17766415835E+04  0.44053474788E+03  0.18984366789E+04  0.12699999809E+01 0. -1.
       -4    1    3    3    0  502 -0.50352162872E+03 -0.17766415835E+04 -0.73279481545E+03  0.19867005817E+04  0.12699999809E+01 0.  1.
</event>
<event>
 5   0  0.5533705E-07  0.4018951E+04  0.7818609E-02  0.8000734E-01
        2   -1    0    0  501    0  0.00000000000E+00  0.00000000000E+00  0.14118520281E+04  0.14118520281E+04  0.25500000920E-02 0.  1.
       -2   -1    0    0    0  501  0.00000000000E+00  0.00000000000E+00 -0.28600677588E+04  0.28600677588E+04  0.25500000920E-02 0. -1.
    10030    2    1    2    0    0  0.00000000000E+00  0.00000000000E+00 -0.14482157308E+04  0.42719197869E+04  0.40189513387E+04 0.  0.
        1    1    3    3  502    0  0.85221610198E+03  0.85904487367E+03 -0.24293833208E+04  0.27140622135E+04  0.50400001928E-02 0. -1.
       -1    1    3    3    0  502 -0.85221610198E+03 -0.85904487367E+03  0.98116758999E+03  0.15578575734E+04  0.50400001928E-02 0.  1.
</event>
<event>
 5   0  0.1015219E-06  0.3767051E+04  0.7818609E-02  0.8053263E-01
        2   -1    0    0  501    0  0.00000000000E+00  0.00000000000E+00  0.23645589666E+04  0.23645589666E+04  0.25500000920E-02 0. -1.
       -2   -1    0    0    0  501  0.00000000000E+00  0.00000000000E+00 -0.15003507897E+04  0.15003507897E+04  0.25500000920E-02 0.  1.
    10030    2    1    2    0    0  0.00000000000E+00  0.00000000000E+00  0.86420817690E+03  0.38649097564E+04  0.37670507897E+04 0.  0.
        3    1    3    3  502    0 -0.12998579210E+03  0.17440208333E+04 -0.28546653486E+03  0.17720034216E+04  0.10100000352E+00 0.  1.
       -3    1    3    3    0  502  0.12998579210E+03 -0.17440208333E+04  0.11496747118E+04  0.20929063348E+04  0.10100000352E+00 0. -1.
</event>
<event>
 5   0  0.1035864E-06  0.2383788E+04  0.7818609E-02  0.8445598E-01
        2   -1    0    0  501    0  0.00000000000E+00  0.00000000000E+00  0.49071893787E+03  0.49071893788E+03  0.25500000920E-02 0.  1.
       -2   -1    0    0    0  501  0.00000000000E+00  0.00000000000E+00 -0.28949595005E+04  0.28949595005E+04  0.25500000920E-02 0. -1.
    10030    2    1    2    0    0  0.00000000000E+00  0.00000000000E+00 -0.24042405626E+04  0.33856784384E+04  0.23837881208E+04 0.  0.
        5    1    3    3  502    0 -0.85931008364E+03  0.69601880839E+02 -0.23710235451E+04  0.25229016991E+04  0.46999998093E+01 0. -1.
       -5    1    3    3    0  502  0.85931008364E+03 -0.69601880839E+02 -0.33217017531E+02  0.86277673932E+03  0.46999998093E+01 0.  1.
</event>
<event>
 5   0  0.1035864E-06  0.3259976E+04  0.7818609E-02  0.8173155E-01
       -2   -1    0    0    0  501  0.00000000000E+00  0.00000000000E+00  0.10561686660E+04  0.10561686660E+04  0.25500000920E-02 0.  1.
        2   -1    0    0  501    0  0.00000000000E+00  0.00000000000E+00 -0.25155650830E+04  0.25155650830E+04  0.25500000920E-02 0. -1.
    10030    2    1    2    0    0  0.00000000000E+00  0.00000000000E+00 -0.14593964169E+04  0.35717337490E+04  0.32599760846E+04 0.  0.
        5    1    3    3  502    0 -0.73140418210E+03 -0.20599366734E+03 -0.23096333748E+04  0.24314221938E+04  0.46999998093E+01 0. -1.
       -5    1    3    3    0  502  0.73140418210E+03  0.20599366734E+03  0.85023695781E+03  0.11403115552E+04  0.46999998093E+01 0.  1.
</event>
<event>
 5   0  0.5385714E-07  0.2558218E+04  0.7818609E-02  0.8382534E-01
        1   -1    0    0  501    0  0.00000000000E+00  0.00000000000E+00  0.12825243396E+04  0.12825243396E+04  0.50400001928E-02 0. -1.
       -1   -1    0    0    0  501  0.00000000000E+00  0.00000000000E+00 -0.12757023645E+04  0.12757023645E+04  0.50400001928E-02 0.  1.
    10030    2    1    2    0    0  0.00000000000E+00  0.00000000000E+00  0.68219750895E+01  0.25582267041E+04  0.25582176081E+04 0.  0.
        3    1    3    3  502    0  0.10829357207E+04 -0.32308789335E+03  0.60256565308E+03  0.12807111065E+04  0.10100000352E+00 0. -1.
       -3    1    3    3    0  502 -0.10829357207E+04  0.32308789335E+03 -0.59574367799E+03  0.12775155976E+04  0.10100000352E+00 0.  1.
</event>
<event>
 5   0  0.5533705E-07  0.3937310E+04  0.7818609E-02  0.8017314E-01
        2   -1    0    0  501    0  0.00000000000E+00  0.00000000000E+00  0.15974355041E+04  0.15974355041E+04  0.25500000920E-02 0. -1.
       -2   -1    0    0    0  501  0.00000000000E+00  0.00000000000E+00 -0.24261405547E+04  0.24261405547E+04  0.25500000920E-02 0.  1.
    10030    2    1    2    0    0  0.00000000000E+00  0.00000000000E+00 -0.82870505064E+03  0.40235760588E+04  0.39373102799E+04 0.  0.
        1    1    3    3  502    0 -0.74964043495E+03  0.93231879741E+03 -0.20120731397E+04  0.23408582702E+04  0.50400001928E-02 0.  1.
       -1    1    3    3    0  502  0.74964043495E+03 -0.93231879741E+03  0.11833680891E+04  0.16827177886E+04  0.50400001928E-02 0. -1.
</event>
<event>
 5   0  0.3471602E-07  0.3717118E+04  0.7818609E-02  0.8064179E-01
        1   -1    0    0  501    0  0.00000000000E+00  0.00000000000E+00  0.26596032513E+04  0.26596032513E+04  0.50400001928E-02 0.  1.
       -1   -1    0    0    0  501  0.00000000000E+00  0.00000000000E+00 -0.12987807560E+04  0.12987807561E+04  0.50400001928E-02 0. -1.
    10030    2    1    2    0    0  0.00000000000E+00  0.00000000000E+00  0.13608224952E+04  0.39583840073E+04  0.37171179812E+04 0.  0.
        5    1    3    3  502    0 -0.21448686759E+03  0.13129741186E+04 -0.70163659795E+03  0.15040683688E+04  0.46999998093E+01 0. -1.
       -5    1    3    3    0  502  0.21448686759E+03 -0.13129741186E+04  0.20624590932E+04  0.24543156385E+04  0.46999998093E+01 0.  1.
</event>
<event>
 5   0  0.4316671E-07  0.2044626E+04  0.7818609E-02  0.8586036E-01
        1   -1    0    0  501    0  0.00000000000E+00  0.00000000000E+00  0.13037330547E+04  0.13037330547E+04  0.50400001928E-02 0. -1.
       -1   -1    0    0    0  501  0.00000000000E+00  0.00000000000E+00 -0.80163949852E+03  0.80163949853E+03  0.50400001928E-02 0.  1.
    10030    2    1    2    0    0  0.00000000000E+00  0.00000000000E+00  0.50209355614E+03  0.21053725532E+04  0.20446260413E+04 0.  0.
        2    1    3    3  502    0  0.25188397726E+01 -0.70771798891E+03 -0.50860649146E+03  0.87152260989E+03  0.25500000920E-02 0.  1.
       -2    1    3    3    0  502 -0.25188397726E+01  0.70771798891E+03  0.10107000476E+04  0.12338499433E+04  0.25500000920E-02 0. -1.
</event>
<event>
 5   0  0.5533705E-07  0.2300863E+04  0.7818609E-02  0.8477581E-01
        2   -1    0    0  501    0  0.00000000000E+00  0.00000000000E+00  0.10625261384E+04  0.10625261384E+04  0.25500000920E-02 0. -1.
       -2   -1    0    0    0  501  0.00000000000E+00  0.00000000000E+00 -0.12456094854E+04  0.12456094854E+04  0.25500000920E-02 0.  1.
    10030    2    1    2    0    0  0.00000000000E+00  0.00000000000E+00 -0.18308334704E+03  0.23081356238E+04  0.23008630003E+04 0.  0.
        1    1    3    3  502    0 -0.10980781840E+04 -0.32056545575E+03 -0.21421772992E+03  0.11637985846E+04  0.50400001928E-02 0.  1.
       -1    1    3    3    0  502  0.10980781840E+04  0.32056545575E+03  0.31134382880E+02  0.11443370393E+04  0.50400001928E-02 0. -1.
</event>
<event>
 5   0  0.1015219E-06  0.4026959E+04  0.7818609E-02  0.7999130E-01
        2   -1    0    0  501    0  0.00000000000E+00  0.00000000000E+00  0.22876202188E+04  0.22876202188E+04  0.25500000920E-02 0. -1.
       -2   -1    0    0    0  501  0.00000000000E+00  0.00000000000E+00 -0.17721912654E+04  0.17721912654E+04  0.25500000920E-02 0.  1.
    10030    2    1    2    0    0  0.00000000000E+00  0.00000000000E+00  0.51542895333E+03  0.40598114842E+04  0.40269594338E+04 0.  0.
        3    1    3    3  502    0 -0.10923290841E+04  0.16061032578E+04 -0.27703715347E+03  0.19620142959E+04  0.10100000352E+00 0.  1.
       -3    1    3    3    0  502  0.10923290841E+04 -0.16061032578E+04  0.79246610680E+03  0.20977971883E+04  0.10100000352E+00 0. -1.
</event>
<event>
 5   0  0.1015219E-06  0.2109697E+04  0.7818609E-02  0.8556984E-01
       -2   -1    0    0    0  501  0.00000000000E+00  0.00000000000E+00  0.92856644481E+03  0.92856644481E+03  0.25500000920E-02 0.  1.
        2   -1    0    0  501    0  0.00000000000E+00  0.00000000000E+00 -0.11983048921E+04  0.11983048921E+04  0.25500000920E-02 0. -1.
    10030    2    1    2    0    0  0.00000000000E+00  0.00000000000E+00 -0.26973844726E+03  0.21268713369E+04  0.21096973370E+04 0.  0.
        3    1    3    3  502    0 -0.26719387941E+03  0.96339404625E+03  0.20429933752E+03  0.10204209362E+04  0.10100000352E+00 0.  1.
       -3    1    3    3    0  502  0.26719387941E+03 -0.96339404625E+03 -0.47403778478E+03  0.11064504007E+04  0.10100000352E+00 0. -1.
</event>
<event>
 5   0  0.1015219E-06  0.3823440E+04  0.7818609E-02  0.8041143E-01
        2   -1    0    0  501    0  0.00000000000E+00  0.00000000000E+00  0.18114861081E+04  0.18114861081E+04  0.25500000920E-02 0.  1.
       -2   -1    0    0    0  501  0.00000000000E+00  0.00000000000E+00 -0.20174998368E+04  0.20174998368E+04  0.25500000920E-02 0. -1.
    10030    2    1    2    0    0  0.00000000000E+00  0.00000000000E+00 -0.20601372868E+03  0.38289859449E+04  0.38234397745E+04 0.  0.
        3    1    3    3  502    0 -0.55997222834E+03  0.78482324124E+03 -0.17562062776E+04  0.20034412685E+04  0.10100000352E+00 0. -1.
       -3    1    3    3    0  502  0.55997222834E+03 -0.78482324124E+03  0.15501925489E+04  0.18255446764E+04  0.10100000352E+00 0.  1.
</event>
<event>
 5   0  0.1034683E-06  0.4348142E+04  0.7818609E-02  0.7937776E-01
       -2   -1    0    0    0  501  0.00000000000E+00  0.00000000000E+00  0.17000775018E+04  0.17000775019E+04  0.25500000920E-02 0.  1.
        2   -1    0    0  501    0  0.00000000000E+00  0.00000000000E+00 -0.27802171177E+04  0.27802171177E+04  0.25500000920E-02 0. -1.
    10030    2    1    2    0    0  0.00000000000E+00  0.00000000000E+00 -0.10801396159E+04  0.44802946196E+04  0.43481419352E+04 0.  0.
        2    1    3    3  502    0 -0.93965415731E+03 -0.70659459669E+03 -0.24244098985E+04  0.26944367158E+04  0.25500000920E-02 0. -1.
       -2    1    3    3    0  502  0.93965415731E+03  0.70659459669E+03  0.13442702827E+04  0.17858579037E+04  0.25500000920E-02 0.  1.
</event>
<event>
 5   0  0.7268013E-07  0.3970204E+04  0.7818609E-02  0.8010584E-01
        2   -1    0    0  501    0  0.00000000000E+00  0.00000000000E+00  0.21601828745E+04  0.21601828745E+04  0.25500000920E-02 0. -1.
       -2   -1    0    0    0  501  0.00000000000E+00  0.00000000000E+00 -0.18242111546E+04  0.18242111546E+04  0.25500000920E-02 0.  1.
    10030    2    1    2    0    0  0.00000000000E+00  0.00000000000E+00  0.33597171989E+03  0.39843940291E+04  0.39702038716E+04 0.  0.
        4    1    3    3  502    0  0.80165730156E+03 -0.13725608081E+04  0.13613745815E+04  0.20928258325E+04  0.12699999809E+01 0. -1.
       -4    1    3    3    0  502 -0.80165730156E+03  0.13725608081E+04 -0.10254028616E+04  0.18915681966E+04  0.12699999809E+01 0.  1.
</event>
<event>
 5   0  0.5533705E-07  0.3832689E+04  0.7818609E-02  0.8039176E-01
       -2   -1    0    0    0  501  0.00000000000E+00  0.00000000000E+00  0.13372213694E+04  0.13372213694E+04  0.25500000920E-02 0. -1.
        2   -1    0    0  501    0  0.00000000000E+00  0.00000000000E+00 -0.27462741808E+04  0.27462741808E+04  0.25500000920E-02 0.  1.
    10030    2    1    2    0    0  0.00000000000E+00  0.00000000000E+00 -0.14090528114E+04  0.40834955502E+04  0.38326891451E+04 0.  0.
        1    1    3    3  502    0 -0.95515378921E+03 -0.18100269752E+03  0.10549952260E+04  0.14346064493E+04  0.50400001928E-02 0. -1.
       -1    1    3    3    0  502  0.95515378921E+03  0.18100269752E+03 -0.24640480375E+04  0.26488891008E+04  0.50400001928E-02 0.  1.
</event>
<event>
 5   0  0.1015219E-06  0.2491320E+04  0.7818609E-02  0.8406084E-01
        2   -1    0    0  501    0  0.00000000000E+00  0.00000000000E+00  0.15038464455E+04  0.15038464455E+04  0.25500000920E-02 0. -1.
       -2   -1    0    0    0  501  0.00000000000E+00  0.00000000000E+00 -0.10318000466E+04  0.10318000467E+04  0.25500000920E-02 0.  1.
    10030    2    1    2    0    0  0.00000000000E+00  0.00000000000E+00  0.47204639886E+03  0.25356464922E+04  0.24913199976E+04 0.  0.
        3    1    3    3  502    0  0.18257533331E+03  0.11610835719E+04  0.65594120482E+03  0.13459969122E+04  0.10100000352E+00 0. -1.
       -3    1    3    3    0  502 -0.18257533331E+03 -0.11610835719E+04 -0.18389480596E+03  0.11896495800E+04  0.10100000352E+00 0.  1.
</event>
<event>
 5   0  0.7268013E-07  0.3946162E+04  0.7818609E-02  0.8015496E-01
        2   -1    0    0  501    0  0.00000000000E+00  0.00000000000E+00  0.12196667372E+04  0.12196667372E+04  0.25500000920E-02 0. -1.
       -2   -1    0    0    0  501  0.00000000000E+00  0.00000000000E+00 -0.31918953636E+04  0.31918953636E+04  0.25500000920E-02 0.  1.
    10030    2    1    2    0    0  0.00000000000E+00  0.00000000000E+00 -0.19722286264E+04  0.44115621009E+04  0.39461619854E+04 0.  0.
        4    1    3    3  502    0  0.51861794503E+03 -0.13523929652E+04  0.51171977239E+03  0.15361608130E+04  0.12699999809E+01 0. -1.
       -4    1    3    3    0  502 -0.51861794503E+03  0.13523929652E+04 -0.24839483988E+04  0.28754012878E+04  0.12699999809E+01 0.  1.
</event>
<event>
 5   0  0.5533705E-07  0.3585286E+04  0.7818609E-02  0.8093870E-01
       -2   -1    0    0    0  501  0.00000000000E+00  0.00000000000E+00  0.18102231987E+04  0.18102231988E+04  0.25500000920E-02 0. -1.
        2   -1    0    0  501    0  0.00000000000E+00  0.00000000000E+00 -0.17752333451E+04  0.17752333451E+04  0.25500000920E-02 0.  1.
    10030    2    1    2    0    0  0.00000000000E+00  0.00000000000E+00  0.34989853686E+02  0.35854565438E+04  0.35852858098E+04 0.  0.
        1    1    3    3  502    0  0.12559424420E+04  0.86611571445E+03 -0.92383664283E+03  0.17835419790E+04  0.50400001928E-02 0.  1.
       -1    1    3    3    0  502 -0.12559424420E+04 -0.86611571445E+03  0.95882649652E+03  0.18019145648E+04  0.50400001928E-02 0. -1.
</event>
<event>
 5   0  0.1035864E-06  0.3855151E+04  0.7818609E-02  0.8034422E-01
       -2   -1    0    0    0  501  0.00000000000E+00  0.00000000000E+00  0.16662462629E+04  0.16662462629E+04  0.25500000920E-02 0. -1.
        2   -1    0    0  501    0  0.00000000000E+00  0.00000000000E+00 -0.22298903579E+04  0.22298903579E+04  0.25500000920E-02 0.  1.
    10030    2    1    2    0    0  0.00000000000E+00  0.00000000000E+00 -0.56364409498E+03  0.38961366208E+04  0.38551505680E+04 0.  0.
        5    1    3    3  502    0 -0.14549203929E+02 -0.15817474452E+04  0.83142776684E+03  0.17870173142E+04  0.46999998093E+01 0. -1.
       -5    1    3    3    0  502  0.14549203929E+02  0.15817474452E+04 -0.13950718618E+04  0.21091193066E+04  0.46999998093E+01 0.  1.
</event>
<event>
 5   0  0.5533705E-07  0.3775907E+04  0.7818609E-02  0.8051345E-01
       -2   -1    0    0    0  501  0.00000000000E+00  0.00000000000E+00  0.14167358228E+04  0.14167358228E+04  0.25500000920E-02 0. -1.
        2   -1    0    0  501    0  0.00000000000E+00  0.00000000000E+00 -0.25159021011E+04  0.25159021011E+04  0.25500000920E-02 0.  1.
    10030    2    1    2    0    0  0.00000000000E+00  0.00000000000E+00 -0.10991662784E+04  0.39326379239E+04  0.37759071139E+04 0.  0.
        1    1    3    3  502    0 -0.16597375048E+04  0.66867007406E+03  0.77505415386E+02  0.17910486711E+04  0.50400001928E-02 0. -1.
       -1    1    3    3    0  502  0.16597375048E+04 -0.66867007406E+03 -0.11766716937E+04  0.21415892528E+04  0.50400001928E-02 0.  1.
</event>
<event>
 5   0  0.3977376E-07  0.2940687E+04  0.7818609E-02  0.8260874E-01
       -1   -1    0    0    0  501  0.00000000000E+00  0.00000000000E+00  0.10828649312E+04  0.10828649312E+04  0.50400001928E-02 0. -1.
        1   -1    0    0  501    0  0.00000000000E+00  0.00000000000E+00 -0.19964727925E+04  0.19964727925E+04  0.50400001928E-02 0.  1.
    10030    2    1    2    0    0  0.00000000000E+00  0.00000000000E+00 -0.91360786131E+03  0.30793377237E+04  0.29406872483E+04 0.  0.
        4    1    3    3  502    0  0.75964169981E+03  0.50747164862E+03 -0.16632203737E+04  0.18976002241E+04  0.12699999809E+01 0.  1.
       -4    1    3    3    0  502 -0.75964169981E+03 -0.50747164862E+03  0.74961251238E+03  0.11817374996E+04  0.12699999809E+01 0. -1.
</event>
<event>
 5   0  0.4627905E-07  0.3905996E+04  0.7818609E-02  0.8023783E-01
        1   -1    0    0  501    0  0.00000000000E+00  0.00000000000E+00  0.23872876475E+04  0.23872876476E+04  0.50400001928E-02 0. -1.
       -1   -1    0    0    0  501  0.00000000000E+00  0.00000000000E+00 -0.15977135104E+04  0.15977135104E+04  0.50400001928E-02 0.  1.
    10030    2    1    2    0    0  0.00000000000E+00  0.00000000000E+00  0.78957413716E+03  0.39850011580E+04  0.39059962763E+04 0.  0.
        1    1    3    3  502    0  0.11410442114E+04 -0.15677540716E+04  0.15690355911E+03  0.19453671757E+04  0.50400001928E-02 0.  1.
       -1    1    3    3    0  502 -0.11410442114E+04  0.15677540716E+04  0.63267057805E+03  0.20396339823E+04  0.50400001928E-02 0. -1.
</event>
<event>
 5   0  0.3471602E-07  0.3876916E+04  0.7818609E-02  0.8029847E-01
        1   -1    0    0  501    0  0.00000000000E+00  0.00000000000E+00  0.15558159673E+04  0.15558159673E+04  0.50400001928E-02 0.  1.
       -1   -1    0    0    0  501  0.00000000000E+00  0.00000000000E+00 -0.24152086576E+04  0.24152086576E+04  0.50400001928E-02 0. -1.
    10030    2    1    2    0    0  0.00000000000E+00  0.00000000000E+00 -0.85939269029E+03  0.39710246249E+04  0.38769164004E+04 0.  0.
        5    1    3    3  502    0 -0.45301455587E+03 -0.13817971437E+04  0.88321858474E+03  0.17013767051E+04  0.46999998093E+01 0.  1.
       -5    1    3    3    0  502  0.45301455587E+03  0.13817971437E+04 -0.17426112750E+04  0.22696479198E+04  0.46999998093E+01 0. -1.
</event>
<event>
 5   0  0.7268013E-07  0.2378048E+04  0.7818609E-02  0.8447768E-01
       -2   -1    0    0    0  501  0.00000000000E+00  0.00000000000E+00  0.12572477523E+04  0.12572477523E+04  0.25500000920E-02 0. -1.
        2   -1    0    0  501    0  0.00000000000E+00  0.00000000000E+00 -0.11245028102E+04  0.11245028102E+04  0.25500000920E-02 0.  1.
    10030    2    1    2    0    0  0.00000000000E+00  0.00000000000E+00  0.13274494212E+03  0.23817505626E+04  0.23780484694E+04 0.  0.
        4    1    3    3  502    0 -0.84889279610E+03 -0.29243407706E+03 -0.71435394952E+03  0.11473621254E+04  0.12699999809E+01 0.  1.
       -4    1    3    3    0  502  0.84889279610E+03  0.29243407706E+03  0.84709889164E+03  0.12343884372E+04  0.12699999809E+01 0. -1.
</event>
<event>
 5   0  0.4316671E-07  0.2831160E+04  0.7818609E-02  0.8293659E-01
        1   -1    0    0  501    0  0.00000000000E+00  0.00000000000E+00  0.11571121555E+04  0.11571121555E+04  0.50400001928E-02 0. -1.
       -1   -1    0    0    0  501  0.00000000000E+00  0.00000000000E+00 -0.17317832143E+04  0.17317832143E+04  0.50400001928E-02 0.  1.
    10030    2    1    2    0    0  0.00000000000E+00  0.00000000000E+00 -0.57467105877E+03  0.28888953698E+04  0.28311604744E+04 0.  0.
        2    1    3    3  502    0 -0.10183852608E+04  0.91633807029E+03 -0.65109286068E+03  0.15168078032E+04  0.25500000920E-02 0.  1.
       -2    1    3    3    0  502  0.10183852608E+04 -0.91633807029E+03  0.76421801908E+02  0.13720875666E+04  0.25500000920E-02 0. -1.
</event>
<event>
 5   0  0.1034683E-06  0.4071232E+04  0.7818609E-02  0.7990329E-01
       -2   -1    0    0    0  501  0.00000000000E+00  0.00000000000E+00  0.23101302999E+04  0.23101302999E+04  0.25500000920E-02 0. -1.
        2   -1    0    0  501    0  0.00000000000E+00  0.00000000000E+00 -0.17937221371E+04  0.17937221371E+04  0.25500000920E-02 0.  1.
    10030    2    1    2    0    0  0.00000000000E+00  0.00000000000E+00  0.51640816280E+03  0.41038524369E+04  0.40712316850E+04 0.  0.
        2    1    3    3  502    0 -0.20227143766E+04 -0.59947473195E+02  0.48080079007E+03  0.20799366694E+04  0.25500000920E-02 0. -1.
       -2    1    3    3    0  502  0.20227143766E+04  0.59947473195E+02  0.35607372734E+02  0.20239157675E+04  0.25500000920E-02 0.  1.
</event>
<event>
 5   0  0.5533705E-07  0.3861950E+04  0.7818609E-02  0.8032990E-01
       -2   -1    0    0    0  501  0.00000000000E+00  0.00000000000E+00  0.20954613033E+04  0.20954613033E+04  0.25500000920E-02 0. -1.
        2   -1    0    0  501    0  0.00000000000E+00  0.00000000000E+00 -0.17794002361E+04  0.17794002361E+04  0.25500000920E-02 0.  1.
    10030    2    1    2    0    0  0.00000000000E+00  0.00000000000E+00  0.31606106722E+03  0.38748615395E+04  0.38619499416E+04 0.  0.
        1    1    3    3  502    0  0.24375621109E+02 -0.15887408294E+04 -0.94289482649E+03  0.18476315238E+04  0.50400001928E-02 0.  1.
       -1    1    3    3    0  502 -0.24375621109E+02  0.15887408294E+04  0.12589558937E+04  0.20272300156E+04  0.50400001928E-02 0. -1.
</event>
<event>
 5   0  0.1015219E-06  0.3920849E+04  0.7818609E-02  0.8020707E-01
       -2   -1    0    0    0  501  0.00000000000E+00  0.00000000000E+00  0.17831884486E+04  0.17831884486E+04  0.25500000920E-02 0. -1.
        2   -1    0    0  501    0  0.00000000000E+00  0.00000000000E+00 -0.21552760130E+04  0.21552760130E+04  0.25500000920E-02 0.  1.
    10030    2    1    2    0    0  0.00000000000E+00  0.00000000000E+00 -0.37208756442E+03  0.39384644615E+04  0.39208485254E+04 0.  0.
        3    1    3    3  502    0  0.97752556214E+03 -0.16905339956E+04 -0.12635998937E+02  0.19528494805E+04  0.10100000352E+00 0. -1.
       -3    1    3    3    0  502 -0.97752556214E+03  0.16905339956E+04 -0.35945156549E+03  0.19856149810E+04  0.10100000352E+00 0.  1.
</event>
<event>
 5   0  0.1035864E-06  0.2175420E+04  0.7818609E-02  0.8528729E-01
        2   -1    0    0  501    0  0.00000000000E+00  0.00000000000E+00  0.27011603722E+04  0.27011603722E+04  0.25500000920E-02 0.  1.
       -2   -1    0    0    0  501  0.00000000000E+00  0.00000000000E+00 -0.43800163781E+03  0.43800163782E+03  0.25500000920E-02 0. -1.
    10030    2    1    2    0    0  0.00000000000E+00  0.00000000000E+00  0.22631587344E+04  0.31391620100E+04  0.21754196533E+04 0.  0.
        5    1    3    3  502    0 -0.86342485280E+03  0.57305172340E+03  0.65472951851E+03  0.12257991624E+04  0.46999998093E+01 0. -1.
       -5    1    3    3    0  502  0.86342485280E+03 -0.57305172340E+03  0.16084292158E+04  0.19133628476E+04  0.46999998093E+01 0.  1.
</event>
<event>
 5   0  0.4316671E-07  0.2030080E+04  0.7818609E-02  0.8592685E-01
       -1   -1    0    0    0  501  0.00000000000E+00  0.00000000000E+00  0.15342473473E+04  0.15342473473E+04  0.50400001928E-02 0.  1.
        1   -1    0    0  501    0  0.00000000000E+00  0.00000000000E+00 -0.67153865263E+03  0.67153865265E+03  0.50400001928E-02 0. -1.
    10030    2    1    2    0    0  0.00000000000E+00  0.00000000000E+00  0.86270869468E+03  0.22057860000E+04  0.20300801920E+04 0.  0.
        2    1    3    3  502    0 -0.11102092326E+03  0.11523167672E+03  0.15204572227E+04  0.15288538683E+04  0.25500000920E-02 0.  1.
       -2    1    3    3    0  502  0.11102092326E+03 -0.11523167672E+03 -0.65774852801E+03  0.67693213163E+03  0.25500000920E-02 0. -1.
</event>
<event>
 5   0  0.7268013E-07  0.2589480E+04  0.7818609E-02  0.8371783E-01
        2   -1    0    0  501    0  0.00000000000E+00  0.00000000000E+00  0.22673790978E+04  0.22673790978E+04  0.25500000920E-02 0. -1.
       -2   -1    0    0    0  501  0.00000000000E+00  0.00000000000E+00 -0.73933452739E+03  0.73933452739E+03  0.25500000920E-02 0.  1.
    10030    2    1    2    0    0  0.00000000000E+00  0.00000000000E+00  0.15280445704E+04  0.30067136252E+04  0.25894799892E+04 0.  0.
        4    1    3    3  502    0  0.82916586365E+03 -0.35236523239E+03 -0.31568341378E+03  0.95463863167E+03  0.12699999809E+01 0.  1.
       -4    1    3    3    0  502 -0.82916586365E+03  0.35236523239E+03  0.18437279842E+04  0.20520749935E+04  0.12699999809E+01 0. -1.
</event>
<event>
 5   0  0.5533705E-07  0.2496565E+04  0.7818609E-02  0.8404210E-01
       -2   -1    0    0    0  501  0.00000000000E+00  0.00000000000E+00  0.20413272572E+04  0.20413272572E+04  0.25500000920E-02 0. -1.
        2   -1    0    0  501    0  0.00000000000E+00  0.00000000000E+00 -0.76333164111E+03  0.76333164112E+03  0.25500000920E-02 0.  1.
    10030    2    1    2    0    0  0.00000000000E+00  0.00000000000E+00  0.12779956161E+04  0.28046588983E+04  0.24965653889E+04 0.  0.
        1    1    3    3  502    0  0.55421027372E+03 -0.67269996120E+03 -0.36488772791E+03  0.94489010965E+03  0.50400001928E-02 0.  1.
       -1    1    3    3    0  502 -0.55421027372E+03  0.67269996120E+03  0.16428833440E+04  0.18597687887E+04  0.50400001928E-02 0. -1.
</event>
<event>
 5   0  0.4627905E-07  0.2077017E+04  0.7818609E-02  0.8571436E-01
       -1   -1    0    0    0  501  0.00000000000E+00  0.00000000000E+00  0.80408090419E+03  0.80408090421E+03  0.50400001928E-02 0. -1.
        1   -1    0    0  501    0  0.00000000000E+00  0.00000000000E+00 -0.13412825550E+04  0.13412825550E+04  0.50400001928E-02 0.  1.
    10030    2    1    2    0    0  0.00000000000E+00  0.00000000000E+00 -0.53720165077E+03  0.21453634592E+04  0.20770167930E+04 0.  0.
        1    1    3    3  502    0 -0.38550985237E+03 -0.71043208542E+03 -0.94210641611E+03  0.12413283585E+04  0.50400001928E-02 0.  1.
       -1    1    3    3    0  502  0.38550985237E+03  0.71043208542E+03  0.40490476534E+03  0.90403510069E+03  0.50400001928E-02 0. -1.
</event>
<event>
 5   0  0.5204810E-07  0.1957452E+04  0.7818609E-02  0.8626776E-01
       -1   -1    0    0    0  501  0.00000000000E+00  0.00000000000E+00  0.58970392221E+03  0.58970392223E+03  0.50400001928E-02 0.  1.
        1   -1    0    0  501    0  0.00000000000E+00  0.00000000000E+00 -0.16243816330E+04  0.16243816330E+04  0.50400001928E-02 0. -1.
    10030    2    1    2    0    0  0.00000000000E+00  0.00000000000E+00 -0.10346777108E+04  0.22140855552E+04  0.19574516292E+04 0.  0.
        1    1    3    3  502    0  0.22305370092E+03  0.85518939176E+03 -0.41732771029E+02  0.88478442204E+03  0.50400001928E-02 0.  1.
       -1    1    3    3    0  502 -0.22305370092E+03 -0.85518939176E+03 -0.99294493976E+03  0.13293011332E+04  0.50400001928E-02 0. -1.
</event>
<event>
 5   0  0.1035864E-06  0.3906916E+04  0.7818609E-02  0.8023592E-01
       -2   -1    0    0    0  501  0.00000000000E+00  0.00000000000E+00  0.18442340612E+04  0.18442340612E+04  0.25500000920E-02 0. -1.
        2   -1    0    0  501    0  0.00000000000E+00  0.00000000000E+00 -0.20691506019E+04  0.20691506019E+04  0.25500000920E-02 0.  1.
    10030    2    1    2    0    0  0.00000000000E+00  0.00000000000E+00 -0.22491654073E+03  0.39133846631E+04  0.39069159283E+04 0.  0.
        5    1    3    3  502    0 -0.81532301118E+03 -0.14953447230E+04  0.84577004145E+03  0.19016194431E+04  0.46999998093E+01 0. -1.
       -5    1    3    3    0  502  0.81532301118E+03  0.14953447230E+04 -0.10706865822E+04  0.20117652200E+04  0.46999998093E+01 0.  1.
</event>
<event>
 5   0  0.1035864E-06  0.2410550E+04  0.7818609E-02  0.8435564E-01
        2   -1    0    0  501    0  0.00000000000E+00  0.00000000000E+00  0.17008059354E+04  0.17008059354E+04  0.25500000920E-02 0.  1.
       -2   -1    0    0    0  501  0.00000000000E+00  0.00000000000E+00 -0.85411716723E+03  0.85411716723E+03  0.25500000920E-02 0. -1.
    10030    2    1    2    0    0  0.00000000000E+00  0.00000000000E+00  0.84668876813E+03  0.25549231026E+04  0.24105497693E+04 0.  0.
        5    1    3    3  502    0  0.76162538306E+03 -0.54849440909E+03 -0.37808145872E+03  0.10118730258E+04  0.46999998093E+01 0. -1.
       -5    1    3    3    0  502 -0.76162538306E+03  0.54849440909E+03  0.12247702268E+04  0.15430500768E+04  0.46999998093E+01 0.  1.
</event>
<event>
 5   0  0.1015219E-06  0.3836479E+04  0.7818609E-02  0.8038372E-01
        2   -1    0    0  501    0  0.00000000000E+00  0.00000000000E+00  0.20074368710E+04  0.20074368710E+04  0.25500000920E-02 0.  1.
       -2   -1    0    0    0  501  0.00000000000E+00  0.00000000000E+00 -0.18330058046E+04  0.18330058046E+04  0.25500000920E-02 0. -1.
    10030    2    1    2    0    0  0.00000000000E+00  0.00000000000E+00  0.17443106640E+03  0.38404426756E+04  0.38364793428E+04 0.  0.
        3    1    3    3  502    0 -0.17025904637E+04  0.33050599369E+01 -0.79733651258E+03  0.18800454077E+04  0.10100000352E+00 0.  1.
       -3    1    3    3    0  502  0.17025904637E+04 -0.33050599369E+01  0.97176757898E+03  0.19603972680E+04  0.10100000352E+00 0. -1.
</event>
<event>
 5   0  0.3471602E-07  0.3910110E+04  0.7818609E-02  0.8022930E-01
       -1   -1    0    0    0  501  0.00000000000E+00  0.00000000000E+00  0.14250293623E+04  0.14250293623E+04  0.50400001928E-02 0. -1.
        1   -1    0    0  501    0  0.00000000000E+00  0.00000000000E+00 -0.26822191396E+04  0.26822191396E+04  0.50400001928E-02 0.  1.
    10030    2    1    2    0    0  0.00000000000E+00  0.00000000000E+00 -0.12571897773E+04  0.41072485019E+04  0.39101104998E+04 0.  0.
        5    1    3    3  502    0  0.15957235790E+04 -0.97619810468E+03 -0.12255079407E+04  0.22363336698E+04  0.46999998093E+01 0.  1.
       -5    1    3    3    0  502 -0.15957235790E+04  0.97619810468E+03 -0.31681836553E+02  0.18709148321E+04  0.46999998093E+01 0. -1.
</event>
<event>
 5   0  0.5385714E-07  0.4069295E+04  0.7818609E-02  0.7990712E-01
        1   -1    0    0  501    0  0.00000000000E+00  0.00000000000E+00  0.27028558594E+04  0.27028558594E+04  0.50400001928E-02 0.  1.
       -1   -1    0    0    0  501  0.00000000000E+00  0.00000000000E+00 -0.15316353476E+04  0.15316353476E+04  0.50400001928E-02 0. -1.
    10030    2    1    2    0    0  0.00000000000E+00  0.00000000000E+00  0.11712205119E+04  0.42344912070E+04  0.40692945697E+04 0.  0.
        3    1    3    3  502    0 -0.17962523146E+04  0.90369884809E+03  0.26219483136E+03  0.20277919335E+04  0.10100000352E+00 0. -1.
       -3    1    3    3    0  502  0.17962523146E+04 -0.90369884809E+03  0.90902568050E+03  0.22066992735E+04  0.10100000352E+00 0.  1.
</event>
<event>
 5   0  0.3471602E-07  0.3919289E+04  0.7818609E-02  0.8021029E-01
        1   -1    0    0  501    0  0.00000000000E+00  0.00000000000E+00  0.26099668727E+04  0.26099668728E+04  0.50400001928E-02 0. -1.
       -1   -1    0    0    0  501  0.00000000000E+00  0.00000000000E+00 -0.14713622822E+04  0.14713622822E+04  0.50400001928E-02 0.  1.
    10030    2    1    2    0    0  0.00000000000E+00  0.00000000000E+00  0.11386045905E+04  0.40813291550E+04  0.39192891266E+04 0.  0.
        5    1    3    3  502    0 -0.94445512555E+03  0.13207741678E+04 -0.57321172402E+03  0.17219273089E+04  0.46999998093E+01 0.  1.
       -5    1    3    3    0  502  0.94445512555E+03 -0.13207741678E+04  0.17118163146E+04  0.23594018461E+04  0.46999998093E+01 0. -1.
</event>
<event>
 5   0  0.3977376E-07  0.3929287E+04  0.7818609E-02  0.8018965E-01
        1   -1    0    0  501    0  0.00000000000E+00  0.00000000000E+00  0.18504205638E+04  0.18504205638E+04  0.50400001928E-02 0.  1.
       -1   -1    0    0    0  501  0.00000000000E+00  0.00000000000E+00 -0.20859172053E+04  0.20859172053E+04  0.50400001928E-02 0. -1.
    10030    2    1    2    0    0  0.00000000000E+00  0.00000000000E+00 -0.23549664150E+03  0.39363377692E+04  0.39292870046E+04 0.  0.
        4    1    3    3  502    0  0.17229187360E+04  0.38714748565E+03 -0.98039181578E+03  0.20197776788E+04  0.12699999809E+01 0. -1.
       -4    1    3    3    0  502 -0.17229187360E+04 -0.38714748565E+03  0.74489517429E+03  0.19165600904E+04  0.12699999809E+01 0.  1.
</event>
<event>
 5   0  0.1034683E-06  0.3898749E+04  0.7818609E-02  0.8025289E-01
        2   -1    0    0  501    0  0.00000000000E+00  0.00000000000E+00  0.19450049550E+04  0.19450049550E+04  0.25500000920E-02 0.  1.
       -2   -1    0    0    0  501  0.00000000000E+00  0.00000000000E+00 -0.19537543014E+04  0.19537543014E+04  0.25500000920E-02 0. -1.
    10030    2    1    2    0    0  0.00000000000E+00  0.00000000000E+00 -0.87493463480E+01  0.38987592564E+04  0.38987494390E+04 0.  0.
        2    1    3    3  502    0  0.15504359658E+04 -0.46091977572E+03  0.10836368318E+04  0.19469379823E+04  0.25500000920E-02 0.  1.
       -2    1    3    3    0  502 -0.15504359658E+04  0.46091977572E+03 -0.10923861781E+04  0.19518212741E+04  0.25500000920E-02 0. -1.
</event>
<event>
 5   0  0.5533705E-07  0.2231543E+04  0.7818609E-02  0.8505413E-01
        2   -1    0    0  501    0  0.00000000000E+00  0.00000000000E+00  0.18382075412E+04  0.18382075412E+04  0.25500000920E-02 0. -1.
       -2   -1    0    0    0  501  0.00000000000E+00  0.00000000000E+00 -0.67726058848E+03  0.67726058848E+03  0.25500000920E-02 0.  1.
    10030    2    1    2    0    0  0.00000000000E+00  0.00000000000E+00  0.11609469527E+04  0.25154681297E+04  0.22315425347E+04 0.  0.
        1    1    3    3  502    0 -0.46289133930E+03 -0.70188195425E+03  0.14073115538E+04  0.16393390373E+04  0.50400001928E-02 0. -1.
       -1    1    3    3    0  502  0.46289133930E+03  0.70188195425E+03 -0.24636460115E+03  0.87612909233E+03  0.50400001928E-02 0.  1.
</event>
<event>
 5   0  0.3191750E-07  0.2315122E+04  0.7818609E-02  0.8471982E-01
        3   -1    0    0  501    0  0.00000000000E+00  0.00000000000E+00  0.10920321265E+04  0.10920321311E+04  0.10100000352E+00 0. -1.
       -3   -1    0    0    0  501  0.00000000000E+00  0.00000000000E+00 -0.12270222048E+04  0.12270222089E+04  0.10100000352E+00 0.  1.
    10030    2    1    2    0    0  0.00000000000E+00  0.00000000000E+00 -0.13499007831E+03  0.23190543400E+04  0.23151221805E+04 0.  0.
        1    1    3    3  502    0  0.26672354917E+03  0.46773663426E+03  0.95895446032E+03  0.10997784630E+04  0.50400001928E-02 0. -1.
       -1    1    3    3    0  502 -0.26672354917E+03 -0.46773663426E+03 -0.10939445386E+04  0.12192758770E+04  0.50400001928E-02 0.  1.
</event>
<event>
 5   0  0.1035864E-06  0.3567332E+04  0.7818609E-02  0.8098016E-01
        2   -1    0    0  501    0  0.00000000000E+00  0.00000000000E+00  0.19717304327E+04  0.19717304327E+04  0.25500000920E-02 0. -1.
       -2   -1    0    0    0  501  0.00000000000E+00  0.00000000000E+00 -0.16135396362E+04  0.16135396362E+04  0.25500000920E-02 0.  1.
    10030    2    1    2    0    0  0.00000000000E+00  0.00000000000E+00  0.35819079650E+03  0.35852700689E+04  0.35673324516E+04 0.  0.
        5    1    3    3  502    0 -0.17064809432E+03 -0.11699875597E+04 -0.11630789582E+04  0.16585434618E+04  0.46999998093E+01 0.  1.
       -5    1    3    3    0  502  0.17064809432E+03  0.11699875597E+04  0.15212697547E+04  0.19267266071E+04  0.46999998093E+01 0. -1.
</event>
<event>
 5   0  0.5385714E-07  0.2269145E+04  0.7818609E-02  0.8490187E-01
       -1   -1    0    0    0  501  0.00000000000E+00  0.00000000000E+00  0.10671716295E+04  0.10671716295E+04  0.50400001928E-02 0.  1.
        1   -1    0    0  501    0  0.00000000000E+00  0.00000000000E+00 -0.12062300791E+04  0.12062300791E+04  0.50400001928E-02 0. -1.
    10030    2    1    2    0    0  0.00000000000E+00  0.00000000000E+00 -0.13905844961E+03  0.22734017086E+04  0.22691447896E+04 0.  0.
        3    1    3    3  502    0 -0.14469134306E+03 -0.19607420500E+03  0.10406442471E+04  0.10687942449E+04  0.10100000352E+00 0.  1.
       -3    1    3    3    0  502  0.14469134306E+03  0.19607420500E+03 -0.11797026968E+04  0.12046074637E+04  0.10100000352E+00 0. -1.
</event>
<event>
 5   0  0.1034683E-06  0.4008425E+04  0.7818609E-02  0.8002849E-01
       -2   -1    0    0    0  501  0.00000000000E+00  0.00000000000E+00  0.23890856596E+04  0.23890856596E+04  0.25500000920E-02 0. -1.
        2   -1    0    0  501    0  0.00000000000E+00  0.00000000000E+00 -0.16813406469E+04  0.16813406469E+04  0.25500000920E-02 0.  1.
    10030    2    1    2    0    0  0.00000000000E+00  0.00000000000E+00  0.70774501277E+03  0.40704263065E+04  0.40084245426E+04 0.  0.
        2    1    3    3  502    0  0.27525297568E+03 -0.13717033960E+03 -0.16572376720E+04  0.16855315495E+04  0.25500000920E-02 0.  1.
       -2    1    3    3    0  502 -0.27525297568E+03  0.13717033960E+03  0.23649826848E+04  0.23848947570E+04  0.25500000920E-02 0. -1.
</event>
<event>
 5   0  0.5533705E-07  0.3906458E+04  0.7818609E-02  0.8023687E-01
       -2   -1    0    0    0  501  0.00000000000E+00  0.00000000000E+00  0.21439317593E+04  0.21439317593E+04  0.25500000920E-02 0.  1.
        2   -1    0    0  501    0  0.00000000000E+00  0.00000000000E+00 -0.17794892675E+04  0.17794892675E+04  0.25500000920E-02 0. -1.
    10030    2    1    2    0    0  0.00000000000E+00  0.00000000000E+00  0.36444249185E+03  0.39234210268E+04  0.39064580151E+04 0.  0.
        1    1    3    3  502    0 -0.11412217066E+04 -0.14840004149E+04  0.74182951070E+03  0.20136919421E+04  0.50400001928E-02 0. -1.
       -1    1    3    3    0  502  0.11412217066E+04  0.14840004149E+04 -0.37738701884E+03  0.19097290847E+04  0.50400001928E-02 0.  1.
</event>
<event>
 5   0  0.3977376E-07  0.3066456E+04  0.7818609E-02  0.8225004E-01
        1   -1    0    0  501    0  0.00000000000E+00  0.00000000000E+00  0.23189289814E+04  0.23189289814E+04  0.50400001928E-02 0. -1.
       -1   -1    0    0    0  501  0.00000000000E+00  0.00000000000E+00 -0.10137387493E+04  0.10137387493E+04  0.50400001928E-02 0.  1.
    10030    2    1    2    0    0  0.00000000000E+00  0.00000000000E+00  0.13051902321E+04  0.33326677307E+04  0.30664560426E+04 0.  0.
        4    1    3    3  502    0 -0.70259254770E+03 -0.12645194936E+04  0.12047787453E+04  0.18825884510E+04  0.12699999809E+01 0. -1.
       -4    1    3    3    0  502  0.70259254770E+03  0.12645194936E+04  0.10041148676E+03  0.14500792797E+04  0.12699999809E+01 0.  1.
</event>
<event>
 5   0  0.1034683E-06  0.3950611E+04  0.7818609E-02  0.8014585E-01
        2   -1    0    0  501    0  0.00000000000E+00  0.00000000000E+00  0.23666097181E+04  0.23666097181E+04  0.25500000920E-02 0.  1.
       -2   -1    0    0    0  501  0.00000000000E+00  0.00000000000E+00 -0.16487013924E+04  0.16487013924E+04  0.25500000920E-02 0. -1.
    10030    2    1    2    0    0  0.00000000000E+00  0.00000000000E+00  0.71790832566E+03  0.40153111105E+04  0.39506114654E+04 0.  0.
        2    1    3    3  502    0 -0.76508194177E+03  0.16628419104E+04 -0.39579679919E+03  0.18727115909E+04  0.25500000920E-02 0. -1.
       -2    1    3    3    0  502  0.76508194177E+03 -0.16628419104E+04  0.11137051248E+04  0.21425995196E+04  0.25500000920E-02 0.  1.
</event>
<event>
 5   0  0.4316671E-07  0.3844246E+04  0.7818609E-02  0.8036726E-01
        1   -1    0    0  501    0  0.00000000000E+00  0.00000000000E+00  0.16698080140E+04  0.16698080140E+04  0.50400001928E-02 0.  1.
       -1   -1    0    0    0  501  0.00000000000E+00  0.00000000000E+00 -0.22125642887E+04  0.22125642887E+04  0.50400001928E-02 0. -1.
    10030    2    1    2    0    0  0.00000000000E+00  0.00000000000E+00 -0.54275627464E+03  0.38823723027E+04  0.38442463921E+04 0.  0.
        2    1    3    3  502    0  0.55040249205E+03  0.33508845527E+03 -0.21002300986E+04  0.21968599508E+04  0.25500000920E-02 0. -1.
       -2    1    3    3    0  502 -0.55040249205E+03 -0.33508845527E+03  0.15574738240E+04  0.16855123519E+04  0.25500000920E-02 0.  1.
</event>
<event>
 5   0  0.5385714E-07  0.3871736E+04  0.7818609E-02  0.8030933E-01
        1   -1    0    0  501    0  0.00000000000E+00  0.00000000000E+00  0.23598024650E+04  0.23598024650E+04  0.50400001928E-02 0.  1.
       -1   -1    0    0    0  501  0.00000000000E+00  0.00000000000E+00 -0.15880926580E+04  0.15880926580E+04  0.50400001928E-02 0. -1.
    10030    2    1    2    0    0  0.00000000000E+00  0.00000000000E+00  0.77170980701E+03  0.39478951229E+04  0.38717360286E+04 0.  0.
        3    1    3    3  502    0  0.41965058444E+03 -0.18716260966E+04  0.65271672729E+03  0.20261120390E+04  0.10100000352E+00 0. -1.
       -3    1    3    3    0  502 -0.41965058444E+03  0.18716260966E+04  0.11899307972E+03  0.19217830839E+04  0.10100000352E+00 0.  1.
</event>
<event>
 5   0  0.1015219E-06  0.2595834E+04  0.7818609E-02  0.8369618E-01
        2   -1    0    0  501    0  0.00000000000E+00  0.00000000000E+00  0.12348297562E+04  0.12348297562E+04  0.25500000920E-02 0. -1.
       -2   -1    0    0    0  501  0.00000000000E+00  0.00000000000E+00 -0.13642278497E+04  0.13642278497E+04  0.25500000920E-02 0.  1.
    10030    2    1    2    0    0  0.00000000000E+00  0.00000000000E+00 -0.12939809351E+03  0.25990576059E+04  0.25958344655E+04 0.  0.
        3    1    3    3  502    0  0.35460679850E+03  0.96308297300E+03  0.73084043409E+03  0.12599216423E+04  0.10100000352E+00 0. -1.
       -3    1    3    3    0  502 -0.35460679850E+03 -0.96308297300E+03 -0.86023852760E+03  0.13391359636E+04  0.10100000352E+00 0.  1.
</event>
<event>
 5   0  0.1034683E-06  0.3929680E+04  0.7818609E-02  0.8018884E-01
       -2   -1    0    0    0  501  0.00000000000E+00  0.00000000000E+00  0.17309409018E+04  0.17309409018E+04  0.25500000920E-02 0.  1.
        2   -1    0    0  501    0  0.00000000000E+00  0.00000000000E+00 -0.22303458874E+04  0.22303458874E+04  0.25500000920E-02 0. -1.
    10030    2    1    2    0    0  0.00000000000E+00  0.00000000000E+00 -0.49940498564E+03  0.39612867892E+04  0.39296803542E+04 0.  0.
        2    1    3    3  502    0 -0.10263863267E+03 -0.15796715109E+04  0.92357475632E+03  0.18327266849E+04  0.25500000920E-02 0.  1.
       -2    1    3    3    0  502  0.10263863267E+03  0.15796715109E+04 -0.14229797420E+04  0.21285601042E+04  0.25500000920E-02 0. -1.
</event>
<event>
 5   0  0.3191750E-07  0.2580217E+04  0.7818609E-02  0.8374952E-01
       -3   -1    0    0    0  501  0.00000000000E+00  0.00000000000E+00  0.15054165043E+04  0.15054165077E+04  0.10100000352E+00 0. -1.
        3   -1    0    0  501    0  0.00000000000E+00  0.00000000000E+00 -0.11055939955E+04  0.11055940001E+04  0.10100000352E+00 0.  1.
    10030    2    1    2    0    0  0.00000000000E+00  0.00000000000E+00  0.39982250874E+03  0.26110105078E+04  0.25802166253E+04 0.  0.
        4    1    3    3  502    0 -0.37968025655E+03  0.55455483199E+01 -0.10477634936E+04  0.11144495510E+04  0.12699999809E+01 0.  1.
       -4    1    3    3    0  502  0.37968025655E+03 -0.55455483199E+01  0.14475860023E+04  0.14965609568E+04  0.12699999809E+01 0. -1.
</event>
<event>
 5   0  0.1035864E-06  0.3817034E+04  0.7818609E-02  0.8042509E-01
       -2   -1    0    0    0  501  0.00000000000E+00  0.00000000000E+00  0.21071024655E+04  0.21071024655E+04  0.25500000920E-02 0. -1.
        2   -1    0    0  501    0  0.00000000000E+00  0.00000000000E+00 -0.17286473493E+04  0.17286473493E+04  0.25500000920E-02 0.  1.
    10030    2    1    2    0    0  0.00000000000E+00  0.00000000000E+00  0.37845511620E+03  0.38357498148E+04  0.38170339751E+04 0.  0.
        5    1    3    3  502    0  0.12950262751E+04 -0.60557623947E+03 -0.10813291851E+04  0.17925151412E+04  0.46999998093E+01 0.  1.
       -5    1    3    3    0  502 -0.12950262751E+04  0.60557623947E+03  0.14597843013E+04  0.20432346736E+04  0.46999998093E+01 0. -1.
</event>
<event>
 5   0  0.3977376E-07  0.3641990E+04  0.7818609E-02  0.8080941E-01
       -1   -1    0    0    0  501  0.00000000000E+00  0.00000000000E+00  0.17443545943E+04  0.17443545943E+04  0.50400001928E-02 0. -1.
        1   -1    0    0  501    0  0.00000000000E+00  0.00000000000E+00 -0.19010025844E+04  0.19010025844E+04  0.50400001928E-02 0.  1.
    10030    2    1    2    0    0  0.00000000000E+00  0.00000000000E+00 -0.15664799009E+03  0.36453571786E+04  0.36419898911E+04 0.  0.
        4    1    3    3  502    0 -0.74950111467E+03 -0.14483840913E+03 -0.17331192956E+04  0.18937883174E+04  0.12699999809E+01 0.  1.
       -4    1    3    3    0  502  0.74950111467E+03  0.14483840913E+03  0.15764713055E+04  0.17515688612E+04  0.12699999809E+01 0. -1.
</event>
<event>
 5   0  0.1034683E-06  0.3930903E+04  0.7818609E-02  0.8018632E-01
        2   -1    0    0  501    0  0.00000000000E+00  0.00000000000E+00  0.12143744320E+04  0.12143744320E+04  0.25500000920E-02 0.  1.
       -2   -1    0    0    0  501  0.00000000000E+00  0.00000000000E+00 -0.31810616434E+04  0.31810616434E+04  0.25500000920E-02 0. -1.
    10030    2    1    2    0    0  0.00000000000E+00  0.00000000000E+00 -0.19666872114E+04  0.43954360753E+04  0.39309031665E+04 0.  0.
        2    1    3    3  502    0 -0.40117048340E+03  0.18710683951E+04 -0.14848610943E+04  0.24221162576E+04  0.25500000920E-02 0. -1.
       -2    1    3    3    0  502  0.40117048340E+03 -0.18710683951E+04 -0.48182611709E+03  0.19733198177E+04  0.25500000920E-02 0.  1.
</event>
<event>
 5   0  0.4627905E-07  0.3662712E+04  0.7818609E-02  0.8076276E-01
        1   -1    0    0  501    0  0.00000000000E+00  0.00000000000E+00  0.17823032098E+04  0.17823032098E+04  0.50400001928E-02 0. -1.
       -1   -1    0    0    0  501  0.00000000000E+00  0.00000000000E+00 -0.18817583964E+04  0.18817583964E+04  0.50400001928E-02 0.  1.
    10030    2    1    2    0    0  0.00000000000E+00  0.00000000000E+00 -0.99455186581E+02  0.36640616062E+04  0.36627115803E+04 0.  0.
        1    1    3    3  502    0  0.21328543724E+03  0.95623377881E+03 -0.15975503941E+04  0.18740440174E+04  0.50400001928E-02 0.  1.
       -1    1    3    3    0  502 -0.21328543724E+03 -0.95623377881E+03  0.14980952075E+04  0.17900175888E+04  0.50400001928E-02 0. -1.
</event>
<event>
 5   0  0.1015219E-06  0.1985659E+04  0.7818609E-02  0.8613355E-01
        2   -1    0    0  501    0  0.00000000000E+00  0.00000000000E+00  0.92264377047E+03  0.92264377048E+03  0.25500000920E-02 0. -1.
       -2   -1    0    0    0  501  0.00000000000E+00  0.00000000000E+00 -0.10683546196E+04  0.10683546196E+04  0.25500000920E-02 0.  1.
    10030    2    1    2    0    0  0.00000000000E+00  0.00000000000E+00 -0.14571084909E+03  0.19909983900E+04  0.19856593206E+04 0.  0.
        3    1    3    3  502    0  0.42886304134E+03 -0.64271964157E+03  0.55227797379E+03  0.94974892284E+03  0.10100000352E+00 0. -1.
       -3    1    3    3    0  502 -0.42886304134E+03  0.64271964157E+03 -0.69798882288E+03  0.10412494672E+04  0.10100000352E+00 0.  1.
</event>
<event>
 5   0  0.5385714E-07  0.2883368E+04  0.7818609E-02  0.8277843E-01
        1   -1    0    0  501    0  0.00000000000E+00  0.00000000000E+00  0.24686841821E+04  0.24686841821E+04  0.50400001928E-02 0. -1.
       -1   -1    0    0    0  501  0.00000000000E+00  0.00000000000E+00 -0.84192731146E+03  0.84192731147E+03  0.50400001928E-02 0.  1.
    10030    2    1    2    0    0  0.00000000000E+00  0.00000000000E+00  0.16267568707E+04  0.33106114936E+04  0.28833679171E+04 0.  0.
        3    1    3    3  502    0  0.19518233193E+03 -0.25052040249E+03 -0.80126616818E+03  0.86190724398E+03  0.10100000352E+00 0.  1.
       -3    1    3    3    0  502 -0.19518233193E+03  0.25052040249E+03  0.24280230389E+04  0.24487042496E+04  0.10100000352E+00 0. -1.
</event>
<event>
 5   0  0.3471602E-07  0.2710103E+04  0.7818609E-02  0.8331734E-01
        1   -1    0    0  501    0  0.00000000000E+00  0.00000000000E+00  0.12218833717E+04  0.12218833717E+04  0.50400001928E-02 0.  1.
       -1   -1    0    0    0  501  0.00000000000E+00  0.00000000000E+00 -0.15027328408E+04  0.15027328408E+04  0.50400001928E-02 0. -1.
    10030    2    1    2    0    0  0.00000000000E+00  0.00000000000E+00 -0.28084946908E+03  0.27246162124E+04  0.27101027805E+04 0.  0.
        5    1    3    3  502    0  0.59457046185E+03  0.52922994116E+03  0.96205351280E+03  0.12486662549E+04  0.46999998093E+01 0.  1.
       -5    1    3    3    0  502 -0.59457046185E+03 -0.52922994116E+03 -0.12429029819E+04  0.14759499575E+04  0.46999998093E+01 0. -1.
</event>
<event>
 5   0  0.1034683E-06  0.3895552E+04  0.7818609E-02  0.8025955E-01
        2   -1    0    0  501    0  0.00000000000E+00  0.00000000000E+00  0.17295607571E+04  0.17295607571E+04  0.25500000920E-02 0.  1.
       -2   -1    0    0    0  501  0.00000000000E+00  0.00000000000E+00 -0.21935229073E+04  0.21935229073E+04  0.25500000920E-02 0. -1.
    10030    2    1    2    0    0  0.00000000000E+00  0.00000000000E+00 -0.46396215029E+03  0.39230836644E+04  0.38955518943E+04 0.  0.
        2    1    3    3  502    0 -0.10437084364E+04  0.16277787554E+04 -0.46781590573E+03  0.19894327579E+04  0.25500000920E-02 0. -1.
       -2    1    3    3    0  502  0.10437084364E+04 -0.16277787554E+04  0.38537554351E+01  0.19336509065E+04  0.25500000920E-02 0.  1.
</event>
<event>
 5   0  0.4627905E-07  0.3661737E+04  0.7818609E-02  0.8076495E-01
       -1   -1    0    0    0  501  0.00000000000E+00  0.00000000000E+00  0.14581951857E+04  0.14581951857E+04  0.50400001928E-02 0. -1.
        1   -1    0    0  501    0  0.00000000000E+00  0.00000000000E+00 -0.22987860208E+04  0.22987860208E+04  0.50400001928E-02 0.  1.
    10030    2    1    2    0    0  0.00000000000E+00  0.00000000000E+00 -0.84059083508E+03  0.37569812065E+04  0.36617365872E+04 0.  0.
        1    1    3    3  502    0 -0.68286082611E+03 -0.12668665380E+04  0.74087909631E+03  0.16186882245E+04  0.50400001928E-02 0. -1.
       -1    1    3    3    0  502  0.68286082611E+03  0.12668665380E+04 -0.15814699314E+04  0.21382929820E+04  0.50400001928E-02 0.  1.
</event>
<event>
 5   0  0.1034683E-06  0.2125187E+04  0.7818609E-02  0.8550229E-01
        2   -1    0    0  501    0  0.00000000000E+00  0.00000000000E+00  0.94866319313E+03  0.94866319314E+03  0.25500000920E-02 0.  1.
       -2   -1    0    0    0  501  0.00000000000E+00  0.00000000000E+00 -0.11902062976E+04  0.11902062976E+04  0.25500000920E-02 0. -1.
    10030    2    1    2    0    0  0.00000000000E+00  0.00000000000E+00 -0.24154310448E+03  0.21388694908E+04  0.21251869629E+04 0.  0.
        2    1    3    3  502    0  0.63340530277E+02  0.10538486372E+04 -0.24194577467E+03  0.10831189828E+04  0.25500000920E-02 0.  1.
       -2    1    3    3    0  502 -0.63340530277E+02 -0.10538486372E+04  0.40267018702E+00  0.10557505080E+04  0.25500000920E-02 0. -1.
</event>
<event>
 5   0  0.1228379E-06  0.2002718E+04  0.7818609E-02  0.8605351E-01
       -2   -1    0    0    0  501  0.00000000000E+00  0.00000000000E+00  0.63810003750E+03  0.63810003750E+03  0.25500000920E-02 0.  1.
        2   -1    0    0  501    0  0.00000000000E+00  0.00000000000E+00 -0.15714148559E+04  0.15714148559E+04  0.25500000920E-02 0. -1.
    10030    2    1    2    0    0  0.00000000000E+00  0.00000000000E+00 -0.93331481838E+03  0.22095148934E+04  0.20027180315E+04 0.  0.
        5    1    3    3  502    0 -0.72942254143E+03  0.23849301728E+03  0.24300570028E+03  0.80499069784E+03  0.46999998093E+01 0.  1.
       -5    1    3    3    0  502  0.72942254143E+03 -0.23849301728E+03 -0.11763205187E+04  0.14045241955E+04  0.46999998093E+01 0. -1.
</event>
<event>
 5   0  0.1035864E-06  0.3990911E+04  0.7818609E-02  0.8006383E-01
        2   -1    0    0  501    0  0.00000000000E+00  0.00000000000E+00  0.15736320061E+04  0.15736320061E+04  0.25500000920E-02 0.  1.
       -2   -1    0    0    0  501  0.00000000000E+00  0.00000000000E+00 -0.25303521801E+04  0.25303521801E+04  0.25500000920E-02 0. -1.
    10030    2    1    2    0    0  0.00000000000E+00  0.00000000000E+00 -0.95672017401E+03  0.41039841863E+04  0.39909112631E+04 0.  0.
        5    1    3    3  502    0 -0.17746112092E+04 -0.73952225290E+03  0.71276699317E+02  0.19238608485E+04  0.46999998093E+01 0.  1.
       -5    1    3    3    0  502  0.17746112092E+04  0.73952225290E+03 -0.10279968733E+04  0.21801233378E+04  0.46999998093E+01 0. -1.
</event>
<event>
 5   0  0.4316671E-07  0.2416961E+04  0.7818609E-02  0.8433181E-01
        1   -1    0    0  501    0  0.00000000000E+00  0.00000000000E+00  0.13957219864E+04  0.13957219864E+04  0.50400001928E-02 0.  1.
       -1   -1    0    0    0  501  0.00000000000E+00  0.00000000000E+00 -0.10463579219E+04  0.10463579219E+04  0.50400001928E-02 0. -1.
    10030    2    1    2    0    0  0.00000000000E+00  0.00000000000E+00  0.34936406450E+03  0.24420799084E+04  0.24169607008E+04 0.  0.
        2    1    3    3  502    0  0.11950321244E+04 -0.11325007515E+03  0.33597752469E+02  0.12008564306E+04  0.25500000920E-02 0. -1.
       -2    1    3    3    0  502 -0.11950321244E+04  0.11325007515E+03  0.31576631203E+03  0.12412234778E+04  0.25500000920E-02 0.  1.
</event>
<event>
 5   0  0.4316671E-07  0.3905741E+04  0.7818609E-02  0.8023836E-01
       -1   -1    0    0    0  501  0.00000000000E+00  0.00000000000E+00  0.20734449980E+04  0.20734449980E+04  0.50400001928E-02 0.  1.
        1   -1    0    0  501    0  0.00000000000E+00  0.00000000000E+00 -0.18393080800E+04  0.18393080800E+04  0.50400001928E-02 0. -1.
    10030    2    1    2    0    0  0.00000000000E+00  0.00000000000E+00  0.23413691795E+03  0.39127530780E+04  0.39057414857E+04 0.  0.
        2    1    3    3  502    0 -0.60815940494E+03 -0.14170697248E+04  0.13174514203E+04  0.20282067724E+04  0.25500000920E-02 0.  1.
       -2    1    3    3    0  502  0.60815940494E+03  0.14170697248E+04 -0.10833145023E+04  0.18845463056E+04  0.25500000920E-02 0. -1.
</event>
<event>
 5   0  0.3471602E-07  0.3885564E+04  0.7818609E-02  0.8028038E-01
        1   -1    0    0  501    0  0.00000000000E+00  0.00000000000E+00  0.25618920402E+04  0.25618920402E+04  0.50400001928E-02 0.  1.
       -1   -1    0    0    0  501  0.00000000000E+00  0.00000000000E+00 -0.14732870916E+04  0.14732870916E+04  0.50400001928E-02 0. -1.
    10030    2    1    2    0    0  0.00000000000E+00  0.00000000000E+00  0.10886049486E+04  0.40351791318E+04  0.38855642951E+04 0.  0.
        5    1    3    3  502    0  0.53414752818E+02  0.46454005769E+03  0.25025748332E+04  0.25458895276E+04  0.46999998093E+01 0.  1.
       -5    1    3    3    0  502 -0.53414752818E+02 -0.46454005769E+03 -0.14139698845E+04  0.14892896043E+04  0.46999998093E+01 0. -1.
</event>
<event>
 5   0  0.5385714E-07  0.3413082E+04  0.7818609E-02  0.8134703E-01
       -1   -1    0    0    0  501  0.00000000000E+00  0.00000000000E+00  0.11719541809E+04  0.11719541809E+04  0.50400001928E-02 0.  1.
        1   -1    0    0  501    0  0.00000000000E+00  0.00000000000E+00 -0.24849794885E+04  0.24849794885E+04  0.50400001928E-02 0. -1.
    10030    2    1    2    0    0  0.00000000000E+00  0.00000000000E+00 -0.13130253077E+04  0.36569336694E+04  0.34130819509E+04 0.  0.
        3    1    3    3  502    0  0.17996696276E+03 -0.70769478439E+03 -0.23091336034E+04  0.24218418661E+04  0.10100000352E+00 0. -1.
       -3    1    3    3    0  502 -0.17996696276E+03  0.70769478439E+03  0.99610829576E+03  0.12350918033E+04  0.10100000352E+00 0.  1.
</event>
<event>
 5   0  0.1015219E-06  0.3737939E+04  0.7818609E-02  0.8059606E-01
        2   -1    0    0  501    0  0.00000000000E+00  0.00000000000E+00  0.26585387298E+04  0.26585387298E+04  0.25500000920E-02 0. -1.
       -2   -1    0    0    0  501  0.00000000000E+00  0.00000000000E+00 -0.13138975829E+04  0.13138975829E+04  0.25500000920E-02 0.  1.
    10030    2    1    2    0    0  0.00000000000E+00  0.00000000000E+00  0.13446411469E+04  0.39724363127E+04  0.37379393313E+04 0.  0.
        3    1    3    3  502    0  0.97036518206E+03 -0.41925628034E+03 -0.96569161413E+03  0.14317628012E+04  0.10100000352E+00 0.  1.
       -3    1    3    3    0  502 -0.97036518206E+03  0.41925628034E+03  0.23103327610E+04  0.25406735115E+04  0.10100000352E+00 0. -1.
</event>
<event>
 5   0  0.3471602E-07  0.3769752E+04  0.7818609E-02  0.8052677E-01
       -1   -1    0    0    0  501  0.00000000000E+00  0.00000000000E+00  0.22274262309E+04  0.22274262309E+04  0.50400001928E-02 0. -1.
        1   -1    0    0  501    0  0.00000000000E+00  0.00000000000E+00 -0.15950056257E+04  0.15950056258E+04  0.50400001928E-02 0.  1.
    10030    2    1    2    0    0  0.00000000000E+00  0.00000000000E+00  0.63242060512E+03  0.38224318566E+04  0.37697519118E+04 0.  0.
        5    1    3    3  502    0 -0.48856714716E+03  0.12352285424E+04 -0.10397308446E+04  0.16868757300E+04  0.46999998093E+01 0.  1.
       -5    1    3    3    0  502  0.48856714716E+03 -0.12352285424E+04  0.16721514497E+04  0.21355561266E+04  0.46999998093E+01 0. -1.
</event>
<event>
 5   0  0.7268013E-07  0.3665114E+04  0.7818609E-02  0.8075737E-01
       -2   -1    0    0    0  501  0.00000000000E+00  0.00000000000E+00  0.12030751759E+04  0.12030751759E+04  0.25500000920E-02 0. -1.
        2   -1    0    0  501    0  0.00000000000E+00  0.00000000000E+00 -0.27914016058E+04  0.27914016058E+04  0.25500000920E-02 0.  1.
    10030    2    1    2    0    0  0.00000000000E+00  0.00000000000E+00 -0.15883264299E+04  0.39944767817E+04  0.36651144473E+04 0.  0.
        4    1    3    3  502    0  0.11745889674E+04 -0.20969767110E+03  0.72174024833E+03  0.13944686997E+04  0.12699999809E+01 0. -1.
       -4    1    3    3    0  502 -0.11745889674E+04  0.20969767110E+03 -0.23100666783E+04  0.26000080820E+04  0.12699999809E+01 0.  1.
</event>
<event>
 5   0  0.5385714E-07  0.3903989E+04  0.7818609E-02  0.8024200E-01
       -1   -1    0    0    0  501  0.00000000000E+00  0.00000000000E+00  0.22218104058E+04  0.22218104058E+04  0.50400001928E-02 0.  1.
        1   -1    0    0  501    0  0.00000000000E+00  0.00000000000E+00 -0.17149449685E+04  0.17149449685E+04  0.50400001928E-02 0. -1.
    10030    2    1    2    0    0  0.00000000000E+00  0.00000000000E+00  0.50686543735E+03  0.39367553743E+04  0.39039890248E+04 0.  0.
        3    1    3    3  502    0 -0.56169235870E+03  0.97595030873E+03 -0.13544104641E+04  0.17613645353E+04  0.10100000352E+00 0. -1.
       -3    1    3    3    0  502  0.56169235870E+03 -0.97595030873E+03  0.18612759014E+04  0.21753908390E+04  0.10100000352E+00 0.  1.
</event>
<event>
 5   0  0.4316671E-07  0.1998972E+04  0.7818609E-02  0.8607102E-01
        1   -1    0    0  501    0  0.00000000000E+00  0.00000000000E+00  0.14498253596E+04  0.14498253597E+04  0.50400001928E-02 0.  1.
       -1   -1    0    0    0  501  0.00000000000E+00  0.00000000000E+00 -0.68902906859E+03  0.68902906861E+03  0.50400001928E-02 0. -1.
    10030    2    1    2    0    0  0.00000000000E+00  0.00000000000E+00  0.76079629105E+03  0.21388544283E+04  0.19989715528E+04 0.  0.
        2    1    3    3  502    0  0.28656470875E+03  0.50214310272E+03 -0.49194834344E+03  0.75913121430E+03  0.25500000920E-02 0. -1.
       -2    1    3    3    0  502 -0.28656470875E+03 -0.50214310272E+03  0.12527446345E+04  0.13797232140E+04  0.25500000920E-02 0.  1.
</event>
<event>
 5   0  0.5533705E-07  0.4058326E+04  0.7818609E-02  0.7992883E-01
        2   -1    0    0  501    0  0.00000000000E+00  0.00000000000E+00  0.16387012118E+04  0.16387012118E+04  0.25500000920E-02 0.  1.
       -2   -1    0    0    0  501  0.00000000000E+00  0.00000000000E+00 -0.25126618376E+04  0.25126618376E+04  0.25500000920E-02 0. -1.
    10030    2    1    2    0    0  0.00000000000E+00  0.00000000000E+00 -0.87396062582E+03  0.41513630495E+04  0.40583257623E+04 0.  0.
        1    1    3    3  502    0 -0.53141967646E+03 -0.37279782856E+03 -0.24035831439E+04  0.24896981791E+04  0.50400001928E-02 0. -1.
       -1    1    3    3    0  502  0.53141967646E+03  0.37279782856E+03  0.15296225181E+04  0.16616648703E+04  0.50400001928E-02 0.  1.
</event>
<event>
 5   0  0.5533705E-07  0.2126306E+04  0.7818609E-02  0.8549743E-01
       -2   -1    0    0    0  501  0.00000000000E+00  0.00000000000E+00  0.11075491597E+04  0.11075491597E+04  0.25500000920E-02 0. -1.
        2   -1    0    0  501    0  0.00000000000E+00  0.00000000000E+00 -0.10205364505E+04  0.10205364505E+04  0.25500000920E-02 0.  1.
    10030    2    1    2    0    0  0.00000000000E+00  0.00000000000E+00  0.87012709199E+02  0.21280856102E+04  0.21263059876E+04 0.  0.
        1    1    3    3  502    0 -0.14412415568E+03  0.97189621034E+03 -0.36296195043E+03  0.10474232160E+04  0.50400001928E-02 0.  1.
       -1    1    3    3    0  502  0.14412415568E+03 -0.97189621034E+03  0.44997465963E+03  0.10806623942E+04  0.50400001928E-02 0. -1.
</event>
<event>
 5   0  0.5533705E-07  0.2023525E+04  0.7818609E-02  0.8595700E-01
       -2   -1    0    0    0  501  0.00000000000E+00  0.00000000000E+00  0.66775953302E+03  0.66775953303E+03  0.25500000920E-02 0. -1.
        2   -1    0    0  501    0  0.00000000000E+00  0.00000000000E+00 -0.15329816341E+04  0.15329816341E+04  0.25500000920E-02 0.  1.
    10030    2    1    2    0    0  0.00000000000E+00  0.00000000000E+00 -0.86522210106E+03  0.22007411671E+04  0.20235247467E+04 0.  0.
        1    1    3    3  502    0  0.87216967072E+03  0.41098113268E+03 -0.76619391486E+03  0.12315187945E+04  0.50400001928E-02 0.  1.
       -1    1    3    3    0  502 -0.87216967072E+03 -0.41098113268E+03 -0.99028186197E+02  0.96922237264E+03  0.50400001928E-02 0. -1.
</event>
<event>
 5   0  0.5533705E-07  0.3958660E+04  0.7818609E-02  0.8012938E-01
        2   -1    0    0  501    0  0.00000000000E+00  0.00000000000E+00  0.23668752579E+04  0.23668752579E+04  0.25500000920E-02 0. -1.
       -2   -1    0    0    0  501  0.00000000000E+00  0.00000000000E+00 -0.16552402719E+04  0.16552402719E+04  0.25500000920E-02 0.  1.
    10030    2    1    2    0    0  0.00000000000E+00  0.00000000000E+00  0.71163498593E+03  0.40221155298E+04  0.39586599983E+04 0.  0.
        1    1    3    3  502    0  0.64326454592E+03 -0.16952643860E+04  0.11622893907E+04  0.21537472559E+04  0.50400001928E-02 0. -1.
       -1    1    3    3    0  502 -0.64326454592E+03  0.16952643860E+04 -0.45065440473E+03  0.18683682739E+04  0.50400001928E-02 0.  1.
</event>
<event>
 5   0  0.1034683E-06  0.2243554E+04  0.7818609E-02  0.8500515E-01
       -2   -1    0    0    0  501  0.00000000000E+00  0.00000000000E+00  0.83708413978E+03  0.83708413978E+03  0.25500000920E-02 0. -1.
        2   -1    0    0  501    0  0.00000000000E+00  0.00000000000E+00 -0.15032944242E+04  0.15032944242E+04  0.25500000920E-02 0.  1.
    10030    2    1    2    0    0  0.00000000000E+00  0.00000000000E+00 -0.66621028439E+03  0.23403785639E+04  0.22435542515E+04 0.  0.
        2    1    3    3  502    0  0.15538157967E+03 -0.64184018389E+03 -0.12790369706E+04  0.14394574773E+04  0.25500000920E-02 0.  1.
       -2    1    3    3    0  502 -0.15538157967E+03  0.64184018389E+03  0.61282668620E+03  0.90092108660E+03  0.25500000920E-02 0. -1.
</event>
<event>
 5   0  0.5533705E-07  0.3897588E+04  0.7818609E-02  0.8025531E-01
       -2   -1    0    0    0  501  0.00000000000E+00  0.00000000000E+00  0.13592307389E+04  0.13592307389E+04  0.25500000920E-02 0.  1.
        2   -1    0    0  501    0  0.00000000000E+00  0.00000000000E+00 -0.27940785074E+04  0.27940785074E+04  0.25500000920E-02 0. -1.
    10030    2    1    2    0    0  0.00000000000E+00  0.00000000000E+00 -0.14348477685E+04  0.41533092462E+04  0.38975876611E+04 0.  0.
        1    1    3    3  502    0  0.10340889562E+04  0.15641600075E+04 -0.12831624576E+04  0.22721008761E+04  0.50400001928E-02 0. -1.
       -1    1    3    3    0  502 -0.10340889562E+04 -0.15641600075E+04 -0.15168531090E+03  0.18812083702E+04  0.50400001928E-02 0.  1.
</event>
<event>
 5   0  0.3471602E-07  0.3910764E+04  0.7818609E-02  0.8022794E-01
        1   -1    0    0  501    0  0.00000000000E+00  0.00000000000E+00  0.28055834893E+04  0.28055834893E+04  0.50400001928E-02 0.  1.
       -1   -1    0    0    0  501  0.00000000000E+00  0.00000000000E+00 -0.13628245900E+04  0.13628245900E+04  0.50400001928E-02 0. -1.
    10030    2    1    2    0    0  0.00000000000E+00  0.00000000000E+00  0.14427588992E+04  0.41684080793E+04  0.39107636945E+04 0.  0.
        5    1    3    3  502    0  0.38082988862E+03  0.19316355090E+03 -0.13125134938E+04  0.13802381399E+04  0.46999998093E+01 0. -1.
       -5    1    3    3    0  502 -0.38082988862E+03 -0.19316355090E+03  0.27552723930E+04  0.27881699394E+04  0.46999998093E+01 0.  1.
</event>
<event>
 5   0  0.3471602E-07  0.3263496E+04  0.7818609E-02  0.8172246E-01
       -1   -1    0    0    0  501  0.00000000000E+00  0.00000000000E+00  0.14372377404E+04  0.14372377404E+04  0.50400001928E-02 0.  1.
        1   -1    0    0  501    0  0.00000000000E+00  0.00000000000E+00 -0.18525823628E+04  0.18525823628E+04  0.50400001928E-02 0. -1.
    10030    2    1    2    0    0  0.00000000000E+00  0.00000000000E+00 -0.41534462235E+03  0.32898201032E+04  0.32634958490E+04 0.  0.
        5    1    3    3  502    0  0.45753358266E+03  0.13036924648E+04  0.66744776944E+03  0.15344248555E+04  0.46999998093E+01 0.  1.
       -5    1    3    3    0  502 -0.45753358266E+03 -0.13036924648E+04 -0.10827923918E+04  0.17553952478E+04  0.46999998093E+01 0. -1.
</event>
<event>
 5   0  0.1034683E-06  0.3923665E+04  0.7818609E-02  0.8020125E-01
        2   -1    0    0  501    0  0.00000000000E+00  0.00000000000E+00  0.17285278981E+04  0.17285278981E+04  0.25500000920E-02 0.  1.
       -2   -1    0    0    0  501  0.00000000000E+00  0.00000000000E+00 -0.22266265451E+04  0.22266265451E+04  0.25500000920E-02 0. -1.
    10030    2    1    2    0    0  0.00000000000E+00  0.00000000000E+00 -0.49809864697E+03  0.39551544432E+04  0.39236646655E+04 0.  0.
        2    1    3    3  502    0  0.17689766395E+04 -0.84470500407E+03 -0.32700827174E+03  0.19873951054E+04  0.25500000920E-02 0.  1.
       -2    1    3    3    0  502 -0.17689766395E+04  0.84470500407E+03 -0.17109037523E+03  0.19677593378E+04  0.25500000920E-02 0. -1.
</event>
<event>
 5   0  0.5385714E-07  0.2194200E+04  0.7818609E-02  0.8520846E-01
       -1   -1    0    0    0  501  0.00000000000E+00  0.00000000000E+00  0.16304506027E+04  0.16304506027E+04  0.50400001928E-02 0.  1.
        1   -1    0    0  501    0  0.00000000000E+00  0.00000000000E+00 -0.73821798834E+03  0.73821798836E+03  0.50400001928E-02 0. -1.
    10030    2    1    2    0    0  0.00000000000E+00  0.00000000000E+00  0.89223261434E+03  0.23686685910E+04  0.21941995935E+04 0.  0.
        3    1    3    3  502    0  0.19849426403E+03  0.83187285751E+03  0.11879359072E+04  0.14637636946E+04  0.10100000352E+00 0.  1.
       -3    1    3    3    0  502 -0.19849426403E+03 -0.83187285751E+03 -0.29570329287E+03  0.90490489640E+03  0.10100000352E+00 0. -1.
</event>
<event>
 5   0  0.3471602E-07  0.3957205E+04  0.7818609E-02  0.8013236E-01
       -1   -1    0    0    0  501  0.00000000000E+00  0.00000000000E+00  0.14789581609E+04  0.14789581609E+04  0.50400001928E-02 0. -1.
        1   -1    0    0  501    0  0.00000000000E+00  0.00000000000E+00 -0.26470440415E+04  0.26470440415E+04  0.50400001928E-02 0.  1.
    10030    2    1    2    0    0  0.00000000000E+00  0.00000000000E+00 -0.11680858806E+04  0.41260022024E+04  0.39572047647E+04 0.  0.
        5    1    3    3  502    0  0.10559360128E+04  0.47824037526E+03  0.10878289612E+04  0.15896882268E+04  0.46999998093E+01 0. -1.
       -5    1    3    3    0  502 -0.10559360128E+04 -0.47824037526E+03 -0.22559148418E+04  0.25363139756E+04  0.46999998093E+01 0.  1.
</event>
<event>
 5   0  0.1015219E-06  0.3795603E+04  0.7818609E-02  0.8047099E-01
       -2   -1    0    0    0  501  0.00000000000E+00  0.00000000000E+00  0.21649084451E+04  0.21649084451E+04  0.25500000920E-02 0. -1.
        2   -1    0    0  501    0  0.00000000000E+00  0.00000000000E+00 -0.16636504761E+04  0.16636504761E+04  0.25500000920E-02 0.  1.
    10030    2    1    2    0    0  0.00000000000E+00  0.00000000000E+00  0.50125796898E+03  0.38285589212E+04  0.37956032276E+04 0.  0.
        3    1    3    3  502    0  0.18411212453E+04  0.40266775653E+03  0.25572494595E+02  0.18848137109E+04  0.10100000352E+00 0.  1.
       -3    1    3    3    0  502 -0.18411212453E+04 -0.40266775653E+03  0.47568547439E+03  0.19437452103E+04  0.10100000352E+00 0. -1.
</event>
<event>
 5   0  0.5533705E-07  0.4195631E+04  0.7818609E-02  0.7966204E-01
        2   -1    0    0  501    0  0.00000000000E+00  0.00000000000E+00  0.21407382788E+04  0.21407382788E+04  0.25500000920E-02 0. -1.
       -2   -1    0    0    0  501  0.00000000000E+00  0.00000000000E+00 -0.20557529639E+04  0.20557529639E+04  0.25500000920E-02 0.  1.
    10030    2    1    2    0    0  0.00000000000E+00  0.00000000000E+00  0.84985314937E+02  0.41964912427E+04  0.41956306137E+04 0.  0.
        1    1    3    3  502    0 -0.52630903491E+03 -0.18208482525E+04  0.94175410892E+03  0.21164570302E+04  0.50400001928E-02 0. -1.
       -1    1    3    3    0  502  0.52630903491E+03  0.18208482525E+04 -0.85676879399E+03  0.20800342125E+04  0.50400001928E-02 0.  1.
</event>
<event>
 5   0  0.3191750E-07  0.3879536E+04  0.7818609E-02  0.8029299E-01
       -3   -1    0    0    0  501  0.00000000000E+00  0.00000000000E+00  0.12295846566E+04  0.12295846607E+04  0.10100000352E+00 0. -1.
        3   -1    0    0  501    0  0.00000000000E+00  0.00000000000E+00 -0.30601385038E+04  0.30601385054E+04  0.10100000352E+00 0.  1.
    10030    2    1    2    0    0  0.00000000000E+00  0.00000000000E+00 -0.18305538472E+04  0.42897231662E+04  0.38795357267E+04 0.  0.
        1    1    3    3  502    0 -0.56458439295E+03  0.18160136957E+04 -0.13378312705E+04  0.23251782272E+04  0.50400001928E-02 0.  1.
       -1    1    3    3    0  502  0.56458439295E+03 -0.18160136957E+04 -0.49272257666E+03  0.19645449390E+04  0.50400001928E-02 0. -1.
</event>
<event>
 5   0  0.1034683E-06  0.2582638E+04  0.7818609E-02  0.8374123E-01
       -2   -1    0    0    0  501  0.00000000000E+00  0.00000000000E+00  0.72931586805E+03  0.72931586806E+03  0.25500000920E-02 0.  1.
        2   -1    0    0  501    0  0.00000000000E+00  0.00000000000E+00 -0.22863952051E+04  0.22863952051E+04  0.25500000920E-02 0. -1.
    10030    2    1    2    0    0  0.00000000000E+00  0.00000000000E+00 -0.15570793371E+04  0.30157110732E+04  0.25826376468E+04 0.  0.
        2    1    3    3  502    0 -0.55906747562E+03  0.87664706757E+03 -0.16727449361E+04  0.19695537933E+04  0.25500000920E-02 0.  1.
       -2    1    3    3    0  502  0.55906747562E+03 -0.87664706757E+03  0.11566559908E+03  0.10461572799E+04  0.25500000920E-02 0. -1.
</event>
<event>
 5   0  0.4627905E-07  0.2129747E+04  0.7818609E-02  0.8548252E-01
       -1   -1    0    0    0  501  0.00000000000E+00  0.00000000000E+00  0.94259792324E+03  0.94259792325E+03  0.50400001928E-02 0. -1.
        1   -1    0    0  501    0  0.00000000000E+00  0.00000000000E+00 -0.12030112115E+04  0.12030112115E+04  0.50400001928E-02 0.  1.
    10030    2    1    2    0    0  0.00000000000E+00  0.00000000000E+00 -0.26041328828E+03  0.21456091348E+04  0.21297472804E+04 0.  0.
        1    1    3    3  502    0 -0.97581057247E+03  0.81922875689E+02 -0.55169832235E+03  0.11239611514E+04  0.50400001928E-02 0.  1.
       -1    1    3    3    0  502  0.97581057247E+03 -0.81922875689E+02  0.29128503407E+03  0.10216479834E+04  0.50400001928E-02 0. -1.
</event>
<event>
 5   0  0.5533705E-07  0.3998111E+04  0.7818609E-02  0.8004928E-01
        2   -1    0    0  501    0  0.00000000000E+00  0.00000000000E+00  0.25352890349E+04  0.25352890349E+04  0.25500000920E-02 0. -1.
       -2   -1    0    0    0  501  0.00000000000E+00  0.00000000000E+00 -0.15762399437E+04  0.15762399437E+04  0.25500000920E-02 0.  1.
    10030    2    1    2    0    0  0.00000000000E+00  0.00000000000E+00  0.95904909115E+03  0.41115289786E+04  0.39981114770E+04 0.  0.
        1    1    3    3  502    0 -0.24814979297E+03  0.12648410888E+04  0.20508834670E+04  0.24222973177E+04  0.50400001928E-02 0. -1.
       -1    1    3    3    0  502  0.24814979297E+03 -0.12648410888E+04 -0.10918343759E+04  0.16892316609E+04  0.50400001928E-02 0.  1.
</event>
<event>
 5   0  0.1095972E-06  0.1984214E+04  0.7818609E-02  0.8614037E-01
       -2   -1    0    0    0  501  0.00000000000E+00  0.00000000000E+00  0.11107349648E+04  0.11107349648E+04  0.25500000920E-02 0.  1.
        2   -1    0    0  501    0  0.00000000000E+00  0.00000000000E+00 -0.88614851975E+03  0.88614851975E+03  0.25500000920E-02 0. -1.
    10030    2    1    2    0    0  0.00000000000E+00  0.00000000000E+00  0.22458644506E+03  0.19968834846E+04  0.19842138442E+04 0.  0.
        5    1    3    3  502    0 -0.83313394439E+03  0.38930721406E+03 -0.26234951245E+03  0.95630624431E+03  0.46999998093E+01 0.  1.
       -5    1    3    3    0  502  0.83313394439E+03 -0.38930721406E+03  0.48693595751E+03  0.10405772403E+04  0.46999998093E+01 0. -1.
</event>
<event>
 5   0  0.5385714E-07  0.2801759E+04  0.7818609E-02  0.8302723E-01
        1   -1    0    0  501    0  0.00000000000E+00  0.00000000000E+00  0.18828989220E+04  0.18828989220E+04  0.50400001928E-02 0.  1.
       -1   -1    0    0    0  501  0.00000000000E+00  0.00000000000E+00 -0.10422560946E+04  0.10422560946E+04  0.50400001928E-02 0. -1.
    10030    2    1    2    0    0  0.00000000000E+00  0.00000000000E+00  0.84064282735E+03  0.29251550166E+04  0.28017586455E+04 0.  0.
        3    1    3    3  502    0 -0.43255035251E+03 -0.87130801496E+03  0.14727790932E+04  0.17650370341E+04  0.10100000352E+00 0.  1.
       -3    1    3    3    0  502  0.43255035251E+03  0.87130801496E+03 -0.63213626583E+03  0.11601179824E+04  0.10100000352E+00 0. -1.
</event>
<event>
 5   0  0.3471602E-07  0.3621645E+04  0.7818609E-02  0.8085552E-01
       -1   -1    0    0    0  501  0.00000000000E+00  0.00000000000E+00  0.21696468519E+04  0.21696468519E+04  0.50400001928E-02 0. -1.
        1   -1    0    0  501    0  0.00000000000E+00  0.00000000000E+00 -0.15113414581E+04  0.15113414581E+04  0.50400001928E-02 0.  1.
    10030    2    1    2    0    0  0.00000000000E+00  0.00000000000E+00  0.65830539389E+03  0.36809883100E+04  0.36216445086E+04 0.  0.
        5    1    3    3  502    0 -0.17280945337E+04  0.48685468126E+03  0.56906486793E+03  0.18833998811E+04  0.46999998093E+01 0.  1.
       -5    1    3    3    0  502  0.17280945337E+04 -0.48685468126E+03  0.89240525961E+02  0.17975884289E+04  0.46999998093E+01 0. -1.
</event>
<event>
 5   0  0.1035864E-06  0.4044158E+04  0.7818609E-02  0.7995697E-01
       -2   -1    0    0    0  501  0.00000000000E+00  0.00000000000E+00  0.28637508866E+04  0.28637508866E+04  0.25500000920E-02 0.  1.
        2   -1    0    0  501    0  0.00000000000E+00  0.00000000000E+00 -0.14277793210E+04  0.14277793210E+04  0.25500000920E-02 0. -1.
    10030    2    1    2    0    0  0.00000000000E+00  0.00000000000E+00  0.14359715655E+04  0.42915302076E+04  0.40441584026E+04 0.  0.
        5    1    3    3  502    0 -0.78620378608E+03 -0.13087721435E+04 -0.68892460009E+03  0.16750045109E+04  0.46999998093E+01 0.  1.
       -5    1    3    3    0  502  0.78620378608E+03  0.13087721435E+04  0.21248961656E+04  0.26165256967E+04  0.46999998093E+01 0. -1.
</event>
<event>
 5   0  0.7268013E-07  0.3790004E+04  0.7818609E-02  0.8048303E-01
       -2   -1    0    0    0  501  0.00000000000E+00  0.00000000000E+00  0.11814734182E+04  0.11814734182E+04  0.25500000920E-02 0. -1.
        2   -1    0    0  501    0  0.00000000000E+00  0.00000000000E+00 -0.30394528477E+04  0.30394528477E+04  0.25500000920E-02 0.  1.
    10030    2    1    2    0    0  0.00000000000E+00  0.00000000000E+00 -0.18579794295E+04  0.42209262659E+04  0.37900040872E+04 0.  0.
        4    1    3    3  502    0 -0.11154336944E+04 -0.29355602322E+03  0.74551380427E+03  0.13733753714E+04  0.12699999809E+01 0. -1.
       -4    1    3    3    0  502  0.11154336944E+04  0.29355602322E+03 -0.26034932338E+04  0.28475508945E+04  0.12699999809E+01 0.  1.
</event>
<event>
 5   0  0.4316671E-07  0.4029572E+04  0.7818609E-02  0.7998607E-01
       -1   -1    0    0    0  501  0.00000000000E+00  0.00000000000E+00  0.21504765568E+04  0.21504765568E+04  0.50400001928E-02 0.  1.
        1   -1    0    0  501    0  0.00000000000E+00  0.00000000000E+00 -0.18876571468E+04  0.18876571468E+04  0.50400001928E-02 0. -1.
    10030    2    1    2    0    0  0.00000000000E+00  0.00000000000E+00  0.26281940995E+03  0.40381337036E+04  0.40295719086E+04 0.  0.
        2    1    3    3  502    0  0.42298145512E+03 -0.15694139287E+03 -0.18363863121E+04  0.18909940771E+04  0.25500000920E-02 0. -1.
       -2    1    3    3    0  502 -0.42298145512E+03  0.15694139287E+03  0.20992057221E+04  0.21471396265E+04  0.25500000920E-02 0.  1.
</event>
<event>
 5   0  0.3471602E-07  0.2198018E+04  0.7818609E-02  0.8519253E-01
        1   -1    0    0  501    0  0.00000000000E+00  0.00000000000E+00  0.10203703058E+04  0.10203703058E+04  0.50400001928E-02 0. -1.
       -1   -1    0    0    0  501  0.00000000000E+00  0.00000000000E+00 -0.11837083321E+04  0.11837083321E+04  0.50400001928E-02 0.  1.
    10030    2    1    2    0    0  0.00000000000E+00  0.00000000000E+00 -0.16333802627E+03  0.22040786380E+04  0.21980180462E+04 0.  0.
        5    1    3    3  502    0  0.11394143733E+03  0.10627935535E+04  0.17454667046E+03  0.10830519002E+04  0.46999998093E+01 0. -1.
       -5    1    3    3    0  502 -0.11394143733E+03 -0.10627935535E+04 -0.33788469673E+03  0.11210267377E+04  0.46999998093E+01 0.  1.
</event>
<event>
 5   0  0.1035864E-06  0.2448970E+04  0.7818609E-02  0.8421394E-01
        2   -1    0    0  501    0  0.00000000000E+00  0.00000000000E+00  0.25521047780E+04  0.25521047780E+04  0.25500000920E-02 0. -1.
       -2   -1    0    0    0  501  0.00000000000E+00  0.00000000000E+00 -0.58750073003E+03  0.58750073003E+03  0.25500000920E-02 0.  1.
    10030    2    1    2    0    0  0.00000000000E+00  0.00000000000E+00  0.19646040480E+04  0.31396055080E+04  0.24489699224E+04 0.  0.
        5    1    3    3  502    0 -0.76770988211E+03  0.38829983591E+03  0.20993343883E+04  0.22687842977E+04  0.46999998093E+01 0. -1.
       -5    1    3    3    0  502  0.76770988211E+03 -0.38829983591E+03 -0.13473034037E+03  0.87082121028E+03  0.46999998093E+01 0.  1.
</event>
<event>
 5   0  0.5533705E-07  0.3916563E+04  0.7818609E-02  0.8021593E-01
        2   -1    0    0  501    0  0.00000000000E+00  0.00000000000E+00  0.24944105092E+04  0.24944105092E+04  0.25500000920E-02 0.  1.
       -2   -1    0    0    0  501  0.00000000000E+00  0.00000000000E+00 -0.15373839974E+04  0.15373839974E+04  0.25500000920E-02 0. -1.
    10030    2    1    2    0    0  0.00000000000E+00  0.00000000000E+00  0.95702651187E+03  0.40317945066E+04  0.39165631872E+04 0.  0.
        1    1    3    3  502    0 -0.94286978952E+03 -0.58815888643E+03  0.21383840610E+04  0.24099005598E+04  0.50400001928E-02 0.  1.
       -1    1    3    3    0  502  0.94286978952E+03  0.58815888643E+03 -0.11813575492E+04  0.16218939468E+04  0.50400001928E-02 0. -1.
</event>
<event>
 5   0  0.5533705E-07  0.4026252E+04  0.7818609E-02  0.7999272E-01
       -2   -1    0    0    0  501  0.00000000000E+00  0.00000000000E+00  0.15351844651E+04  0.15351844651E+04  0.25500000920E-02 0. -1.
        2   -1    0    0  501    0  0.00000000000E+00  0.00000000000E+00 -0.26398624316E+04  0.26398624316E+04  0.25500000920E-02 0.  1.
    10030    2    1    2    0    0  0.00000000000E+00  0.00000000000E+00 -0.11046779665E+04  0.41750468967E+04  0.40262517532E+04 0.  0.
        1    1    3    3  502    0  0.10464689424E+04  0.17192183986E+04 -0.59714036133E+03  0.20993774698E+04  0.50400001928E-02 0.  1.
       -1    1    3    3    0  502 -0.10464689424E+04 -0.17192183986E+04 -0.50753760515E+03  0.20756694270E+04  0.50400001928E-02 0. -1.
</event>
<event>
 5   0  0.5533705E-07  0.2910102E+04  0.7818609E-02  0.8269878E-01
        2   -1    0    0  501    0  0.00000000000E+00  0.00000000000E+00  0.19497986279E+04  0.19497986279E+04  0.25500000920E-02 0.  1.
       -2   -1    0    0    0  501  0.00000000000E+00  0.00000000000E+00 -0.10858424513E+04  0.10858424513E+04  0.25500000920E-02 0. -1.
    10030    2    1    2    0    0  0.00000000000E+00  0.00000000000E+00  0.86395617661E+03  0.30356410793E+04  0.29101024874E+04 0.  0.
        1    1    3    3  502    0 -0.74453839499E+03 -0.12401014536E+04  0.59686362097E+03  0.15647476534E+04  0.50400001928E-02 0. -1.
       -1    1    3    3    0  502  0.74453839499E+03  0.12401014536E+04  0.26709255564E+03  0.14708934258E+04  0.50400001928E-02 0.  1.
</event>
<event>
 5   0  0.3977376E-07  0.3796623E+04  0.7818609E-02  0.8046880E-01
       -1   -1    0    0    0  501  0.00000000000E+00  0.00000000000E+00  0.14526735630E+04  0.14526735630E+04  0.50400001928E-02 0.  1.
        1   -1    0    0  501    0  0.00000000000E+00  0.00000000000E+00 -0.24806577319E+04  0.24806577319E+04  0.50400001928E-02 0. -1.
    10030    2    1    2    0    0  0.00000000000E+00  0.00000000000E+00 -0.10279841688E+04  0.39333312949E+04  0.37966226602E+04 0.  0.
        4    1    3    3  502    0 -0.73780883115E+03  0.63272868219E+03 -0.22033131680E+04  0.24081731635E+04  0.12699999809E+01 0. -1.
       -4    1    3    3    0  502  0.73780883115E+03 -0.63272868219E+03  0.11753289991E+04  0.15251581314E+04  0.12699999809E+01 0.  1.
</event>
<event>
 5   0  0.7268013E-07  0.3958047E+04  0.7818609E-02  0.8013064E-01
       -2   -1    0    0    0  501  0.00000000000E+00  0.00000000000E+00  0.16112028723E+04  0.16112028723E+04  0.25500000920E-02 0. -1.
        2   -1    0    0  501    0  0.00000000000E+00  0.00000000000E+00 -0.24308131937E+04  0.24308131937E+04  0.25500000920E-02 0.  1.
    10030    2    1    2    0    0  0.00000000000E+00  0.00000000000E+00 -0.81961032147E+03  0.40420160660E+04  0.39580465887E+04 0.  0.
        4    1    3    3  502    0  0.10718292794E+04 -0.16301925286E+04 -0.70820419339E+02  0.19522711976E+04  0.12699999809E+01 0.  1.
       -4    1    3    3    0  502 -0.10718292794E+04  0.16301925286E+04 -0.74878990213E+03  0.20897448684E+04  0.12699999809E+01 0. -1.
</event>
<event>
 5   0  0.1035864E-06  0.3637345E+04  0.7818609E-02  0.8081991E-01
       -2   -1    0    0    0  501  0.00000000000E+00  0.00000000000E+00  0.14780857986E+04  0.14780857986E+04  0.25500000920E-02 0.  1.
        2   -1    0    0  501    0  0.00000000000E+00  0.00000000000E+00 -0.22377381864E+04  0.22377381864E+04  0.25500000920E-02 0. -1.
    10030    2    1    2    0    0  0.00000000000E+00  0.00000000000E+00 -0.75965238783E+03  0.37158239849E+04  0.36373446547E+04 0.  0.
        5    1    3    3  502    0  0.56603992470E+03  0.16409513250E+04  0.17449010699E+03  0.17445891593E+04  0.46999998093E+01 0. -1.
       -5    1    3    3    0  502 -0.56603992470E+03 -0.16409513250E+04 -0.93414249482E+03  0.19712348257E+04  0.46999998093E+01 0.  1.
</event>
<event>
 5   0  0.4627905E-07  0.3885944E+04  0.7818609E-02  0.8027959E-01
        1   -1    0    0  501    0  0.00000000000E+00  0.00000000000E+00  0.17201048470E+04  0.17201048470E+04  0.50400001928E-02 0. -1.
       -1   -1    0    0    0  501  0.00000000000E+00  0.00000000000E+00 -0.21947154561E+04  0.21947154561E+04  0.50400001928E-02 0.  1.
    10030    2    1    2    0    0  0.00000000000E+00  0.00000000000E+00 -0.47461060911E+03  0.39148203031E+04  0.38859442578E+04 0.  0.
        1    1    3    3  502    0 -0.93010725723E+02  0.15824616777E+04  0.89456683850E+03  0.18201883928E+04  0.50400001928E-02 0. -1.
       -1    1    3    3    0  502  0.93010725723E+02 -0.15824616777E+04 -0.13691774476E+04  0.20946319103E+04  0.50400001928E-02 0.  1.
</event>
<event>
 5   0  0.3471602E-07  0.3347205E+04  0.7818609E-02  0.8150987E-01
        1   -1    0    0  501    0  0.00000000000E+00  0.00000000000E+00  0.97904241553E+03  0.97904241554E+03  0.50400001928E-02 0.  1.
       -1   -1    0    0    0  501  0.00000000000E+00  0.00000000000E+00 -0.28609033675E+04  0.28609033675E+04  0.50400001928E-02 0. -1.
    10030    2    1    2    0    0  0.00000000000E+00  0.00000000000E+00 -0.18818609519E+04  0.38399457830E+04  0.33472052483E+04 0.  0.
        5    1    3    3  502    0  0.13778262086E+03  0.95599676283E+03  0.62701993389E+03  0.11515597894E+04  0.46999998093E+01 0.  1.
       -5    1    3    3    0  502 -0.13778262086E+03 -0.95599676283E+03 -0.25088808858E+04  0.26883859936E+04  0.46999998093E+01 0. -1.
</event>
<event>
 5   0  0.1034683E-06  0.2995864E+04  0.7818609E-02  0.8244913E-01
       -2   -1    0    0    0  501  0.00000000000E+00  0.00000000000E+00  0.12560848256E+04  0.12560848256E+04  0.25500000920E-02 0. -1.
        2   -1    0    0  501    0  0.00000000000E+00  0.00000000000E+00 -0.17863446142E+04  0.17863446142E+04  0.25500000920E-02 0.  1.
    10030    2    1    2    0    0  0.00000000000E+00  0.00000000000E+00 -0.53025978858E+03  0.30424294398E+04  0.29958640578E+04 0.  0.
        2    1    3    3  502    0 -0.99432477116E+03 -0.80406498742E+03 -0.10573825640E+04  0.16592950736E+04  0.25500000920E-02 0.  1.
       -2    1    3    3    0  502  0.99432477116E+03  0.80406498742E+03  0.52712277545E+03  0.13831343662E+04  0.25500000920E-02 0. -1.
</event>
<event>
 5   0  0.7268013E-07  0.2551359E+04  0.7818609E-02  0.8384914E-01
       -2   -1    0    0    0  501  0.00000000000E+00  0.00000000000E+00  0.87419342476E+03  0.87419342477E+03  0.25500000920E-02 0. -1.
        2   -1    0    0  501    0  0.00000000000E+00  0.00000000000E+00 -0.18615545737E+04  0.18615545737E+04  0.25500000920E-02 0.  1.
    10030    2    1    2    0    0  0.00000000000E+00  0.00000000000E+00 -0.98736114889E+03  0.27357479984E+04  0.25513594558E+04 0.  0.
        4    1    3    3  502    0 -0.42357522919E+03  0.36725026802E+03 -0.17223869698E+04  0.18113274748E+04  0.12699999809E+01 0.  1.
       -4    1    3    3    0  502  0.42357522919E+03 -0.36725026802E+03  0.73502582095E+03  0.92442052363E+03  0.12699999809E+01 0. -1.
</event>
<event>
 5   0  0.5533705E-07  0.3744868E+04  0.7818609E-02  0.8058091E-01
        2   -1    0    0  501    0  0.00000000000E+00  0.00000000000E+00  0.19746143880E+04  0.19746143880E+04  0.25500000920E-02 0. -1.
       -2   -1    0    0    0  501  0.00000000000E+00  0.00000000000E+00 -0.17755411411E+04  0.17755411411E+04  0.25500000920E-02 0.  1.
    10030    2    1    2    0    0  0.00000000000E+00  0.00000000000E+00  0.19907324691E+03  0.37501555292E+04  0.37448679997E+04 0.  0.
        1    1    3    3  502    0 -0.11518618639E+04 -0.14655052413E+04 -0.78246343044E+02  0.18656403340E+04  0.50400001928E-02 0.  1.
       -1    1    3    3    0  502  0.11518618639E+04  0.14655052413E+04  0.27731958996E+03  0.18845151951E+04  0.50400001928E-02 0. -1.
</event>
<event>
 5   0  0.1035864E-06  0.3714599E+04  0.7818609E-02  0.8064734E-01
       -2   -1    0    0    0  501  0.00000000000E+00  0.00000000000E+00  0.24126333190E+04  0.24126333190E+04  0.25500000920E-02 0.  1.
        2   -1    0    0  501    0  0.00000000000E+00  0.00000000000E+00 -0.14297910627E+04  0.14297910627E+04  0.25500000920E-02 0. -1.
    10030    2    1    2    0    0  0.00000000000E+00  0.00000000000E+00  0.98284225634E+03  0.38424243818E+04  0.37145990670E+04 0.  0.
        5    1    3    3  502    0 -0.68958619097E+03 -0.31755199593E+03 -0.12619511162E+04  0.14727223413E+04  0.46999998093E+01 0. -1.
       -5    1    3    3    0  502  0.68958619097E+03  0.31755199593E+03  0.22447933726E+04  0.23697020404E+04  0.46999998093E+01 0.  1.
</event>
<event>
 5   0  0.7268013E-07  0.3926041E+04  0.7818609E-02  0.8019635E-01
       -2   -1    0    0    0  501  0.00000000000E+00  0.00000000000E+00  0.18290682558E+04  0.18290682558E+04  0.25500000920E-02 0.  1.
        2   -1    0    0  501    0  0.00000000000E+00  0.00000000000E+00 -0.21067822806E+04  0.21067822806E+04  0.25500000920E-02 0. -1.
    10030    2    1    2    0    0  0.00000000000E+00  0.00000000000E+00 -0.27771402480E+03  0.39358505363E+04  0.39260405455E+04 0.  0.
        4    1    3    3  502    0  0.11699525839E+04 -0.15563236965E+04  0.11179669562E+03  0.19502391164E+04  0.12699999809E+01 0.  1.
       -4    1    3    3    0  502 -0.11699525839E+04  0.15563236965E+04 -0.38951072042E+03  0.19856114200E+04  0.12699999809E+01 0. -1.
</event>
<event>
 5   0  0.5533705E-07  0.3812055E+04  0.7818609E-02  0.8043573E-01
       -2   -1    0    0    0  501  0.00000000000E+00  0.00000000000E+00  0.14111909229E+04  0.14111909229E+04  0.25500000920E-02 0.  1.
        2   -1    0    0  501    0  0.00000000000E+00  0.00000000000E+00 -0.25743791672E+04  0.25743791672E+04  0.25500000920E-02 0. -1.
    10030    2    1    2    0    0  0.00000000000E+00  0.00000000000E+00 -0.11631882443E+04  0.39855700901E+04  0.38120548332E+04 0.  0.
        1    1    3    3  502    0 -0.45729964360E+03 -0.60297338462E+03 -0.24105747335E+04  0.25265728591E+04  0.50400001928E-02 0. -1.
       -1    1    3    3    0  502  0.45729964360E+03  0.60297338462E+03  0.12473864892E+04  0.14589972310E+04  0.50400001928E-02 0.  1.
</event>
<event>
 5   0  0.3977376E-07  0.3639025E+04  0.7818609E-02  0.8081611E-01
        1   -1    0    0  501    0  0.00000000000E+00  0.00000000000E+00  0.17850163394E+04  0.17850163394E+04  0.50400001928E-02 0.  1.
       -1   -1    0    0    0  501  0.00000000000E+00  0.00000000000E+00 -0.18546754861E+04  0.18546754861E+04  0.50400001928E-02 0. -1.
    10030    2    1    2    0    0  0.00000000000E+00  0.00000000000E+00 -0.69659146620E+02  0.36396918255E+04  0.36390251700E+04 0.  0.
        4    1    3    3  502    0 -0.62544944144E+03  0.10880447608E+04 -0.13524911369E+04  0.18450643061E+04  0.12699999809E+01 0. -1.
       -4    1    3    3    0  502  0.62544944144E+03 -0.10880447608E+04  0.12828319903E+04  0.17946275194E+04  0.12699999809E+01 0.  1.
</event>
<event>
 5   0  0.3471602E-07  0.2464561E+04  0.7818609E-02  0.8415721E-01
        1   -1    0    0  501    0  0.00000000000E+00  0.00000000000E+00  0.89670390921E+03  0.89670390922E+03  0.50400001928E-02 0.  1.
       -1   -1    0    0    0  501  0.00000000000E+00  0.00000000000E+00 -0.16934411522E+04  0.16934411522E+04  0.50400001928E-02 0. -1.
    10030    2    1    2    0    0  0.00000000000E+00  0.00000000000E+00 -0.79673724299E+03  0.25901450614E+04  0.24645610572E+04 0.  0.
        5    1    3    3  502    0 -0.58031292463E+03  0.36821028069E+03  0.67656527315E+03  0.96441928647E+03  0.46999998093E+01 0.  1.
       -5    1    3    3    0  502  0.58031292463E+03 -0.36821028069E+03 -0.14733025161E+04  0.16257257750E+04  0.46999998093E+01 0. -1.
</event>
<event>
 5   0  0.1050545E-06  0.2075973E+04  0.7818609E-02  0.8571902E-01
       -2   -1    0    0    0  501  0.00000000000E+00  0.00000000000E+00  0.11626562250E+04  0.11626562250E+04  0.25500000920E-02 0. -1.
        2   -1    0    0  501    0  0.00000000000E+00  0.00000000000E+00 -0.92668522730E+03  0.92668522731E+03  0.25500000920E-02 0.  1.
    10030    2    1    2    0    0  0.00000000000E+00  0.00000000000E+00  0.23597099771E+03  0.20893414523E+04  0.20759733603E+04 0.  0.
        3    1    3    3  502    0 -0.25255283541E+03 -0.97748139395E+03 -0.12473866539E+03  0.10172573691E+04  0.10100000352E+00 0.  1.
       -3    1    3    3    0  502  0.25255283541E+03  0.97748139395E+03  0.36070966310E+03  0.10720840832E+04  0.10100000352E+00 0. -1.
</event>
<event>
 5   0  0.1015219E-06  0.3177483E+04  0.7818609E-02  0.8194789E-01
        2   -1    0    0  501    0  0.00000000000E+00  0.00000000000E+00  0.22441399305E+04  0.22441399305E+04  0.25500000920E-02 0.  1.
       -2   -1    0    0    0  501  0.00000000000E+00  0.00000000000E+00 -0.11247514837E+04  0.11247514837E+04  0.25500000920E-02 0. -1.
    10030    2    1    2    0    0  0.00000000000E+00  0.00000000000E+00  0.11193884468E+04  0.33688914141E+04  0.31774831023E+04 0.  0.
        3    1    3    3  502    0 -0.46939865274E+03 -0.14485321753E+04  0.79043158533E+02  0.15247387938E+04  0.10100000352E+00 0. -1.
       -3    1    3    3    0  502  0.46939865274E+03  0.14485321753E+04  0.10403452883E+04  0.18441526204E+04  0.10100000352E+00 0.  1.
</event>
<event>
 5   0  0.1015219E-06  0.3016839E+04  0.7818609E-02  0.8238939E-01
       -2   -1    0    0    0  501  0.00000000000E+00  0.00000000000E+00  0.11318555511E+04  0.11318555511E+04  0.25500000920E-02 0.  1.
        2   -1    0    0  501    0  0.00000000000E+00  0.00000000000E+00 -0.20102652739E+04  0.20102652739E+04  0.25500000920E-02 0. -1.
    10030    2    1    2    0    0  0.00000000000E+00  0.00000000000E+00 -0.87840972280E+03  0.31421208250E+04  0.30168393457E+04 0.  0.
        3    1    3    3  502    0  0.35071047768E+03  0.11129293091E+04  0.55637788429E+03  0.12927357992E+04  0.10100000352E+00 0.  1.
       -3    1    3    3    0  502 -0.35071047768E+03 -0.11129293091E+04 -0.14347876071E+04  0.18493850258E+04  0.10100000352E+00 0. -1.
</event>
<event>
 5   0  0.7268013E-07  0.3328330E+04  0.7818609E-02  0.8155724E-01
        2   -1    0    0  501    0  0.00000000000E+00  0.00000000000E+00  0.13968397184E+04  0.13968397184E+04  0.25500000920E-02 0. -1.
       -2   -1    0    0    0  501  0.00000000000E+00  0.00000000000E+00 -0.19826503389E+04  0.19826503389E+04  0.25500000920E-02 0.  1.
    10030    2    1    2    0    0  0.00000000000E+00  0.00000000000E+00 -0.58581062044E+03  0.33794900573E+04  0.33283297560E+04 0.  0.
        4    1    3    3  502    0 -0.13526327388E+04 -0.34962886213E+03  0.62519881007E+03  0.15305981943E+04  0.12699999809E+01 0. -1.
       -4    1    3    3    0  502  0.13526327388E+04  0.34962886213E+03 -0.12110094305E+04  0.18488918630E+04  0.12699999809E+01 0.  1.
</event>
<event>
 5   0  0.7268013E-07  0.2477540E+04  0.7818609E-02  0.8411031E-01
       -2   -1    0    0    0  501  0.00000000000E+00  0.00000000000E+00  0.98743244997E+03  0.98743244997E+03  0.25500000920E-02 0. -1.
        2   -1    0    0  501    0  0.00000000000E+00  0.00000000000E+00 -0.15540827083E+04  0.15540827083E+04  0.25500000920E-02 0.  1.
    10030    2    1    2    0    0  0.00000000000E+00  0.00000000000E+00 -0.56665025837E+03  0.25415151583E+04  0.24775404708E+04 0.  0.
        4    1    3    3  502    0  0.74404016857E+03  0.49799117917E+03 -0.11615623039E+04  0.14665672797E+04  0.12699999809E+01 0.  1.
       -4    1    3    3    0  502 -0.74404016857E+03 -0.49799117917E+03  0.59491204555E+03  0.10749478787E+04  0.12699999809E+01 0. -1.
</event>
<event>
 5   0  0.3471602E-07  0.2564853E+04  0.7818609E-02  0.8380239E-01
       -1   -1    0    0    0  501  0.00000000000E+00  0.00000000000E+00  0.11317573172E+04  0.11317573172E+04  0.50400001928E-02 0. -1.
        1   -1    0    0  501    0  0.00000000000E+00  0.00000000000E+00 -0.14531543729E+04  0.14531543730E+04  0.50400001928E-02 0.  1.
    10030    2    1    2    0    0  0.00000000000E+00  0.00000000000E+00 -0.32139705579E+03  0.25849116901E+04  0.25648532859E+04 0.  0.
        5    1    3    3  502    0 -0.11523411801E+04  0.56262225656E+03 -0.17352620979E+03  0.12940507851E+04  0.46999998093E+01 0. -1.
       -5    1    3    3    0  502  0.11523411801E+04 -0.56262225656E+03 -0.14787084601E+03  0.12908609050E+04  0.46999998093E+01 0.  1.
</event>
<event>
 5   0  0.5533705E-07  0.2444888E+04  0.7818609E-02  0.8422887E-01
       -2   -1    0    0    0  501  0.00000000000E+00  0.00000000000E+00  0.84036295105E+03  0.84036295106E+03  0.25500000920E-02 0. -1.
        2   -1    0    0  501    0  0.00000000000E+00  0.00000000000E+00 -0.17782427489E+04  0.17782427489E+04  0.25500000920E-02 0.  1.
    10030    2    1    2    0    0  0.00000000000E+00  0.00000000000E+00 -0.93787979782E+03  0.26186056999E+04  0.24448879926E+04 0.  0.
        1    1    3    3  502    0 -0.75011461798E+03  0.59710723048E+03  0.34333981440E+03  0.10183767539E+04  0.50400001928E-02 0. -1.
       -1    1    3    3    0  502  0.75011461798E+03 -0.59710723048E+03 -0.12812196122E+04  0.16002289460E+04  0.50400001928E-02 0.  1.
</event>
<event>
 5   0  0.7271478E-07  0.1980605E+04  0.7818609E-02  0.8615742E-01
        2   -1    0    0  501    0  0.00000000000E+00  0.00000000000E+00  0.96325397897E+03  0.96325397897E+03  0.25500000920E-02 0.  1.
       -2   -1    0    0    0  501  0.00000000000E+00  0.00000000000E+00 -0.10181110347E+04  0.10181110347E+04  0.25500000920E-02 0. -1.
    10030    2    1    2    0    0  0.00000000000E+00  0.00000000000E+00 -0.54857055697E+02  0.19813650136E+04  0.19806054682E+04 0.  0.
        4    1    3    3  502    0  0.45079968198E+03 -0.40184822485E+03 -0.81258334821E+03  0.10124206931E+04  0.12699999809E+01 0. -1.
       -4    1    3    3    0  502 -0.45079968198E+03  0.40184822485E+03  0.75772629251E+03  0.96894432056E+03  0.12699999809E+01 0.  1.
</event>
<event>
 5   0  0.4627905E-07  0.2090791E+04  0.7818609E-02  0.8565311E-01
        1   -1    0    0  501    0  0.00000000000E+00  0.00000000000E+00  0.81298785800E+03  0.81298785802E+03  0.50400001928E-02 0.  1.
       -1   -1    0    0    0  501  0.00000000000E+00  0.00000000000E+00 -0.13442412808E+04  0.13442412808E+04  0.50400001928E-02 0. -1.
    10030    2    1    2    0    0  0.00000000000E+00  0.00000000000E+00 -0.53125342279E+03  0.21572291388E+04  0.20907910843E+04 0.  0.
        1    1    3    3  502    0 -0.45636186389E+03  0.93183865110E+03 -0.39720316755E+03  0.11110174521E+04  0.50400001928E-02 0. -1.
       -1    1    3    3    0  502  0.45636186389E+03 -0.93183865110E+03 -0.13405025524E+03  0.10462116867E+04  0.50400001928E-02 0.  1.
</event>
<event>
 5   0  0.1015219E-06  0.1965840E+04  0.7818609E-02  0.8622760E-01
       -2   -1    0    0    0  501  0.00000000000E+00  0.00000000000E+00  0.84875898123E+03  0.84875898124E+03  0.25500000920E-02 0.  1.
        2   -1    0    0  501    0  0.00000000000E+00  0.00000000000E+00 -0.11382875040E+04  0.11382875040E+04  0.25500000920E-02 0. -1.
    10030    2    1    2    0    0  0.00000000000E+00  0.00000000000E+00 -0.28952852276E+03  0.19870464852E+04  0.19658400161E+04 0.  0.
        3    1    3    3  502    0  0.36756095478E+03  0.48864019253E+01 -0.10661938301E+04  0.11277828806E+04  0.10100000352E+00 0. -1.
       -3    1    3    3    0  502 -0.36756095478E+03 -0.48864019253E+01  0.77666530730E+03  0.85926360459E+03  0.10100000352E+00 0.  1.
</event>
<event>
 5   0  0.1034683E-06  0.3895916E+04  0.7818609E-02  0.8025879E-01
       -2   -1    0    0    0  501  0.00000000000E+00  0.00000000000E+00  0.16159512611E+04  0.16159512611E+04  0.25500000920E-02 0.  1.
        2   -1    0    0  501    0  0.00000000000E+00  0.00000000000E+00 -0.23481774215E+04  0.23481774215E+04  0.25500000920E-02 0. -1.
    10030    2    1    2    0    0  0.00000000000E+00  0.00000000000E+00 -0.73222616042E+03  0.39641286826E+04  0.38959159465E+04 0.  0.
        2    1    3    3  502    0  0.23823843713E+03 -0.13959589481E+04  0.99487150735E+03  0.17306727749E+04  0.25500000920E-02 0. -1.
       -2    1    3    3    0  502 -0.23823843713E+03  0.13959589481E+04 -0.17270976678E+04  0.22334559077E+04  0.25500000920E-02 0.  1.
</event>
<event>
 5   0  0.4627905E-07  0.3479328E+04  0.7818609E-02  0.8118707E-01
       -1   -1    0    0    0  501  0.00000000000E+00  0.00000000000E+00  0.28752645132E+04  0.28752645132E+04  0.50400001928E-02 0. -1.
        1   -1    0    0  501    0  0.00000000000E+00  0.00000000000E+00 -0.10525745381E+04  0.10525745381E+04  0.50400001928E-02 0.  1.
    10030    2    1    2    0    0  0.00000000000E+00  0.00000000000E+00  0.18226899751E+04  0.39278390513E+04  0.34793276459E+04 0.  0.
        1    1    3    3  502    0 -0.11678187334E+03 -0.84571541093E+02 -0.10458172467E+04  0.10557102183E+04  0.50400001928E-02 0.  1.
       -1    1    3    3    0  502  0.11678187334E+03  0.84571541093E+02  0.28685072218E+04  0.28721288329E+04  0.50400001928E-02 0. -1.
</event>
<event>
 5   0  0.1015219E-06  0.2087061E+04  0.7818609E-02  0.8566965E-01
       -2   -1    0    0    0  501  0.00000000000E+00  0.00000000000E+00  0.53037272617E+03  0.53037272617E+03  0.25500000920E-02 0. -1.
        2   -1    0    0  501    0  0.00000000000E+00  0.00000000000E+00 -0.20531897379E+04  0.20531897379E+04  0.25500000920E-02 0.  1.
    10030    2    1    2    0    0  0.00000000000E+00  0.00000000000E+00 -0.15228170117E+04  0.25835624640E+04  0.20870609369E+04 0.  0.
        3    1    3    3  502    0 -0.23791631847E+03 -0.46714814310E+03  0.35552980251E+03  0.63342956425E+03  0.10100000352E+00 0. -1.
       -3    1    3    3    0  502  0.23791631847E+03  0.46714814310E+03 -0.18783468142E+04  0.19501328998E+04  0.10100000352E+00 0.  1.
</event>
<event>
 5   0  0.1015219E-06  0.3975679E+04  0.7818609E-02  0.8009471E-01
       -2   -1    0    0    0  501  0.00000000000E+00  0.00000000000E+00  0.15223862478E+04  0.15223862478E+04  0.25500000920E-02 0.  1.
        2   -1    0    0  501    0  0.00000000000E+00  0.00000000000E+00 -0.25955999123E+04  0.25955999123E+04  0.25500000920E-02 0. -1.
    10030    2    1    2    0    0  0.00000000000E+00  0.00000000000E+00 -0.10732136644E+04  0.41179861601E+04  0.39756788659E+04 0.  0.
        3    1    3    3  502    0  0.35672157629E+03  0.19303987874E+04 -0.86055697763E+03  0.21434197170E+04  0.10100000352E+00 0.  1.
       -3    1    3    3    0  502 -0.35672157629E+03 -0.19303987874E+04 -0.21265668681E+03  0.19745664431E+04  0.10100000352E+00 0. -1.
</event>
<event>
 5   0  0.5533705E-07  0.3620753E+04  0.7818609E-02  0.8085754E-01
       -2   -1    0    0    0  501  0.00000000000E+00  0.00000000000E+00  0.22456020270E+04  0.22456020270E+04  0.25500000920E-02 0. -1.
        2   -1    0    0  501    0  0.00000000000E+00  0.00000000000E+00 -0.14595032752E+04  0.14595032752E+04  0.25500000920E-02 0.  1.
    10030    2    1    2    0    0  0.00000000000E+00  0.00000000000E+00  0.78609875175E+03  0.37051053022E+04  0.36207532438E+04 0.  0.
        1    1    3    3  502    0  0.68197472682E+03 -0.12391787404E+04  0.15493340533E+04  0.20978773767E+04  0.50400001928E-02 0. -1.
       -1    1    3    3    0  502 -0.68197472682E+03  0.12391787404E+04 -0.76323530160E+03  0.16072279255E+04  0.50400001928E-02 0.  1.
</event>
<event>
 5   0  0.1035864E-06  0.2965236E+04  0.7818609E-02  0.8253728E-01
       -2   -1    0    0    0  501  0.00000000000E+00  0.00000000000E+00  0.12499014404E+04  0.12499014404E+04  0.25500000920E-02 0.  1.
        2   -1    0    0  501    0  0.00000000000E+00  0.00000000000E+00 -0.17586637662E+04  0.17586637662E+04  0.25500000920E-02 0. -1.
    10030    2    1    2    0    0  0.00000000000E+00  0.00000000000E+00 -0.50876232580E+03  0.30085652066E+04  0.29652361623E+04 0.  0.
        5    1    3    3  502    0 -0.12326996522E+04 -0.25502208040E+03 -0.10491209874E+04  0.16386767925E+04  0.46999998093E+01 0. -1.
       -5    1    3    3    0  502  0.12326996522E+04  0.25502208040E+03  0.54035866160E+03  0.13698884141E+04  0.46999998093E+01 0.  1.
</event>
<event>
 5   0  0.3471602E-07  0.2920530E+04  0.7818609E-02  0.8266795E-01
       -1   -1    0    0    0  501  0.00000000000E+00  0.00000000000E+00  0.14918817839E+04  0.14918817839E+04  0.50400001928E-02 0.  1.
        1   -1    0    0  501    0  0.00000000000E+00  0.00000000000E+00 -0.14293187416E+04  0.14293187416E+04  0.50400001928E-02 0. -1.
    10030    2    1    2    0    0  0.00000000000E+00  0.00000000000E+00  0.62563042264E+02  0.29212005255E+04  0.29205304957E+04 0.  0.
        5    1    3    3  502    0 -0.99871767999E+02  0.13240820127E+04 -0.57646379905E+03  0.14475842456E+04  0.46999998093E+01 0. -1.
       -5    1    3    3    0  502  0.99871767999E+02 -0.13240820127E+04  0.63902684132E+03  0.14736162799E+04  0.46999998093E+01 0.  1.
</event>
<event>
 5   0  0.1034683E-06  0.3865314E+04  0.7818609E-02  0.8032282E-01
       -2   -1    0    0    0  501  0.00000000000E+00  0.00000000000E+00  0.13631875697E+04  0.13631875697E+04  0.25500000920E-02 0.  1.
        2   -1    0    0  501    0  0.00000000000E+00  0.00000000000E+00 -0.27400209688E+04  0.27400209688E+04  0.25500000920E-02 0. -1.
    10030    2    1    2    0    0  0.00000000000E+00  0.00000000000E+00 -0.13768333991E+04  0.41032085385E+04  0.38653137133E+04 0.  0.
        2    1    3    3  502    0  0.17065127145E+04 -0.78472840504E+03 -0.20523454988E+03  0.18894722901E+04  0.25500000920E-02 0.  1.
       -2    1    3    3    0  502 -0.17065127145E+04  0.78472840504E+03 -0.11715988492E+04  0.22137362485E+04  0.25500000920E-02 0. -1.
</event>
<event>
 5   0  0.5533705E-07  0.3750261E+04  0.7818609E-02  0.8056914E-01
        2   -1    0    0  501    0  0.00000000000E+00  0.00000000000E+00  0.18465574016E+04  0.18465574016E+04  0.25500000920E-02 0.  1.
       -2   -1    0    0    0  501  0.00000000000E+00  0.00000000000E+00 -0.19041454250E+04  0.19041454250E+04  0.25500000920E-02 0. -1.
    10030    2    1    2    0    0  0.00000000000E+00  0.00000000000E+00 -0.57588023363E+02  0.37507028266E+04  0.37502606994E+04 0.  0.
        1    1    3    3  502    0 -0.79362194548E+02 -0.12481686897E+04  0.13684714053E+04  0.18538978999E+04  0.50400001928E-02 0.  1.
       -1    1    3    3    0  502  0.79362194548E+02  0.12481686897E+04 -0.14260594287E+04  0.18968049267E+04  0.50400001928E-02 0. -1.
</event>
<event>
 5   0  0.4316671E-07  0.2074584E+04  0.7818609E-02  0.8572523E-01
        1   -1    0    0  501    0  0.00000000000E+00  0.00000000000E+00  0.40884698718E+03  0.40884698722E+03  0.50400001928E-02 0.  1.
       -1   -1    0    0    0  501  0.00000000000E+00  0.00000000000E+00 -0.26317299682E+04  0.26317299682E+04  0.50400001928E-02 0. -1.
    10030    2    1    2    0    0  0.00000000000E+00  0.00000000000E+00 -0.22228829810E+04  0.30405769554E+04  0.20745841691E+04 0.  0.
        2    1    3    3  502    0 -0.71861031486E+03 -0.66265577458E+03 -0.16201264636E+04  0.18921742040E+04  0.25500000920E-02 0. -1.
       -2    1    3    3    0  502  0.71861031486E+03  0.66265577458E+03 -0.60275651745E+03  0.11484027515E+04  0.25500000920E-02 0.  1.
</event>
<event>
 5   0  0.4627905E-07  0.2210474E+04  0.7818609E-02  0.8514081E-01
        1   -1    0    0  501    0  0.00000000000E+00  0.00000000000E+00  0.10403769116E+04  0.10403769116E+04  0.50400001928E-02 0. -1.
       -1   -1    0    0    0  501  0.00000000000E+00  0.00000000000E+00 -0.11741402311E+04  0.11741402312E+04  0.50400001928E-02 0.  1.
    10030    2    1    2    0    0  0.00000000000E+00  0.00000000000E+00 -0.13376331957E+03  0.22145171428E+04  0.22104736031E+04 0.  0.
        1    1    3    3  502    0 -0.58678477838E+03 -0.61106467067E+03 -0.77799131999E+03  0.11502116770E+04  0.50400001928E-02 0.  1.
       -1    1    3    3    0  502  0.58678477838E+03  0.61106467067E+03  0.64422800043E+03  0.10643054658E+04  0.50400001928E-02 0. -1.
</event>
<event>
 5   0  0.1034683E-06  0.2309279E+04  0.7818609E-02  0.8474271E-01
       -2   -1    0    0    0  501  0.00000000000E+00  0.00000000000E+00  0.74654845672E+03  0.74654845673E+03  0.25500000920E-02 0. -1.
        2   -1    0    0  501    0  0.00000000000E+00  0.00000000000E+00 -0.17858086158E+04  0.17858086158E+04  0.25500000920E-02 0.  1.
    10030    2    1    2    0    0  0.00000000000E+00  0.00000000000E+00 -0.10392601591E+04  0.25323570725E+04  0.23092792522E+04 0.  0.
        2    1    3    3  502    0  0.51268775644E+03 -0.21204610541E+03  0.59079942043E+03  0.81046668137E+03  0.25500000920E-02 0. -1.
       -2    1    3    3    0  502 -0.51268775644E+03  0.21204610541E+03 -0.16300595795E+04  0.17218903912E+04  0.25500000920E-02 0.  1.
</event>
<event>
 5   0  0.4627905E-07  0.1970797E+04  0.7818609E-02  0.8620397E-01
        1   -1    0    0  501    0  0.00000000000E+00  0.00000000000E+00  0.15359288637E+04  0.15359288638E+04  0.50400001928E-02 0.  1.
       -1   -1    0    0    0  501  0.00000000000E+00  0.00000000000E+00 -0.63219729917E+03  0.63219729919E+03  0.50400001928E-02 0. -1.
    10030    2    1    2    0    0  0.00000000000E+00  0.00000000000E+00  0.90373156458E+03  0.21681261629E+04  0.19707968738E+04 0.  0.
        1    1    3    3  502    0 -0.15790017527E+03 -0.90747980894E+03  0.83700126875E+03  0.12445976028E+04  0.50400001928E-02 0.  1.
       -1    1    3    3    0  502  0.15790017527E+03  0.90747980894E+03  0.66730295830E+02  0.92352856014E+03  0.50400001928E-02 0. -1.
</event>
<event>
 5   0  0.3977376E-07  0.3843230E+04  0.7818609E-02  0.8036941E-01
        1   -1    0    0  501    0  0.00000000000E+00  0.00000000000E+00  0.21428204660E+04  0.21428204660E+04  0.50400001928E-02 0. -1.
       -1   -1    0    0    0  501  0.00000000000E+00  0.00000000000E+00 -0.17232443782E+04  0.17232443782E+04  0.50400001928E-02 0.  1.
    10030    2    1    2    0    0  0.00000000000E+00  0.00000000000E+00  0.41957608775E+03  0.38660648442E+04  0.38432295386E+04 0.  0.
        4    1    3    3  502    0  0.26390868040E+03  0.10420298377E+04 -0.13925124877E+04  0.17591380319E+04  0.12699999809E+01 0.  1.
       -4    1    3    3    0  502 -0.26390868040E+03 -0.10420298377E+04  0.18120885754E+04  0.21069268123E+04  0.12699999809E+01 0. -1.
</event>
<event>
 5   0  0.1035864E-06  0.3871768E+04  0.7818609E-02  0.8030927E-01
        2   -1    0    0  501    0  0.00000000000E+00  0.00000000000E+00  0.20521116626E+04  0.20521116626E+04  0.25500000920E-02 0. -1.
       -2   -1    0    0    0  501  0.00000000000E+00  0.00000000000E+00 -0.18262390239E+04  0.18262390239E+04  0.25500000920E-02 0.  1.
    10030    2    1    2    0    0  0.00000000000E+00  0.00000000000E+00  0.22587263871E+03  0.38783506865E+04  0.38717677615E+04 0.  0.
        5    1    3    3  502    0  0.18900826476E+04  0.41334156703E+03  0.17908376704E+03  0.19430277279E+04  0.46999998093E+01 0.  1.
       -5    1    3    3    0  502 -0.18900826476E+04 -0.41334156703E+03  0.46788871669E+02  0.19353229586E+04  0.46999998093E+01 0. -1.
</event>
<event>
 5   0  0.8299213E-07  0.2149233E+04  0.7818609E-02  0.8539861E-01
        2   -1    0    0  501    0  0.00000000000E+00  0.00000000000E+00  0.15806003117E+04  0.15806003117E+04  0.25500000920E-02 0.  1.
       -2   -1    0    0    0  501  0.00000000000E+00  0.00000000000E+00 -0.73060855362E+03  0.73060855362E+03  0.25500000920E-02 0. -1.
    10030    2    1    2    0    0  0.00000000000E+00  0.00000000000E+00  0.84999175809E+03  0.23112088653E+04  0.21492325212E+04 0.  0.
        4    1    3    3  502    0 -0.28130415795E+02 -0.69518175017E+02  0.15777820611E+04  0.15795638455E+04  0.12699999809E+01 0.  1.
       -4    1    3    3    0  502  0.28130415795E+02  0.69518175017E+02 -0.72779030300E+03  0.73164501979E+03  0.12699999809E+01 0. -1.
</event>
<event>
 5   0  0.1035864E-06  0.2288639E+04  0.7818609E-02  0.8482414E-01
        2   -1    0    0  501    0  0.00000000000E+00  0.00000000000E+00  0.10546381076E+04  0.10546381076E+04  0.25500000920E-02 0.  1.
       -2   -1    0    0    0  501  0.00000000000E+00  0.00000000000E+00 -0.12416272336E+04  0.12416272336E+04  0.25500000920E-02 0. -1.
    10030    2    1    2    0    0  0.00000000000E+00  0.00000000000E+00 -0.18698912603E+03  0.22962653413E+04  0.22886392429E+04 0.  0.
        5    1    3    3  502    0  0.76423887467E+03  0.84886263329E+03 -0.16312666969E+03  0.11538029416E+04  0.46999998093E+01 0.  1.
       -5    1    3    3    0  502 -0.76423887467E+03 -0.84886263329E+03 -0.23862456342E+02  0.11424623996E+04  0.46999998093E+01 0. -1.
</event>
<event>
 5   0  0.7268013E-07  0.2353610E+04  0.7818609E-02  0.8457079E-01
        2   -1    0    0  501    0  0.00000000000E+00  0.00000000000E+00  0.11271772442E+04  0.11271772442E+04  0.25500000920E-02 0. -1.
       -2   -1    0    0    0  501  0.00000000000E+00  0.00000000000E+00 -0.12286173337E+04  0.12286173337E+04  0.25500000920E-02 0.  1.
    10030    2    1    2    0    0  0.00000000000E+00  0.00000000000E+00 -0.10144008948E+03  0.23557945779E+04  0.23536095686E+04 0.  0.
        4    1    3    3  502    0  0.11174831975E+04 -0.22146230661E+03 -0.34604249165E+03  0.11906138202E+04  0.12699999809E+01 0.  1.
       -4    1    3    3    0  502 -0.11174831975E+04  0.22146230661E+03  0.24460240218E+03  0.11651807577E+04  0.12699999809E+01 0. -1.
</event>
<event>
 5   0  0.5533705E-07  0.1950336E+04  0.7818609E-02  0.8630199E-01
        2   -1    0    0  501    0  0.00000000000E+00  0.00000000000E+00  0.20904556209E+04  0.20904556209E+04  0.25500000920E-02 0. -1.
       -2   -1    0    0    0  501  0.00000000000E+00  0.00000000000E+00 -0.45490208489E+03  0.45490208489E+03  0.25500000920E-02 0.  1.
    10030    2    1    2    0    0  0.00000000000E+00  0.00000000000E+00  0.16355535360E+04  0.25453577058E+04  0.19503359919E+04 0.  0.
        1    1    3    3  502    0 -0.77691215309E+03 -0.44427261530E+03  0.31234921331E+03  0.94790963778E+03  0.50400001928E-02 0.  1.
       -1    1    3    3    0  502  0.77691215309E+03  0.44427261530E+03  0.13232043227E+04  0.15974480680E+04  0.50400001928E-02 0. -1.
</event>
<event>
 5   0  0.1015219E-06  0.2595012E+04  0.7818609E-02  0.8369897E-01
        2   -1    0    0  501    0  0.00000000000E+00  0.00000000000E+00  0.28047235896E+04  0.28047235896E+04  0.25500000920E-02 0.  1.
       -2   -1    0    0    0  501  0.00000000000E+00  0.00000000000E+00 -0.60024531901E+03  0.60024531901E+03  0.25500000920E-02 0. -1.
    10030    2    1    2    0    0  0.00000000000E+00  0.00000000000E+00  0.22044782706E+04  0.34049689086E+04  0.25950122973E+04 0.  0.
        3    1    3    3  502    0  0.39959934608E+03  0.49365363615E+03 -0.38234197720E+03  0.74132243161E+03  0.10100000352E+00 0. -1.
       -3    1    3    3    0  502 -0.39959934608E+03 -0.49365363615E+03  0.25868202478E+04  0.26636464770E+04  0.10100000352E+00 0.  1.
</event>
<event>
 5   0  0.5533705E-07  0.4000383E+04  0.7818609E-02  0.8004469E-01
       -2   -1    0    0    0  501  0.00000000000E+00  0.00000000000E+00  0.15819027832E+04  0.15819027832E+04  0.25500000920E-02 0. -1.
        2   -1    0    0  501    0  0.00000000000E+00  0.00000000000E+00 -0.25290848289E+04  0.25290848289E+04  0.25500000920E-02 0.  1.
    10030    2    1    2    0    0  0.00000000000E+00  0.00000000000E+00 -0.94718204571E+03  0.41109876121E+04  0.40003831465E+04 0.  0.
        1    1    3    3  502    0  0.87295536630E+03 -0.11496663491E+04  0.94924108920E+03  0.17276696534E+04  0.50400001928E-02 0. -1.
       -1    1    3    3    0  502 -0.87295536630E+03  0.11496663491E+04 -0.18964231349E+04  0.23833179587E+04  0.50400001928E-02 0.  1.
</event>
<event>
 5   0  0.7268013E-07  0.3920865E+04  0.7818609E-02  0.8020704E-01
       -2   -1    0    0    0  501  0.00000000000E+00  0.00000000000E+00  0.12357693744E+04  0.12357693744E+04  0.25500000920E-02 0. -1.
        2   -1    0    0  501    0  0.00000000000E+00  0.00000000000E+00 -0.31100425535E+04  0.31100425535E+04  0.25500000920E-02 0.  1.
    10030    2    1    2    0    0  0.00000000000E+00  0.00000000000E+00 -0.18742731791E+04  0.43458119278E+04  0.39208648743E+04 0.  0.
        4    1    3    3  502    0 -0.16542123341E+03 -0.19507617200E+04 -0.82378733603E+03  0.21240204002E+04  0.12699999809E+01 0.  1.
       -4    1    3    3    0  502  0.16542123341E+03  0.19507617200E+04 -0.10504858431E+04  0.22217915276E+04  0.12699999809E+01 0. -1.
</event>
<event>
 5   0  0.5385714E-07  0.3633248E+04  0.7818609E-02  0.8082918E-01
       -1   -1    0    0    0  501  0.00000000000E+00  0.00000000000E+00  0.29117943489E+04  0.29117943489E+04  0.50400001928E-02 0.  1.
        1   -1    0    0  501    0  0.00000000000E+00  0.00000000000E+00 -0.11333642107E+04  0.11333642107E+04  0.50400001928E-02 0. -1.
    10030    2    1    2    0    0  0.00000000000E+00  0.00000000000E+00  0.17784301382E+04  0.40451585595E+04  0.36332484109E+04 0.  0.
        3    1    3    3  502    0 -0.85412427810E+03  0.14489796181E+04  0.12507060322E+03  0.16866276655E+04  0.10100000352E+00 0. -1.
       -3    1    3    3    0  502  0.85412427810E+03 -0.14489796181E+04  0.16533595350E+04  0.23585308940E+04  0.10100000352E+00 0.  1.
</event>
<event>
 5   0  0.1035864E-06  0.3871854E+04  0.7818609E-02  0.8030909E-01
       -2   -1    0    0    0  501  0.00000000000E+00  0.00000000000E+00  0.19200368849E+04  0.19200368849E+04  0.25500000920E-02 0.  1.
        2   -1    0    0  501    0  0.00000000000E+00  0.00000000000E+00 -0.19519486839E+04  0.19519486839E+04  0.25500000920E-02 0. -1.
    10030    2    1    2    0    0  0.00000000000E+00  0.00000000000E+00 -0.31911799070E+02  0.38719855688E+04  0.38718540626E+04 0.  0.
        5    1    3    3  502    0  0.41947198970E+03  0.90106475044E+03  0.16454003020E+04  0.19223003611E+04  0.46999998093E+01 0.  1.
       -5    1    3    3    0  502 -0.41947198970E+03 -0.90106475044E+03 -0.16773121011E+04  0.19496852077E+04  0.46999998093E+01 0. -1.
</event>
<event>
 5   0  0.3471602E-07  0.1958301E+04  0.7818609E-02  0.8626368E-01
       -1   -1    0    0    0  501  0.00000000000E+00  0.00000000000E+00  0.79107713291E+03  0.79107713292E+03  0.50400001928E-02 0. -1.
        1   -1    0    0  501    0  0.00000000000E+00  0.00000000000E+00 -0.12119372088E+04  0.12119372089E+04  0.50400001928E-02 0.  1.
    10030    2    1    2    0    0  0.00000000000E+00  0.00000000000E+00 -0.42086007593E+03  0.20030143418E+04  0.19583011132E+04 0.  0.
        5    1    3    3  502    0 -0.90773402950E+03 -0.12247814396E+02 -0.58566138993E+03  0.10803482915E+04  0.46999998093E+01 0.  1.
       -5    1    3    3    0  502  0.90773402950E+03  0.12247814396E+02  0.16480131400E+03  0.92266605029E+03  0.46999998093E+01 0. -1.
</event>
<event>
 5   0  0.7268013E-07  0.2140072E+04  0.7818609E-02  0.8543794E-01
       -2   -1    0    0    0  501  0.00000000000E+00  0.00000000000E+00  0.78415627639E+03  0.78415627639E+03  0.25500000920E-02 0.  1.
        2   -1    0    0  501    0  0.00000000000E+00  0.00000000000E+00 -0.14601384776E+04  0.14601384776E+04  0.25500000920E-02 0. -1.
    10030    2    1    2    0    0  0.00000000000E+00  0.00000000000E+00 -0.67598220125E+03  0.22442947540E+04  0.21400717293E+04 0.  0.
        4    1    3    3  502    0 -0.42018413028E+03 -0.57935763481E+03 -0.11721962110E+04  0.13734101872E+04  0.12699999809E+01 0. -1.
       -4    1    3    3    0  502  0.42018413028E+03  0.57935763481E+03  0.49621400975E+03  0.87088456682E+03  0.12699999809E+01 0.  1.
</event>
<event>
 5   0  0.3977376E-07  0.3880337E+04  0.7818609E-02  0.8029131E-01
        1   -1    0    0  501    0  0.00000000000E+00  0.00000000000E+00  0.24631723575E+04  0.24631723575E+04  0.50400001928E-02 0.  1.
       -1   -1    0    0    0  501  0.00000000000E+00  0.00000000000E+00 -0.15282139677E+04  0.15282139677E+04  0.50400001928E-02 0. -1.
    10030    2    1    2    0    0  0.00000000000E+00  0.00000000000E+00  0.93495838985E+03  0.39913863252E+04  0.38803373058E+04 0.  0.
        4    1    3    3  502    0  0.17733850378E+04  0.73844645607E+03  0.18756053240E+03  0.19301238890E+04  0.12699999809E+01 0. -1.
       -4    1    3    3    0  502 -0.17733850378E+04 -0.73844645607E+03  0.74739785745E+03  0.20612624362E+04  0.12699999809E+01 0.  1.
</event>
<event>
 5   0  0.3471602E-07  0.3930957E+04  0.7818609E-02  0.8018621E-01
       -1   -1    0    0    0  501  0.00000000000E+00  0.00000000000E+00  0.23381077236E+04  0.23381077236E+04  0.50400001928E-02 0. -1.
        1   -1    0    0  501    0  0.00000000000E+00  0.00000000000E+00 -0.16522360461E+04  0.16522360461E+04  0.50400001928E-02 0.  1.
    10030    2    1    2    0    0  0.00000000000E+00  0.00000000000E+00  0.68587167753E+03  0.39903437697E+04  0.39309570644E+04 0.  0.
        5    1    3    3  502    0 -0.75856683396E+03  0.37589244812E+03 -0.14576613285E+04  0.16856801039E+04  0.46999998093E+01 0.  1.
       -5    1    3    3    0  502  0.75856683396E+03 -0.37589244812E+03  0.21435330060E+04  0.23046636657E+04  0.46999998093E+01 0. -1.
</event>
<event>
 5   0  0.3977376E-07  0.3831120E+04  0.7818609E-02  0.8039509E-01
       -1   -1    0    0    0  501  0.00000000000E+00  0.00000000000E+00  0.31277838581E+04  0.31277838581E+04  0.50400001928E-02 0.  1.
        1   -1    0    0  501    0  0.00000000000E+00  0.00000000000E+00 -0.11731534730E+04  0.11731534731E+04  0.50400001928E-02 0. -1.
    10030    2    1    2    0    0  0.00000000000E+00  0.00000000000E+00  0.19546303851E+04  0.43009373312E+04  0.38311201997E+04 0.  0.
        4    1    3    3  502    0 -0.12770503598E+04  0.14268493357E+04  0.91993745009E+03  0.21243924245E+04  0.12699999809E+01 0. -1.
       -4    1    3    3    0  502  0.12770503598E+04 -0.14268493357E+04  0.10346929350E+04  0.21765449067E+04  0.12699999809E+01 0.  1.
</event>
<event>
 5   0  0.1035864E-06  0.3925376E+04  0.7818609E-02  0.8019772E-01
        2   -1    0    0  501    0  0.00000000000E+00  0.00000000000E+00  0.26815194380E+04  0.26815194380E+04  0.25500000920E-02 0. -1.
       -2   -1    0    0    0  501  0.00000000000E+00  0.00000000000E+00 -0.14365529096E+04  0.14365529096E+04  0.25500000920E-02 0.  1.
    10030    2    1    2    0    0  0.00000000000E+00  0.00000000000E+00  0.12449665284E+04  0.41180723476E+04  0.39253761862E+04 0.  0.
        5    1    3    3  502    0 -0.12841405330E+04  0.11059104514E+04  0.16610650707E+04  0.23730179296E+04  0.46999998093E+01 0. -1.
       -5    1    3    3    0  502  0.12841405330E+04 -0.11059104514E+04 -0.41609854234E+03  0.17450544180E+04  0.46999998093E+01 0.  1.
</event>
<event>
 5   0  0.1461552E-06  0.2060313E+04  0.7818609E-02  0.8578930E-01
        2   -1    0    0  501    0  0.00000000000E+00  0.00000000000E+00  0.14906866700E+04  0.14906866700E+04  0.25500000920E-02 0.  1.
       -2   -1    0    0    0  501  0.00000000000E+00  0.00000000000E+00 -0.71190202578E+03  0.71190202578E+03  0.25500000920E-02 0. -1.
    10030    2    1    2    0    0  0.00000000000E+00  0.00000000000E+00  0.77878464418E+03  0.22025886957E+04  0.20603134326E+04 0.  0.
        3    1    3    3  502    0 -0.99312564396E+03  0.11165825621E+02  0.97010858586E+02  0.99791499500E+03  0.10100000352E+00 0. -1.
       -3    1    3    3    0  502  0.99312564396E+03 -0.11165825621E+02  0.68177378559E+03  0.12046737007E+04  0.10100000352E+00 0.  1.
</event>
<event>
 5   0  0.7268013E-07  0.3978770E+04  0.7818609E-02  0.8008843E-01
        2   -1    0    0  501    0  0.00000000000E+00  0.00000000000E+00  0.18632599369E+04  0.18632599369E+04  0.25500000920E-02 0.  1.
       -2   -1    0    0    0  501  0.00000000000E+00  0.00000000000E+00 -0.21240470223E+04  0.21240470223E+04  0.25500000920E-02 0. -1.
    10030    2    1    2    0    0  0.00000000000E+00  0.00000000000E+00 -0.26078708543E+03  0.39873069592E+04  0.39787695187E+04 0.  0.
        4    1    3    3  502    0 -0.19546423878E+04 -0.62715170816E+02  0.23520435038E+03  0.19697417993E+04  0.12699999809E+01 0.  1.
       -4    1    3    3    0  502  0.19546423878E+04  0.62715170816E+02 -0.49599143581E+03  0.20175651598E+04  0.12699999809E+01 0. -1.
</event>
<event>
 5   0  0.5385714E-07  0.3871323E+04  0.7818609E-02  0.8031020E-01
        1   -1    0    0  501    0  0.00000000000E+00  0.00000000000E+00  0.17227159277E+04  0.17227159277E+04  0.50400001928E-02 0. -1.
       -1   -1    0    0    0  501  0.00000000000E+00  0.00000000000E+00 -0.21749289992E+04  0.21749289993E+04  0.50400001928E-02 0.  1.
    10030    2    1    2    0    0  0.00000000000E+00  0.00000000000E+00 -0.45221307156E+03  0.38976449269E+04  0.38713226828E+04 0.  0.
        3    1    3    3  502    0 -0.85321993362E+03  0.73249685741E+03  0.13601212949E+04  0.17647849298E+04  0.10100000352E+00 0. -1.
       -3    1    3    3    0  502  0.85321993362E+03 -0.73249685741E+03 -0.18123343665E+04  0.21328599972E+04  0.10100000352E+00 0.  1.
</event>
<event>
 5   0  0.1035864E-06  0.3955789E+04  0.7818609E-02  0.8013525E-01
        2   -1    0    0  501    0  0.00000000000E+00  0.00000000000E+00  0.21103746996E+04  0.21103746996E+04  0.25500000920E-02 0.  1.
       -2   -1    0    0    0  501  0.00000000000E+00  0.00000000000E+00 -0.18537307676E+04  0.18537307676E+04  0.25500000920E-02 0. -1.
    10030    2    1    2    0    0  0.00000000000E+00  0.00000000000E+00  0.25664393201E+03  0.39641054672E+04  0.39557889285E+04 0.  0.
        5    1    3    3  502    0 -0.63892137880E+03  0.18656324938E+04 -0.24442917389E+02  0.19721624366E+04  0.46999998093E+01 0.  1.
       -5    1    3    3    0  502  0.63892137880E+03 -0.18656324938E+04  0.28108684940E+03  0.19919430306E+04  0.46999998093E+01 0. -1.
</event>
<event>
 5   0  0.7268013E-07  0.3963405E+04  0.7818609E-02  0.8011970E-01
        2   -1    0    0  501    0  0.00000000000E+00  0.00000000000E+00  0.29067737430E+04  0.29067737430E+04  0.25500000920E-02 0. -1.
       -2   -1    0    0    0  501  0.00000000000E+00  0.00000000000E+00 -0.13510320011E+04  0.13510320011E+04  0.25500000920E-02 0.  1.
    10030    2    1    2    0    0  0.00000000000E+00  0.00000000000E+00  0.15557417418E+04  0.42578057441E+04  0.39634047720E+04 0.  0.
        4    1    3    3  502    0  0.13618682235E+04  0.25485357060E+03 -0.74423894178E+03  0.15727455662E+04  0.12699999809E+01 0. -1.
       -4    1    3    3    0  502 -0.13618682235E+04 -0.25485357060E+03  0.22999806836E+04  0.26850601779E+04  0.12699999809E+01 0.  1.
</event>
<event>
 5   0  0.3977376E-07  0.2615549E+04  0.7818609E-02  0.8362939E-01
        1   -1    0    0  501    0  0.00000000000E+00  0.00000000000E+00  0.10800061154E+04  0.10800061154E+04  0.50400001928E-02 0. -1.
       -1   -1    0    0    0  501  0.00000000000E+00  0.00000000000E+00 -0.15835780433E+04  0.15835780433E+04  0.50400001928E-02 0.  1.
    10030    2    1    2    0    0  0.00000000000E+00  0.00000000000E+00 -0.50357192794E+03  0.26635841587E+04  0.26155488686E+04 0.  0.
        4    1    3    3  502    0  0.45449492795E+03  0.27418754858E+03 -0.14689467417E+04  0.15619060772E+04  0.12699999809E+01 0.  1.
       -4    1    3    3    0  502 -0.45449492795E+03 -0.27418754858E+03  0.96537481374E+03  0.11016780815E+04  0.12699999809E+01 0. -1.
</event>
<event>
 5   0  0.7268013E-07  0.3812350E+04  0.7818609E-02  0.8043510E-01
       -2   -1    0    0    0  501  0.00000000000E+00  0.00000000000E+00  0.20116796974E+04  0.20116796974E+04  0.25500000920E-02 0.  1.
        2   -1    0    0  501    0  0.00000000000E+00  0.00000000000E+00 -0.18062034363E+04  0.18062034363E+04  0.25500000920E-02 0. -1.
    10030    2    1    2    0    0  0.00000000000E+00  0.00000000000E+00  0.20547626116E+03  0.38178831337E+04  0.38123498172E+04 0.  0.
        4    1    3    3  502    0  0.56573993556E+02 -0.58532154452E+02 -0.18044614940E+04  0.18062971866E+04  0.12699999809E+01 0. -1.
       -4    1    3    3    0  502 -0.56573993556E+02  0.58532154452E+02  0.20099377552E+04  0.20115859471E+04  0.12699999809E+01 0.  1.
</event>
<event>
 5   0  0.3977376E-07  0.3364383E+04  0.7818609E-02  0.8146704E-01
       -1   -1    0    0    0  501  0.00000000000E+00  0.00000000000E+00  0.10042479667E+04  0.10042479667E+04  0.50400001928E-02 0.  1.
        1   -1    0    0  501    0  0.00000000000E+00  0.00000000000E+00 -0.28177983222E+04  0.28177983222E+04  0.50400001928E-02 0. -1.
    10030    2    1    2    0    0  0.00000000000E+00  0.00000000000E+00 -0.18135503555E+04  0.38220462889E+04  0.33643829959E+04 0.  0.
        4    1    3    3  502    0  0.80676270040E+03  0.11480002557E+04 -0.19608976582E+04  0.24112013356E+04  0.12699999809E+01 0. -1.
       -4    1    3    3    0  502 -0.80676270040E+03 -0.11480002557E+04  0.14734730266E+03  0.14108449534E+04  0.12699999809E+01 0.  1.
</event>
<event>
 5   0  0.3977376E-07  0.2110896E+04  0.7818609E-02  0.8556459E-01
       -1   -1    0    0    0  501  0.00000000000E+00  0.00000000000E+00  0.55356473018E+03  0.55356473020E+03  0.50400001928E-02 0. -1.
        1   -1    0    0  501    0  0.00000000000E+00  0.00000000000E+00 -0.20123588319E+04  0.20123588319E+04  0.50400001928E-02 0.  1.
    10030    2    1    2    0    0  0.00000000000E+00  0.00000000000E+00 -0.14587941017E+04  0.25659235621E+04  0.21108963725E+04 0.  0.
        4    1    3    3  502    0 -0.45931762650E+03  0.37632729119E+03 -0.17900563935E+04  0.18859741294E+04  0.12699999809E+01 0.  1.
       -4    1    3    3    0  502  0.45931762650E+03 -0.37632729119E+03  0.33126229178E+03  0.67994943266E+03  0.12699999809E+01 0. -1.
</event>
<event>
 5   0  0.5533705E-07  0.3864482E+04  0.7818609E-02  0.8032457E-01
       -2   -1    0    0    0  501  0.00000000000E+00  0.00000000000E+00  0.22004321915E+04  0.22004321915E+04  0.25500000920E-02 0.  1.
        2   -1    0    0  501    0  0.00000000000E+00  0.00000000000E+00 -0.16967369442E+04  0.16967369442E+04  0.25500000920E-02 0. -1.
    10030    2    1    2    0    0  0.00000000000E+00  0.00000000000E+00  0.50369524730E+03  0.38971691357E+04  0.38644816431E+04 0.  0.
        1    1    3    3  502    0 -0.90961029779E+03 -0.21105179931E+03 -0.14540935471E+04  0.17280977401E+04  0.50400001928E-02 0. -1.
       -1    1    3    3    0  502  0.90961029779E+03  0.21105179931E+03  0.19577887943E+04  0.21690713956E+04  0.50400001928E-02 0.  1.
</event>
<event>
 5   0  0.3191750E-07  0.2327181E+04  0.7818609E-02  0.8467280E-01
        3   -1    0    0  501    0  0.00000000000E+00  0.00000000000E+00  0.12285138240E+04  0.12285138282E+04  0.10100000352E+00 0. -1.
       -3   -1    0    0    0  501  0.00000000000E+00  0.00000000000E+00 -0.11020983597E+04  0.11020983644E+04  0.10100000352E+00 0.  1.
    10030    2    1    2    0    0  0.00000000000E+00  0.00000000000E+00  0.12641546429E+03  0.23306121926E+04  0.23271811967E+04 0.  0.
        1    1    3    3  502    0 -0.34912939049E+03 -0.27189538834E+03  0.11409563314E+04  0.12237645949E+04  0.50400001928E-02 0. -1.
       -1    1    3    3    0  502  0.34912939049E+03  0.27189538834E+03 -0.10145408671E+04  0.11068475977E+04  0.50400001928E-02 0.  1.
</event>
<event>
 5   0  0.5533705E-07  0.3001870E+04  0.7818609E-02  0.8243197E-01
       -2   -1    0    0    0  501  0.00000000000E+00  0.00000000000E+00  0.81492147824E+03  0.81492147825E+03  0.25500000920E-02 0. -1.
        2   -1    0    0  501    0  0.00000000000E+00  0.00000000000E+00 -0.27644456372E+04  0.27644456372E+04  0.25500000920E-02 0.  1.
    10030    2    1    2    0    0  0.00000000000E+00  0.00000000000E+00 -0.19495241589E+04  0.35793671154E+04  0.30018701672E+04 0.  0.
        1    1    3    3  502    0  0.15790033965E+03 -0.13234725309E+04 -0.17976712938E+04  0.22378860869E+04  0.50400001928E-02 0.  1.
       -1    1    3    3    0  502 -0.15790033965E+03  0.13234725309E+04 -0.15185286512E+03  0.13414810285E+04  0.50400001928E-02 0. -1.
</event>
<event>
 5   0  0.1023998E-06  0.1930048E+04  0.7818609E-02  0.8640042E-01
       -2   -1    0    0    0  501  0.00000000000E+00  0.00000000000E+00  0.43875060856E+03  0.43875060857E+03  0.25500000920E-02 0. -1.
        2   -1    0    0  501    0  0.00000000000E+00  0.00000000000E+00 -0.21225532045E+04  0.21225532045E+04  0.25500000920E-02 0.  1.
    10030    2    1    2    0    0  0.00000000000E+00  0.00000000000E+00 -0.16838025959E+04  0.25613038131E+04  0.19300481965E+04 0.  0.
        4    1    3    3  502    0 -0.64153742145E+03 -0.14400249422E+03 -0.17793058893E+04  0.18969022226E+04  0.12699999809E+01 0.  1.
       -4    1    3    3    0  502  0.64153742145E+03  0.14400249422E+03  0.95503293388E+02  0.66440159046E+03  0.12699999809E+01 0. -1.
</event>
<event>
 5   0  0.5533705E-07  0.3811030E+04  0.7818609E-02  0.8043792E-01
       -2   -1    0    0    0  501  0.00000000000E+00  0.00000000000E+00  0.19958409351E+04  0.19958409351E+04  0.25500000920E-02 0.  1.
        2   -1    0    0  501    0  0.00000000000E+00  0.00000000000E+00 -0.18192767160E+04  0.18192767160E+04  0.25500000920E-02 0. -1.
    10030    2    1    2    0    0  0.00000000000E+00  0.00000000000E+00  0.17656421912E+03  0.38151176510E+04  0.38110297516E+04 0.  0.
        1    1    3    3  502    0 -0.12877514951E+04 -0.13525433457E+04  0.46725062224E+03  0.19250975453E+04  0.50400001928E-02 0.  1.
       -1    1    3    3    0  502  0.12877514951E+04  0.13525433457E+04 -0.29068640312E+03  0.18900201057E+04  0.50400001928E-02 0. -1.
</event>
<event>
 5   0  0.5533705E-07  0.2213287E+04  0.7818609E-02  0.8512918E-01
       -2   -1    0    0    0  501  0.00000000000E+00  0.00000000000E+00  0.19490103962E+04  0.19490103962E+04  0.25500000920E-02 0.  1.
        2   -1    0    0  501    0  0.00000000000E+00  0.00000000000E+00 -0.62834937684E+03  0.62834937685E+03  0.25500000920E-02 0. -1.
    10030    2    1    2    0    0  0.00000000000E+00  0.00000000000E+00  0.13206610193E+04  0.25773597730E+04  0.22132866673E+04 0.  0.
        1    1    3    3  502    0 -0.64167686735E+03  0.59585653771E+03  0.14482942279E+04  0.16924391825E+04  0.50400001928E-02 0.  1.
       -1    1    3    3    0  502  0.64167686735E+03 -0.59585653771E+03 -0.12763320861E+03  0.88492059056E+03  0.50400001928E-02 0. -1.
</event>
<event>
 5   0  0.1035864E-06  0.2288602E+04  0.7818609E-02  0.8482429E-01
       -2   -1    0    0    0  501  0.00000000000E+00  0.00000000000E+00  0.11087579776E+04  0.11087579776E+04  0.25500000920E-02 0. -1.
        2   -1    0    0  501    0  0.00000000000E+00  0.00000000000E+00 -0.11809829886E+04  0.11809829886E+04  0.25500000920E-02 0.  1.
    10030    2    1    2    0    0  0.00000000000E+00  0.00000000000E+00 -0.72225011017E+02  0.22897409661E+04  0.22886015904E+04 0.  0.
        5    1    3    3  502    0  0.26171113637E+03 -0.67502873824E+03 -0.92269457401E+03  0.11728358296E+04  0.46999998093E+01 0.  1.
       -5    1    3    3    0  502 -0.26171113637E+03  0.67502873824E+03  0.85046956300E+03  0.11169051365E+04  0.46999998093E+01 0. -1.
</event>
<event>
 5   0  0.4316671E-07  0.3894103E+04  0.7818609E-02  0.8026257E-01
       -1   -1    0    0    0  501  0.00000000000E+00  0.00000000000E+00  0.13437558469E+04  0.13437558469E+04  0.50400001928E-02 0.  1.
        1   -1    0    0  501    0  0.00000000000E+00  0.00000000000E+00 -0.28212034393E+04  0.28212034393E+04  0.50400001928E-02 0. -1.
    10030    2    1    2    0    0  0.00000000000E+00  0.00000000000E+00 -0.14774475924E+04  0.41649592862E+04  0.38941025239E+04 0.  0.
        2    1    3    3  502    0 -0.15878093786E+03 -0.18999578858E+03 -0.28042954314E+04  0.28152056146E+04  0.25500000920E-02 0. -1.
       -2    1    3    3    0  502  0.15878093786E+03  0.18999578858E+03  0.13268478390E+04  0.13497536715E+04  0.25500000920E-02 0.  1.
</event>
<event>
 5   0  0.1015219E-06  0.3949700E+04  0.7818609E-02  0.8014771E-01
       -2   -1    0    0    0  501  0.00000000000E+00  0.00000000000E+00  0.17045005982E+04  0.17045005982E+04  0.25500000920E-02 0.  1.
        2   -1    0    0  501    0  0.00000000000E+00  0.00000000000E+00 -0.22880793822E+04  0.22880793822E+04  0.25500000920E-02 0. -1.
    10030    2    1    2    0    0  0.00000000000E+00  0.00000000000E+00 -0.58357878400E+03  0.39925799805E+04  0.39497000777E+04 0.  0.
        3    1    3    3  502    0 -0.18483797918E+04 -0.64096618688E+03 -0.19256859871E+02  0.19564550453E+04  0.10100000352E+00 0.  1.
       -3    1    3    3    0  502  0.18483797918E+04  0.64096618688E+03 -0.56432192412E+03  0.20361249352E+04  0.10100000352E+00 0. -1.
</event>
<event>
 5   0  0.3977376E-07  0.2571706E+04  0.7818609E-02  0.8377876E-01
        1   -1    0    0  501    0  0.00000000000E+00  0.00000000000E+00  0.91802250949E+03  0.91802250950E+03  0.50400001928E-02 0.  1.
       -1   -1    0    0    0  501  0.00000000000E+00  0.00000000000E+00 -0.18010652093E+04  0.18010652093E+04  0.50400001928E-02 0. -1.
    10030    2    1    2    0    0  0.00000000000E+00  0.00000000000E+00 -0.88304269986E+03  0.27190877189E+04  0.25717063621E+04 0.  0.
        4    1    3    3  502    0  0.27410072718E+03  0.88537705006E+03  0.50084454457E+03  0.10535039630E+04  0.12699999809E+01 0.  1.
       -4    1    3    3    0  502 -0.27410072718E+03 -0.88537705006E+03 -0.13838872444E+04  0.16655837558E+04  0.12699999809E+01 0. -1.
</event>
<event>
 5   0  0.3977376E-07  0.2215966E+04  0.7818609E-02  0.8511812E-01
       -1   -1    0    0    0  501  0.00000000000E+00  0.00000000000E+00  0.11652954517E+04  0.11652954517E+04  0.50400001928E-02 0. -1.
        1   -1    0    0  501    0  0.00000000000E+00  0.00000000000E+00 -0.10534894744E+04  0.10534894744E+04  0.50400001928E-02 0.  1.
    10030    2    1    2    0    0  0.00000000000E+00  0.00000000000E+00  0.11180597729E+03  0.22187849261E+04  0.22159661486E+04 0.  0.
        4    1    3    3  502    0 -0.48814160190E+03  0.54854072755E+03  0.88668472244E+03  0.11512560806E+04  0.12699999809E+01 0. -1.
       -4    1    3    3    0  502  0.48814160190E+03 -0.54854072755E+03 -0.77487874514E+03  0.10675288454E+04  0.12699999809E+01 0.  1.
</event>
<event>
 5   0  0.3471602E-07  0.2108498E+04  0.7818609E-02  0.8557509E-01
       -1   -1    0    0    0  501  0.00000000000E+00  0.00000000000E+00  0.12275864107E+04  0.12275864107E+04  0.50400001928E-02 0.  1.
        1   -1    0    0  501    0  0.00000000000E+00  0.00000000000E+00 -0.90538736929E+03  0.90538736930E+03  0.50400001928E-02 0. -1.
    10030    2    1    2    0    0  0.00000000000E+00  0.00000000000E+00  0.32219904137E+03  0.21329737800E+04  0.21084982627E+04 0.  0.
        5    1    3    3  502    0  0.84516242062E+03 -0.60918610160E+03 -0.20547521313E+01  0.10418414158E+04  0.46999998093E+01 0.  1.
       -5    1    3    3    0  502 -0.84516242062E+03  0.60918610160E+03  0.32425379350E+03  0.10911323642E+04  0.46999998093E+01 0. -1.
</event>
<event>
 5   0  0.7268013E-07  0.3879091E+04  0.7818609E-02  0.8029392E-01
        2   -1    0    0  501    0  0.00000000000E+00  0.00000000000E+00  0.26607960449E+04  0.26607960449E+04  0.25500000920E-02 0.  1.
       -2   -1    0    0    0  501  0.00000000000E+00  0.00000000000E+00 -0.14138015022E+04  0.14138015022E+04  0.25500000920E-02 0. -1.
    10030    2    1    2    0    0  0.00000000000E+00  0.00000000000E+00  0.12469945427E+04  0.40745975471E+04  0.38790913602E+04 0.  0.
        4    1    3    3  502    0  0.14567390594E+04  0.65457542243E+03 -0.53255282663E+03  0.16834998654E+04  0.12699999809E+01 0. -1.
       -4    1    3    3    0  502 -0.14567390594E+04 -0.65457542243E+03  0.17795473693E+04  0.23910976817E+04  0.12699999809E+01 0.  1.
</event>
<event>
 5   0  0.3977376E-07  0.3878286E+04  0.7818609E-02  0.8029560E-01
       -1   -1    0    0    0  501  0.00000000000E+00  0.00000000000E+00  0.16317085596E+04  0.16317085596E+04  0.50400001928E-02 0.  1.
        1   -1    0    0  501    0  0.00000000000E+00  0.00000000000E+00 -0.23045025307E+04  0.23045025307E+04  0.50400001928E-02 0. -1.
    10030    2    1    2    0    0  0.00000000000E+00  0.00000000000E+00 -0.67279397106E+03  0.39362110903E+04  0.38782864799E+04 0.  0.
        4    1    3    3  502    0  0.17068332117E+04 -0.40479251442E+03 -0.11752634091E+04  0.21114881685E+04  0.12699999809E+01 0. -1.
       -4    1    3    3    0  502 -0.17068332117E+04  0.40479251442E+03  0.50246943807E+03  0.18247229218E+04  0.12699999809E+01 0.  1.
</event>
<event>
 5   0  0.1034683E-06  0.3864331E+04  0.7818609E-02  0.8032489E-01
       -2   -1    0    0    0  501  0.00000000000E+00  0.00000000000E+00  0.14271548684E+04  0.14271548684E+04  0.25500000920E-02 0. -1.
        2   -1    0    0  501    0  0.00000000000E+00  0.00000000000E+00 -0.26158782442E+04  0.26158782442E+04  0.25500000920E-02 0.  1.
    10030    2    1    2    0    0  0.00000000000E+00  0.00000000000E+00 -0.11887233758E+04  0.40430331126E+04  0.38643309234E+04 0.  0.
        2    1    3    3  502    0  0.15180041619E+04 -0.79268753364E+03 -0.15304859783E+04  0.22967536854E+04  0.25500000920E-02 0.  1.
       -2    1    3    3    0  502 -0.15180041619E+04  0.79268753364E+03  0.34176260254E+03  0.17462794272E+04  0.25500000920E-02 0. -1.
</event>
<event>
 5   0  0.1015219E-06  0.3920128E+04  0.7818609E-02  0.8020856E-01
        2   -1    0    0  501    0  0.00000000000E+00  0.00000000000E+00  0.25573205437E+04  0.25573205437E+04  0.25500000920E-02 0. -1.
       -2   -1    0    0    0  501  0.00000000000E+00  0.00000000000E+00 -0.15022953771E+04  0.15022953771E+04  0.25500000920E-02 0.  1.
    10030    2    1    2    0    0  0.00000000000E+00  0.00000000000E+00  0.10550251666E+04  0.40596159209E+04  0.39201279727E+04 0.  0.
        3    1    3    3  502    0 -0.11066409091E+04  0.54735464748E+03 -0.10490234690E+04  0.16200930407E+04  0.10100000352E+00 0.  1.
       -3    1    3    3    0  502  0.11066409091E+04 -0.54735464748E+03  0.21040486356E+04  0.24395228802E+04  0.10100000352E+00 0. -1.
</event>
<event>
 5   0  0.5385714E-07  0.3810622E+04  0.7818609E-02  0.8043879E-01
       -1   -1    0    0    0  501  0.00000000000E+00  0.00000000000E+00  0.16526515382E+04  0.16526515382E+04  0.50400001928E-02 0.  1.
        1   -1    0    0  501    0  0.00000000000E+00  0.00000000000E+00 -0.21965972315E+04  0.21965972315E+04  0.50400001928E-02 0. -1.
    10030    2    1    2    0    0  0.00000000000E+00  0.00000000000E+00 -0.54394569331E+03  0.38492487697E+04  0.38106218881E+04 0.  0.
        3    1    3    3  502    0  0.14522265571E+04 -0.10056763564E+04  0.44931201578E+03  0.18226980564E+04  0.10100000352E+00 0.  1.
       -3    1    3    3    0  502 -0.14522265571E+04  0.10056763564E+04 -0.99325770909E+03  0.20265507134E+04  0.10100000352E+00 0. -1.
</event>
<event>
 5   0  0.3471602E-07  0.3847762E+04  0.7818609E-02  0.8035982E-01
        1   -1    0    0  501    0  0.00000000000E+00  0.00000000000E+00  0.21805333042E+04  0.21805333042E+04  0.50400001928E-02 0. -1.
       -1   -1    0    0    0  501  0.00000000000E+00  0.00000000000E+00 -0.16974372754E+04  0.16974372754E+04  0.50400001928E-02 0.  1.
    10030    2    1    2    0    0  0.00000000000E+00  0.00000000000E+00  0.48309602878E+03  0.38779705796E+04  0.38477622124E+04 0.  0.
        5    1    3    3  502    0  0.29454753370E+03 -0.16150543851E+04  0.12524870203E+04  0.20649224544E+04  0.46999998093E+01 0. -1.
       -5    1    3    3    0  502 -0.29454753370E+03  0.16150543851E+04 -0.76939099151E+03  0.18130481252E+04  0.46999998093E+01 0.  1.
</event>
<event>
 5   0  0.1034683E-06  0.3950453E+04  0.7818609E-02  0.8014617E-01
        2   -1    0    0  501    0  0.00000000000E+00  0.00000000000E+00  0.22703853157E+04  0.22703853157E+04  0.25500000920E-02 0.  1.
       -2   -1    0    0    0  501  0.00000000000E+00  0.00000000000E+00 -0.17184393916E+04  0.17184393917E+04  0.25500000920E-02 0. -1.
    10030    2    1    2    0    0  0.00000000000E+00  0.00000000000E+00  0.55194592410E+03  0.39888247074E+04  0.39504529162E+04 0.  0.
        2    1    3    3  502    0  0.15829803272E+04 -0.79331794744E+03  0.11598842109E+04  0.21167218676E+04  0.25500000920E-02 0.  1.
       -2    1    3    3    0  502 -0.15829803272E+04  0.79331794744E+03 -0.60793828680E+03  0.18721028398E+04  0.25500000920E-02 0. -1.
</event>
<event>
 5   0  0.4316671E-07  0.3854826E+04  0.7818609E-02  0.8034491E-01
        1   -1    0    0  501    0  0.00000000000E+00  0.00000000000E+00  0.21718747365E+04  0.21718747365E+04  0.50400001928E-02 0. -1.
       -1   -1    0    0    0  501  0.00000000000E+00  0.00000000000E+00 -0.17104670136E+04  0.17104670136E+04  0.50400001928E-02 0.  1.
    10030    2    1    2    0    0  0.00000000000E+00  0.00000000000E+00  0.46140772286E+03  0.38823417501E+04  0.38548255963E+04 0.  0.
        2    1    3    3  502    0 -0.38367085364E+03 -0.12195537594E+04  0.16833606375E+04  0.21138159172E+04  0.25500000920E-02 0. -1.
       -2    1    3    3    0  502  0.38367085364E+03  0.12195537594E+04 -0.12219529147E+04  0.17685258329E+04  0.25500000920E-02 0.  1.
</event>
<event>
 5   0  0.5533705E-07  0.3254078E+04  0.7818609E-02  0.8174680E-01
       -2   -1    0    0    0  501  0.00000000000E+00  0.00000000000E+00  0.21333774675E+04  0.21333774675E+04  0.25500000920E-02 0.  1.
        2   -1    0    0  501    0  0.00000000000E+00  0.00000000000E+00 -0.12408755811E+04  0.12408755811E+04  0.25500000920E-02 0. -1.
    10030    2    1    2    0    0  0.00000000000E+00  0.00000000000E+00  0.89250188641E+03  0.33742530485E+04  0.32540780596E+04 0.  0.
        1    1    3    3  502    0 -0.55882622206E+03 -0.90293641647E+02 -0.11354731593E+04  0.12687548951E+04  0.50400001928E-02 0. -1.
       -1    1    3    3    0  502  0.55882622206E+03  0.90293641647E+02  0.20279750457E+04  0.21054981535E+04  0.50400001928E-02 0.  1.
</event>
<event>
 5   0  0.1015219E-06  0.2170330E+04  0.7818609E-02  0.8530880E-01
       -2   -1    0    0    0  501  0.00000000000E+00  0.00000000000E+00  0.63140778184E+03  0.63140778184E+03  0.25500000920E-02 0.  1.
        2   -1    0    0  501    0  0.00000000000E+00  0.00000000000E+00 -0.18650123851E+04  0.18650123851E+04  0.25500000920E-02 0. -1.
    10030    2    1    2    0    0  0.00000000000E+00  0.00000000000E+00 -0.12336046032E+04  0.24964201669E+04  0.21703302359E+04 0.  0.
        3    1    3    3  502    0 -0.27417010849E+03  0.38420963899E+03 -0.17407533344E+04  0.18036098460E+04  0.10100000352E+00 0. -1.
       -3    1    3    3    0  502  0.27417010849E+03 -0.38420963899E+03  0.50714873116E+03  0.69281032094E+03  0.10100000352E+00 0.  1.
</event>
<event>
 5   0  0.7268013E-07  0.3896771E+04  0.7818609E-02  0.8025701E-01
        2   -1    0    0  501    0  0.00000000000E+00  0.00000000000E+00  0.29225179626E+04  0.29225179626E+04  0.25500000920E-02 0. -1.
       -2   -1    0    0    0  501  0.00000000000E+00  0.00000000000E+00 -0.12989501323E+04  0.12989501323E+04  0.25500000920E-02 0.  1.
    10030    2    1    2    0    0  0.00000000000E+00  0.00000000000E+00  0.16235678303E+04  0.42214680949E+04  0.38967705060E+04 0.  0.
        4    1    3    3  502    0 -0.23320952812E+03 -0.19270177193E+04  0.99441174097E+03  0.21809723286E+04  0.12699999809E+01 0. -1.
       -4    1    3    3    0  502  0.23320952812E+03  0.19270177193E+04  0.62915608931E+03  0.20404957663E+04  0.12699999809E+01 0.  1.
</event>
<event>
 5   0  0.3977376E-07  0.3865407E+04  0.7818609E-02  0.8032263E-01
        1   -1    0    0  501    0  0.00000000000E+00  0.00000000000E+00  0.12353290153E+04  0.12353290153E+04  0.50400001928E-02 0. -1.
       -1   -1    0    0    0  501  0.00000000000E+00  0.00000000000E+00 -0.30237630150E+04  0.30237630150E+04  0.50400001928E-02 0.  1.
    10030    2    1    2    0    0  0.00000000000E+00  0.00000000000E+00 -0.17884339997E+04  0.42590920303E+04  0.38654066735E+04 0.  0.
        4    1    3    3  502    0  0.13196262045E+03  0.18312013887E+04 -0.15595618347E+04  0.24089307563E+04  0.12699999809E+01 0. -1.
       -4    1    3    3    0  502 -0.13196262045E+03 -0.18312013887E+04 -0.22887216497E+03  0.18501612741E+04  0.12699999809E+01 0.  1.
</event>
<event>
 5   0  0.5533705E-07  0.3819065E+04  0.7818609E-02  0.8042076E-01
       -2   -1    0    0    0  501  0.00000000000E+00  0.00000000000E+00  0.21275790269E+04  0.21275790270E+04  0.25500000920E-02 0.  1.
        2   -1    0    0  501    0  0.00000000000E+00  0.00000000000E+00 -0.17138327674E+04  0.17138327674E+04  0.25500000920E-02 0. -1.
    10030    2    1    2    0    0  0.00000000000E+00  0.00000000000E+00  0.41374625957E+03  0.38414117943E+04  0.38190651482E+04 0.  0.
        1    1    3    3  502    0  0.17193072906E+04 -0.42181081023E+03 -0.51311743165E+03  0.18431580013E+04  0.50400001928E-02 0. -1.
       -1    1    3    3    0  502 -0.17193072906E+04  0.42181081023E+03  0.92686369121E+03  0.19982537930E+04  0.50400001928E-02 0.  1.
</event>
<event>
 5   0  0.3977376E-07  0.3553864E+04  0.7818609E-02  0.8101142E-01
       -1   -1    0    0    0  501  0.00000000000E+00  0.00000000000E+00  0.14848499359E+04  0.14848499359E+04  0.50400001928E-02 0.  1.
        1   -1    0    0  501    0  0.00000000000E+00  0.00000000000E+00 -0.21264688057E+04  0.21264688057E+04  0.50400001928E-02 0. -1.
    10030    2    1    2    0    0  0.00000000000E+00  0.00000000000E+00 -0.64161886976E+03  0.36113187416E+04  0.35538638521E+04 0.  0.
        4    1    3    3  502    0 -0.28334947058E+03  0.62193185698E+03 -0.19875707279E+04  0.21017909431E+04  0.12699999809E+01 0. -1.
       -4    1    3    3    0  502  0.28334947058E+03 -0.62193185698E+03  0.13459518581E+04  0.15095277985E+04  0.12699999809E+01 0.  1.
</event>
<event>
 5   0  0.7268013E-07  0.2154406E+04  0.7818609E-02  0.8537648E-01
       -2   -1    0    0    0  501  0.00000000000E+00  0.00000000000E+00  0.46218270151E+03  0.46218270152E+03  0.25500000920E-02 0.  1.
        2   -1    0    0  501    0  0.00000000000E+00  0.00000000000E+00 -0.25106234180E+04  0.25106234180E+04  0.25500000920E-02 0. -1.
    10030    2    1    2    0    0  0.00000000000E+00  0.00000000000E+00 -0.20484407165E+04  0.29728061195E+04  0.21544063812E+04 0.  0.
        4    1    3    3  502    0 -0.13878684980E+03 -0.59389672767E+03 -0.22494274722E+04  0.23306438334E+04  0.12699999809E+01 0. -1.
       -4    1    3    3    0  502  0.13878684980E+03  0.59389672767E+03  0.20098675569E+03  0.64216228609E+03  0.12699999809E+01 0.  1.
</event>
<event>
 5   0  0.4627905E-07  0.2083863E+04  0.7818609E-02  0.8568385E-01
       -1   -1    0    0    0  501  0.00000000000E+00  0.00000000000E+00  0.10086905811E+04  0.10086905811E+04  0.50400001928E-02 0. -1.
        1   -1    0    0  501    0  0.00000000000E+00  0.00000000000E+00 -0.10762680218E+04  0.10762680218E+04  0.50400001928E-02 0.  1.
    10030    2    1    2    0    0  0.00000000000E+00  0.00000000000E+00 -0.67577440760E+02  0.20849586029E+04  0.20838631590E+04 0.  0.
        1    1    3    3  502    0 -0.89571309463E+03 -0.29028249802E+03 -0.48017966289E+03  0.10569476738E+04  0.50400001928E-02 0.  1.
       -1    1    3    3    0  502  0.89571309463E+03  0.29028249802E+03  0.41260222213E+03  0.10280109291E+04  0.50400001928E-02 0. -1.
</event>
<event>
 5   0  0.1015219E-06  0.3972710E+04  0.7818609E-02  0.8010075E-01
       -2   -1    0    0    0  501  0.00000000000E+00  0.00000000000E+00  0.21856532763E+04  0.21856532763E+04  0.25500000920E-02 0. -1.
        2   -1    0    0  501    0  0.00000000000E+00  0.00000000000E+00 -0.18052296654E+04  0.18052296654E+04  0.25500000920E-02 0.  1.
    10030    2    1    2    0    0  0.00000000000E+00  0.00000000000E+00  0.38042361095E+03  0.39908829417E+04  0.39727099731E+04 0.  0.
        3    1    3    3  502    0  0.10574913978E+04  0.11703358864E+04  0.14030589574E+04  0.21110539054E+04  0.10100000352E+00 0. -1.
       -3    1    3    3    0  502 -0.10574913978E+04 -0.11703358864E+04 -0.10226353465E+04  0.18798290363E+04  0.10100000352E+00 0.  1.
</event>
<event>
 5   0  0.1015219E-06  0.1987621E+04  0.7818609E-02  0.8612430E-01
       -2   -1    0    0    0  501  0.00000000000E+00  0.00000000000E+00  0.10025638098E+04  0.10025638098E+04  0.25500000920E-02 0.  1.
        2   -1    0    0  501    0  0.00000000000E+00  0.00000000000E+00 -0.98513343347E+03  0.98513343347E+03  0.25500000920E-02 0. -1.
    10030    2    1    2    0    0  0.00000000000E+00  0.00000000000E+00  0.17430376324E+02  0.19876972433E+04  0.19876208172E+04 0.  0.
        3    1    3    3  502    0 -0.24989312667E+03  0.65188315398E+03  0.71603362328E+03  0.10000511892E+04  0.10100000352E+00 0.  1.
       -3    1    3    3    0  502  0.24989312667E+03 -0.65188315398E+03 -0.69860324696E+03  0.98764605404E+03  0.10100000352E+00 0. -1.
</event>
<event>
 5   0  0.1034683E-06  0.4001198E+04  0.7818609E-02  0.8004305E-01
       -2   -1    0    0    0  501  0.00000000000E+00  0.00000000000E+00  0.16163093983E+04  0.16163093983E+04  0.25500000920E-02 0.  1.
        2   -1    0    0  501    0  0.00000000000E+00  0.00000000000E+00 -0.24762566443E+04  0.24762566443E+04  0.25500000920E-02 0. -1.
    10030    2    1    2    0    0  0.00000000000E+00  0.00000000000E+00 -0.85994724600E+03  0.40925660426E+04  0.40011982639E+04 0.  0.
        2    1    3    3  502    0  0.18603226001E+04  0.69494808068E+03 -0.67766846097E+03  0.20983297058E+04  0.25500000920E-02 0. -1.
       -2    1    3    3    0  502 -0.18603226001E+04 -0.69494808068E+03 -0.18227878502E+03  0.19942363368E+04  0.25500000920E-02 0.  1.
</event>
<event>
 5   0  0.1034683E-06  0.2264509E+04  0.7818609E-02  0.8492048E-01
       -2   -1    0    0    0  501  0.00000000000E+00  0.00000000000E+00  0.10223085704E+04  0.10223085704E+04  0.25500000920E-02 0. -1.
        2   -1    0    0  501    0  0.00000000000E+00  0.00000000000E+00 -0.12540246832E+04  0.12540246832E+04  0.25500000920E-02 0.  1.
    10030    2    1    2    0    0  0.00000000000E+00  0.00000000000E+00 -0.23171611284E+03  0.22763332536E+04  0.22645089367E+04 0.  0.
        2    1    3    3  502    0  0.11091892709E+04 -0.13724062510E+03  0.66373820596E+02  0.11196165915E+04  0.25500000920E-02 0. -1.
       -2    1    3    3    0  502 -0.11091892709E+04  0.13724062510E+03 -0.29808993343E+03  0.11567166621E+04  0.25500000920E-02 0.  1.
</event>
<event>
 5   0  0.5533705E-07  0.2399921E+04  0.7818609E-02  0.8439533E-01
        2   -1    0    0  501    0  0.00000000000E+00  0.00000000000E+00  0.14908022754E+04  0.14908022754E+04  0.25500000920E-02 0.  1.
       -2   -1    0    0    0  501  0.00000000000E+00  0.00000000000E+00 -0.96585949383E+03  0.96585949383E+03  0.25500000920E-02 0. -1.
    10030    2    1    2    0    0  0.00000000000E+00  0.00000000000E+00  0.52494278158E+03  0.24566617693E+04  0.23999212747E+04 0.  0.
        1    1    3    3  502    0  0.10788664970E+04  0.22793123026E+03 -0.22200469978E+03  0.11248073838E+04  0.50400001928E-02 0.  1.
       -1    1    3    3    0  502 -0.10788664970E+04 -0.22793123026E+03  0.74694748137E+03  0.13318543854E+04  0.50400001928E-02 0. -1.
</event>
<event>
 5   0  0.3471602E-07  0.1980136E+04  0.7818609E-02  0.8615965E-01
       -1   -1    0    0    0  501  0.00000000000E+00  0.00000000000E+00  0.14148368621E+04  0.14148368621E+04  0.50400001928E-02 0.  1.
        1   -1    0    0  501    0  0.00000000000E+00  0.00000000000E+00 -0.69282494056E+03  0.69282494058E+03  0.50400001928E-02 0. -1.
    10030    2    1    2    0    0  0.00000000000E+00  0.00000000000E+00  0.72201192153E+03  0.21076618027E+04  0.19801356165E+04 0.  0.
        5    1    3    3  502    0 -0.37589622736E+03  0.89876704262E+03  0.54881198981E+03  0.11181667411E+04  0.46999998093E+01 0. -1.
       -5    1    3    3    0  502  0.37589622736E+03 -0.89876704262E+03  0.17319993172E+03  0.98949506163E+03  0.46999998093E+01 0.  1.
</event>
<event>
 5   0  0.5385714E-07  0.3905421E+04  0.7818609E-02  0.8023903E-01
       -1   -1    0    0    0  501  0.00000000000E+00  0.00000000000E+00  0.16212311129E+04  0.16212311129E+04  0.50400001928E-02 0.  1.
        1   -1    0    0  501    0  0.00000000000E+00  0.00000000000E+00 -0.23519652663E+04  0.23519652663E+04  0.50400001928E-02 0. -1.
    10030    2    1    2    0    0  0.00000000000E+00  0.00000000000E+00 -0.73073415339E+03  0.39731963792E+04  0.39054214965E+04 0.  0.
        3    1    3    3  502    0 -0.16103411141E+04 -0.10027807789E+04  0.10560462986E+03  0.18999789847E+04  0.10100000352E+00 0.  1.
       -3    1    3    3    0  502  0.16103411141E+04  0.10027807789E+04 -0.83633878324E+03  0.20732173945E+04  0.10100000352E+00 0. -1.
</event>
<event>
 5   0  0.5533705E-07  0.2704387E+04  0.7818609E-02  0.8333583E-01
        2   -1    0    0  501    0  0.00000000000E+00  0.00000000000E+00  0.17491535145E+04  0.17491535145E+04  0.25500000920E-02 0. -1.
       -2   -1    0    0    0  501  0.00000000000E+00  0.00000000000E+00 -0.10453215146E+04  0.10453215146E+04  0.25500000920E-02 0.  1.
    10030    2    1    2    0    0  0.00000000000E+00  0.00000000000E+00  0.70383199997E+03  0.27944750291E+04  0.27043873991E+04 0.  0.
        1    1    3    3  502    0  0.72494254366E+03  0.72914779248E+03 -0.55553498422E+03  0.11686818701E+04  0.50400001928E-02 0.  1.
       -1    1    3    3    0  502 -0.72494254366E+03 -0.72914779248E+03  0.12593669842E+04  0.16257931590E+04  0.50400001928E-02 0. -1.
</event>
<event>
 5   0  0.3977376E-07  0.3862248E+04  0.7818609E-02  0.8032927E-01
       -1   -1    0    0    0  501  0.00000000000E+00  0.00000000000E+00  0.28061081317E+04  0.28061081317E+04  0.50400001928E-02 0.  1.
        1   -1    0    0  501    0  0.00000000000E+00  0.00000000000E+00 -0.13289723038E+04  0.13289723038E+04  0.50400001928E-02 0. -1.
    10030    2    1    2    0    0  0.00000000000E+00  0.00000000000E+00  0.14771358279E+04  0.41350804356E+04  0.38622480442E+04 0.  0.
        4    1    3    3  502    0 -0.19103414043E+04  0.27134929259E+03  0.65424071823E+03  0.20374168081E+04  0.12699999809E+01 0. -1.
       -4    1    3    3    0  502  0.19103414043E+04 -0.27134929259E+03  0.82289510967E+03  0.20976636275E+04  0.12699999809E+01 0.  1.
</event>
<event>
 5   0  0.1034683E-06  0.2456571E+04  0.7818609E-02  0.8418623E-01
       -2   -1    0    0    0  501  0.00000000000E+00  0.00000000000E+00  0.80735428066E+03  0.80735428067E+03  0.25500000920E-02 0. -1.
        2   -1    0    0  501    0  0.00000000000E+00  0.00000000000E+00 -0.18686776076E+04  0.18686776076E+04  0.25500000920E-02 0.  1.
    10030    2    1    2    0    0  0.00000000000E+00  0.00000000000E+00 -0.10613233270E+04  0.26760318883E+04  0.24565706713E+04 0.  0.
        2    1    3    3  502    0  0.39668422740E+03  0.91519568971E+03  0.25012992095E+03  0.10283513525E+04  0.25500000920E-02 0. -1.
       -2    1    3    3    0  502 -0.39668422740E+03 -0.91519568971E+03 -0.13114532479E+04  0.16476805359E+04  0.25500000920E-02 0.  1.
</event>
<event>
 5   0  0.4316671E-07  0.2323576E+04  0.7818609E-02  0.8468683E-01
       -1   -1    0    0    0  501  0.00000000000E+00  0.00000000000E+00  0.90615543117E+03  0.90615543118E+03  0.50400001928E-02 0. -1.
        1   -1    0    0  501    0  0.00000000000E+00  0.00000000000E+00 -0.14895367911E+04  0.14895367912E+04  0.50400001928E-02 0.  1.
    10030    2    1    2    0    0  0.00000000000E+00  0.00000000000E+00 -0.58338135998E+03  0.23956922223E+04  0.23235764272E+04 0.  0.
        2    1    3    3  502    0 -0.50722954808E+03  0.12469528070E+03 -0.13616469038E+04  0.14583939859E+04  0.25500000920E-02 0.  1.
       -2    1    3    3    0  502  0.50722954808E+03 -0.12469528070E+03  0.77826554378E+03  0.93729823648E+03  0.25500000920E-02 0. -1.
</event>
<event>
 5   0  0.3977376E-07  0.2252179E+04  0.7818609E-02  0.8497018E-01
        1   -1    0    0  501    0  0.00000000000E+00  0.00000000000E+00  0.15626645905E+04  0.15626645905E+04  0.50400001928E-02 0. -1.
       -1   -1    0    0    0  501  0.00000000000E+00  0.00000000000E+00 -0.81148440387E+03  0.81148440388E+03  0.50400001928E-02 0.  1.
    10030    2    1    2    0    0  0.00000000000E+00  0.00000000000E+00  0.75118018659E+03  0.23741489943E+04  0.22521793389E+04 0.  0.
        4    1    3    3  502    0  0.28401817304E+03 -0.29569701960E+03  0.14811850995E+04  0.15368844986E+04  0.12699999809E+01 0. -1.
       -4    1    3    3    0  502 -0.28401817304E+03  0.29569701960E+03 -0.73000491295E+03  0.83726449575E+03  0.12699999809E+01 0.  1.
</event>
<event>
 5   0  0.1035864E-06  0.2327005E+04  0.7818609E-02  0.8467349E-01
        2   -1    0    0  501    0  0.00000000000E+00  0.00000000000E+00  0.15571454141E+04  0.15571454141E+04  0.25500000920E-02 0. -1.
       -2   -1    0    0    0  501  0.00000000000E+00  0.00000000000E+00 -0.86937177599E+03  0.86937177600E+03  0.25500000920E-02 0.  1.
    10030    2    1    2    0    0  0.00000000000E+00  0.00000000000E+00  0.68777363807E+03  0.24265171901E+04  0.23270051776E+04 0.  0.
        5    1    3    3  502    0  0.69842683569E+03  0.50105578214E+03  0.11615489334E+04  0.14450172858E+04  0.46999998093E+01 0. -1.
       -5    1    3    3    0  502 -0.69842683569E+03 -0.50105578214E+03 -0.47377529531E+03  0.98149990426E+03  0.46999998093E+01 0.  1.
</event>
<event>
 5   0  0.3471602E-07  0.3334541E+04  0.7818609E-02  0.8154162E-01
       -1   -1    0    0    0  501  0.00000000000E+00  0.00000000000E+00  0.18665505352E+04  0.18665505352E+04  0.50400001928E-02 0.  1.
        1   -1    0    0  501    0  0.00000000000E+00  0.00000000000E+00 -0.14892664398E+04  0.14892664398E+04  0.50400001928E-02 0. -1.
    10030    2    1    2    0    0  0.00000000000E+00  0.00000000000E+00  0.37728409532E+03  0.33558169750E+04  0.33345410900E+04 0.  0.
        5    1    3    3  502    0  0.69397580093E+03 -0.84197148234E+03  0.14573404236E+04  0.18205443114E+04  0.46999998093E+01 0.  1.
       -5    1    3    3    0  502 -0.69397580093E+03  0.84197148234E+03 -0.10800563283E+04  0.15352726636E+04  0.46999998093E+01 0. -1.
</event>
<event>
 5   0  0.7268013E-07  0.2460854E+04  0.7818609E-02  0.8417066E-01
        2   -1    0    0  501    0  0.00000000000E+00  0.00000000000E+00  0.11922921384E+04  0.11922921384E+04  0.25500000920E-02 0.  1.
       -2   -1    0    0    0  501  0.00000000000E+00  0.00000000000E+00 -0.12697817093E+04  0.12697817094E+04  0.25500000920E-02 0. -1.
    10030    2    1    2    0    0  0.00000000000E+00  0.00000000000E+00 -0.77489570922E+02  0.24620738478E+04  0.24608541197E+04 0.  0.
        4    1    3    3  502    0 -0.68532470148E+03 -0.10007002599E+04  0.16842832069E+03  0.12245165041E+04  0.12699999809E+01 0.  1.
       -4    1    3    3    0  502  0.68532470148E+03  0.10007002599E+04 -0.24591789161E+03  0.12375573437E+04  0.12699999809E+01 0. -1.
</event>
<event>
 5   0  0.7268013E-07  0.3690935E+04  0.7818609E-02  0.8069974E-01
       -2   -1    0    0    0  501  0.00000000000E+00  0.00000000000E+00  0.29284020994E+04  0.29284020994E+04  0.25500000920E-02 0. -1.
        2   -1    0    0  501    0  0.00000000000E+00  0.00000000000E+00 -0.11630060908E+04  0.11630060908E+04  0.25500000920E-02 0.  1.
    10030    2    1    2    0    0  0.00000000000E+00  0.00000000000E+00  0.17653960086E+04  0.40914081902E+04  0.36909345580E+04 0.  0.
        4    1    3    3  502    0 -0.36798073737E+02  0.18281278765E+04  0.60592250335E+03  0.19262786206E+04  0.12699999809E+01 0.  1.
       -4    1    3    3    0  502  0.36798073737E+02 -0.18281278765E+04  0.11594735053E+04  0.21651295697E+04  0.12699999809E+01 0. -1.
</event>
<event>
 5   0  0.1181013E-06  0.1986697E+04  0.7818609E-02  0.8612866E-01
       -2   -1    0    0    0  501  0.00000000000E+00  0.00000000000E+00  0.65467182810E+03  0.65467182811E+03  0.25500000920E-02 0. -1.
        2   -1    0    0  501    0  0.00000000000E+00  0.00000000000E+00 -0.15072305534E+04  0.15072305534E+04  0.25500000920E-02 0.  1.
    10030    2    1    2    0    0  0.00000000000E+00  0.00000000000E+00 -0.85255872531E+03  0.21619023815E+04  0.19866971403E+04 0.  0.
        5    1    3    3  502    0  0.75881530638E+02  0.99971384563E+02  0.64599679613E+03  0.65809287721E+03  0.46999998093E+01 0. -1.
       -5    1    3    3    0  502 -0.75881530638E+02 -0.99971384563E+02 -0.14985555214E+04  0.15038095043E+04  0.46999998093E+01 0.  1.
</event>
<event>
 5   0  0.7268013E-07  0.2356888E+04  0.7818609E-02  0.8455823E-01
        2   -1    0    0  501    0  0.00000000000E+00  0.00000000000E+00  0.13338189704E+04  0.13338189704E+04  0.25500000920E-02 0. -1.
       -2   -1    0    0    0  501  0.00000000000E+00  0.00000000000E+00 -0.10411687912E+04  0.10411687912E+04  0.25500000920E-02 0.  1.
    10030    2    1    2    0    0  0.00000000000E+00  0.00000000000E+00  0.29265017918E+03  0.23749877616E+04  0.23568883597E+04 0.  0.
        4    1    3    3  502    0 -0.80932188557E+03 -0.56614500808E+03  0.79407325711E+03  0.12673105520E+04  0.12699999809E+01 0. -1.
       -4    1    3    3    0  502  0.80932188557E+03  0.56614500808E+03 -0.50142307793E+03  0.11076772096E+04  0.12699999809E+01 0.  1.
</event>
<event>
 5   0  0.7268013E-07  0.2402887E+04  0.7818609E-02  0.8438423E-01
       -2   -1    0    0    0  501  0.00000000000E+00  0.00000000000E+00  0.75623278377E+03  0.75623278377E+03  0.25500000920E-02 0. -1.
        2   -1    0    0  501    0  0.00000000000E+00  0.00000000000E+00 -0.19087597630E+04  0.19087597630E+04  0.25500000920E-02 0.  1.
    10030    2    1    2    0    0  0.00000000000E+00  0.00000000000E+00 -0.11525269792E+04  0.26649925467E+04  0.24028871876E+04 0.  0.
        4    1    3    3  502    0 -0.93689545429E+02 -0.39834036004E+03 -0.18290874516E+04  0.18743039487E+04  0.12699999809E+01 0.  1.
       -4    1    3    3    0  502  0.93689545429E+02  0.39834036004E+03  0.67656047244E+03  0.79068859808E+03  0.12699999809E+01 0. -1.
</event>
<event>
 5   0  0.7268013E-07  0.3328384E+04  0.7818609E-02  0.8155710E-01
       -2   -1    0    0    0  501  0.00000000000E+00  0.00000000000E+00  0.22296299988E+04  0.22296299988E+04  0.25500000920E-02 0. -1.
        2   -1    0    0  501    0  0.00000000000E+00  0.00000000000E+00 -0.12421501192E+04  0.12421501192E+04  0.25500000920E-02 0.  1.
    10030    2    1    2    0    0  0.00000000000E+00  0.00000000000E+00  0.98747987967E+03  0.34717801180E+04  0.33283840937E+04 0.  0.
        4    1    3    3  502    0 -0.12224406464E+04  0.96131838814E+03 -0.12427175351E+03  0.15601087330E+04  0.12699999809E+01 0. -1.
       -4    1    3    3    0  502  0.12224406464E+04 -0.96131838814E+03  0.11117516332E+04  0.19116713850E+04  0.12699999809E+01 0.  1.
</event>
<event>
 5   0  0.3471602E-07  0.2570643E+04  0.7818609E-02  0.8378242E-01
        1   -1    0    0  501    0  0.00000000000E+00  0.00000000000E+00  0.16457799827E+04  0.16457799827E+04  0.50400001928E-02 0. -1.
       -1   -1    0    0    0  501  0.00000000000E+00  0.00000000000E+00 -0.10038109528E+04  0.10038109528E+04  0.50400001928E-02 0.  1.
    10030    2    1    2    0    0  0.00000000000E+00  0.00000000000E+00  0.64196902990E+03  0.26495909356E+04  0.25706434779E+04 0.  0.
        5    1    3    3  502    0  0.54042742786E+03  0.14909335670E+03  0.15131120397E+04  0.16136358847E+04  0.46999998093E+01 0. -1.
       -5    1    3    3    0  502 -0.54042742786E+03 -0.14909335670E+03 -0.87114300981E+03  0.10359550508E+04  0.46999998093E+01 0.  1.
</event>
<event>
 5   0  0.1015219E-06  0.2527655E+04  0.7818609E-02  0.8393199E-01
       -2   -1    0    0    0  501  0.00000000000E+00  0.00000000000E+00  0.55670693089E+03  0.55670693090E+03  0.25500000920E-02 0.  1.
        2   -1    0    0  501    0  0.00000000000E+00  0.00000000000E+00 -0.28691216699E+04  0.28691216700E+04  0.25500000920E-02 0. -1.
    10030    2    1    2    0    0  0.00000000000E+00  0.00000000000E+00 -0.23124147391E+04  0.34258286009E+04  0.25276549759E+04 0.  0.
        3    1    3    3  502    0 -0.60194193599E+03  0.70843288452E+01 -0.26623269258E+04  0.27295363988E+04  0.10100000352E+00 0. -1.
       -3    1    3    3    0  502  0.60194193599E+03 -0.70843288452E+01  0.34991218678E+03  0.69629220208E+03  0.10100000352E+00 0.  1.
</event>
<event>
 5   0  0.3723422E-07  0.2083616E+04  0.7818609E-02  0.8568495E-01
        1   -1    0    0  501    0  0.00000000000E+00  0.00000000000E+00  0.11475842739E+04  0.11475842739E+04  0.50400001928E-02 0. -1.
       -1   -1    0    0    0  501  0.00000000000E+00  0.00000000000E+00 -0.94578126156E+03  0.94578126158E+03  0.50400001928E-02 0.  1.
    10030    2    1    2    0    0  0.00000000000E+00  0.00000000000E+00  0.20180301237E+03  0.20933655355E+04  0.20836158018E+04 0.  0.
        5    1    3    3  502    0  0.56423734101E+03  0.12692119434E+03 -0.76968006609E+03  0.96275763342E+03  0.46999998093E+01 0.  1.
       -5    1    3    3    0  502 -0.56423734101E+03 -0.12692119434E+03  0.97148307846E+03  0.11306079021E+04  0.46999998093E+01 0. -1.
</event>
<event>
 5   0  0.5385714E-07  0.3857159E+04  0.7818609E-02  0.8033999E-01
       -1   -1    0    0    0  501  0.00000000000E+00  0.00000000000E+00  0.18763653018E+04  0.18763653018E+04  0.50400001928E-02 0. -1.
        1   -1    0    0  501    0  0.00000000000E+00  0.00000000000E+00 -0.19822462640E+04  0.19822462640E+04  0.50400001928E-02 0.  1.
    10030    2    1    2    0    0  0.00000000000E+00  0.00000000000E+00 -0.10588096219E+03  0.38586115659E+04  0.38571585965E+04 0.  0.
        3    1    3    3  502    0 -0.61888715159E+03 -0.18240438752E+04 -0.14920944125E+03  0.19319474197E+04  0.10100000352E+00 0.  1.
       -3    1    3    3    0  502  0.61888715159E+03  0.18240438752E+04  0.43328479063E+02  0.19266641462E+04  0.10100000352E+00 0. -1.
</event>
<event>
 5   0  0.5533705E-07  0.3622654E+04  0.7818609E-02  0.8085322E-01
        2   -1    0    0  501    0  0.00000000000E+00  0.00000000000E+00  0.29638137838E+04  0.29638137838E+04  0.25500000920E-02 0. -1.
       -2   -1    0    0    0  501  0.00000000000E+00  0.00000000000E+00 -0.11069875478E+04  0.11069875479E+04  0.25500000920E-02 0.  1.
    10030    2    1    2    0    0  0.00000000000E+00  0.00000000000E+00  0.18568262359E+04  0.40708013316E+04  0.36226536974E+04 0.  0.
        1    1    3    3  502    0  0.10715215586E+04 -0.98181697040E+03 -0.28642898136E+03  0.14812712700E+04  0.50400001928E-02 0.  1.
       -1    1    3    3    0  502 -0.10715215586E+04  0.98181697040E+03  0.21432552173E+04  0.25895300617E+04  0.50400001928E-02 0. -1.
</event>
<event>
 5   0  0.3977376E-07  0.3684351E+04  0.7818609E-02  0.8071439E-01
        1   -1    0    0  501    0  0.00000000000E+00  0.00000000000E+00  0.23599239171E+04  0.23599239171E+04  0.50400001928E-02 0.  1.
       -1   -1    0    0    0  501  0.00000000000E+00  0.00000000000E+00 -0.14380168907E+04  0.14380168907E+04  0.50400001928E-02 0. -1.
    10030    2    1    2    0    0  0.00000000000E+00  0.00000000000E+00  0.92190702640E+03  0.37979408078E+04  0.36843509353E+04 0.  0.
        4    1    3    3  502    0  0.10949796461E+04 -0.92691084994E+03  0.16522048658E+04  0.21881331497E+04  0.12699999809E+01 0.  1.
       -4    1    3    3    0  502 -0.10949796461E+04  0.92691084994E+03 -0.73029783943E+03  0.16098076581E+04  0.12699999809E+01 0. -1.
</event>
<event>
 5   0  0.4316671E-07  0.3727388E+04  0.7818609E-02  0.8061919E-01
        1   -1    0    0  501    0  0.00000000000E+00  0.00000000000E+00  0.21452183982E+04  0.21452183982E+04  0.50400001928E-02 0.  1.
       -1   -1    0    0    0  501  0.00000000000E+00  0.00000000000E+00 -0.16191149520E+04  0.16191149520E+04  0.50400001928E-02 0. -1.
    10030    2    1    2    0    0  0.00000000000E+00  0.00000000000E+00  0.52610344629E+03  0.37643333502E+04  0.37273879239E+04 0.  0.
        2    1    3    3  502    0 -0.36042345370E+03 -0.16039651018E+04  0.11496750249E+04  0.20060811989E+04  0.25500000920E-02 0.  1.
       -2    1    3    3    0  502  0.36042345370E+03  0.16039651018E+04 -0.62357157856E+03  0.17582521513E+04  0.25500000920E-02 0. -1.
</event>
<event>
 5   0  0.3471602E-07  0.2474118E+04  0.7818609E-02  0.8412265E-01
       -1   -1    0    0    0  501  0.00000000000E+00  0.00000000000E+00  0.88315413225E+03  0.88315413227E+03  0.50400001928E-02 0.  1.
        1   -1    0    0  501    0  0.00000000000E+00  0.00000000000E+00 -0.17327834188E+04  0.17327834188E+04  0.50400001928E-02 0. -1.
    10030    2    1    2    0    0  0.00000000000E+00  0.00000000000E+00 -0.84962928658E+03  0.26159375511E+04  0.24741178926E+04 0.  0.
        5    1    3    3  502    0 -0.10786686592E+04 -0.28732607591E+03  0.13885800581E+03  0.11248937666E+04  0.46999998093E+01 0.  1.
       -5    1    3    3    0  502  0.10786686592E+04  0.28732607591E+03 -0.98848729239E+03  0.14910437846E+04  0.46999998093E+01 0. -1.
</event>
<event>
 5   0  0.3977376E-07  0.3883779E+04  0.7818609E-02  0.8028411E-01
       -1   -1    0    0    0  501  0.00000000000E+00  0.00000000000E+00  0.12967292311E+04  0.12967292311E+04  0.50400001928E-02 0.  1.
        1   -1    0    0  501    0  0.00000000000E+00  0.00000000000E+00 -0.29080352817E+04  0.29080352817E+04  0.50400001928E-02 0. -1.
    10030    2    1    2    0    0  0.00000000000E+00  0.00000000000E+00 -0.16113060506E+04  0.42047645127E+04  0.38837787551E+04 0.  0.
        4    1    3    3  502    0  0.11127307445E+04  0.24628903835E+03 -0.25078923932E+04  0.27546966927E+04  0.12699999809E+01 0. -1.
       -4    1    3    3    0  502 -0.11127307445E+04 -0.24628903835E+03  0.89658634257E+03  0.14500678200E+04  0.12699999809E+01 0.  1.
</event>
<event>
 5   0  0.3977376E-07  0.2620322E+04  0.7818609E-02  0.8361331E-01
       -1   -1    0    0    0  501  0.00000000000E+00  0.00000000000E+00  0.87364407068E+03  0.87364407069E+03  0.50400001928E-02 0. -1.
        1   -1    0    0  501    0  0.00000000000E+00  0.00000000000E+00 -0.19647844454E+04  0.19647844454E+04  0.50400001928E-02 0.  1.
    10030    2    1    2    0    0  0.00000000000E+00  0.00000000000E+00 -0.10911403747E+04  0.28384285161E+04  0.26203223320E+04 0.  0.
        4    1    3    3  502    0 -0.95209180887E+03 -0.20648955723E+02 -0.15202515095E+04  0.17938983965E+04  0.12699999809E+01 0.  1.
       -4    1    3    3    0  502  0.95209180887E+03  0.20648955723E+02  0.42911113477E+03  0.10445301196E+04  0.12699999809E+01 0. -1.
</event>
<event>
 5   0  0.7268013E-07  0.2225831E+04  0.7818609E-02  0.8507753E-01
       -2   -1    0    0    0  501  0.00000000000E+00  0.00000000000E+00  0.13060946098E+04  0.13060946098E+04  0.25500000920E-02 0. -1.
        2   -1    0    0  501    0  0.00000000000E+00  0.00000000000E+00 -0.94830885350E+03  0.94830885351E+03  0.25500000920E-02 0.  1.
    10030    2    1    2    0    0  0.00000000000E+00  0.00000000000E+00  0.35778575629E+03  0.22544034633E+04  0.22258311544E+04 0.  0.
        4    1    3    3  502    0  0.93916761938E+01  0.10977785787E+04 -0.61362181040E+01  0.10978366352E+04  0.12699999809E+01 0.  1.
       -4    1    3    3    0  502 -0.93916761938E+01 -0.10977785787E+04  0.36392197439E+03  0.11565668281E+04  0.12699999809E+01 0. -1.
</event>
<event>
 5   0  0.4878242E-07  0.2001788E+04  0.7818609E-02  0.8605785E-01
        1   -1    0    0  501    0  0.00000000000E+00  0.00000000000E+00  0.10015968340E+04  0.10015968340E+04  0.50400001928E-02 0. -1.
       -1   -1    0    0    0  501  0.00000000000E+00  0.00000000000E+00 -0.10001916372E+04  0.10001916372E+04  0.50400001928E-02 0.  1.
    10030    2    1    2    0    0  0.00000000000E+00  0.00000000000E+00  0.14051967508E+01  0.20017884712E+04  0.20017879780E+04 0.  0.
        2    1    3    3  502    0 -0.21948060305E+03 -0.58590402741E+03 -0.78053604218E+03  0.10003458290E+04  0.25500000920E-02 0.  1.
       -2    1    3    3    0  502  0.21948060305E+03  0.58590402741E+03  0.78194123893E+03  0.10014426422E+04  0.25500000920E-02 0. -1.
</event>
<event>
 5   0  0.3977376E-07  0.3128118E+04  0.7818609E-02  0.8208063E-01
       -1   -1    0    0    0  501  0.00000000000E+00  0.00000000000E+00  0.10652494500E+04  0.10652494500E+04  0.50400001928E-02 0.  1.
        1   -1    0    0  501    0  0.00000000000E+00  0.00000000000E+00 -0.22964393086E+04  0.22964393086E+04  0.50400001928E-02 0. -1.
    10030    2    1    2    0    0  0.00000000000E+00  0.00000000000E+00 -0.12311898586E+04  0.33616887586E+04  0.31281180991E+04 0.  0.
        4    1    3    3  502    0 -0.12138088813E+04  0.95170840274E+03 -0.89417703951E+03  0.17828727030E+04  0.12699999809E+01 0. -1.
       -4    1    3    3    0  502  0.12138088813E+04 -0.95170840274E+03 -0.33701281904E+03  0.15788160556E+04  0.12699999809E+01 0.  1.
</event>
<event>
 5   0  0.5385714E-07  0.3189444E+04  0.7818609E-02  0.8191610E-01
        1   -1    0    0  501    0  0.00000000000E+00  0.00000000000E+00  0.93238816751E+03  0.93238816752E+03  0.50400001928E-02 0. -1.
       -1   -1    0    0    0  501  0.00000000000E+00  0.00000000000E+00 -0.27275538139E+04  0.27275538139E+04  0.50400001928E-02 0.  1.
    10030    2    1    2    0    0  0.00000000000E+00  0.00000000000E+00 -0.17951656464E+04  0.36599419814E+04  0.31894444045E+04 0.  0.
        3    1    3    3  502    0  0.95133870887E+03  0.78517578919E+03  0.26225700897E+03  0.12610809284E+04  0.10100000352E+00 0. -1.
       -3    1    3    3    0  502 -0.95133870887E+03 -0.78517578919E+03 -0.20574226554E+04  0.23988610531E+04  0.10100000352E+00 0.  1.
</event>
<event>
 5   0  0.3471602E-07  0.2370966E+04  0.7818609E-02  0.8450454E-01
       -1   -1    0    0    0  501  0.00000000000E+00  0.00000000000E+00  0.16146326345E+04  0.16146326345E+04  0.50400001928E-02 0. -1.
        1   -1    0    0  501    0  0.00000000000E+00  0.00000000000E+00 -0.87039639211E+03  0.87039639213E+03  0.50400001928E-02 0.  1.
    10030    2    1    2    0    0  0.00000000000E+00  0.00000000000E+00  0.74423624238E+03  0.24850290266E+04  0.23709664019E+04 0.  0.
        5    1    3    3  502    0 -0.89582276993E+03  0.19799543927E+03  0.11590007101E+04  0.14781763647E+04  0.46999998093E+01 0. -1.
       -5    1    3    3    0  502  0.89582276993E+03 -0.19799543927E+03 -0.41476446776E+03  0.10068526619E+04  0.46999998093E+01 0.  1.
</event>
<event>
 5   0  0.7268013E-07  0.3882461E+04  0.7818609E-02  0.8028687E-01
       -2   -1    0    0    0  501  0.00000000000E+00  0.00000000000E+00  0.30416899924E+04  0.30416899924E+04  0.25500000920E-02 0. -1.
        2   -1    0    0  501    0  0.00000000000E+00  0.00000000000E+00 -0.12389082868E+04  0.12389082868E+04  0.25500000920E-02 0.  1.
    10030    2    1    2    0    0  0.00000000000E+00  0.00000000000E+00  0.18027817055E+04  0.42805982792E+04  0.38824605278E+04 0.  0.
        4    1    3    3  502    0 -0.10127826254E+04  0.41911000938E+03  0.26678745633E+04  0.28842569485E+04  0.12699999809E+01 0. -1.
       -4    1    3    3    0  502  0.10127826254E+04 -0.41911000938E+03 -0.86509285780E+03  0.13963413307E+04  0.12699999809E+01 0.  1.
</event>
<event>
 5   0  0.1035864E-06  0.3933285E+04  0.7818609E-02  0.8018142E-01
        2   -1    0    0  501    0  0.00000000000E+00  0.00000000000E+00  0.23861159119E+04  0.23861159119E+04  0.25500000920E-02 0.  1.
       -2   -1    0    0    0  501  0.00000000000E+00  0.00000000000E+00 -0.16209113641E+04  0.16209113641E+04  0.25500000920E-02 0. -1.
    10030    2    1    2    0    0  0.00000000000E+00  0.00000000000E+00  0.76520454786E+03  0.40070272760E+04  0.39332848347E+04 0.  0.
        5    1    3    3  502    0  0.15665262050E+04  0.11725197822E+04  0.58341024684E+03  0.20418610621E+04  0.46999998093E+01 0.  1.
       -5    1    3    3    0  502 -0.15665262050E+04 -0.11725197822E+04  0.18179430102E+03  0.19651662140E+04  0.46999998093E+01 0. -1.
</event>
<event>
 5   0  0.3977376E-07  0.2104962E+04  0.7818609E-02  0.8559061E-01
        1   -1    0    0  501    0  0.00000000000E+00  0.00000000000E+00  0.13471165968E+04  0.13471165968E+04  0.50400001928E-02 0.  1.
       -1   -1    0    0    0  501  0.00000000000E+00  0.00000000000E+00 -0.82228697049E+03  0.82228697051E+03  0.50400001928E-02 0. -1.
    10030    2    1    2    0    0  0.00000000000E+00  0.00000000000E+00  0.52482962634E+03  0.21694035674E+04  0.21049621615E+04 0.  0.
        4    1    3    3  502    0  0.49792878901E+03  0.55909924192E+03 -0.49995385917E+03  0.90026691344E+03  0.12699999809E+01 0. -1.
       -4    1    3    3    0  502 -0.49792878901E+03 -0.55909924192E+03  0.10247834855E+04  0.12691366539E+04  0.12699999809E+01 0.  1.
</event>
<event>
 5   0  0.7268013E-07  0.2191156E+04  0.7818609E-02  0.8522118E-01
       -2   -1    0    0    0  501  0.00000000000E+00  0.00000000000E+00  0.66784624121E+03  0.66784624122E+03  0.25500000920E-02 0.  1.
        2   -1    0    0  501    0  0.00000000000E+00  0.00000000000E+00 -0.17972563895E+04  0.17972563895E+04  0.25500000920E-02 0. -1.
    10030    2    1    2    0    0  0.00000000000E+00  0.00000000000E+00 -0.11294101483E+04  0.24651026308E+04  0.21911557902E+04 0.  0.
        4    1    3    3  502    0 -0.88645758909E+03 -0.63981612240E+03 -0.64518623318E+03  0.12694245216E+04  0.12699999809E+01 0. -1.
       -4    1    3    3    0  502  0.88645758909E+03  0.63981612240E+03 -0.48422391513E+03  0.11956781091E+04  0.12699999809E+01 0.  1.
</event>
<event>
 5   0  0.1015219E-06  0.2480817E+04  0.7818609E-02  0.8409852E-01
       -2   -1    0    0    0  501  0.00000000000E+00  0.00000000000E+00  0.83582631678E+03  0.83582631678E+03  0.25500000920E-02 0. -1.
        2   -1    0    0  501    0  0.00000000000E+00  0.00000000000E+00 -0.18408285390E+04  0.18408285390E+04  0.25500000920E-02 0.  1.
    10030    2    1    2    0    0  0.00000000000E+00  0.00000000000E+00 -0.10050022222E+04  0.26766548558E+04  0.24808167507E+04 0.  0.
        3    1    3    3  502    0  0.38528363950E+03  0.25695530511E+03  0.73905171051E+03  0.87216222843E+03  0.10100000352E+00 0. -1.
       -3    1    3    3    0  502 -0.38528363950E+03 -0.25695530511E+03 -0.17440539328E+04  0.18044926274E+04  0.10100000352E+00 0.  1.
</event>
<event>
 5   0  0.4316671E-07  0.3883947E+04  0.7818609E-02  0.8028376E-01
        1   -1    0    0  501    0  0.00000000000E+00  0.00000000000E+00  0.13503639381E+04  0.13503639381E+04  0.50400001928E-02 0. -1.
       -1   -1    0    0    0  501  0.00000000000E+00  0.00000000000E+00 -0.27927733828E+04  0.27927733828E+04  0.50400001928E-02 0.  1.
    10030    2    1    2    0    0  0.00000000000E+00  0.00000000000E+00 -0.14424094447E+04  0.41431373209E+04  0.38839466852E+04 0.  0.
        2    1    3    3  502    0 -0.10863882117E+04 -0.48090434142E+01 -0.24382810709E+04  0.26693589219E+04  0.25500000920E-02 0.  1.
       -2    1    3    3    0  502  0.10863882117E+04  0.48090434142E+01  0.99587162619E+03  0.14737783990E+04  0.25500000920E-02 0. -1.
</event>
<event>
 5   0  0.7268013E-07  0.3530436E+04  0.7818609E-02  0.8106615E-01
       -2   -1    0    0    0  501  0.00000000000E+00  0.00000000000E+00  0.15815900040E+04  0.15815900040E+04  0.25500000920E-02 0. -1.
        2   -1    0    0  501    0  0.00000000000E+00  0.00000000000E+00 -0.19701660695E+04  0.19701660695E+04  0.25500000920E-02 0.  1.
    10030    2    1    2    0    0  0.00000000000E+00  0.00000000000E+00 -0.38857606553E+03  0.35517560735E+04  0.35304362120E+04 0.  0.
        4    1    3    3  502    0  0.33240224030E+03  0.89408218839E+03 -0.16885586061E+04  0.19393571069E+04  0.12699999809E+01 0.  1.
       -4    1    3    3    0  502 -0.33240224030E+03 -0.89408218839E+03  0.12999825406E+04  0.16123989666E+04  0.12699999809E+01 0. -1.
</event>
<event>
 5   0  0.5533705E-07  0.3067894E+04  0.7818609E-02  0.8224605E-01
       -2   -1    0    0    0  501  0.00000000000E+00  0.00000000000E+00  0.20986946121E+04  0.20986946121E+04  0.25500000920E-02 0. -1.
        2   -1    0    0  501    0  0.00000000000E+00  0.00000000000E+00 -0.11211703396E+04  0.11211703396E+04  0.25500000920E-02 0.  1.
    10030    2    1    2    0    0  0.00000000000E+00  0.00000000000E+00  0.97752427253E+03  0.32198649517E+04  0.30678944903E+04 0.  0.
        1    1    3    3  502    0  0.67578825450E+03  0.13483936316E+04  0.78214258090E+03  0.16990003436E+04  0.50400001928E-02 0.  1.
       -1    1    3    3    0  502 -0.67578825450E+03 -0.13483936316E+04  0.19538169163E+03  0.15208646081E+04  0.50400001928E-02 0. -1.
</event>
<event>
 5   0  0.3471602E-07  0.3236399E+04  0.7818609E-02  0.8179270E-01
        1   -1    0    0  501    0  0.00000000000E+00  0.00000000000E+00  0.21130963868E+04  0.21130963868E+04  0.50400001928E-02 0. -1.
       -1   -1    0    0    0  501  0.00000000000E+00  0.00000000000E+00 -0.12392097002E+04  0.12392097003E+04  0.50400001928E-02 0.  1.
    10030    2    1    2    0    0  0.00000000000E+00  0.00000000000E+00  0.87388668654E+03  0.33523060870E+04  0.32363989495E+04 0.  0.
        5    1    3    3  502    0  0.40751648637E+03  0.47938675489E+03 -0.11073106293E+04  0.12735934466E+04  0.46999998093E+01 0.  1.
       -5    1    3    3    0  502 -0.40751648637E+03 -0.47938675489E+03  0.19811973158E+04  0.20787126405E+04  0.46999998093E+01 0. -1.
</event>
<event>
 5   0  0.1034683E-06  0.3968939E+04  0.7818609E-02  0.8010842E-01
       -2   -1    0    0    0  501  0.00000000000E+00  0.00000000000E+00  0.19618230091E+04  0.19618230091E+04  0.25500000920E-02 0.  1.
        2   -1    0    0  501    0  0.00000000000E+00  0.00000000000E+00 -0.20073770952E+04  0.20073770952E+04  0.25500000920E-02 0. -1.
    10030    2    1    2    0    0  0.00000000000E+00  0.00000000000E+00 -0.45554086063E+02  0.39692001043E+04  0.39689386860E+04 0.  0.
        2    1    3    3  502    0 -0.77929818143E+03  0.13173888485E+04 -0.12859119126E+04  0.19990969163E+04  0.25500000920E-02 0. -1.
       -2    1    3    3    0  502  0.77929818143E+03 -0.13173888485E+04  0.12403578265E+04  0.19701031880E+04  0.25500000920E-02 0.  1.
</event>
<event>
 5   0  0.3191750E-07  0.2737265E+04  0.7818609E-02  0.8323014E-01
       -3   -1    0    0    0  501  0.00000000000E+00  0.00000000000E+00  0.15612132406E+04  0.15612132439E+04  0.10100000352E+00 0. -1.
        3   -1    0    0  501    0  0.00000000000E+00  0.00000000000E+00 -0.11998067954E+04  0.11998067996E+04  0.10100000352E+00 0.  1.
    10030    2    1    2    0    0  0.00000000000E+00  0.00000000000E+00  0.36140644528E+03  0.27610200435E+04  0.27372645218E+04 0.  0.
        3    1    3    3  502    0  0.71913798821E+02 -0.51230000612E+03  0.14587954331E+04  0.15478071638E+04  0.10100000352E+00 0. -1.
       -3    1    3    3    0  502 -0.71913798821E+02  0.51230000612E+03 -0.10973889878E+04  0.12132128797E+04  0.10100000352E+00 0.  1.
</event>
<event>
 5   0  0.1034683E-06  0.3868103E+04  0.7818609E-02  0.8031696E-01
        2   -1    0    0  501    0  0.00000000000E+00  0.00000000000E+00  0.26537215359E+04  0.26537215359E+04  0.25500000920E-02 0. -1.
       -2   -1    0    0    0  501  0.00000000000E+00  0.00000000000E+00 -0.14095510536E+04  0.14095510536E+04  0.25500000920E-02 0.  1.
    10030    2    1    2    0    0  0.00000000000E+00  0.00000000000E+00  0.12441704823E+04  0.40632725894E+04  0.38681034044E+04 0.  0.
        2    1    3    3  502    0  0.56576058340E+03  0.24119392549E+03  0.25482608692E+04  0.26214295728E+04  0.25500000920E-02 0. -1.
       -2    1    3    3    0  502 -0.56576058340E+03 -0.24119392549E+03 -0.13040903869E+04  0.14418430167E+04  0.25500000920E-02 0.  1.
</event>
<event>
 5   0  0.5385714E-07  0.4061111E+04  0.7818609E-02  0.7992331E-01
        1   -1    0    0  501    0  0.00000000000E+00  0.00000000000E+00  0.27744535208E+04  0.27744535208E+04  0.50400001928E-02 0.  1.
       -1   -1    0    0    0  501  0.00000000000E+00  0.00000000000E+00 -0.14861147865E+04  0.14861147865E+04  0.50400001928E-02 0. -1.
    10030    2    1    2    0    0  0.00000000000E+00  0.00000000000E+00  0.12883387343E+04  0.42605683072E+04  0.40611113758E+04 0.  0.
        3    1    3    3  502    0 -0.63144384226E+03 -0.19036518600E+04  0.31150817461E+03  0.20296918690E+04  0.10100000352E+00 0.  1.
       -3    1    3    3    0  502  0.63144384226E+03  0.19036518600E+04  0.97683055972E+03  0.22308764382E+04  0.10100000352E+00 0. -1.
</event>
<event>
 5   0  0.5533705E-07  0.2189017E+04  0.7818609E-02  0.8523013E-01
        2   -1    0    0  501    0  0.00000000000E+00  0.00000000000E+00  0.10587396621E+04  0.10587396621E+04  0.25500000920E-02 0.  1.
       -2   -1    0    0    0  501  0.00000000000E+00  0.00000000000E+00 -0.11314860930E+04  0.11314860930E+04  0.25500000920E-02 0. -1.
    10030    2    1    2    0    0  0.00000000000E+00  0.00000000000E+00 -0.72746430918E+02  0.21902257550E+04  0.21890173172E+04 0.  0.
        1    1    3    3  502    0  0.90493654461E+03  0.44071891840E+02  0.57804780185E+03  0.10747054213E+04  0.50400001928E-02 0.  1.
       -1    1    3    3    0  502 -0.90493654461E+03 -0.44071891840E+02 -0.65079423277E+03  0.11155203337E+04  0.50400001928E-02 0. -1.
</event>
<event>
 5   0  0.4316671E-07  0.4017429E+04  0.7818609E-02  0.8001040E-01
        1   -1    0    0  501    0  0.00000000000E+00  0.00000000000E+00  0.25581160658E+04  0.25581160658E+04  0.50400001928E-02 0.  1.
       -1   -1    0    0    0  501  0.00000000000E+00  0.00000000000E+00 -0.15773068168E+04  0.15773068168E+04  0.50400001928E-02 0. -1.
    10030    2    1    2    0    0  0.00000000000E+00  0.00000000000E+00  0.98080924901E+03  0.41354228825E+04  0.40174289831E+04 0.  0.
        2    1    3    3  502    0  0.74430988578E+03 -0.46432506063E+03 -0.13696934871E+04  0.16265470226E+04  0.25500000920E-02 0. -1.
       -2    1    3    3    0  502 -0.74430988578E+03  0.46432506063E+03  0.23505027361E+04  0.25088758599E+04  0.25500000920E-02 0.  1.
</event>
<event>
 5   0  0.4627905E-07  0.2945105E+04  0.7818609E-02  0.8259582E-01
       -1   -1    0    0    0  501  0.00000000000E+00  0.00000000000E+00  0.16879554230E+04  0.16879554230E+04  0.50400001928E-02 0.  1.
        1   -1    0    0  501    0  0.00000000000E+00  0.00000000000E+00 -0.12846379503E+04  0.12846379503E+04  0.50400001928E-02 0. -1.
    10030    2    1    2    0    0  0.00000000000E+00  0.00000000000E+00  0.40331747270E+03  0.29725933732E+04  0.29451054954E+04 0.  0.
        1    1    3    3  502    0  0.13611690615E+04 -0.36419928411E+03 -0.23010628138E+03  0.14277153895E+04  0.50400001928E-02 0. -1.
       -1    1    3    3    0  502 -0.13611690615E+04  0.36419928411E+03  0.63342375409E+03  0.15448779838E+04  0.50400001928E-02 0.  1.
</event>
<event>
 5   0  0.1034683E-06  0.3893226E+04  0.7818609E-02  0.8026439E-01
        2   -1    0    0  501    0  0.00000000000E+00  0.00000000000E+00  0.17299994611E+04  0.17299994611E+04  0.25500000920E-02 0. -1.
       -2   -1    0    0    0  501  0.00000000000E+00  0.00000000000E+00 -0.21903490385E+04  0.21903490385E+04  0.25500000920E-02 0.  1.
    10030    2    1    2    0    0  0.00000000000E+00  0.00000000000E+00 -0.46034957734E+03  0.39203484996E+04  0.38932262488E+04 0.  0.
        2    1    3    3  502    0  0.18951765896E+04 -0.13716857605E+03 -0.65595987811E+03  0.20101723522E+04  0.25500000920E-02 0.  1.
       -2    1    3    3    0  502 -0.18951765896E+04  0.13716857605E+03  0.19561030076E+03  0.19101761473E+04  0.25500000920E-02 0. -1.
</event>
<event>
 5   0  0.3471602E-07  0.3805399E+04  0.7818609E-02  0.8044997E-01
        1   -1    0    0  501    0  0.00000000000E+00  0.00000000000E+00  0.22132686744E+04  0.22132686744E+04  0.50400001928E-02 0. -1.
       -1   -1    0    0    0  501  0.00000000000E+00  0.00000000000E+00 -0.16357098856E+04  0.16357098856E+04  0.50400001928E-02 0.  1.
    10030    2    1    2    0    0  0.00000000000E+00  0.00000000000E+00  0.57755878885E+03  0.38489785600E+04  0.38053990331E+04 0.  0.
        5    1    3    3  502    0 -0.37386299536E+03 -0.64957447831E+03  0.20576707147E+04  0.21899204100E+04  0.46999998093E+01 0. -1.
       -5    1    3    3    0  502  0.37386299536E+03  0.64957447831E+03 -0.14801119258E+04  0.16590581500E+04  0.46999998093E+01 0.  1.
</event>
<event>
 5   0  0.7268013E-07  0.3910178E+04  0.7818609E-02  0.8022916E-01
       -2   -1    0    0    0  501  0.00000000000E+00  0.00000000000E+00  0.17165550824E+04  0.17165550824E+04  0.25500000920E-02 0.  1.
        2   -1    0    0  501    0  0.00000000000E+00  0.00000000000E+00 -0.22267693437E+04  0.22267693437E+04  0.25500000920E-02 0. -1.
    10030    2    1    2    0    0  0.00000000000E+00  0.00000000000E+00 -0.51021426130E+03  0.39433244261E+04  0.39101776094E+04 0.  0.
        4    1    3    3  502    0  0.33913094474E+03 -0.65067881601E+03 -0.20826439584E+04  0.22081214165E+04  0.12699999809E+01 0. -1.
       -4    1    3    3    0  502 -0.33913094474E+03  0.65067881601E+03  0.15724296971E+04  0.17352030096E+04  0.12699999809E+01 0.  1.
</event>
<event>
 5   0  0.5533705E-07  0.3825749E+04  0.7818609E-02  0.8040652E-01
       -2   -1    0    0    0  501  0.00000000000E+00  0.00000000000E+00  0.25805353887E+04  0.25805353887E+04  0.25500000920E-02 0. -1.
        2   -1    0    0  501    0  0.00000000000E+00  0.00000000000E+00 -0.14179569086E+04  0.14179569086E+04  0.25500000920E-02 0.  1.
    10030    2    1    2    0    0  0.00000000000E+00  0.00000000000E+00  0.11625784802E+04  0.39984922973E+04  0.38257485449E+04 0.  0.
        1    1    3    3  502    0  0.65522518844E+03  0.16785975645E+04 -0.89629057087E+02  0.18041738273E+04  0.50400001928E-02 0.  1.
       -1    1    3    3    0  502 -0.65522518844E+03 -0.16785975645E+04  0.12522075373E+04  0.21943184700E+04  0.50400001928E-02 0. -1.
</event>
<event>
 5   0  0.1015219E-06  0.3873694E+04  0.7818609E-02  0.8030523E-01
       -2   -1    0    0    0  501  0.00000000000E+00  0.00000000000E+00  0.17746964450E+04  0.17746964450E+04  0.25500000920E-02 0. -1.
        2   -1    0    0  501    0  0.00000000000E+00  0.00000000000E+00 -0.21138132768E+04  0.21138132768E+04  0.25500000920E-02 0.  1.
    10030    2    1    2    0    0  0.00000000000E+00  0.00000000000E+00 -0.33911683185E+03  0.38885097218E+04  0.38736943130E+04 0.  0.
        3    1    3    3  502    0  0.48221627587E+03 -0.17317576821E+04 -0.89332897840E+03  0.20073748728E+04  0.10100000352E+00 0.  1.
       -3    1    3    3    0  502 -0.48221627587E+03  0.17317576821E+04  0.55421214655E+03  0.18811348489E+04  0.10100000352E+00 0. -1.
</event>
<event>
 5   0  0.3977376E-07  0.4025243E+04  0.7818609E-02  0.7999474E-01
       -1   -1    0    0    0  501  0.00000000000E+00  0.00000000000E+00  0.20162638670E+04  0.20162638670E+04  0.50400001928E-02 0.  1.
        1   -1    0    0  501    0  0.00000000000E+00  0.00000000000E+00 -0.20089853668E+04  0.20089853668E+04  0.50400001928E-02 0. -1.
    10030    2    1    2    0    0  0.00000000000E+00  0.00000000000E+00  0.72785002363E+01  0.40252492338E+04  0.40252426532E+04 0.  0.
        4    1    3    3  502    0  0.30720255858E+03 -0.18222462269E+04  0.80094116682E+03  0.20140663070E+04  0.12699999809E+01 0.  1.
       -4    1    3    3    0  502 -0.30720255858E+03  0.18222462269E+04 -0.79366266658E+03  0.20111829267E+04  0.12699999809E+01 0. -1.
</event>
<event>
 5   0  0.4627905E-07  0.3641751E+04  0.7818609E-02  0.8080994E-01
       -1   -1    0    0    0  501  0.00000000000E+00  0.00000000000E+00  0.18696513956E+04  0.18696513956E+04  0.50400001928E-02 0. -1.
        1   -1    0    0  501    0  0.00000000000E+00  0.00000000000E+00 -0.17733725653E+04  0.17733725653E+04  0.50400001928E-02 0.  1.
    10030    2    1    2    0    0  0.00000000000E+00  0.00000000000E+00  0.96278830299E+02  0.36430239609E+04  0.36417514971E+04 0.  0.
        1    1    3    3  502    0  0.14795656836E+04  0.85997319512E+03 -0.57410685267E+03  0.18050670865E+04  0.50400001928E-02 0.  1.
       -1    1    3    3    0  502 -0.14795656836E+04 -0.85997319512E+03  0.67038568297E+03  0.18379568745E+04  0.50400001928E-02 0. -1.
</event>
<event>
 5   0  0.3471602E-07  0.3931863E+04  0.7818609E-02  0.8018435E-01
       -1   -1    0    0    0  501  0.00000000000E+00  0.00000000000E+00  0.18410881501E+04  0.18410881502E+04  0.50400001928E-02 0.  1.
        1   -1    0    0  501    0  0.00000000000E+00  0.00000000000E+00 -0.20992405999E+04  0.20992405999E+04  0.50400001928E-02 0. -1.
    10030    2    1    2    0    0  0.00000000000E+00  0.00000000000E+00 -0.25815244975E+03  0.39403287501E+04  0.39318631679E+04 0.  0.
        5    1    3    3  502    0  0.16157640573E+04  0.10999899832E+04  0.81598783172E+02  0.19563619050E+04  0.46999998093E+01 0. -1.
       -5    1    3    3    0  502 -0.16157640573E+04 -0.10999899832E+04 -0.33975123292E+03  0.19839668450E+04  0.46999998093E+01 0.  1.
</event>
<event>
 5   0  0.7268013E-07  0.3925554E+04  0.7818609E-02  0.8019735E-01
        2   -1    0    0  501    0  0.00000000000E+00  0.00000000000E+00  0.21167710662E+04  0.21167710662E+04  0.25500000920E-02 0. -1.
       -2   -1    0    0    0  501  0.00000000000E+00  0.00000000000E+00 -0.18199862213E+04  0.18199862213E+04  0.25500000920E-02 0.  1.
    10030    2    1    2    0    0  0.00000000000E+00  0.00000000000E+00  0.29678484490E+03  0.39367572875E+04  0.39255543171E+04 0.  0.
        4    1    3    3  502    0  0.10359105663E+04  0.85627316044E+03 -0.12861366985E+04  0.18602321487E+04  0.12699999809E+01 0.  1.
       -4    1    3    3    0  502 -0.10359105663E+04 -0.85627316044E+03  0.15829215434E+04  0.20765251388E+04  0.12699999809E+01 0. -1.
</event>
<event>
 5   0  0.7268013E-07  0.2826792E+04  0.7818609E-02  0.8294998E-01
       -2   -1    0    0    0  501  0.00000000000E+00  0.00000000000E+00  0.14486014477E+04  0.14486014477E+04  0.25500000920E-02 0. -1.
        2   -1    0    0  501    0  0.00000000000E+00  0.00000000000E+00 -0.13790465361E+04  0.13790465361E+04  0.25500000920E-02 0.  1.
    10030    2    1    2    0    0  0.00000000000E+00  0.00000000000E+00  0.69554911584E+02  0.28276479837E+04  0.28267923932E+04 0.  0.
        4    1    3    3  502    0 -0.82821010100E+03 -0.63209913985E+03  0.99016124431E+03  0.14373246664E+04  0.12699999809E+01 0. -1.
       -4    1    3    3    0  502  0.82821010100E+03  0.63209913985E+03 -0.92060633273E+03  0.13903233173E+04  0.12699999809E+01 0.  1.
</event>
<event>
 5   0  0.1015219E-06  0.3833941E+04  0.7818609E-02  0.8038910E-01
       -2   -1    0    0    0  501  0.00000000000E+00  0.00000000000E+00  0.17900623011E+04  0.17900623011E+04  0.25500000920E-02 0.  1.
        2   -1    0    0  501    0  0.00000000000E+00  0.00000000000E+00 -0.20528754932E+04  0.20528754932E+04  0.25500000920E-02 0. -1.
    10030    2    1    2    0    0  0.00000000000E+00  0.00000000000E+00 -0.26281319208E+03  0.38429377943E+04  0.38339405468E+04 0.  0.
        3    1    3    3  502    0  0.26351555346E+03 -0.64239430671E+03 -0.19224025176E+04  0.20439526271E+04  0.10100000352E+00 0. -1.
       -3    1    3    3    0  502 -0.26351555346E+03  0.64239430671E+03  0.16595893255E+04  0.17989851672E+04  0.10100000352E+00 0.  1.
</event>
<event>
 5   0  0.7268013E-07  0.2843402E+04  0.7818609E-02  0.8289919E-01
       -2   -1    0    0    0  501  0.00000000000E+00  0.00000000000E+00  0.65957276673E+03  0.65957276673E+03  0.25500000920E-02 0. -1.
        2   -1    0    0  501    0  0.00000000000E+00  0.00000000000E+00 -0.30644592977E+04  0.30644592977E+04  0.25500000920E-02 0.  1.
    10030    2    1    2    0    0  0.00000000000E+00  0.00000000000E+00 -0.24048865309E+04  0.37240320644E+04  0.28434021154E+04 0.  0.
        4    1    3    3  502    0 -0.12891747228E+04 -0.33228612721E+02 -0.19862548104E+04  0.23681818747E+04  0.12699999809E+01 0.  1.
       -4    1    3    3    0  502  0.12891747228E+04  0.33228612721E+02 -0.41863172050E+03  0.13558501897E+04  0.12699999809E+01 0. -1.
</event>
<event>
 5   0  0.1034683E-06  0.3292928E+04  0.7818609E-02  0.8164697E-01
        2   -1    0    0  501    0  0.00000000000E+00  0.00000000000E+00  0.16567749703E+04  0.16567749703E+04  0.25500000920E-02 0. -1.
       -2   -1    0    0    0  501  0.00000000000E+00  0.00000000000E+00 -0.16362167908E+04  0.16362167908E+04  0.25500000920E-02 0.  1.
    10030    2    1    2    0    0  0.00000000000E+00  0.00000000000E+00  0.20558179579E+02  0.32929917611E+04  0.32929275880E+04 0.  0.
        2    1    3    3  502    0 -0.86228014671E+03 -0.19464029364E+03  0.13993458026E+04  0.16551678375E+04  0.25500000920E-02 0. -1.
       -2    1    3    3    0  502  0.86228014671E+03  0.19464029364E+03 -0.13787876230E+04  0.16378239236E+04  0.25500000920E-02 0.  1.
</event>
<event>
 5   0  0.1015219E-06  0.2209731E+04  0.7818609E-02  0.8514389E-01
       -2   -1    0    0    0  501  0.00000000000E+00  0.00000000000E+00  0.10333586033E+04  0.10333586033E+04  0.25500000920E-02 0.  1.
        2   -1    0    0  501    0  0.00000000000E+00  0.00000000000E+00 -0.11813204901E+04  0.11813204901E+04  0.25500000920E-02 0. -1.
    10030    2    1    2    0    0  0.00000000000E+00  0.00000000000E+00 -0.14796188679E+03  0.22146790933E+04  0.22097309263E+04 0.  0.
        3    1    3    3  502    0 -0.65965061299E+03  0.52479133548E+03 -0.78985120316E+03  0.11551665726E+04  0.10100000352E+00 0. -1.
       -3    1    3    3    0  502  0.65965061299E+03 -0.52479133548E+03  0.64188931637E+03  0.10595125208E+04  0.10100000352E+00 0.  1.
</event>
<event>
 5   0  0.1015219E-06  0.2537765E+04  0.7818609E-02  0.8389654E-01
        2   -1    0    0  501    0  0.00000000000E+00  0.00000000000E+00  0.28985669796E+04  0.28985669796E+04  0.25500000920E-02 0.  1.
       -2   -1    0    0    0  501  0.00000000000E+00  0.00000000000E+00 -0.55546863662E+03  0.55546863663E+03  0.25500000920E-02 0. -1.
    10030    2    1    2    0    0  0.00000000000E+00  0.00000000000E+00  0.23430983430E+04  0.34540356162E+04  0.25377651966E+04 0.  0.
        3    1    3    3  502    0  0.86879159898E+02 -0.32336940734E+03  0.28373521649E+04  0.28570409657E+04  0.10100000352E+00 0.  1.
       -3    1    3    3    0  502 -0.86879159898E+02  0.32336940734E+03 -0.49425382192E+03  0.59699465049E+03  0.10100000352E+00 0. -1.
</event>
<event>
 5   0  0.1035864E-06  0.3910096E+04  0.7818609E-02  0.8022933E-01
        2   -1    0    0  501    0  0.00000000000E+00  0.00000000000E+00  0.20174977610E+04  0.20174977610E+04  0.25500000920E-02 0. -1.
       -2   -1    0    0    0  501  0.00000000000E+00  0.00000000000E+00 -0.18945315680E+04  0.18945315680E+04  0.25500000920E-02 0.  1.
    10030    2    1    2    0    0  0.00000000000E+00  0.00000000000E+00  0.12296619307E+03  0.39120293290E+04  0.39100962630E+04 0.  0.
        5    1    3    3  502    0  0.26579377916E+03  0.19275777163E+04 -0.12831815221E+03  0.19500486722E+04  0.46999998093E+01 0. -1.
       -5    1    3    3    0  502 -0.26579377916E+03 -0.19275777163E+04  0.25128434528E+03  0.19619806568E+04  0.46999998093E+01 0.  1.
</event>
<event>
 5   0  0.1035864E-06  0.1990169E+04  0.7818609E-02  0.8611231E-01
       -2   -1    0    0    0  501  0.00000000000E+00  0.00000000000E+00  0.91995464605E+03  0.91995464605E+03  0.25500000920E-02 0.  1.
        2   -1    0    0  501    0  0.00000000000E+00  0.00000000000E+00 -0.10763499913E+04  0.10763499913E+04  0.25500000920E-02 0. -1.
    10030    2    1    2    0    0  0.00000000000E+00  0.00000000000E+00 -0.15639534524E+03  0.19963046373E+04  0.19901690132E+04 0.  0.
        5    1    3    3  502    0 -0.89198830137E+03  0.36626083826E+03  0.16828525304E+03  0.97884224869E+03  0.46999998093E+01 0.  1.
       -5    1    3    3    0  502  0.89198830137E+03 -0.36626083826E+03 -0.32468059828E+03  0.10174623887E+04  0.46999998093E+01 0. -1.
</event>
<event>
 5   0  0.1035864E-06  0.3115796E+04  0.7818609E-02  0.8211416E-01
       -2   -1    0    0    0  501  0.00000000000E+00  0.00000000000E+00  0.26580908712E+04  0.26580908712E+04  0.25500000920E-02 0. -1.
        2   -1    0    0  501    0  0.00000000000E+00  0.00000000000E+00 -0.91307866254E+03  0.91307866254E+03  0.25500000920E-02 0.  1.
    10030    2    1    2    0    0  0.00000000000E+00  0.00000000000E+00  0.17450122087E+04  0.35711695338E+04  0.31157959225E+04 0.  0.
        5    1    3    3  502    0  0.96611092717E+03 -0.10698258016E+04  0.15497308321E+04  0.21165030856E+04  0.46999998093E+01 0. -1.
       -5    1    3    3    0  502 -0.96611092717E+03  0.10698258016E+04  0.19528137663E+03  0.14546664482E+04  0.46999998093E+01 0.  1.
</event>
<event>
 5   0  0.3471602E-07  0.3966580E+04  0.7818609E-02  0.8011323E-01
        1   -1    0    0  501    0  0.00000000000E+00  0.00000000000E+00  0.15604625468E+04  0.15604625468E+04  0.50400001928E-02 0. -1.
       -1   -1    0    0    0  501  0.00000000000E+00  0.00000000000E+00 -0.25206877178E+04  0.25206877178E+04  0.50400001928E-02 0.  1.
    10030    2    1    2    0    0  0.00000000000E+00  0.00000000000E+00 -0.96022517101E+03  0.40811502646E+04  0.39665797740E+04 0.  0.
        5    1    3    3  502    0 -0.13204849227E+03 -0.11725181627E+04 -0.21202649544E+04  0.24264750593E+04  0.46999998093E+01 0.  1.
       -5    1    3    3    0  502  0.13204849227E+03  0.11725181627E+04  0.11600397834E+04  0.16546752054E+04  0.46999998093E+01 0. -1.
</event>
<event>
 5   0  0.5533705E-07  0.3896443E+04  0.7818609E-02  0.8025769E-01
       -2   -1    0    0    0  501  0.00000000000E+00  0.00000000000E+00  0.14818019701E+04  0.14818019701E+04  0.25500000920E-02 0. -1.
        2   -1    0    0  501    0  0.00000000000E+00  0.00000000000E+00 -0.25614536309E+04  0.25614536309E+04  0.25500000920E-02 0.  1.
    10030    2    1    2    0    0  0.00000000000E+00  0.00000000000E+00 -0.10796516608E+04  0.40432556010E+04  0.38964430120E+04 0.  0.
        1    1    3    3  502    0 -0.11744637098E+04 -0.26551246611E+02  0.10729207320E+04  0.15909836176E+04  0.50400001928E-02 0. -1.
       -1    1    3    3    0  502  0.11744637098E+04  0.26551246611E+02 -0.21525723928E+04  0.24522719834E+04  0.50400001928E-02 0.  1.
</event>
<event>
 5   0  0.4627905E-07  0.2252250E+04  0.7818609E-02  0.8496990E-01
       -1   -1    0    0    0  501  0.00000000000E+00  0.00000000000E+00  0.11752851190E+04  0.11752851190E+04  0.50400001928E-02 0. -1.
        1   -1    0    0  501    0  0.00000000000E+00  0.00000000000E+00 -0.10790207598E+04  0.10790207598E+04  0.50400001928E-02 0.  1.
    10030    2    1    2    0    0  0.00000000000E+00  0.00000000000E+00  0.96264359207E+02  0.22543058788E+04  0.22522495795E+04 0.  0.
        1    1    3    3  502    0  0.99874384383E+02  0.10532050233E+04  0.43441370736E+03  0.11436481028E+04  0.50400001928E-02 0. -1.
       -1    1    3    3    0  502 -0.99874384383E+02 -0.10532050233E+04 -0.33814934815E+03  0.11106577761E+04  0.50400001928E-02 0.  1.
</event>
<event>
 5   0  0.1215559E-06  0.1982403E+04  0.7818609E-02  0.8614892E-01
        2   -1    0    0  501    0  0.00000000000E+00  0.00000000000E+00  0.11814030186E+04  0.11814030186E+04  0.25500000920E-02 0.  1.
       -2   -1    0    0    0  501  0.00000000000E+00  0.00000000000E+00 -0.83162156959E+03  0.83162156959E+03  0.25500000920E-02 0. -1.
    10030    2    1    2    0    0  0.00000000000E+00  0.00000000000E+00  0.34978144899E+03  0.20130245882E+04  0.19824028174E+04 0.  0.
        5    1    3    3  502    0  0.48355951342E+03  0.75436060535E+02 -0.70036182333E+03  0.85442915202E+03  0.46999998093E+01 0. -1.
       -5    1    3    3    0  502 -0.48355951342E+03 -0.75436060535E+02  0.10501432723E+04  0.11585954361E+04  0.46999998093E+01 0.  1.
</event>
<event>
 5   0  0.3471602E-07  0.3832311E+04  0.7818609E-02  0.8039256E-01
       -1   -1    0    0    0  501  0.00000000000E+00  0.00000000000E+00  0.16867933249E+04  0.16867933249E+04  0.50400001928E-02 0.  1.
        1   -1    0    0  501    0  0.00000000000E+00  0.00000000000E+00 -0.21767055260E+04  0.21767055260E+04  0.50400001928E-02 0. -1.
    10030    2    1    2    0    0  0.00000000000E+00  0.00000000000E+00 -0.48991220110E+03  0.38634988509E+04  0.38323112356E+04 0.  0.
        5    1    3    3  502    0  0.56718188168E+03 -0.50485669657E+03 -0.20185499692E+04  0.21566505603E+04  0.46999998093E+01 0. -1.
       -5    1    3    3    0  502 -0.56718188168E+03  0.50485669657E+03  0.15286377681E+04  0.17068482906E+04  0.46999998093E+01 0.  1.
</event>
<event>
 5   0  0.1034683E-06  0.3852829E+04  0.7818609E-02  0.8034912E-01
        2   -1    0    0  501    0  0.00000000000E+00  0.00000000000E+00  0.22986938028E+04  0.22986938028E+04  0.25500000920E-02 0.  1.
       -2   -1    0    0    0  501  0.00000000000E+00  0.00000000000E+00 -0.16144264374E+04  0.16144264374E+04  0.25500000920E-02 0. -1.
    10030    2    1    2    0    0  0.00000000000E+00  0.00000000000E+00  0.68426736540E+03  0.39131202402E+04  0.38528285956E+04 0.  0.
        2    1    3    3  502    0 -0.98164710547E+03 -0.49709698502E+03  0.19481230145E+04  0.22373912782E+04  0.25500000920E-02 0.  1.
       -2    1    3    3    0  502  0.98164710547E+03  0.49709698502E+03 -0.12638556491E+04  0.16757289620E+04  0.25500000920E-02 0. -1.
</event>
<event>
 5   0  0.7268013E-07  0.2500763E+04  0.7818609E-02  0.8402714E-01
        2   -1    0    0  501    0  0.00000000000E+00  0.00000000000E+00  0.15474946327E+04  0.15474946327E+04  0.25500000920E-02 0.  1.
       -2   -1    0    0    0  501  0.00000000000E+00  0.00000000000E+00 -0.10103130563E+04  0.10103130563E+04  0.25500000920E-02 0. -1.
    10030    2    1    2    0    0  0.00000000000E+00  0.00000000000E+00  0.53718157637E+03  0.25578076891E+04  0.25007631092E+04 0.  0.
        4    1    3    3  502    0 -0.46538782217E+03 -0.34226779234E+03  0.14028134972E+04  0.15171092207E+04  0.12699999809E+01 0.  1.
       -4    1    3    3    0  502  0.46538782217E+03  0.34226779234E+03 -0.86563192086E+03  0.10406984683E+04  0.12699999809E+01 0. -1.
</event>
<event>
 5   0  0.5385714E-07  0.3923777E+04  0.7818609E-02  0.8020102E-01
       -1   -1    0    0    0  501  0.00000000000E+00  0.00000000000E+00  0.21192974671E+04  0.21192974671E+04  0.50400001928E-02 0.  1.
        1   -1    0    0  501    0  0.00000000000E+00  0.00000000000E+00 -0.18161712397E+04  0.18161712397E+04  0.50400001928E-02 0. -1.
    10030    2    1    2    0    0  0.00000000000E+00  0.00000000000E+00  0.30312622741E+03  0.39354687067E+04  0.39237773168E+04 0.  0.
        3    1    3    3  502    0  0.14645062908E+04  0.10754889809E+04  0.89373542190E+03  0.20248995626E+04  0.10100000352E+00 0.  1.
       -3    1    3    3    0  502 -0.14645062908E+04 -0.10754889809E+04 -0.59060919449E+03  0.19105691442E+04  0.10100000352E+00 0. -1.
</event>
<event>
 5   0  0.1034683E-06  0.3865617E+04  0.7818609E-02  0.8032218E-01
       -2   -1    0    0    0  501  0.00000000000E+00  0.00000000000E+00  0.27603338536E+04  0.27603338536E+04  0.25500000920E-02 0.  1.
        2   -1    0    0  501    0  0.00000000000E+00  0.00000000000E+00 -0.13533687002E+04  0.13533687002E+04  0.25500000920E-02 0. -1.
    10030    2    1    2    0    0  0.00000000000E+00  0.00000000000E+00  0.14069651534E+04  0.41137025537E+04  0.38656173837E+04 0.  0.
        2    1    3    3  502    0 -0.97749910885E+03  0.27703842687E+03  0.24532356993E+04  0.26553003962E+04  0.25500000920E-02 0.  1.
       -2    1    3    3    0  502  0.97749910885E+03 -0.27703842687E+03 -0.10462705459E+04  0.14584021575E+04  0.25500000920E-02 0. -1.
</event>
<event>
 5   0  0.3471602E-07  0.3801135E+04  0.7818609E-02  0.8045911E-01
       -1   -1    0    0    0  501  0.00000000000E+00  0.00000000000E+00  0.17027658932E+04  0.17027658933E+04  0.50400001928E-02 0. -1.
        1   -1    0    0  501    0  0.00000000000E+00  0.00000000000E+00 -0.21213463970E+04  0.21213463970E+04  0.50400001928E-02 0.  1.
    10030    2    1    2    0    0  0.00000000000E+00  0.00000000000E+00 -0.41858050375E+03  0.38241122903E+04  0.38011347214E+04 0.  0.
        5    1    3    3  502    0 -0.47852436222E+03 -0.51238974503E+03 -0.19864922829E+04  0.21065855064E+04  0.46999998093E+01 0.  1.
       -5    1    3    3    0  502  0.47852436222E+03  0.51238974503E+03  0.15679117791E+04  0.17175267838E+04  0.46999998093E+01 0. -1.
</event>
<event>
 5   0  0.3977376E-07  0.3807573E+04  0.7818609E-02  0.8044532E-01
        1   -1    0    0  501    0  0.00000000000E+00  0.00000000000E+00  0.28942272292E+04  0.28942272292E+04  0.50400001928E-02 0.  1.
       -1   -1    0    0    0  501  0.00000000000E+00  0.00000000000E+00 -0.12522867528E+04  0.12522867528E+04  0.50400001928E-02 0. -1.
    10030    2    1    2    0    0  0.00000000000E+00  0.00000000000E+00  0.16419404764E+04  0.41465139820E+04  0.38075726750E+04 0.  0.
        4    1    3    3  502    0 -0.78918275928E+03 -0.53323415179E+03  0.26161169529E+04  0.27841008624E+04  0.12699999809E+01 0.  1.
       -4    1    3    3    0  502  0.78918275928E+03  0.53323415179E+03 -0.97417647652E+03  0.13624131196E+04  0.12699999809E+01 0. -1.
</event>
<event>
 5   0  0.3191750E-07  0.3092371E+04  0.7818609E-02  0.8217835E-01
        4   -1    0    0  501    0  0.00000000000E+00  0.00000000000E+00  0.22883741202E+04  0.22883744727E+04  0.12699999809E+01 0. -1.
       -4   -1    0    0    0  501  0.00000000000E+00  0.00000000000E+00 -0.10447101734E+04  0.10447109454E+04  0.12699999809E+01 0.  1.
    10030    2    1    2    0    0  0.00000000000E+00  0.00000000000E+00  0.12436639468E+04  0.33330854180E+04  0.30923709983E+04 0.  0.
        5    1    3    3  502    0 -0.10821321701E+04  0.61474722904E+03  0.16107144724E+04  0.20355214052E+04  0.46999998093E+01 0. -1.
       -5    1    3    3    0  502  0.10821321701E+04 -0.61474722904E+03 -0.36705052563E+03  0.12975640129E+04  0.46999998093E+01 0.  1.
</event>
<event>
 5   0  0.3471602E-07  0.2653990E+04  0.7818609E-02  0.8350090E-01
       -1   -1    0    0    0  501  0.00000000000E+00  0.00000000000E+00  0.11027498211E+04  0.11027498211E+04  0.50400001928E-02 0. -1.
        1   -1    0    0  501    0  0.00000000000E+00  0.00000000000E+00 -0.15968408469E+04  0.15968408469E+04  0.50400001928E-02 0.  1.
    10030    2    1    2    0    0  0.00000000000E+00  0.00000000000E+00 -0.49409102582E+03  0.26995906680E+04  0.26539901720E+04 0.  0.
        5    1    3    3  502    0 -0.71665464455E+03  0.88227051509E+03  0.44948177377E+03  0.12223138289E+04  0.46999998093E+01 0. -1.
       -5    1    3    3    0  502  0.71665464455E+03 -0.88227051509E+03 -0.94357279959E+03  0.14772768391E+04  0.46999998093E+01 0.  1.
</event>
<event>
 5   0  0.4627905E-07  0.3778116E+04  0.7818609E-02  0.8050868E-01
       -1   -1    0    0    0  501  0.00000000000E+00  0.00000000000E+00  0.33661152130E+04  0.33661152130E+04  0.50400001928E-02 0. -1.
        1   -1    0    0  501    0  0.00000000000E+00  0.00000000000E+00 -0.10601358048E+04  0.10601358048E+04  0.50400001928E-02 0.  1.
    10030    2    1    2    0    0  0.00000000000E+00  0.00000000000E+00  0.23059794082E+04  0.44262510178E+04  0.37781155410E+04 0.  0.
        1    1    3    3  502    0 -0.15898727810E+04 -0.69256330487E+03  0.20306361229E+04  0.26703599859E+04  0.50400001928E-02 0.  1.
       -1    1    3    3    0  502  0.15898727810E+04  0.69256330487E+03  0.27534328533E+03  0.17558910319E+04  0.50400001928E-02 0. -1.
</event>
<event>
 5   0  0.5533705E-07  0.2725949E+04  0.7818609E-02  0.8326634E-01
        2   -1    0    0  501    0  0.00000000000E+00  0.00000000000E+00  0.26399440973E+04  0.26399440973E+04  0.25500000920E-02 0. -1.
       -2   -1    0    0    0  501  0.00000000000E+00  0.00000000000E+00 -0.70368885040E+03  0.70368885041E+03  0.25500000920E-02 0.  1.
    10030    2    1    2    0    0  0.00000000000E+00  0.00000000000E+00  0.19362552469E+04  0.33436329477E+04  0.27259488087E+04 0.  0.
        1    1    3    3  502    0 -0.12731153294E+04  0.89537557764E+02  0.38133387603E+03  0.13320116896E+04  0.50400001928E-02 0.  1.
       -1    1    3    3    0  502  0.12731153294E+04 -0.89537557764E+02  0.15549213709E+04  0.20116212581E+04  0.50400001928E-02 0. -1.
</event>
<event>
 5   0  0.5533705E-07  0.3984245E+04  0.7818609E-02  0.8007732E-01
        2   -1    0    0  501    0  0.00000000000E+00  0.00000000000E+00  0.31073456075E+04  0.31073456075E+04  0.25500000920E-02 0.  1.
       -2   -1    0    0    0  501  0.00000000000E+00  0.00000000000E+00 -0.12771518254E+04  0.12771518254E+04  0.25500000920E-02 0. -1.
    10030    2    1    2    0    0  0.00000000000E+00  0.00000000000E+00  0.18301937822E+04  0.43844974329E+04  0.39842450300E+04 0.  0.
        1    1    3    3  502    0 -0.17225253308E+04  0.11147914293E+03 -0.17930978274E+03  0.17354172733E+04  0.50400001928E-02 0. -1.
       -1    1    3    3    0  502  0.17225253308E+04 -0.11147914293E+03  0.20095035649E+04  0.26490801596E+04  0.50400001928E-02 0.  1.
</event>
<event>
 5   0  0.3471602E-07  0.3104743E+04  0.7818609E-02  0.8214437E-01
        1   -1    0    0  501    0  0.00000000000E+00  0.00000000000E+00  0.12166595973E+04  0.12166595973E+04  0.50400001928E-02 0.  1.
       -1   -1    0    0    0  501  0.00000000000E+00  0.00000000000E+00 -0.19807163701E+04  0.19807163702E+04  0.50400001928E-02 0. -1.
    10030    2    1    2    0    0  0.00000000000E+00  0.00000000000E+00 -0.76405677282E+03  0.31973759675E+04  0.31047431980E+04 0.  0.
        5    1    3    3  502    0 -0.53740671233E+03 -0.96298446768E+03 -0.15071873347E+04  0.18675601225E+04  0.46999998093E+01 0. -1.
       -5    1    3    3    0  502  0.53740671233E+03  0.96298446768E+03  0.74313056187E+03  0.13298158449E+04  0.46999998093E+01 0.  1.
</event>
<event>
 5   0  0.4627905E-07  0.2349581E+04  0.7818609E-02  0.8458624E-01
        1   -1    0    0  501    0  0.00000000000E+00  0.00000000000E+00  0.64325175693E+03  0.64325175695E+03  0.50400001928E-02 0.  1.
       -1   -1    0    0    0  501  0.00000000000E+00  0.00000000000E+00 -0.21455565513E+04  0.21455565513E+04  0.50400001928E-02 0. -1.
    10030    2    1    2    0    0  0.00000000000E+00  0.00000000000E+00 -0.15023047944E+04  0.27888083083E+04  0.23495812574E+04 0.  0.
        1    1    3    3  502    0 -0.97840077771E+03 -0.15075692145E+02  0.20483267774E+02  0.97873128212E+03  0.50400001928E-02 0.  1.
       -1    1    3    3    0  502  0.97840077771E+03  0.15075692145E+02 -0.15227880622E+04  0.18100770261E+04  0.50400001928E-02 0. -1.
</event>
<event>
 5   0  0.5385714E-07  0.3825281E+04  0.7818609E-02  0.8040751E-01
        1   -1    0    0  501    0  0.00000000000E+00  0.00000000000E+00  0.18300615893E+04  0.18300615893E+04  0.50400001928E-02 0.  1.
       -1   -1    0    0    0  501  0.00000000000E+00  0.00000000000E+00 -0.19989460835E+04  0.19989460835E+04  0.50400001928E-02 0. -1.
    10030    2    1    2    0    0  0.00000000000E+00  0.00000000000E+00 -0.16888449420E+03  0.38290076727E+04  0.38252813995E+04 0.  0.
        3    1    3    3  502    0 -0.76972679997E+03 -0.11828015125E+02  0.16681417186E+04  0.18372033236E+04  0.10100000352E+00 0.  1.
       -3    1    3    3    0  502  0.76972679997E+03  0.11828015125E+02 -0.18370262128E+04  0.19918043492E+04  0.10100000352E+00 0. -1.
</event>
<event>
 5   0  0.1034683E-06  0.3843588E+04  0.7818609E-02  0.8036865E-01
        2   -1    0    0  501    0  0.00000000000E+00  0.00000000000E+00  0.23413326902E+04  0.23413326902E+04  0.25500000920E-02 0. -1.
       -2   -1    0    0    0  501  0.00000000000E+00  0.00000000000E+00 -0.15774316636E+04  0.15774316636E+04  0.25500000920E-02 0.  1.
    10030    2    1    2    0    0  0.00000000000E+00  0.00000000000E+00  0.76390102663E+03  0.39187643538E+04  0.38435880739E+04 0.  0.
        2    1    3    3  502    0  0.11327365344E+04  0.58340405553E+03 -0.10848825700E+04  0.16734463060E+04  0.25500000920E-02 0.  1.
       -2    1    3    3    0  502 -0.11327365344E+04 -0.58340405553E+03  0.18487835967E+04  0.22453180478E+04  0.25500000920E-02 0. -1.
</event>
<event>
 5   0  0.1034683E-06  0.3164410E+04  0.7818609E-02  0.8198280E-01
        2   -1    0    0  501    0  0.00000000000E+00  0.00000000000E+00  0.16805361893E+04  0.16805361893E+04  0.25500000920E-02 0. -1.
       -2   -1    0    0    0  501  0.00000000000E+00  0.00000000000E+00 -0.14896270338E+04  0.14896270338E+04  0.25500000920E-02 0.  1.
    10030    2    1    2    0    0  0.00000000000E+00  0.00000000000E+00  0.19090915551E+03  0.31701632231E+04  0.31644096694E+04 0.  0.
        2    1    3    3  502    0 -0.13886446554E+04 -0.16064469038E+03  0.83790356094E+03  0.16297923405E+04  0.25500000920E-02 0. -1.
       -2    1    3    3    0  502  0.13886446554E+04  0.16064469038E+03 -0.64699440543E+03  0.15403708827E+04  0.25500000920E-02 0.  1.
</event>
<event>
 5   0  0.3977376E-07  0.2202976E+04  0.7818609E-02  0.8517191E-01
        1   -1    0    0  501    0  0.00000000000E+00  0.00000000000E+00  0.10331838526E+04  0.10331838526E+04  0.50400001928E-02 0.  1.
       -1   -1    0    0    0  501  0.00000000000E+00  0.00000000000E+00 -0.11743072695E+04  0.11743072695E+04  0.50400001928E-02 0. -1.
    10030    2    1    2    0    0  0.00000000000E+00  0.00000000000E+00 -0.14112341687E+03  0.22074911221E+04  0.22029755412E+04 0.  0.
        4    1    3    3  502    0 -0.58525352146E+03  0.59732126181E+03 -0.78894076727E+03  0.11496710492E+04  0.12699999809E+01 0. -1.
       -4    1    3    3    0  502  0.58525352146E+03 -0.59732126181E+03  0.64781735040E+03  0.10578200729E+04  0.12699999809E+01 0.  1.
</event>
<event>
 5   0  0.5533705E-07  0.3812905E+04  0.7818609E-02  0.8043391E-01
        2   -1    0    0  501    0  0.00000000000E+00  0.00000000000E+00  0.16518276473E+04  0.16518276473E+04  0.25500000920E-02 0. -1.
       -2   -1    0    0    0  501  0.00000000000E+00  0.00000000000E+00 -0.22003267191E+04  0.22003267191E+04  0.25500000920E-02 0.  1.
    10030    2    1    2    0    0  0.00000000000E+00  0.00000000000E+00 -0.54849907176E+03  0.38521543664E+04  0.38129046711E+04 0.  0.
        1    1    3    3  502    0 -0.11496087414E+04  0.11473197086E+04 -0.12828334576E+04  0.20696870420E+04  0.50400001928E-02 0.  1.
       -1    1    3    3    0  502  0.11496087414E+04 -0.11473197086E+04  0.73433438583E+03  0.17824673243E+04  0.50400001928E-02 0. -1.
</event>
<event>
 5   0  0.1015219E-06  0.3844451E+04  0.7818609E-02  0.8036683E-01
       -2   -1    0    0    0  501  0.00000000000E+00  0.00000000000E+00  0.14605067456E+04  0.14605067456E+04  0.25500000920E-02 0.  1.
        2   -1    0    0  501    0  0.00000000000E+00  0.00000000000E+00 -0.25299099747E+04  0.25299099747E+04  0.25500000920E-02 0. -1.
    10030    2    1    2    0    0  0.00000000000E+00  0.00000000000E+00 -0.10694032291E+04  0.39904167202E+04  0.38444508496E+04 0.  0.
        3    1    3    3  502    0  0.17372262073E+04  0.75231168953E+03 -0.18884982578E+03  0.19025225467E+04  0.10100000352E+00 0.  1.
       -3    1    3    3    0  502 -0.17372262073E+04 -0.75231168953E+03 -0.88055340334E+03  0.20878941736E+04  0.10100000352E+00 0. -1.
</event>
<event>
 5   0  0.1015219E-06  0.3951608E+04  0.7818609E-02  0.8014380E-01
       -2   -1    0    0    0  501  0.00000000000E+00  0.00000000000E+00  0.26269213761E+04  0.26269213761E+04  0.25500000920E-02 0. -1.
        2   -1    0    0  501    0  0.00000000000E+00  0.00000000000E+00 -0.14860748549E+04  0.14860748549E+04  0.25500000920E-02 0.  1.
    10030    2    1    2    0    0  0.00000000000E+00  0.00000000000E+00  0.11408465212E+04  0.41129962310E+04  0.39516081804E+04 0.  0.
        3    1    3    3  502    0 -0.51845857273E+03 -0.19049960585E+04  0.65099618292E+03  0.20788471119E+04  0.10100000352E+00 0.  1.
       -3    1    3    3    0  502  0.51845857273E+03  0.19049960585E+04  0.48985033825E+03  0.20341491191E+04  0.10100000352E+00 0. -1.
</event>
<event>
 5   0  0.1034683E-06  0.3830503E+04  0.7818609E-02  0.8039640E-01
        2   -1    0    0  501    0  0.00000000000E+00  0.00000000000E+00  0.23817138124E+04  0.23817138124E+04  0.25500000920E-02 0. -1.
       -2   -1    0    0    0  501  0.00000000000E+00  0.00000000000E+00 -0.15401468073E+04  0.15401468073E+04  0.25500000920E-02 0.  1.
    10030    2    1    2    0    0  0.00000000000E+00  0.00000000000E+00  0.84156700512E+03  0.39218606197E+04  0.38305033215E+04 0.  0.
        2    1    3    3  502    0  0.30461934897E+03  0.14638057660E+04 -0.80470486012E+03  0.16979605944E+04  0.25500000920E-02 0.  1.
       -2    1    3    3    0  502 -0.30461934897E+03 -0.14638057660E+04  0.16462718652E+04  0.22239000253E+04  0.25500000920E-02 0. -1.
</event>
<event>
 5   0  0.3191750E-07  0.3497152E+04  0.7818609E-02  0.8114465E-01
       -3   -1    0    0    0  501  0.00000000000E+00  0.00000000000E+00  0.11148409310E+04  0.11148409356E+04  0.10100000352E+00 0. -1.
        3   -1    0    0  501    0  0.00000000000E+00  0.00000000000E+00 -0.27425592451E+04  0.27425592469E+04  0.10100000352E+00 0.  1.
    10030    2    1    2    0    0  0.00000000000E+00  0.00000000000E+00 -0.16277183141E+04  0.38574001825E+04  0.34971515921E+04 0.  0.
        4    1    3    3  502    0 -0.15403793579E+04  0.35324559614E+03  0.11533417289E+02  0.15804067989E+04  0.12699999809E+01 0. -1.
       -4    1    3    3    0  502  0.15403793579E+04 -0.35324559614E+03 -0.16392517314E+04  0.22769933836E+04  0.12699999809E+01 0.  1.
</event>
<event>
 5   0  0.5533705E-07  0.2000917E+04  0.7818609E-02  0.8606192E-01
       -2   -1    0    0    0  501  0.00000000000E+00  0.00000000000E+00  0.21436469402E+04  0.21436469402E+04  0.25500000920E-02 0. -1.
        2   -1    0    0  501    0  0.00000000000E+00  0.00000000000E+00 -0.46692244750E+03  0.46692244751E+03  0.25500000920E-02 0.  1.
    10030    2    1    2    0    0  0.00000000000E+00  0.00000000000E+00  0.16767244927E+04  0.26105693877E+04  0.20009166658E+04 0.  0.
        1    1    3    3  502    0 -0.86792514684E+03 -0.13605507424E+03  0.14628587319E+04  0.17063882071E+04  0.50400001928E-02 0. -1.
       -1    1    3    3    0  502  0.86792514684E+03  0.13605507424E+03  0.21386576081E+03  0.90418118064E+03  0.50400001928E-02 0.  1.
</event>
<event>
 5   0  0.5385714E-07  0.3861078E+04  0.7818609E-02  0.8033173E-01
        1   -1    0    0  501    0  0.00000000000E+00  0.00000000000E+00  0.13049543029E+04  0.13049543029E+04  0.50400001928E-02 0. -1.
       -1   -1    0    0    0  501  0.00000000000E+00  0.00000000000E+00 -0.28560239635E+04  0.28560239635E+04  0.50400001928E-02 0.  1.
    10030    2    1    2    0    0  0.00000000000E+00  0.00000000000E+00 -0.15510696606E+04  0.41609782664E+04  0.38610779637E+04 0.  0.
        3    1    3    3  502    0 -0.89078866425E+03  0.14018807823E+04  0.28486803070E+03  0.16852073989E+04  0.10100000352E+00 0. -1.
       -3    1    3    3    0  502  0.89078866425E+03 -0.14018807823E+04 -0.18359376913E+04  0.24757708675E+04  0.10100000352E+00 0.  1.
</event>
<event>
 5   0  0.7268013E-07  0.3864791E+04  0.7818609E-02  0.8032392E-01
       -2   -1    0    0    0  501  0.00000000000E+00  0.00000000000E+00  0.17897077740E+04  0.17897077740E+04  0.25500000920E-02 0.  1.
        2   -1    0    0  501    0  0.00000000000E+00  0.00000000000E+00 -0.20864588033E+04  0.20864588033E+04  0.25500000920E-02 0. -1.
    10030    2    1    2    0    0  0.00000000000E+00  0.00000000000E+00 -0.29675102922E+03  0.38761665773E+04  0.38647905715E+04 0.  0.
        4    1    3    3  502    0 -0.42186768963E+03 -0.18855305722E+04 -0.11742952702E+03  0.19357141300E+04  0.12699999809E+01 0. -1.
       -4    1    3    3    0  502  0.42186768963E+03  0.18855305722E+04 -0.17932150221E+03  0.19404524473E+04  0.12699999809E+01 0.  1.
</event>
<event>
 5   0  0.4316671E-07  0.2754242E+04  0.7818609E-02  0.8317617E-01
        1   -1    0    0  501    0  0.00000000000E+00  0.00000000000E+00  0.27700859271E+04  0.27700859271E+04  0.50400001928E-02 0.  1.
       -1   -1    0    0    0  501  0.00000000000E+00  0.00000000000E+00 -0.68462237801E+03  0.68462237803E+03  0.50400001928E-02 0. -1.
    10030    2    1    2    0    0  0.00000000000E+00  0.00000000000E+00  0.20854635491E+04  0.34547083051E+04  0.27542424111E+04 0.  0.
        2    1    3    3  502    0  0.15802220393E+03 -0.73170764642E+03  0.24925982521E+04  0.26025781723E+04  0.25500000920E-02 0.  1.
       -2    1    3    3    0  502 -0.15802220393E+03  0.73170764642E+03 -0.40713470303E+03  0.85213013277E+03  0.25500000920E-02 0. -1.
</event>
<event>
 5   0  0.4627905E-07  0.3838031E+04  0.7818609E-02  0.8038042E-01
        1   -1    0    0  501    0  0.00000000000E+00  0.00000000000E+00  0.22906586723E+04  0.22906586723E+04  0.50400001928E-02 0.  1.
       -1   -1    0    0    0  501  0.00000000000E+00  0.00000000000E+00 -0.16076689233E+04  0.16076689233E+04  0.50400001928E-02 0. -1.
    10030    2    1    2    0    0  0.00000000000E+00  0.00000000000E+00  0.68298974896E+03  0.38983275956E+04  0.38380311418E+04 0.  0.
        1    1    3    3  502    0  0.29200141634E+03 -0.57476636306E+03  0.21773752354E+04  0.22708113341E+04  0.50400001928E-02 0.  1.
       -1    1    3    3    0  502 -0.29200141634E+03  0.57476636306E+03 -0.14943854865E+04  0.16275162615E+04  0.50400001928E-02 0. -1.
</event>
<event>
 5   0  0.1015219E-06  0.3877030E+04  0.7818609E-02  0.8029824E-01
       -2   -1    0    0    0  501  0.00000000000E+00  0.00000000000E+00  0.18827724974E+04  0.18827724974E+04  0.25500000920E-02 0. -1.
        2   -1    0    0  501    0  0.00000000000E+00  0.00000000000E+00 -0.19959078898E+04  0.19959078898E+04  0.25500000920E-02 0.  1.
    10030    2    1    2    0    0  0.00000000000E+00  0.00000000000E+00 -0.11313539248E+03  0.38786803872E+04  0.38770300397E+04 0.  0.
        3    1    3    3  502    0  0.61236328047E+03  0.18320431111E+04  0.10619674543E+03  0.19345925946E+04  0.10100000352E+00 0. -1.
       -3    1    3    3    0  502 -0.61236328047E+03 -0.18320431111E+04 -0.21933213791E+03  0.19440877926E+04  0.10100000352E+00 0.  1.
</event>
<event>
 5   0  0.3471602E-07  0.3894353E+04  0.7818609E-02  0.8026205E-01
        1   -1    0    0  501    0  0.00000000000E+00  0.00000000000E+00  0.19204346522E+04  0.19204346522E+04  0.50400001928E-02 0. -1.
       -1   -1    0    0    0  501  0.00000000000E+00  0.00000000000E+00 -0.19742905253E+04  0.19742905253E+04  0.50400001928E-02 0.  1.
    10030    2    1    2    0    0  0.00000000000E+00  0.00000000000E+00 -0.53855873099E+02  0.38947251775E+04  0.38943528028E+04 0.  0.
        5    1    3    3  502    0 -0.75942412005E+03 -0.62511712348E+03 -0.17075580310E+04  0.19706021748E+04  0.46999998093E+01 0.  1.
       -5    1    3    3    0  502  0.75942412005E+03  0.62511712348E+03  0.16537021579E+04  0.19241230026E+04  0.46999998093E+01 0. -1.
</event>
<event>
 5   0  0.5533705E-07  0.3727629E+04  0.7818609E-02  0.8061866E-01
        2   -1    0    0  501    0  0.00000000000E+00  0.00000000000E+00  0.14395207301E+04  0.14395207301E+04  0.25500000920E-02 0. -1.
       -2   -1    0    0    0  501  0.00000000000E+00  0.00000000000E+00 -0.24131674660E+04  0.24131674660E+04  0.25500000920E-02 0.  1.
    10030    2    1    2    0    0  0.00000000000E+00  0.00000000000E+00 -0.97364673590E+03  0.38526881961E+04  0.37276290548E+04 0.  0.
        1    1    3    3  502    0 -0.14642072312E+04  0.23138648783E+03 -0.16544879815E+04  0.22214348975E+04  0.50400001928E-02 0.  1.
       -1    1    3    3    0  502  0.14642072312E+04 -0.23138648783E+03  0.68084124562E+03  0.16312532987E+04  0.50400001928E-02 0. -1.
</event>
<event>
 5   0  0.5533705E-07  0.3385480E+04  0.7818609E-02  0.8141479E-01
        2   -1    0    0  501    0  0.00000000000E+00  0.00000000000E+00  0.20939048538E+04  0.20939048538E+04  0.25500000920E-02 0. -1.
       -2   -1    0    0    0  501  0.00000000000E+00  0.00000000000E+00 -0.13684332799E+04  0.13684332799E+04  0.25500000920E-02 0.  1.
    10030    2    1    2    0    0  0.00000000000E+00  0.00000000000E+00  0.72547157393E+03  0.34623381337E+04  0.33854802240E+04 0.  0.
        1    1    3    3  502    0  0.10053745241E+04 -0.93381445575E+03  0.13764920186E+04  0.19435837128E+04  0.50400001928E-02 0. -1.
       -1    1    3    3    0  502 -0.10053745241E+04  0.93381445575E+03 -0.65102044465E+03  0.15187544209E+04  0.50400001928E-02 0.  1.
</event>
<event>
 5   0  0.1035864E-06  0.2306005E+04  0.7818609E-02  0.8475557E-01
        2   -1    0    0  501    0  0.00000000000E+00  0.00000000000E+00  0.10422282266E+04  0.10422282266E+04  0.25500000920E-02 0.  1.
       -2   -1    0    0    0  501  0.00000000000E+00  0.00000000000E+00 -0.12755503896E+04  0.12755503896E+04  0.25500000920E-02 0. -1.
    10030    2    1    2    0    0  0.00000000000E+00  0.00000000000E+00 -0.23332216298E+03  0.23177786161E+04  0.23060048746E+04 0.  0.
        5    1    3    3  502    0  0.17439398764E+03 -0.88588614819E+03  0.60406698107E+03  0.10863362914E+04  0.46999998093E+01 0.  1.
       -5    1    3    3    0  502 -0.17439398764E+03  0.88588614819E+03 -0.83738914405E+03  0.12314423247E+04  0.46999998093E+01 0. -1.
</event>
<event>
 5   0  0.1035864E-06  0.2187296E+04  0.7818609E-02  0.8523735E-01
       -2   -1    0    0    0  501  0.00000000000E+00  0.00000000000E+00  0.68759328511E+03  0.68759328512E+03  0.25500000920E-02 0.  1.
        2   -1    0    0  501    0  0.00000000000E+00  0.00000000000E+00 -0.17394958566E+04  0.17394958566E+04  0.25500000920E-02 0. -1.
    10030    2    1    2    0    0  0.00000000000E+00  0.00000000000E+00 -0.10519025715E+04  0.24270891417E+04  0.21872957463E+04 0.  0.
        5    1    3    3  502    0  0.38343792207E+03  0.59851114364E+02  0.60860777228E+03  0.72182567594E+03  0.46999998093E+01 0.  1.
       -5    1    3    3    0  502 -0.38343792207E+03 -0.59851114364E+02 -0.16605103438E+04  0.17052634658E+04  0.46999998093E+01 0. -1.
</event>
<event>
 5   0  0.5533705E-07  0.3914664E+04  0.7818609E-02  0.8021986E-01
       -2   -1    0    0    0  501  0.00000000000E+00  0.00000000000E+00  0.19418075295E+04  0.19418075295E+04  0.25500000920E-02 0.  1.
        2   -1    0    0  501    0  0.00000000000E+00  0.00000000000E+00 -0.19729805390E+04  0.19729805390E+04  0.25500000920E-02 0. -1.
    10030    2    1    2    0    0  0.00000000000E+00  0.00000000000E+00 -0.31173009474E+02  0.39147880684E+04  0.39146639529E+04 0.  0.
        1    1    3    3  502    0  0.10955300069E+04  0.11004365756E+04  0.11760895661E+04  0.19479048540E+04  0.50400001928E-02 0.  1.
       -1    1    3    3    0  502 -0.10955300069E+04 -0.11004365756E+04 -0.12072625755E+04  0.19668832144E+04  0.50400001928E-02 0. -1.
</event>
<event>
 5   0  0.5533705E-07  0.2405363E+04  0.7818609E-02  0.8437498E-01
        2   -1    0    0  501    0  0.00000000000E+00  0.00000000000E+00  0.14567970813E+04  0.14567970813E+04  0.25500000920E-02 0. -1.
       -2   -1    0    0    0  501  0.00000000000E+00  0.00000000000E+00 -0.99289280503E+03  0.99289280503E+03  0.25500000920E-02 0.  1.
    10030    2    1    2    0    0  0.00000000000E+00  0.00000000000E+00  0.46390427627E+03  0.24496898863E+04  0.24053634573E+04 0.  0.
        1    1    3    3  502    0  0.84979960917E+03  0.52488593102E+01  0.10986676621E+04  0.13889771626E+04  0.50400001928E-02 0. -1.
       -1    1    3    3    0  502 -0.84979960917E+03 -0.52488593102E+01 -0.63476338587E+03  0.10607127238E+04  0.50400001928E-02 0.  1.
</event>
<event>
 5   0  0.4316671E-07  0.2718004E+04  0.7818609E-02  0.8329187E-01
       -1   -1    0    0    0  501  0.00000000000E+00  0.00000000000E+00  0.94587774470E+03  0.94587774471E+03  0.50400001928E-02 0.  1.
        1   -1    0    0  501    0  0.00000000000E+00  0.00000000000E+00 -0.19525639894E+04  0.19525639894E+04  0.50400001928E-02 0. -1.
    10030    2    1    2    0    0  0.00000000000E+00  0.00000000000E+00 -0.10066862447E+04  0.28984417342E+04  0.27180042846E+04 0.  0.
        2    1    3    3  502    0 -0.64407700565E+03  0.11350942385E+04 -0.99222637141E+02  0.13088618152E+04  0.25500000920E-02 0.  1.
       -2    1    3    3    0  502  0.64407700565E+03 -0.11350942385E+04 -0.90746360760E+03  0.15895799189E+04  0.25500000920E-02 0. -1.
</event>
<event>
 5   0  0.4316671E-07  0.3988256E+04  0.7818609E-02  0.8006920E-01
       -1   -1    0    0    0  501  0.00000000000E+00  0.00000000000E+00  0.29407791965E+04  0.29407791965E+04  0.50400001928E-02 0.  1.
        1   -1    0    0  501    0  0.00000000000E+00  0.00000000000E+00 -0.13522082427E+04  0.13522082428E+04  0.50400001928E-02 0. -1.
    10030    2    1    2    0    0  0.00000000000E+00  0.00000000000E+00  0.15885709538E+04  0.42929874393E+04  0.39882556937E+04 0.  0.
        2    1    3    3  502    0  0.14170822382E+04  0.94000281170E+03  0.19154133968E+04  0.25613542973E+04  0.25500000920E-02 0.  1.
       -2    1    3    3    0  502 -0.14170822382E+04 -0.94000281170E+03 -0.32684244299E+03  0.17316331420E+04  0.25500000920E-02 0. -1.
</event>
<event>
 5   0  0.3977376E-07  0.3864055E+04  0.7818609E-02  0.8032547E-01
        1   -1    0    0  501    0  0.00000000000E+00  0.00000000000E+00  0.10964736226E+04  0.10964736226E+04  0.50400001928E-02 0.  1.
       -1   -1    0    0    0  501  0.00000000000E+00  0.00000000000E+00 -0.34043043462E+04  0.34043043462E+04  0.50400001928E-02 0. -1.
    10030    2    1    2    0    0  0.00000000000E+00  0.00000000000E+00 -0.23078307236E+04  0.45007779689E+04  0.38640548232E+04 0.  0.
        4    1    3    3  502    0 -0.38017857726E+03  0.10322411078E+04 -0.30039276110E+04  0.31990061207E+04  0.12699999809E+01 0. -1.
       -4    1    3    3    0  502  0.38017857726E+03 -0.10322411078E+04  0.69609688736E+03  0.13017718482E+04  0.12699999809E+01 0.  1.
</event>
<event>
 5   0  0.4627905E-07  0.3213654E+04  0.7818609E-02  0.8185220E-01
       -1   -1    0    0    0  501  0.00000000000E+00  0.00000000000E+00  0.11331324320E+04  0.11331324320E+04  0.50400001928E-02 0. -1.
        1   -1    0    0  501    0  0.00000000000E+00  0.00000000000E+00 -0.22785450490E+04  0.22785450490E+04  0.50400001928E-02 0.  1.
    10030    2    1    2    0    0  0.00000000000E+00  0.00000000000E+00 -0.11454126170E+04  0.34116774810E+04  0.32136541773E+04 0.  0.
        1    1    3    3  502    0 -0.66201523253E+03 -0.14321625404E+04 -0.24975831058E+03  0.15974144496E+04  0.50400001928E-02 0. -1.
       -1    1    3    3    0  502  0.66201523253E+03  0.14321625404E+04 -0.89565430647E+03  0.18142630313E+04  0.50400001928E-02 0.  1.
</event>
<event>
 5   0  0.1035864E-06  0.3945332E+04  0.7818609E-02  0.8015667E-01
        2   -1    0    0  501    0  0.00000000000E+00  0.00000000000E+00  0.23466663433E+04  0.23466663433E+04  0.25500000920E-02 0. -1.
       -2   -1    0    0    0  501  0.00000000000E+00  0.00000000000E+00 -0.16582717268E+04  0.16582717268E+04  0.25500000920E-02 0.  1.
    10030    2    1    2    0    0  0.00000000000E+00  0.00000000000E+00  0.68839461651E+03  0.40049380700E+04  0.39453316460E+04 0.  0.
        5    1    3    3  502    0 -0.18423168879E+04  0.61174591987E+03 -0.11849264922E+02  0.19412694509E+04  0.46999998093E+01 0.  1.
       -5    1    3    3    0  502  0.18423168879E+04 -0.61174591987E+03  0.70024388143E+03  0.20636686191E+04  0.46999998093E+01 0. -1.
</event>
<event>
 5   0  0.3471602E-07  0.2574139E+04  0.7818609E-02  0.8377039E-01
        1   -1    0    0  501    0  0.00000000000E+00  0.00000000000E+00  0.16255185219E+04  0.16255185219E+04  0.50400001928E-02 0.  1.
       -1   -1    0    0    0  501  0.00000000000E+00  0.00000000000E+00 -0.10190892599E+04  0.10190892599E+04  0.50400001928E-02 0. -1.
    10030    2    1    2    0    0  0.00000000000E+00  0.00000000000E+00  0.60642926204E+03  0.26446077818E+04  0.25741394425E+04 0.  0.
        5    1    3    3  502    0  0.17201771093E+02  0.82231827125E+03 -0.71384722512E+03  0.10890836474E+04  0.46999998093E+01 0. -1.
       -5    1    3    3    0  502 -0.17201771093E+02 -0.82231827125E+03  0.13202764872E+04  0.15555241344E+04  0.46999998093E+01 0.  1.
</event>
<event>
 5   0  0.1035864E-06  0.3856282E+04  0.7818609E-02  0.8034184E-01
       -2   -1    0    0    0  501  0.00000000000E+00  0.00000000000E+00  0.18481820069E+04  0.18481820069E+04  0.25500000920E-02 0. -1.
        2   -1    0    0  501    0  0.00000000000E+00  0.00000000000E+00 -0.20115594910E+04  0.20115594910E+04  0.25500000920E-02 0.  1.
    10030    2    1    2    0    0  0.00000000000E+00  0.00000000000E+00 -0.16337748406E+03  0.38597414979E+04  0.38562821770E+04 0.  0.
        5    1    3    3  502    0  0.12521862099E+04 -0.41871189666E+03  0.13247108965E+04  0.18703398102E+04  0.46999998093E+01 0. -1.
       -5    1    3    3    0  502 -0.12521862099E+04  0.41871189666E+03 -0.14880883805E+04  0.19894016877E+04  0.46999998093E+01 0.  1.
</event>
<event>
 5   0  0.5533705E-07  0.3887272E+04  0.7818609E-02  0.8027682E-01
       -2   -1    0    0    0  501  0.00000000000E+00  0.00000000000E+00  0.15080402730E+04  0.15080402730E+04  0.25500000920E-02 0.  1.
        2   -1    0    0  501    0  0.00000000000E+00  0.00000000000E+00 -0.25050528601E+04  0.25050528601E+04  0.25500000920E-02 0. -1.
    10030    2    1    2    0    0  0.00000000000E+00  0.00000000000E+00 -0.99701258717E+03  0.40130931331E+04  0.38872718449E+04 0.  0.
        1    1    3    3  502    0 -0.12783453633E+04 -0.72134218433E+03 -0.18138005064E+04  0.23333181720E+04  0.50400001928E-02 0. -1.
       -1    1    3    3    0  502  0.12783453633E+04  0.72134218433E+03  0.81678791921E+03  0.16797749611E+04  0.50400001928E-02 0.  1.
</event>
<event>
 5   0  0.5533705E-07  0.3856999E+04  0.7818609E-02  0.8034033E-01
        2   -1    0    0  501    0  0.00000000000E+00  0.00000000000E+00  0.22805425823E+04  0.22805425823E+04  0.25500000920E-02 0.  1.
       -2   -1    0    0    0  501  0.00000000000E+00  0.00000000000E+00 -0.16308004152E+04  0.16308004152E+04  0.25500000920E-02 0. -1.
    10030    2    1    2    0    0  0.00000000000E+00  0.00000000000E+00  0.64974216715E+03  0.39113429975E+04  0.38569987244E+04 0.  0.
        1    1    3    3  502    0  0.28998251584E+03 -0.13785044238E+04  0.16605260698E+04  0.21775470453E+04  0.50400001928E-02 0.  1.
       -1    1    3    3    0  502 -0.28998251584E+03  0.13785044238E+04 -0.10107839027E+04  0.17337959522E+04  0.50400001928E-02 0. -1.
</event>
<event>
 5   0  0.1034683E-06  0.3892435E+04  0.7818609E-02  0.8026604E-01
        2   -1    0    0  501    0  0.00000000000E+00  0.00000000000E+00  0.15610565184E+04  0.15610565184E+04  0.25500000920E-02 0.  1.
       -2   -1    0    0    0  501  0.00000000000E+00  0.00000000000E+00 -0.24264101408E+04  0.24264101408E+04  0.25500000920E-02 0. -1.
    10030    2    1    2    0    0  0.00000000000E+00  0.00000000000E+00 -0.86535362238E+03  0.39874666592E+04  0.38924354158E+04 0.  0.
        2    1    3    3  502    0  0.79568872353E+03 -0.15338158871E+04  0.48476138357E+03  0.17946323632E+04  0.25500000920E-02 0. -1.
       -2    1    3    3    0  502 -0.79568872353E+03  0.15338158871E+04 -0.13501150059E+04  0.21928342959E+04  0.25500000920E-02 0.  1.
</event>
<event>
 5   0  0.4316671E-07  0.3924151E+04  0.7818609E-02  0.8020025E-01
       -1   -1    0    0    0  501  0.00000000000E+00  0.00000000000E+00  0.23086723422E+04  0.23086723422E+04  0.50400001928E-02 0.  1.
        1   -1    0    0  501    0  0.00000000000E+00  0.00000000000E+00 -0.16675124664E+04  0.16675124664E+04  0.50400001928E-02 0. -1.
    10030    2    1    2    0    0  0.00000000000E+00  0.00000000000E+00  0.64115987582E+03  0.39761848086E+04  0.39241508184E+04 0.  0.
        2    1    3    3  502    0  0.94871984319E+03 -0.59788513226E+03 -0.13108012666E+04  0.17250321541E+04  0.25500000920E-02 0. -1.
       -2    1    3    3    0  502 -0.94871984319E+03  0.59788513226E+03  0.19519611424E+04  0.22511526545E+04  0.25500000920E-02 0.  1.
</event>
<event>
 5   0  0.4316671E-07  0.4105081E+04  0.7818609E-02  0.7983677E-01
       -1   -1    0    0    0  501  0.00000000000E+00  0.00000000000E+00  0.15108814314E+04  0.15108814314E+04  0.50400001928E-02 0.  1.
        1   -1    0    0  501    0  0.00000000000E+00  0.00000000000E+00 -0.27883876788E+04  0.27883876788E+04  0.50400001928E-02 0. -1.
    10030    2    1    2    0    0  0.00000000000E+00  0.00000000000E+00 -0.12775062474E+04  0.42992691102E+04  0.41050813231E+04 0.  0.
        2    1    3    3  502    0 -0.19592023715E+04 -0.58144003897E+03 -0.43900412517E+03  0.20902801423E+04  0.25500000920E-02 0. -1.
       -2    1    3    3    0  502  0.19592023715E+04  0.58144003897E+03 -0.83850212224E+03  0.22089889679E+04  0.25500000920E-02 0.  1.
</event>
<event>
 5   0  0.3977376E-07  0.3912978E+04  0.7818609E-02  0.8022335E-01
       -1   -1    0    0    0  501  0.00000000000E+00  0.00000000000E+00  0.18763816591E+04  0.18763816591E+04  0.50400001928E-02 0.  1.
        1   -1    0    0  501    0  0.00000000000E+00  0.00000000000E+00 -0.20400167628E+04  0.20400167628E+04  0.50400001928E-02 0. -1.
    10030    2    1    2    0    0  0.00000000000E+00  0.00000000000E+00 -0.16363510372E+03  0.39163984219E+04  0.39129784247E+04 0.  0.
        4    1    3    3  502    0 -0.14248118202E+04  0.50845759250E+02 -0.14228297803E+04  0.20142294335E+04  0.12699999809E+01 0. -1.
       -4    1    3    3    0  502  0.14248118202E+04 -0.50845759250E+02  0.12591946766E+04  0.19021689884E+04  0.12699999809E+01 0.  1.
</event>
<event>
 5   0  0.1035864E-06  0.2289405E+04  0.7818609E-02  0.8482110E-01
        2   -1    0    0  501    0  0.00000000000E+00  0.00000000000E+00  0.26197733810E+04  0.26197733810E+04  0.25500000920E-02 0. -1.
       -2   -1    0    0    0  501  0.00000000000E+00  0.00000000000E+00 -0.50017446303E+03  0.50017446304E+03  0.25500000920E-02 0.  1.
    10030    2    1    2    0    0  0.00000000000E+00  0.00000000000E+00  0.21195989179E+04  0.31199478440E+04  0.22894049394E+04 0.  0.
        5    1    3    3  502    0  0.25006510929E+03 -0.35533842600E+03  0.25030075200E+04  0.25404461598E+04  0.46999998093E+01 0. -1.
       -5    1    3    3    0  502 -0.25006510929E+03  0.35533842600E+03 -0.38340860204E+03  0.57950168420E+03  0.46999998093E+01 0.  1.
</event>
<event>
 5   0  0.1035864E-06  0.2083828E+04  0.7818609E-02  0.8568401E-01
        2   -1    0    0  501    0  0.00000000000E+00  0.00000000000E+00  0.18706844963E+04  0.18706844963E+04  0.25500000920E-02 0. -1.
       -2   -1    0    0    0  501  0.00000000000E+00  0.00000000000E+00 -0.58031421274E+03  0.58031421275E+03  0.25500000920E-02 0.  1.
    10030    2    1    2    0    0  0.00000000000E+00  0.00000000000E+00  0.12903702835E+04  0.24509987090E+04  0.20838280167E+04 0.  0.
        5    1    3    3  502    0  0.37215568464E+03 -0.81492984096E+03  0.12708442280E+04  0.15548883050E+04  0.46999998093E+01 0. -1.
       -5    1    3    3    0  502 -0.37215568464E+03  0.81492984096E+03  0.19526055529E+02  0.89611040399E+03  0.46999998093E+01 0.  1.
</event>
<event>
 5   0  0.5533705E-07  0.3926749E+04  0.7818609E-02  0.8019489E-01
        2   -1    0    0  501    0  0.00000000000E+00  0.00000000000E+00  0.27981218442E+04  0.27981218442E+04  0.25500000920E-02 0. -1.
       -2   -1    0    0    0  501  0.00000000000E+00  0.00000000000E+00 -0.13776522986E+04  0.13776522986E+04  0.25500000920E-02 0.  1.
    10030    2    1    2    0    0  0.00000000000E+00  0.00000000000E+00  0.14204695456E+04  0.41757741429E+04  0.39267487776E+04 0.  0.
        1    1    3    3  502    0  0.10926393034E+04  0.14155434217E+04  0.15723348249E+04  0.23811469144E+04  0.50400001928E-02 0. -1.
       -1    1    3    3    0  502 -0.10926393034E+04 -0.14155434217E+04 -0.15186527934E+03  0.17946272285E+04  0.50400001928E-02 0.  1.
</event>
<event>
 5   0  0.5533705E-07  0.3794913E+04  0.7818609E-02  0.8047247E-01
        2   -1    0    0  501    0  0.00000000000E+00  0.00000000000E+00  0.24605850399E+04  0.24605850399E+04  0.25500000920E-02 0.  1.
       -2   -1    0    0    0  501  0.00000000000E+00  0.00000000000E+00 -0.14632056144E+04  0.14632056144E+04  0.25500000920E-02 0. -1.
    10030    2    1    2    0    0  0.00000000000E+00  0.00000000000E+00  0.99737942549E+03  0.39237906543E+04  0.37949133561E+04 0.  0.
        1    1    3    3  502    0 -0.23735898240E+03 -0.17199127919E+04  0.12901272718E+04  0.21630690409E+04  0.50400001928E-02 0.  1.
       -1    1    3    3    0  502  0.23735898240E+03  0.17199127919E+04 -0.29274784631E+03  0.17607216134E+04  0.50400001928E-02 0. -1.
</event>
<event>
 5   0  0.5533705E-07  0.3836646E+04  0.7818609E-02  0.8038336E-01
       -2   -1    0    0    0  501  0.00000000000E+00  0.00000000000E+00  0.13892080427E+04  0.13892080427E+04  0.25500000920E-02 0.  1.
        2   -1    0    0  501    0  0.00000000000E+00  0.00000000000E+00 -0.26489650701E+04  0.26489650701E+04  0.25500000920E-02 0. -1.
    10030    2    1    2    0    0  0.00000000000E+00  0.00000000000E+00 -0.12597570274E+04  0.40381731128E+04  0.38366462334E+04 0.  0.
        1    1    3    3  502    0 -0.44572171012E+03  0.10193227780E+04  0.10149878507E+04  0.15059505655E+04  0.50400001928E-02 0.  1.
       -1    1    3    3    0  502  0.44572171012E+03 -0.10193227780E+04 -0.22747448781E+04  0.25322225473E+04  0.50400001928E-02 0. -1.
</event>
<event>
 5   0  0.3977376E-07  0.2313341E+04  0.7818609E-02  0.8472680E-01
       -1   -1    0    0    0  501  0.00000000000E+00  0.00000000000E+00  0.70577227819E+03  0.70577227821E+03  0.50400001928E-02 0. -1.
        1   -1    0    0  501    0  0.00000000000E+00  0.00000000000E+00 -0.18956347753E+04  0.18956347753E+04  0.50400001928E-02 0.  1.
    10030    2    1    2    0    0  0.00000000000E+00  0.00000000000E+00 -0.11898624971E+04  0.26014070535E+04  0.23133408517E+04 0.  0.
        4    1    3    3  502    0  0.10566313365E+04 -0.45761649802E+03 -0.47173443083E+03  0.12443543011E+04  0.12699999809E+01 0.  1.
       -4    1    3    3    0  502 -0.10566313365E+04  0.45761649802E+03 -0.71812806626E+03  0.13570527524E+04  0.12699999809E+01 0. -1.
</event>
<event>
 5   0  0.1034683E-06  0.3689480E+04  0.7818609E-02  0.8070297E-01
        2   -1    0    0  501    0  0.00000000000E+00  0.00000000000E+00  0.15007094855E+04  0.15007094855E+04  0.25500000920E-02 0.  1.
       -2   -1    0    0    0  501  0.00000000000E+00  0.00000000000E+00 -0.22676383132E+04  0.22676383132E+04  0.25500000920E-02 0. -1.
    10030    2    1    2    0    0  0.00000000000E+00  0.00000000000E+00 -0.76692882771E+03  0.37683477987E+04  0.36894803570E+04 0.  0.
        2    1    3    3  502    0 -0.14547935015E+04  0.24184402168E+03 -0.15153750233E+04  0.21145387497E+04  0.25500000920E-02 0. -1.
       -2    1    3    3    0  502  0.14547935015E+04 -0.24184402168E+03  0.74844619561E+03  0.16538090490E+04  0.25500000920E-02 0.  1.
</event>
<event>
 5   0  0.1034683E-06  0.3998946E+04  0.7818609E-02  0.8004759E-01
       -2   -1    0    0    0  501  0.00000000000E+00  0.00000000000E+00  0.19845876796E+04  0.19845876796E+04  0.25500000920E-02 0.  1.
        2   -1    0    0  501    0  0.00000000000E+00  0.00000000000E+00 -0.20144696605E+04  0.20144696605E+04  0.25500000920E-02 0. -1.
    10030    2    1    2    0    0  0.00000000000E+00  0.00000000000E+00 -0.29881980875E+02  0.39990573401E+04  0.39989456956E+04 0.  0.
        2    1    3    3  502    0 -0.32590456432E+03  0.62642327364E+02  0.19568528391E+04  0.19847949214E+04  0.25500000920E-02 0.  1.
       -2    1    3    3    0  502  0.32590456432E+03 -0.62642327364E+02 -0.19867348200E+04  0.20142624186E+04  0.25500000920E-02 0. -1.
</event>
<event>
 5   0  0.3977376E-07  0.2400630E+04  0.7818609E-02  0.8439268E-01
        1   -1    0    0  501    0  0.00000000000E+00  0.00000000000E+00  0.16993665274E+04  0.16993665274E+04  0.50400001928E-02 0.  1.
       -1   -1    0    0    0  501  0.00000000000E+00  0.00000000000E+00 -0.84781926318E+03  0.84781926319E+03  0.50400001928E-02 0. -1.
    10030    2    1    2    0    0  0.00000000000E+00  0.00000000000E+00  0.85154726417E+03  0.25471857906E+04  0.24006296483E+04 0.  0.
        4    1    3    3  502    0  0.10681761175E+03  0.44778429034E+03 -0.75042844573E+03  0.88037789495E+03  0.12699999809E+01 0. -1.
       -4    1    3    3    0  502 -0.10681761175E+03 -0.44778429034E+03  0.16019757099E+04  0.16668078956E+04  0.12699999809E+01 0.  1.
</event>
<event>
 5   0  0.4316671E-07  0.3912289E+04  0.7818609E-02  0.8022478E-01
       -1   -1    0    0    0  501  0.00000000000E+00  0.00000000000E+00  0.25218145877E+04  0.25218145877E+04  0.50400001928E-02 0.  1.
        1   -1    0    0  501    0  0.00000000000E+00  0.00000000000E+00 -0.15173606288E+04  0.15173606289E+04  0.50400001928E-02 0. -1.
    10030    2    1    2    0    0  0.00000000000E+00  0.00000000000E+00  0.10044539589E+04  0.40391752166E+04  0.39122894416E+04 0.  0.
        2    1    3    3  502    0  0.66834787636E+03  0.36828019051E+03  0.23618049238E+04  0.24820237067E+04  0.25500000920E-02 0.  1.
       -2    1    3    3    0  502 -0.66834787636E+03 -0.36828019051E+03 -0.13573509649E+04  0.15571515098E+04  0.25500000920E-02 0. -1.
</event>
<event>
 5   0  0.3471602E-07  0.3813241E+04  0.7818609E-02  0.8043319E-01
       -1   -1    0    0    0  501  0.00000000000E+00  0.00000000000E+00  0.19855740923E+04  0.19855740923E+04  0.50400001928E-02 0.  1.
        1   -1    0    0  501    0  0.00000000000E+00  0.00000000000E+00 -0.18308059644E+04  0.18308059644E+04  0.50400001928E-02 0. -1.
    10030    2    1    2    0    0  0.00000000000E+00  0.00000000000E+00  0.15476812786E+03  0.38163800567E+04  0.38132405594E+04 0.  0.
        5    1    3    3  502    0  0.10239371549E+04  0.12573640041E+04 -0.92632110839E+03  0.18674861236E+04  0.46999998093E+01 0. -1.
       -5    1    3    3    0  502 -0.10239371549E+04 -0.12573640041E+04  0.10810892362E+04  0.19488939331E+04  0.46999998093E+01 0.  1.
</event>
<event>
 5   0  0.7268013E-07  0.3854401E+04  0.7818609E-02  0.8034580E-01
       -2   -1    0    0    0  501  0.00000000000E+00  0.00000000000E+00  0.15342649960E+04  0.15342649960E+04  0.25500000920E-02 0.  1.
        2   -1    0    0  501    0  0.00000000000E+00  0.00000000000E+00 -0.24207698884E+04  0.24207698884E+04  0.25500000920E-02 0. -1.
    10030    2    1    2    0    0  0.00000000000E+00  0.00000000000E+00 -0.88650489239E+03  0.39550348844E+04  0.38544013818E+04 0.  0.
        4    1    3    3  502    0 -0.14110850207E+03  0.13155327070E+04 -0.18811097823E+04  0.22998072829E+04  0.12699999809E+01 0. -1.
       -4    1    3    3    0  502  0.14110850207E+03 -0.13155327070E+04  0.99460488990E+03  0.16552276014E+04  0.12699999809E+01 0.  1.
</event>
<event>
 5   0  0.3471602E-07  0.3859159E+04  0.7818609E-02  0.8033577E-01
       -1   -1    0    0    0  501  0.00000000000E+00  0.00000000000E+00  0.17750577002E+04  0.17750577002E+04  0.50400001928E-02 0.  1.
        1   -1    0    0  501    0  0.00000000000E+00  0.00000000000E+00 -0.20975523660E+04  0.20975523660E+04  0.50400001928E-02 0. -1.
    10030    2    1    2    0    0  0.00000000000E+00  0.00000000000E+00 -0.32249466579E+03  0.38726100662E+04  0.38591587056E+04 0.  0.
        5    1    3    3  502    0 -0.50167445922E+03  0.16707891858E+03  0.17009314538E+04  0.17812306220E+04  0.46999998093E+01 0.  1.
       -5    1    3    3    0  502  0.50167445922E+03 -0.16707891858E+03 -0.20234261196E+04  0.20913794442E+04  0.46999998093E+01 0. -1.
</event>
<event>
 5   0  0.5533705E-07  0.2398420E+04  0.7818609E-02  0.8440095E-01
       -2   -1    0    0    0  501  0.00000000000E+00  0.00000000000E+00  0.13433888795E+04  0.13433888795E+04  0.25500000920E-02 0. -1.
        2   -1    0    0  501    0  0.00000000000E+00  0.00000000000E+00 -0.10705053822E+04  0.10705053823E+04  0.25500000920E-02 0.  1.
    10030    2    1    2    0    0  0.00000000000E+00  0.00000000000E+00  0.27288349725E+03  0.24138942617E+04  0.23984203351E+04 0.  0.
        1    1    3    3  502    0  0.93873745602E+03  0.41989068492E+03  0.75732443664E+03  0.12771360542E+04  0.50400001928E-02 0. -1.
       -1    1    3    3    0  502 -0.93873745602E+03 -0.41989068492E+03 -0.48444093939E+03  0.11367582075E+04  0.50400001928E-02 0.  1.
</event>
<event>
 5   0  0.3471602E-07  0.1924938E+04  0.7818609E-02  0.8642542E-01
        1   -1    0    0  501    0  0.00000000000E+00  0.00000000000E+00  0.16128717827E+04  0.16128717827E+04  0.50400001928E-02 0. -1.
       -1   -1    0    0    0  501  0.00000000000E+00  0.00000000000E+00 -0.57434611827E+03  0.57434611829E+03  0.50400001928E-02 0.  1.
    10030    2    1    2    0    0  0.00000000000E+00  0.00000000000E+00  0.10385256645E+04  0.21872179010E+04  0.19249380746E+04 0.  0.
        5    1    3    3  502    0 -0.35736107680E+03 -0.87938125600E+03  0.33850839295E+03  0.10077838829E+04  0.46999998093E+01 0.  1.
       -5    1    3    3    0  502  0.35736107680E+03  0.87938125600E+03  0.70001727151E+03  0.11794340181E+04  0.46999998093E+01 0. -1.
</event>
<event>
 5   0  0.4627905E-07  0.3895350E+04  0.7818609E-02  0.8025997E-01
       -1   -1    0    0    0  501  0.00000000000E+00  0.00000000000E+00  0.14073625988E+04  0.14073625988E+04  0.50400001928E-02 0. -1.
        1   -1    0    0  501    0  0.00000000000E+00  0.00000000000E+00 -0.26954232747E+04  0.26954232747E+04  0.50400001928E-02 0.  1.
    10030    2    1    2    0    0  0.00000000000E+00  0.00000000000E+00 -0.12880606759E+04  0.41027858735E+04  0.38953499995E+04 0.  0.
        1    1    3    3  502    0  0.10044015391E+04 -0.12418345134E+04  0.52998564653E+03  0.16828131792E+04  0.50400001928E-02 0. -1.
       -1    1    3    3    0  502 -0.10044015391E+04  0.12418345134E+04 -0.18180463225E+04  0.24199726943E+04  0.50400001928E-02 0.  1.
</event>
<event>
 5   0  0.4627905E-07  0.3742842E+04  0.7818609E-02  0.8058533E-01
        1   -1    0    0  501    0  0.00000000000E+00  0.00000000000E+00  0.21939190500E+04  0.21939190500E+04  0.50400001928E-02 0.  1.
       -1   -1    0    0    0  501  0.00000000000E+00  0.00000000000E+00 -0.15963289887E+04  0.15963289887E+04  0.50400001928E-02 0. -1.
    10030    2    1    2    0    0  0.00000000000E+00  0.00000000000E+00  0.59759006131E+03  0.37902480387E+04  0.37428420102E+04 0.  0.
        1    1    3    3  502    0  0.13206445789E+03 -0.17021989656E+04  0.10748527204E+04  0.20174812787E+04  0.50400001928E-02 0.  1.
       -1    1    3    3    0  502 -0.13206445789E+03  0.17021989656E+04 -0.47726265911E+03  0.17727667600E+04  0.50400001928E-02 0. -1.
</event>
<event>
 5   0  0.3191750E-07  0.3856007E+04  0.7818609E-02  0.8034242E-01
        3   -1    0    0  501    0  0.00000000000E+00  0.00000000000E+00  0.15512573326E+04  0.15512573358E+04  0.10100000352E+00 0. -1.
       -3   -1    0    0    0  501  0.00000000000E+00  0.00000000000E+00 -0.23962482592E+04  0.23962482613E+04  0.10100000352E+00 0.  1.
    10030    2    1    2    0    0  0.00000000000E+00  0.00000000000E+00 -0.84499092660E+03  0.39475055971E+04  0.38560071024E+04 0.  0.
        2    1    3    3  502    0 -0.91222849365E+03 -0.14887408508E+04  0.41464155575E+03  0.17945578188E+04  0.25500000920E-02 0.  1.
       -2    1    3    3    0  502  0.91222849365E+03  0.14887408508E+04 -0.12596324824E+04  0.21529477783E+04  0.25500000920E-02 0. -1.
</event>
<event>
 5   0  0.7268013E-07  0.2487358E+04  0.7818609E-02  0.8407503E-01
       -2   -1    0    0    0  501  0.00000000000E+00  0.00000000000E+00  0.95240755557E+03  0.95240755557E+03  0.25500000920E-02 0. -1.
        2   -1    0    0  501    0  0.00000000000E+00  0.00000000000E+00 -0.16240287241E+04  0.16240287241E+04  0.25500000920E-02 0.  1.
    10030    2    1    2    0    0  0.00000000000E+00  0.00000000000E+00 -0.67162116851E+03  0.25764362797E+04  0.24873578169E+04 0.  0.
        4    1    3    3  502    0 -0.61296474392E+03 -0.38900535428E+03 -0.13817682002E+04  0.15608766495E+04  0.12699999809E+01 0.  1.
       -4    1    3    3    0  502  0.61296474392E+03  0.38900535428E+03  0.71014703167E+03  0.10155596302E+04  0.12699999809E+01 0. -1.
</event>
<event>
 5   0  0.5533705E-07  0.3955030E+04  0.7818609E-02  0.8013680E-01
       -2   -1    0    0    0  501  0.00000000000E+00  0.00000000000E+00  0.17099907216E+04  0.17099907216E+04  0.25500000920E-02 0.  1.
        2   -1    0    0  501    0  0.00000000000E+00  0.00000000000E+00 -0.22868922891E+04  0.22868922891E+04  0.25500000920E-02 0. -1.
    10030    2    1    2    0    0  0.00000000000E+00  0.00000000000E+00 -0.57690156756E+03  0.39968830107E+04  0.39550295047E+04 0.  0.
        1    1    3    3  502    0 -0.13736114705E+03 -0.18933056789E+04  0.27157062414E+03  0.19176092100E+04  0.50400001928E-02 0.  1.
       -1    1    3    3    0  502  0.13736114705E+03  0.18933056789E+04 -0.84847219170E+03  0.20792738007E+04  0.50400001928E-02 0. -1.
</event>
<event>
 5   0  0.1034683E-06  0.3901443E+04  0.7818609E-02  0.8024729E-01
        2   -1    0    0  501    0  0.00000000000E+00  0.00000000000E+00  0.29811110755E+04  0.29811110755E+04  0.25500000920E-02 0.  1.
       -2   -1    0    0    0  501  0.00000000000E+00  0.00000000000E+00 -0.12764754929E+04  0.12764754929E+04  0.25500000920E-02 0. -1.
    10030    2    1    2    0    0  0.00000000000E+00  0.00000000000E+00  0.17046355827E+04  0.42575865684E+04  0.39014434403E+04 0.  0.
        2    1    3    3  502    0  0.18384321688E+03 -0.10081233400E+04 -0.95908515708E+03  0.14035509736E+04  0.25500000920E-02 0. -1.
       -2    1    3    3    0  502 -0.18384321688E+03  0.10081233400E+04  0.26637207397E+04  0.28540355948E+04  0.25500000920E-02 0.  1.
</event>
<event>
 5   0  0.5533705E-07  0.3891736E+04  0.7818609E-02  0.8026750E-01
       -2   -1    0    0    0  501  0.00000000000E+00  0.00000000000E+00  0.18545512844E+04  0.18545512844E+04  0.25500000920E-02 0. -1.
        2   -1    0    0  501    0  0.00000000000E+00  0.00000000000E+00 -0.20416808168E+04  0.20416808168E+04  0.25500000920E-02 0.  1.
    10030    2    1    2    0    0  0.00000000000E+00  0.00000000000E+00 -0.18712953239E+03  0.38962321011E+04  0.38917357470E+04 0.  0.
        1    1    3    3  502    0  0.72841415018E+03  0.27887692397E+01  0.17129053916E+04  0.18613543005E+04  0.50400001928E-02 0. -1.
       -1    1    3    3    0  502 -0.72841415018E+03 -0.27887692397E+01 -0.19000349240E+04  0.20348778007E+04  0.50400001928E-02 0.  1.
</event>
<event>
 5   0  0.1015219E-06  0.2054316E+04  0.7818609E-02  0.8581639E-01
       -2   -1    0    0    0  501  0.00000000000E+00  0.00000000000E+00  0.15742527689E+04  0.15742527689E+04  0.25500000920E-02 0. -1.
        2   -1    0    0  501    0  0.00000000000E+00  0.00000000000E+00 -0.67019318566E+03  0.67019318566E+03  0.25500000920E-02 0.  1.
    10030    2    1    2    0    0  0.00000000000E+00  0.00000000000E+00  0.90405958329E+03  0.22444459546E+04  0.20543159234E+04 0.  0.
        3    1    3    3  502    0  0.10176584342E+04  0.14716492198E+02  0.30060907372E+03  0.10612309312E+04  0.10100000352E+00 0.  1.
       -3    1    3    3    0  502 -0.10176584342E+04 -0.14716492198E+02  0.60345050958E+03  0.11832150234E+04  0.10100000352E+00 0. -1.
</event>
<event>
 5   0  0.5533705E-07  0.2585442E+04  0.7818609E-02  0.8373163E-01
       -2   -1    0    0    0  501  0.00000000000E+00  0.00000000000E+00  0.14099544188E+04  0.14099544188E+04  0.25500000920E-02 0. -1.
        2   -1    0    0  501    0  0.00000000000E+00  0.00000000000E+00 -0.11852351055E+04  0.11852351055E+04  0.25500000920E-02 0.  1.
    10030    2    1    2    0    0  0.00000000000E+00  0.00000000000E+00  0.22471931328E+03  0.25951895244E+04  0.25854419153E+04 0.  0.
        1    1    3    3  502    0  0.35638921695E+03 -0.23155570832E+03 -0.11131019911E+04  0.11914811634E+04  0.50400001928E-02 0.  1.
       -1    1    3    3    0  502 -0.35638921695E+03  0.23155570832E+03  0.13378213044E+04  0.14037083610E+04  0.50400001928E-02 0. -1.
</event>
<event>
 5   0  0.4627905E-07  0.3840070E+04  0.7818609E-02  0.8037610E-01
       -1   -1    0    0    0  501  0.00000000000E+00  0.00000000000E+00  0.18251439402E+04  0.18251439402E+04  0.50400001928E-02 0.  1.
        1   -1    0    0  501    0  0.00000000000E+00  0.00000000000E+00 -0.20198596238E+04  0.20198596238E+04  0.50400001928E-02 0. -1.
    10030    2    1    2    0    0  0.00000000000E+00  0.00000000000E+00 -0.19471568352E+03  0.38450035640E+04  0.38400700788E+04 0.  0.
        1    1    3    3  502    0 -0.14074619373E+04 -0.10428461371E+03 -0.14008406695E+04  0.19885117468E+04  0.50400001928E-02 0. -1.
       -1    1    3    3    0  502  0.14074619373E+04  0.10428461371E+03  0.12061249860E+04  0.18564918172E+04  0.50400001928E-02 0.  1.
</event>
<event>
 5   0  0.5385714E-07  0.2323150E+04  0.7818609E-02  0.8468849E-01
        1   -1    0    0  501    0  0.00000000000E+00  0.00000000000E+00  0.23098493181E+04  0.23098493181E+04  0.50400001928E-02 0.  1.
       -1   -1    0    0    0  501  0.00000000000E+00  0.00000000000E+00 -0.58413182023E+03  0.58413182025E+03  0.50400001928E-02 0. -1.
    10030    2    1    2    0    0  0.00000000000E+00  0.00000000000E+00  0.17257174979E+04  0.28939811383E+04  0.23231500052E+04 0.  0.
        3    1    3    3  502    0 -0.23307900852E+03  0.77735838098E+03 -0.17239247697E+03  0.82965719006E+03  0.10100000352E+00 0. -1.
       -3    1    3    3    0  502  0.23307900852E+03 -0.77735838098E+03  0.18981099748E+04  0.20643239483E+04  0.10100000352E+00 0.  1.
</event>
<event>
 5   0  0.3471602E-07  0.3633350E+04  0.7818609E-02  0.8082895E-01
        1   -1    0    0  501    0  0.00000000000E+00  0.00000000000E+00  0.25002776075E+04  0.25002776075E+04  0.50400001928E-02 0. -1.
       -1   -1    0    0    0  501  0.00000000000E+00  0.00000000000E+00 -0.13199764421E+04  0.13199764421E+04  0.50400001928E-02 0.  1.
    10030    2    1    2    0    0  0.00000000000E+00  0.00000000000E+00  0.11803011655E+04  0.38202540496E+04  0.36333497165E+04 0.  0.
        5    1    3    3  502    0  0.15093660450E+03 -0.83048794311E+03  0.22815642715E+04  0.24327041943E+04  0.46999998093E+01 0. -1.
       -5    1    3    3    0  502 -0.15093660450E+03  0.83048794311E+03 -0.11012631060E+04  0.13875498553E+04  0.46999998093E+01 0.  1.
</event>
<event>
 5   0  0.5385714E-07  0.3978460E+04  0.7818609E-02  0.8008906E-01
       -1   -1    0    0    0  501  0.00000000000E+00  0.00000000000E+00  0.20037728768E+04  0.20037728768E+04  0.50400001928E-02 0. -1.
        1   -1    0    0  501    0  0.00000000000E+00  0.00000000000E+00 -0.19747921754E+04  0.19747921754E+04  0.50400001928E-02 0.  1.
    10030    2    1    2    0    0  0.00000000000E+00  0.00000000000E+00  0.28980701418E+02  0.39785650522E+04  0.39784595001E+04 0.  0.
        3    1    3    3  502    0  0.82886845073E+03  0.16080157776E+04 -0.81275426192E+03  0.19832567030E+04  0.10100000352E+00 0.  1.
       -3    1    3    3    0  502 -0.82886845073E+03 -0.16080157776E+04  0.84173496334E+03  0.19953083492E+04  0.10100000352E+00 0. -1.
</event>
<event>
 5   0  0.1034683E-06  0.2356222E+04  0.7818609E-02  0.8456078E-01
       -2   -1    0    0    0  501  0.00000000000E+00  0.00000000000E+00  0.79075231165E+03  0.79075231165E+03  0.25500000920E-02 0. -1.
        2   -1    0    0  501    0  0.00000000000E+00  0.00000000000E+00 -0.17552211107E+04  0.17552211107E+04  0.25500000920E-02 0.  1.
    10030    2    1    2    0    0  0.00000000000E+00  0.00000000000E+00 -0.96446879904E+03  0.25459734223E+04  0.23562216795E+04 0.  0.
        2    1    3    3  502    0 -0.19382403248E+03  0.10530066569E+04 -0.10132963334E+04  0.14741642494E+04  0.25500000920E-02 0.  1.
       -2    1    3    3    0  502  0.19382403248E+03 -0.10530066569E+04  0.48827534379E+02  0.10718091729E+04  0.25500000920E-02 0. -1.
</event>
<event>
 5   0  0.5533705E-07  0.3866520E+04  0.7818609E-02  0.8032029E-01
        2   -1    0    0  501    0  0.00000000000E+00  0.00000000000E+00  0.28266503491E+04  0.28266503491E+04  0.25500000920E-02 0. -1.
       -2   -1    0    0    0  501  0.00000000000E+00  0.00000000000E+00 -0.13222344795E+04  0.13222344795E+04  0.25500000920E-02 0.  1.
    10030    2    1    2    0    0  0.00000000000E+00  0.00000000000E+00  0.15044158695E+04  0.41488848286E+04  0.38665201684E+04 0.  0.
        1    1    3    3  502    0 -0.29828824444E+03 -0.15843299302E+04  0.18970928995E+04  0.24895860447E+04  0.50400001928E-02 0. -1.
       -1    1    3    3    0  502  0.29828824444E+03  0.15843299302E+04 -0.39267702999E+03  0.16592987839E+04  0.50400001928E-02 0.  1.
</event>
<event>
 5   0  0.5385714E-07  0.3906802E+04  0.7818609E-02  0.8023616E-01
       -1   -1    0    0    0  501  0.00000000000E+00  0.00000000000E+00  0.13744333950E+04  0.13744333951E+04  0.50400001928E-02 0. -1.
        1   -1    0    0  501    0  0.00000000000E+00  0.00000000000E+00 -0.27762532713E+04  0.27762532713E+04  0.50400001928E-02 0.  1.
    10030    2    1    2    0    0  0.00000000000E+00  0.00000000000E+00 -0.14018198763E+04  0.41506866664E+04  0.39068018681E+04 0.  0.
        3    1    3    3  502    0 -0.22359968821E+03  0.45181541269E+03 -0.27059527360E+04  0.27525105281E+04  0.10100000352E+00 0.  1.
       -3    1    3    3    0  502  0.22359968821E+03 -0.45181541269E+03  0.13041328597E+04  0.13981761383E+04  0.10100000352E+00 0. -1.
</event>
<event>
 5   0  0.1035864E-06  0.2812689E+04  0.7818609E-02  0.8299340E-01
        2   -1    0    0  501    0  0.00000000000E+00  0.00000000000E+00  0.16927249310E+04  0.16927249310E+04  0.25500000920E-02 0. -1.
       -2   -1    0    0    0  501  0.00000000000E+00  0.00000000000E+00 -0.11684148178E+04  0.11684148178E+04  0.25500000920E-02 0.  1.
    10030    2    1    2    0    0  0.00000000000E+00  0.00000000000E+00  0.52431011314E+03  0.28611397488E+04  0.28126890279E+04 0.  0.
        5    1    3    3  502    0  0.92094888808E+03 -0.97041768264E+03  0.70312620215E+03  0.15113788008E+04  0.46999998093E+01 0. -1.
       -5    1    3    3    0  502 -0.92094888808E+03  0.97041768264E+03 -0.17881608900E+03  0.13497609481E+04  0.46999998093E+01 0.  1.
</event>
<event>
 5   0  0.1034683E-06  0.2206287E+04  0.7818609E-02  0.8515816E-01
       -2   -1    0    0    0  501  0.00000000000E+00  0.00000000000E+00  0.77253063661E+03  0.77253063662E+03  0.25500000920E-02 0.  1.
        2   -1    0    0  501    0  0.00000000000E+00  0.00000000000E+00 -0.15752460336E+04  0.15752460336E+04  0.25500000920E-02 0. -1.
    10030    2    1    2    0    0  0.00000000000E+00  0.00000000000E+00 -0.80271539703E+03  0.23477766703E+04  0.22062872172E+04 0.  0.
        2    1    3    3  502    0 -0.34789022311E+03 -0.54973900586E+03  0.54666532731E+03  0.84975500116E+03  0.25500000920E-02 0.  1.
       -2    1    3    3    0  502  0.34789022311E+03  0.54973900586E+03 -0.13493807243E+04  0.14980216691E+04  0.25500000920E-02 0. -1.
</event>
<event>
 5   0  0.4316671E-07  0.3875798E+04  0.7818609E-02  0.8030082E-01
        1   -1    0    0  501    0  0.00000000000E+00  0.00000000000E+00  0.23682691817E+04  0.23682691817E+04  0.50400001928E-02 0.  1.
       -1   -1    0    0    0  501  0.00000000000E+00  0.00000000000E+00 -0.15857372366E+04  0.15857372366E+04  0.50400001928E-02 0. -1.
    10030    2    1    2    0    0  0.00000000000E+00  0.00000000000E+00  0.78253194503E+03  0.39540064183E+04  0.38757980483E+04 0.  0.
        2    1    3    3  502    0  0.10325759035E+04  0.16051109896E+04  0.73398882503E+03  0.20448310152E+04  0.25500000920E-02 0.  1.
       -2    1    3    3    0  502 -0.10325759035E+04 -0.16051109896E+04  0.48543120001E+02  0.19091754031E+04  0.25500000920E-02 0. -1.
</event>
<event>
 5   0  0.7268013E-07  0.2213879E+04  0.7818609E-02  0.8512673E-01
       -2   -1    0    0    0  501  0.00000000000E+00  0.00000000000E+00  0.10151891040E+04  0.10151891040E+04  0.25500000920E-02 0.  1.
        2   -1    0    0  501    0  0.00000000000E+00  0.00000000000E+00 -0.12069821385E+04  0.12069821385E+04  0.25500000920E-02 0. -1.
    10030    2    1    2    0    0  0.00000000000E+00  0.00000000000E+00 -0.19179303444E+03  0.22221712425E+04  0.22138790534E+04 0.  0.
        4    1    3    3  502    0  0.41711399528E+03 -0.99697655504E+03  0.14451503455E+03  0.10903359778E+04  0.12699999809E+01 0.  1.
       -4    1    3    3    0  502 -0.41711399528E+03  0.99697655504E+03 -0.33630806899E+03  0.11318352647E+04  0.12699999809E+01 0. -1.
</event>
<event>
 5   0  0.4316671E-07  0.2915138E+04  0.7818609E-02  0.8268388E-01
       -1   -1    0    0    0  501  0.00000000000E+00  0.00000000000E+00  0.14323900056E+04  0.14323900056E+04  0.50400001928E-02 0.  1.
        1   -1    0    0  501    0  0.00000000000E+00  0.00000000000E+00 -0.14831902293E+04  0.14831902293E+04  0.50400001928E-02 0. -1.
    10030    2    1    2    0    0  0.00000000000E+00  0.00000000000E+00 -0.50800223679E+02  0.29155802349E+04  0.29151376371E+04 0.  0.
        2    1    3    3  502    0  0.58932152156E+03 -0.73025390958E+03 -0.11408883406E+04  0.14772260606E+04  0.25500000920E-02 0.  1.
       -2    1    3    3    0  502 -0.58932152156E+03  0.73025390958E+03  0.10900881169E+04  0.14383541744E+04  0.25500000920E-02 0. -1.
</event>
<event>
 5   0  0.4627905E-07  0.2906918E+04  0.7818609E-02  0.8270822E-01
        1   -1    0    0  501    0  0.00000000000E+00  0.00000000000E+00  0.17373473140E+04  0.17373473140E+04  0.50400001928E-02 0. -1.
       -1   -1    0    0    0  501  0.00000000000E+00  0.00000000000E+00 -0.12159589802E+04  0.12159589802E+04  0.50400001928E-02 0.  1.
    10030    2    1    2    0    0  0.00000000000E+00  0.00000000000E+00  0.52138833386E+03  0.29533062942E+04  0.29069180024E+04 0.  0.
        1    1    3    3  502    0 -0.13103645289E+04 -0.21565191793E+03  0.86086833290E+03  0.15826102600E+04  0.50400001928E-02 0. -1.
       -1    1    3    3    0  502  0.13103645289E+04  0.21565191793E+03 -0.33947999904E+03  0.13706960342E+04  0.50400001928E-02 0.  1.
</event>
<event>
 5   0  0.1035864E-06  0.3905488E+04  0.7818609E-02  0.8023889E-01
       -2   -1    0    0    0  501  0.00000000000E+00  0.00000000000E+00  0.22927579039E+04  0.22927579039E+04  0.25500000920E-02 0. -1.
        2   -1    0    0  501    0  0.00000000000E+00  0.00000000000E+00 -0.16631542361E+04  0.16631542361E+04  0.25500000920E-02 0.  1.
    10030    2    1    2    0    0  0.00000000000E+00  0.00000000000E+00  0.62960366779E+03  0.39559121401E+04  0.39054884562E+04 0.  0.
        5    1    3    3  502    0  0.92934951525E+02  0.68940946254E+03  0.21629870923E+04  0.22721042149E+04  0.46999998093E+01 0. -1.
       -5    1    3    3    0  502 -0.92934951525E+02 -0.68940946254E+03 -0.15333834245E+04  0.16838079251E+04  0.46999998093E+01 0.  1.
</event>
<event>
 5   0  0.7268013E-07  0.3553480E+04  0.7818609E-02  0.8101232E-01
        2   -1    0    0  501    0  0.00000000000E+00  0.00000000000E+00  0.18042798200E+04  0.18042798200E+04  0.25500000920E-02 0.  1.
       -2   -1    0    0    0  501  0.00000000000E+00  0.00000000000E+00 -0.17496201561E+04  0.17496201561E+04  0.25500000920E-02 0. -1.
    10030    2    1    2    0    0  0.00000000000E+00  0.00000000000E+00  0.54659663883E+02  0.35538999760E+04  0.35534796131E+04 0.  0.
        4    1    3    3  502    0 -0.87840157090E+03  0.10750626131E+04 -0.10816087065E+04  0.17598943004E+04  0.12699999809E+01 0. -1.
       -4    1    3    3    0  502  0.87840157090E+03 -0.10750626131E+04  0.11362683704E+04  0.17940056756E+04  0.12699999809E+01 0.  1.
</event>
<event>
 5   0  0.1015219E-06  0.2825255E+04  0.7818609E-02  0.8295470E-01
       -2   -1    0    0    0  501  0.00000000000E+00  0.00000000000E+00  0.99036558917E+03  0.99036558917E+03  0.25500000920E-02 0.  1.
        2   -1    0    0  501    0  0.00000000000E+00  0.00000000000E+00 -0.20149288470E+04  0.20149288470E+04  0.25500000920E-02 0. -1.
    10030    2    1    2    0    0  0.00000000000E+00  0.00000000000E+00 -0.10245632578E+04  0.30052944361E+04  0.28252548166E+04 0.  0.
        3    1    3    3  502    0 -0.10251532388E+04  0.77912657799E+03 -0.11302855809E+04  0.17133367714E+04  0.10100000352E+00 0. -1.
       -3    1    3    3    0  502  0.10251532388E+04 -0.77912657799E+03  0.10572232311E+03  0.12919576647E+04  0.10100000352E+00 0.  1.
</event>
<event>
 5   0  0.3471602E-07  0.3892297E+04  0.7818609E-02  0.8026633E-01
       -1   -1    0    0    0  501  0.00000000000E+00  0.00000000000E+00  0.32365636143E+04  0.32365636143E+04  0.50400001928E-02 0.  1.
        1   -1    0    0  501    0  0.00000000000E+00  0.00000000000E+00 -0.11702210363E+04  0.11702210363E+04  0.50400001928E-02 0. -1.
    10030    2    1    2    0    0  0.00000000000E+00  0.00000000000E+00  0.20663425780E+04  0.44067846506E+04  0.38922974330E+04 0.  0.
        5    1    3    3  502    0 -0.15942132396E+04  0.57918243375E+03 -0.47159810790E+02  0.16968247648E+04  0.46999998093E+01 0.  1.
       -5    1    3    3    0  502  0.15942132396E+04 -0.57918243375E+03  0.21135023888E+04  0.27099598857E+04  0.46999998093E+01 0. -1.
</event>
<event>
 5   0  0.7268013E-07  0.3294428E+04  0.7818609E-02  0.8164315E-01
        2   -1    0    0  501    0  0.00000000000E+00  0.00000000000E+00  0.15533633522E+04  0.15533633522E+04  0.25500000920E-02 0.  1.
       -2   -1    0    0    0  501  0.00000000000E+00  0.00000000000E+00 -0.17467351698E+04  0.17467351698E+04  0.25500000920E-02 0. -1.
    10030    2    1    2    0    0  0.00000000000E+00  0.00000000000E+00 -0.19337181755E+03  0.33000985220E+04  0.32944282653E+04 0.  0.
        4    1    3    3  502    0 -0.77988814067E+03  0.18936784302E+03  0.13442707835E+04  0.15656152925E+04  0.12699999809E+01 0.  1.
       -4    1    3    3    0  502  0.77988814067E+03 -0.18936784302E+03 -0.15376426010E+04  0.17344832295E+04  0.12699999809E+01 0. -1.
</event>
<event>
 5   0  0.3977376E-07  0.3944778E+04  0.7818609E-02  0.8015780E-01
        1   -1    0    0  501    0  0.00000000000E+00  0.00000000000E+00  0.20448480931E+04  0.20448480931E+04  0.50400001928E-02 0.  1.
       -1   -1    0    0    0  501  0.00000000000E+00  0.00000000000E+00 -0.19024973019E+04  0.19024973019E+04  0.50400001928E-02 0. -1.
    10030    2    1    2    0    0  0.00000000000E+00  0.00000000000E+00  0.14235079122E+03  0.39473453950E+04  0.39447778036E+04 0.  0.
        4    1    3    3  502    0  0.96435166554E+03  0.17123253399E+04  0.23946382094E+03  0.19797415838E+04  0.12699999809E+01 0.  1.
       -4    1    3    3    0  502 -0.96435166554E+03 -0.17123253399E+04 -0.97113029725E+02  0.19676038112E+04  0.12699999809E+01 0. -1.
</event>
<event>
 5   0  0.3471602E-07  0.3937898E+04  0.7818609E-02  0.8017193E-01
        1   -1    0    0  501    0  0.00000000000E+00  0.00000000000E+00  0.16794492845E+04  0.16794492845E+04  0.50400001928E-02 0.  1.
       -1   -1    0    0    0  501  0.00000000000E+00  0.00000000000E+00 -0.23083519115E+04  0.23083519115E+04  0.50400001928E-02 0. -1.
    10030    2    1    2    0    0  0.00000000000E+00  0.00000000000E+00 -0.62890262701E+03  0.39878011961E+04  0.39378978993E+04 0.  0.
        5    1    3    3  502    0  0.99732125939E+03 -0.27991766744E+03 -0.20101062302E+04  0.22613165948E+04  0.46999998093E+01 0. -1.
       -5    1    3    3    0  502 -0.99732125939E+03  0.27991766744E+03  0.13812036032E+04  0.17264846013E+04  0.46999998093E+01 0.  1.
</event>
<event>
 5   0  0.1035864E-06  0.3259460E+04  0.7818609E-02  0.8173288E-01
        2   -1    0    0  501    0  0.00000000000E+00  0.00000000000E+00  0.20303931896E+04  0.20303931896E+04  0.25500000920E-02 0.  1.
       -2   -1    0    0    0  501  0.00000000000E+00  0.00000000000E+00 -0.13081309638E+04  0.13081309638E+04  0.25500000920E-02 0. -1.
    10030    2    1    2    0    0  0.00000000000E+00  0.00000000000E+00  0.72226222575E+03  0.33385241534E+04  0.32594602007E+04 0.  0.
        5    1    3    3  502    0 -0.75143067504E+03  0.10076565380E+04  0.14235862652E+04  0.18991155053E+04  0.46999998093E+01 0.  1.
       -5    1    3    3    0  502  0.75143067504E+03 -0.10076565380E+04 -0.70132403943E+03  0.14394086481E+04  0.46999998093E+01 0. -1.
</event>
<event>
 5   0  0.1035864E-06  0.1992417E+04  0.7818609E-02  0.8610174E-01
        2   -1    0    0  501    0  0.00000000000E+00  0.00000000000E+00  0.16691382842E+04  0.16691382842E+04  0.25500000920E-02 0. -1.
       -2   -1    0    0    0  501  0.00000000000E+00  0.00000000000E+00 -0.59457704890E+03  0.59457704890E+03  0.25500000920E-02 0.  1.
    10030    2    1    2    0    0  0.00000000000E+00  0.00000000000E+00  0.10745612353E+04  0.22637153331E+04  0.19924169396E+04 0.  0.
        5    1    3    3  502    0  0.86971782043E+03 -0.48362530767E+03  0.58942924978E+03  0.11566120594E+04  0.46999998093E+01 0. -1.
       -5    1    3    3    0  502 -0.86971782043E+03  0.48362530767E+03  0.48513198556E+03  0.11071032738E+04  0.46999998093E+01 0.  1.
</event>
<event>
 5   0  0.3191750E-07  0.3844646E+04  0.7818609E-02  0.8036641E-01
        3   -1    0    0  501    0  0.00000000000E+00  0.00000000000E+00  0.17322202056E+04  0.17322202085E+04  0.10100000352E+00 0. -1.
       -3   -1    0    0    0  501  0.00000000000E+00  0.00000000000E+00 -0.21332887250E+04  0.21332887274E+04  0.10100000352E+00 0.  1.
    10030    2    1    2    0    0  0.00000000000E+00  0.00000000000E+00 -0.40106851937E+03  0.38655089359E+04  0.38446460665E+04 0.  0.
        4    1    3    3  502    0  0.14367564382E+03  0.57744074395E+03 -0.20383602733E+04  0.21234393610E+04  0.12699999809E+01 0.  1.
       -4    1    3    3    0  502 -0.14367564382E+03 -0.57744074395E+03  0.16372917539E+04  0.17420695749E+04  0.12699999809E+01 0. -1.
</event>
<event>
 5   0  0.3191750E-07  0.3873683E+04  0.7818609E-02  0.8030525E-01
       -3   -1    0    0    0  501  0.00000000000E+00  0.00000000000E+00  0.13024905849E+04  0.13024905888E+04  0.10100000352E+00 0.  1.
        3   -1    0    0  501    0  0.00000000000E+00  0.00000000000E+00 -0.28801405249E+04  0.28801405267E+04  0.10100000352E+00 0. -1.
    10030    2    1    2    0    0  0.00000000000E+00  0.00000000000E+00 -0.15776499400E+04  0.41826311155E+04  0.38736834815E+04 0.  0.
        2    1    3    3  502    0  0.14746970713E+04  0.11775338849E+04 -0.12595270803E+04  0.22688600592E+04  0.25500000920E-02 0. -1.
       -2    1    3    3    0  502 -0.14746970713E+04 -0.11775338849E+04 -0.31812285966E+03  0.19137710563E+04  0.25500000920E-02 0.  1.
</event>
<event>
 5   0  0.3191750E-07  0.2351581E+04  0.7818609E-02  0.8457857E-01
       -4   -1    0    0    0  501  0.00000000000E+00  0.00000000000E+00  0.14086716579E+04  0.14086722303E+04  0.12699999809E+01 0. -1.
        4   -1    0    0  501    0  0.00000000000E+00  0.00000000000E+00 -0.98140828504E+03  0.98140910676E+03  0.12699999809E+01 0.  1.
    10030    2    1    2    0    0  0.00000000000E+00  0.00000000000E+00  0.42726337282E+03  0.23900813371E+04  0.23515813420E+04 0.  0.
        4    1    3    3  502    0  0.10807050754E+04  0.63737547372E+02  0.67994171731E+03  0.12784006754E+04  0.12699999809E+01 0. -1.
       -4    1    3    3    0  502 -0.10807050754E+04 -0.63737547372E+02 -0.25267834449E+03  0.11116806617E+04  0.12699999809E+01 0.  1.
</event>
<event>
 5   0  0.1035864E-06  0.3902089E+04  0.7818609E-02  0.8024595E-01
       -2   -1    0    0    0  501  0.00000000000E+00  0.00000000000E+00  0.16854961723E+04  0.16854961723E+04  0.25500000920E-02 0.  1.
        2   -1    0    0  501    0  0.00000000000E+00  0.00000000000E+00 -0.22584299248E+04  0.22584299248E+04  0.25500000920E-02 0. -1.
    10030    2    1    2    0    0  0.00000000000E+00  0.00000000000E+00 -0.57293375254E+03  0.39439260971E+04  0.39020891807E+04 0.  0.
        5    1    3    3  502    0  0.18903663061E+04  0.37302200222E+03 -0.59622086266E+03  0.20169609794E+04  0.46999998093E+01 0. -1.
       -5    1    3    3    0  502 -0.18903663061E+04 -0.37302200222E+03  0.23287110114E+02  0.19269651177E+04  0.46999998093E+01 0.  1.
</event>
<event>
 5   0  0.1035864E-06  0.3747669E+04  0.7818609E-02  0.8057479E-01
        2   -1    0    0  501    0  0.00000000000E+00  0.00000000000E+00  0.26398085403E+04  0.26398085403E+04  0.25500000920E-02 0.  1.
       -2   -1    0    0    0  501  0.00000000000E+00  0.00000000000E+00 -0.13301174870E+04  0.13301174870E+04  0.25500000920E-02 0. -1.
    10030    2    1    2    0    0  0.00000000000E+00  0.00000000000E+00  0.13096910533E+04  0.39699260273E+04  0.37476688764E+04 0.  0.
        5    1    3    3  502    0  0.12381387728E+04 -0.13969857407E+04  0.82786169810E+03  0.20420415915E+04  0.46999998093E+01 0. -1.
       -5    1    3    3    0  502 -0.12381387728E+04  0.13969857407E+04  0.48182935523E+03  0.19278844358E+04  0.46999998093E+01 0.  1.
</event>
<event>
 5   0  0.7268013E-07  0.3045403E+04  0.7818609E-02  0.8230883E-01
       -2   -1    0    0    0  501  0.00000000000E+00  0.00000000000E+00  0.11364259464E+04  0.11364259464E+04  0.25500000920E-02 0. -1.
        2   -1    0    0  501    0  0.00000000000E+00  0.00000000000E+00 -0.20402738333E+04  0.20402738333E+04  0.25500000920E-02 0.  1.
    10030    2    1    2    0    0  0.00000000000E+00  0.00000000000E+00 -0.90384788690E+03  0.31766997797E+04  0.30454031732E+04 0.  0.
        4    1    3    3  502    0 -0.92137305884E+03 -0.44982841684E+03 -0.16262230616E+04  0.19224663787E+04  0.12699999809E+01 0.  1.
       -4    1    3    3    0  502  0.92137305884E+03  0.44982841684E+03  0.72237517474E+03  0.12542334010E+04  0.12699999809E+01 0. -1.
</event>
<event>
 5   0  0.3471602E-07  0.2933124E+04  0.7818609E-02  0.8263090E-01
        1   -1    0    0  501    0  0.00000000000E+00  0.00000000000E+00  0.97694428493E+03  0.97694428494E+03  0.50400001928E-02 0.  1.
       -1   -1    0    0    0  501  0.00000000000E+00  0.00000000000E+00 -0.22015623168E+04  0.22015623168E+04  0.50400001928E-02 0. -1.
    10030    2    1    2    0    0  0.00000000000E+00  0.00000000000E+00 -0.12246180318E+04  0.31785066017E+04  0.29331237433E+04 0.  0.
        5    1    3    3  502    0 -0.48720374249E+03  0.33135900940E+03  0.84303174828E+03  0.10285382338E+04  0.46999998093E+01 0.  1.
       -5    1    3    3    0  502  0.48720374249E+03 -0.33135900940E+03 -0.20676497801E+04  0.21499683679E+04  0.46999998093E+01 0. -1.
</event>
<event>
 5   0  0.1035864E-06  0.1980189E+04  0.7818609E-02  0.8615939E-01
       -2   -1    0    0    0  501  0.00000000000E+00  0.00000000000E+00  0.13532230889E+04  0.13532230889E+04  0.25500000920E-02 0.  1.
        2   -1    0    0  501    0  0.00000000000E+00  0.00000000000E+00 -0.72440886131E+03  0.72440886131E+03  0.25500000920E-02 0. -1.
    10030    2    1    2    0    0  0.00000000000E+00  0.00000000000E+00  0.62881422762E+03  0.20776319502E+04  0.19801886748E+04 0.  0.
        5    1    3    3  502    0 -0.94784976823E+03  0.85560888922E+02  0.60083323508E+03  0.11255054488E+04  0.46999998093E+01 0.  1.
       -5    1    3    3    0  502  0.94784976823E+03 -0.85560888922E+02  0.27980992541E+02  0.95212650147E+03  0.46999998093E+01 0. -1.
</event>
<event>
 5   0  0.3977376E-07  0.4146132E+04  0.7818609E-02  0.7975699E-01
        1   -1    0    0  501    0  0.00000000000E+00  0.00000000000E+00  0.22289965353E+04  0.22289965353E+04  0.50400001928E-02 0.  1.
       -1   -1    0    0    0  501  0.00000000000E+00  0.00000000000E+00 -0.19280440726E+04  0.19280440726E+04  0.50400001928E-02 0. -1.
    10030    2    1    2    0    0  0.00000000000E+00  0.00000000000E+00  0.30095246266E+03  0.41570406079E+04  0.41461324425E+04 0.  0.
        4    1    3    3  502    0 -0.30721329852E+03 -0.46101425368E+02  0.22055264048E+04  0.22272973954E+04  0.12699999809E+01 0.  1.
       -4    1    3    3    0  502  0.30721329852E+03  0.46101425368E+02 -0.19045739422E+04  0.19297432125E+04  0.12699999809E+01 0. -1.
</event>
<event>
 5   0  0.1015219E-06  0.2229184E+04  0.7818609E-02  0.8506378E-01
       -2   -1    0    0    0  501  0.00000000000E+00  0.00000000000E+00  0.10472621052E+04  0.10472621052E+04  0.25500000920E-02 0.  1.
        2   -1    0    0  501    0  0.00000000000E+00  0.00000000000E+00 -0.11862504262E+04  0.11862504262E+04  0.25500000920E-02 0. -1.
    10030    2    1    2    0    0  0.00000000000E+00  0.00000000000E+00 -0.13898832101E+03  0.22335125315E+04  0.22291838136E+04 0.  0.
        3    1    3    3  502    0  0.97503225562E+03  0.53825583754E+03 -0.11325806214E+03  0.11194796313E+04  0.10100000352E+00 0.  1.
       -3    1    3    3    0  502 -0.97503225562E+03 -0.53825583754E+03 -0.25730258876E+02  0.11140329001E+04  0.10100000352E+00 0. -1.
</event>
<event>
 5   0  0.1015219E-06  0.3927858E+04  0.7818609E-02  0.8019260E-01
       -2   -1    0    0    0  501  0.00000000000E+00  0.00000000000E+00  0.25634174701E+04  0.25634174701E+04  0.25500000920E-02 0. -1.
        2   -1    0    0  501    0  0.00000000000E+00  0.00000000000E+00 -0.15046383449E+04  0.15046383449E+04  0.25500000920E-02 0.  1.
    10030    2    1    2    0    0  0.00000000000E+00  0.00000000000E+00  0.10587791252E+04  0.40680558151E+04  0.39278575430E+04 0.  0.
        3    1    3    3  502    0  0.54776796921E+03 -0.15110027991E+04 -0.63953936083E+03  0.17297947310E+04  0.10100000352E+00 0.  1.
       -3    1    3    3    0  502 -0.54776796921E+03  0.15110027991E+04  0.16983184861E+04  0.23382610841E+04  0.10100000352E+00 0. -1.
</event>
<event>
 5   0  0.9260642E-07  0.1953581E+04  0.7818609E-02  0.8628636E-01
        2   -1    0    0  501    0  0.00000000000E+00  0.00000000000E+00  0.11207129225E+04  0.11207129225E+04  0.25500000920E-02 0. -1.
       -2   -1    0    0    0  501  0.00000000000E+00  0.00000000000E+00 -0.85135044853E+03  0.85135044853E+03  0.25500000920E-02 0.  1.
    10030    2    1    2    0    0  0.00000000000E+00  0.00000000000E+00  0.26936247395E+03  0.19720633710E+04  0.19535807628E+04 0.  0.
        4    1    3    3  502    0  0.51210355737E+03  0.14026340981E+03  0.96231233161E+03  0.10990771193E+04  0.12699999809E+01 0. -1.
       -4    1    3    3    0  502 -0.51210355737E+03 -0.14026340981E+03 -0.69294985767E+03  0.87298625175E+03  0.12699999809E+01 0.  1.
</event>
<event>
 5   0  0.3471602E-07  0.1997763E+04  0.7818609E-02  0.8607667E-01
       -1   -1    0    0    0  501  0.00000000000E+00  0.00000000000E+00  0.59138588374E+03  0.59138588376E+03  0.50400001928E-02 0.  1.
        1   -1    0    0  501    0  0.00000000000E+00  0.00000000000E+00 -0.16871632422E+04  0.16871632422E+04  0.50400001928E-02 0. -1.
    10030    2    1    2    0    0  0.00000000000E+00  0.00000000000E+00 -0.10957773584E+04  0.22785491259E+04  0.19977632743E+04 0.  0.
        5    1    3    3  502    0  0.69258691512E+03  0.69132516360E+03 -0.31939313969E+03  0.10293887431E+04  0.46999998093E+01 0. -1.
       -5    1    3    3    0  502 -0.69258691512E+03 -0.69132516360E+03 -0.77638421874E+03  0.12491603828E+04  0.46999998093E+01 0.  1.
</event>
<event>
 5   0  0.1034683E-06  0.3930021E+04  0.7818609E-02  0.8018814E-01
        2   -1    0    0  501    0  0.00000000000E+00  0.00000000000E+00  0.24470261458E+04  0.24470261458E+04  0.25500000920E-02 0.  1.
       -2   -1    0    0    0  501  0.00000000000E+00  0.00000000000E+00 -0.15779423870E+04  0.15779423870E+04  0.25500000920E-02 0. -1.
    10030    2    1    2    0    0  0.00000000000E+00  0.00000000000E+00  0.86908375883E+03  0.40249685328E+04  0.39300210063E+04 0.  0.
        2    1    3    3  502    0 -0.24373451877E+03 -0.58870016856E+03 -0.14692084305E+04  0.16014205620E+04  0.25500000920E-02 0. -1.
       -2    1    3    3    0  502  0.24373451877E+03  0.58870016856E+03  0.23382921893E+04  0.24235479708E+04  0.25500000920E-02 0.  1.
</event>
<event>
 5   0  0.1035864E-06  0.3915273E+04  0.7818609E-02  0.8021860E-01
       -2   -1    0    0    0  501  0.00000000000E+00  0.00000000000E+00  0.12439148000E+04  0.12439148000E+04  0.25500000920E-02 0.  1.
        2   -1    0    0  501    0  0.00000000000E+00  0.00000000000E+00 -0.30808705288E+04  0.30808705288E+04  0.25500000920E-02 0. -1.
    10030    2    1    2    0    0  0.00000000000E+00  0.00000000000E+00 -0.18369557288E+04  0.43247853289E+04  0.39152728885E+04 0.  0.
        5    1    3    3  502    0  0.18418964385E+04  0.17396783836E+02 -0.16507102960E+04  0.24734089248E+04  0.46999998093E+01 0.  1.
       -5    1    3    3    0  502 -0.18418964385E+04 -0.17396783836E+02 -0.18624543287E+03  0.18513764040E+04  0.46999998093E+01 0. -1.
</event>
<event>
 5   0  0.1034683E-06  0.2261269E+04  0.7818609E-02  0.8493351E-01
       -2   -1    0    0    0  501  0.00000000000E+00  0.00000000000E+00  0.10930170917E+04  0.10930170917E+04  0.25500000920E-02 0. -1.
        2   -1    0    0  501    0  0.00000000000E+00  0.00000000000E+00 -0.11695460718E+04  0.11695460718E+04  0.25500000920E-02 0.  1.
    10030    2    1    2    0    0  0.00000000000E+00  0.00000000000E+00 -0.76528980058E+02  0.22625631635E+04  0.22612685342E+04 0.  0.
        2    1    3    3  502    0 -0.18213533165E+03  0.17384509782E+02 -0.11546354745E+04  0.11690417354E+04  0.25500000920E-02 0.  1.
       -2    1    3    3    0  502  0.18213533165E+03 -0.17384509782E+02  0.10781064944E+04  0.10935214280E+04  0.25500000920E-02 0. -1.
</event>
<event>
 5   0  0.3471602E-07  0.2464493E+04  0.7818609E-02  0.8415745E-01
       -1   -1    0    0    0  501  0.00000000000E+00  0.00000000000E+00  0.10711760818E+04  0.10711760818E+04  0.50400001928E-02 0. -1.
        1   -1    0    0  501    0  0.00000000000E+00  0.00000000000E+00 -0.14175367745E+04  0.14175367745E+04  0.50400001928E-02 0.  1.
    10030    2    1    2    0    0  0.00000000000E+00  0.00000000000E+00 -0.34636069267E+03  0.24887128563E+04  0.24644930415E+04 0.  0.
        5    1    3    3  502    0  0.53758031072E+02  0.11905063714E+04 -0.48965141173E+03  0.12884005360E+04  0.46999998093E+01 0. -1.
       -5    1    3    3    0  502 -0.53758031072E+02 -0.11905063714E+04  0.14329071905E+03  0.12003123203E+04  0.46999998093E+01 0.  1.
</event>
<event>
 5   0  0.7268013E-07  0.2109988E+04  0.7818609E-02  0.8556856E-01
        2   -1    0    0  501    0  0.00000000000E+00  0.00000000000E+00  0.20036556447E+04  0.20036556447E+04  0.25500000920E-02 0.  1.
       -2   -1    0    0    0  501  0.00000000000E+00  0.00000000000E+00 -0.55549076179E+03  0.55549076180E+03  0.25500000920E-02 0. -1.
    10030    2    1    2    0    0  0.00000000000E+00  0.00000000000E+00  0.14481648829E+04  0.25591464065E+04  0.21099878677E+04 0.  0.
        4    1    3    3  502    0 -0.95392310970E+03  0.12140239429E+03  0.19777016300E+03  0.98174461589E+03  0.12699999809E+01 0.  1.
       -4    1    3    3    0  502  0.95392310970E+03 -0.12140239429E+03  0.12503947199E+04  0.15774017906E+04  0.12699999809E+01 0. -1.
</event>
<event>
 5   0  0.3977376E-07  0.3666999E+04  0.7818609E-02  0.8075315E-01
       -1   -1    0    0    0  501  0.00000000000E+00  0.00000000000E+00  0.19320173145E+04  0.19320173145E+04  0.50400001928E-02 0.  1.
        1   -1    0    0  501    0  0.00000000000E+00  0.00000000000E+00 -0.17400049383E+04  0.17400049383E+04  0.50400001928E-02 0. -1.
    10030    2    1    2    0    0  0.00000000000E+00  0.00000000000E+00  0.19201237618E+03  0.36720222527E+04  0.36669985918E+04 0.  0.
        4    1    3    3  502    0  0.20004093895E+03 -0.77932540266E+03 -0.15537804131E+04  0.17497427370E+04  0.12699999809E+01 0. -1.
       -4    1    3    3    0  502 -0.20004093895E+03  0.77932540266E+03  0.17457927893E+04  0.19222795157E+04  0.12699999809E+01 0.  1.
</event>
<event>
 5   0  0.3471602E-07  0.2412873E+04  0.7818609E-02  0.8434700E-01
       -1   -1    0    0    0  501  0.00000000000E+00  0.00000000000E+00  0.15810030678E+04  0.15810030678E+04  0.50400001928E-02 0.  1.
        1   -1    0    0  501    0  0.00000000000E+00  0.00000000000E+00 -0.92061126111E+03  0.92061126112E+03  0.50400001928E-02 0. -1.
    10030    2    1    2    0    0  0.00000000000E+00  0.00000000000E+00  0.66039180668E+03  0.25016143289E+04  0.24128731654E+04 0.  0.
        5    1    3    3  502    0  0.47907966892E+03 -0.67109429601E+03  0.12432569062E+04  0.14918427223E+04  0.46999998093E+01 0.  1.
       -5    1    3    3    0  502 -0.47907966892E+03  0.67109429601E+03 -0.58286509950E+03  0.10097716066E+04  0.46999998093E+01 0. -1.
</event>
<event>
 5   0  0.3977376E-07  0.2047534E+04  0.7818609E-02  0.8584714E-01
       -1   -1    0    0    0  501  0.00000000000E+00  0.00000000000E+00  0.89111585470E+03  0.89111585472E+03  0.50400001928E-02 0. -1.
        1   -1    0    0  501    0  0.00000000000E+00  0.00000000000E+00 -0.11761650659E+04  0.11761650659E+04  0.50400001928E-02 0.  1.
    10030    2    1    2    0    0  0.00000000000E+00  0.00000000000E+00 -0.28504921123E+03  0.20672809207E+04  0.20475344569E+04 0.  0.
        4    1    3    3  502    0  0.91467960334E+03 -0.45406450125E+03 -0.21591938636E+03  0.10437605771E+04  0.12699999809E+01 0. -1.
       -4    1    3    3    0  502 -0.91467960334E+03  0.45406450125E+03 -0.69129824875E+02  0.10235203435E+04  0.12699999809E+01 0.  1.
</event>
<event>
 5   0  0.1034683E-06  0.3928345E+04  0.7818609E-02  0.8019160E-01
        2   -1    0    0  501    0  0.00000000000E+00  0.00000000000E+00  0.11077908840E+04  0.11077908840E+04  0.25500000920E-02 0. -1.
       -2   -1    0    0    0  501  0.00000000000E+00  0.00000000000E+00 -0.34825834980E+04  0.34825834980E+04  0.25500000920E-02 0.  1.
    10030    2    1    2    0    0  0.00000000000E+00  0.00000000000E+00 -0.23747926141E+04  0.45903743820E+04  0.39283453268E+04 0.  0.
        2    1    3    3  502    0  0.12119283043E+04 -0.23499938673E+03 -0.29725966083E+04  0.32187459549E+04  0.25500000920E-02 0.  1.
       -2    1    3    3    0  502 -0.12119283043E+04  0.23499938673E+03  0.59780399417E+03  0.13716284271E+04  0.25500000920E-02 0. -1.
</event>
<event>
 5   0  0.5533705E-07  0.3812472E+04  0.7818609E-02  0.8043484E-01
       -2   -1    0    0    0  501  0.00000000000E+00  0.00000000000E+00  0.17017471489E+04  0.17017471489E+04  0.25500000920E-02 0.  1.
        2   -1    0    0  501    0  0.00000000000E+00  0.00000000000E+00 -0.21352965327E+04  0.21352965327E+04  0.25500000920E-02 0. -1.
    10030    2    1    2    0    0  0.00000000000E+00  0.00000000000E+00 -0.43354938384E+03  0.38370436816E+04  0.38124715273E+04 0.  0.
        1    1    3    3  502    0  0.40729868041E+03 -0.86602805769E+03 -0.18759868280E+04  0.21059970063E+04  0.50400001928E-02 0. -1.
       -1    1    3    3    0  502 -0.40729868041E+03  0.86602805769E+03  0.14424374442E+04  0.17310466753E+04  0.50400001928E-02 0.  1.
</event>
<event>
 5   0  0.3471602E-07  0.3927022E+04  0.7818609E-02  0.8019433E-01
        1   -1    0    0  501    0  0.00000000000E+00  0.00000000000E+00  0.18915388200E+04  0.18915388200E+04  0.50400001928E-02 0.  1.
       -1   -1    0    0    0  501  0.00000000000E+00  0.00000000000E+00 -0.20382214940E+04  0.20382214940E+04  0.50400001928E-02 0. -1.
    10030    2    1    2    0    0  0.00000000000E+00  0.00000000000E+00 -0.14668267397E+03  0.39297603140E+04  0.39270218128E+04 0.  0.
        5    1    3    3  502    0  0.36872157810E+03  0.19226667394E+04  0.77594864545E+02  0.19592462954E+04  0.46999998093E+01 0.  1.
       -5    1    3    3    0  502 -0.36872157810E+03 -0.19226667394E+04 -0.22427753851E+03  0.19705140186E+04  0.46999998093E+01 0. -1.
</event>
<event>
 5   0  0.1015219E-06  0.3867626E+04  0.7818609E-02  0.8031796E-01
        2   -1    0    0  501    0  0.00000000000E+00  0.00000000000E+00  0.25457878811E+04  0.25457878811E+04  0.25500000920E-02 0. -1.
       -2   -1    0    0    0  501  0.00000000000E+00  0.00000000000E+00 -0.14689490548E+04  0.14689490548E+04  0.25500000920E-02 0.  1.
    10030    2    1    2    0    0  0.00000000000E+00  0.00000000000E+00  0.10768388263E+04  0.40147369360E+04  0.38676259911E+04 0.  0.
        3    1    3    3  502    0 -0.16545979513E+04 -0.10745065502E+03  0.15714574952E+04  0.22844515082E+04  0.10100000352E+00 0. -1.
       -3    1    3    3    0  502  0.16545979513E+04  0.10745065502E+03 -0.49461866887E+03  0.17302854278E+04  0.10100000352E+00 0.  1.
</event>
<event>
 5   0  0.1015219E-06  0.3750025E+04  0.7818609E-02  0.8056965E-01
        2   -1    0    0  501    0  0.00000000000E+00  0.00000000000E+00  0.21327663807E+04  0.21327663807E+04  0.25500000920E-02 0. -1.
       -2   -1    0    0    0  501  0.00000000000E+00  0.00000000000E+00 -0.16484088695E+04  0.16484088695E+04  0.25500000920E-02 0.  1.
    10030    2    1    2    0    0  0.00000000000E+00  0.00000000000E+00  0.48435751126E+03  0.37811752502E+04  0.37500245431E+04 0.  0.
        3    1    3    3  502    0 -0.14431104562E+04  0.35303830041E+03 -0.91120575037E+03  0.17428424369E+04  0.10100000352E+00 0.  1.
       -3    1    3    3    0  502  0.14431104562E+04 -0.35303830041E+03  0.13955632616E+04  0.20383328133E+04  0.10100000352E+00 0. -1.
</event>
<event>
 5   0  0.1015219E-06  0.3628912E+04  0.7818609E-02  0.8083901E-01
       -2   -1    0    0    0  501  0.00000000000E+00  0.00000000000E+00  0.10518001145E+04  0.10518001145E+04  0.25500000920E-02 0. -1.
        2   -1    0    0  501    0  0.00000000000E+00  0.00000000000E+00 -0.31301109390E+04  0.31301109390E+04  0.25500000920E-02 0.  1.
    10030    2    1    2    0    0  0.00000000000E+00  0.00000000000E+00 -0.20783108245E+04  0.41819110536E+04  0.36289122580E+04 0.  0.
        3    1    3    3  502    0 -0.64994878570E+03  0.15958897946E+04 -0.38426559694E+03  0.17654907872E+04  0.10100000352E+00 0.  1.
       -3    1    3    3    0  502  0.64994878570E+03 -0.15958897946E+04 -0.16940452276E+04  0.24164202664E+04  0.10100000352E+00 0. -1.
</event>
<event>
 5   0  0.3977376E-07  0.3879716E+04  0.7818609E-02  0.8029261E-01
        1   -1    0    0  501    0  0.00000000000E+00  0.00000000000E+00  0.25559096172E+04  0.25559096172E+04  0.50400001928E-02 0. -1.
       -1   -1    0    0    0  501  0.00000000000E+00  0.00000000000E+00 -0.14722932420E+04  0.14722932420E+04  0.50400001928E-02 0.  1.
    10030    2    1    2    0    0  0.00000000000E+00  0.00000000000E+00  0.10836163753E+04  0.40282028592E+04  0.38797156889E+04 0.  0.
        4    1    3    3  502    0  0.49159199562E+03 -0.10231266969E+04  0.21750992225E+04  0.24534688033E+04  0.12699999809E+01 0. -1.
       -4    1    3    3    0  502 -0.49159199562E+03  0.10231266969E+04 -0.10914828473E+04  0.15747340559E+04  0.12699999809E+01 0.  1.
</event>
<event>
 5   0  0.7268013E-07  0.2053629E+04  0.7818609E-02  0.8581950E-01
       -2   -1    0    0    0  501  0.00000000000E+00  0.00000000000E+00  0.13541003505E+04  0.13541003505E+04  0.25500000920E-02 0. -1.
        2   -1    0    0  501    0  0.00000000000E+00  0.00000000000E+00 -0.77863323376E+03  0.77863323376E+03  0.25500000920E-02 0.  1.
    10030    2    1    2    0    0  0.00000000000E+00  0.00000000000E+00  0.57546711677E+03  0.21327335843E+04  0.20536285300E+04 0.  0.
        4    1    3    3  502    0 -0.28568940052E+03  0.76703643581E+03  0.93160116445E+03  0.12400990565E+04  0.12699999809E+01 0.  1.
       -4    1    3    3    0  502  0.28568940052E+03 -0.76703643581E+03 -0.35613404767E+03  0.89263452781E+03  0.12699999809E+01 0. -1.
</event>
<event>
 5   0  0.3977376E-07  0.2759552E+04  0.7818609E-02  0.8315937E-01
        1   -1    0    0  501    0  0.00000000000E+00  0.00000000000E+00  0.10367758585E+04  0.10367758585E+04  0.50400001928E-02 0.  1.
       -1   -1    0    0    0  501  0.00000000000E+00  0.00000000000E+00 -0.18362524431E+04  0.18362524431E+04  0.50400001928E-02 0. -1.
    10030    2    1    2    0    0  0.00000000000E+00  0.00000000000E+00 -0.79947658458E+03  0.28730283016E+04  0.27595522848E+04 0.  0.
        4    1    3    3  502    0  0.18747747772E+03 -0.89542932590E+03 -0.14750905245E+04  0.17357520419E+04  0.12699999809E+01 0. -1.
       -4    1    3    3    0  502 -0.18747747772E+03  0.89542932590E+03  0.67561393995E+03  0.11372762598E+04  0.12699999809E+01 0.  1.
</event>
<event>
 5   0  0.4627905E-07  0.3957999E+04  0.7818609E-02  0.8013073E-01
       -1   -1    0    0    0  501  0.00000000000E+00  0.00000000000E+00  0.20778066987E+04  0.20778066987E+04  0.50400001928E-02 0. -1.
        1   -1    0    0  501    0  0.00000000000E+00  0.00000000000E+00 -0.18848912377E+04  0.18848912377E+04  0.50400001928E-02 0.  1.
    10030    2    1    2    0    0  0.00000000000E+00  0.00000000000E+00  0.19291546101E+03  0.39626979364E+04  0.39579993128E+04 0.  0.
        1    1    3    3  502    0  0.80103008596E+03 -0.75449282246E+03 -0.15503447530E+04  0.19011779167E+04  0.50400001928E-02 0.  1.
       -1    1    3    3    0  502 -0.80103008596E+03  0.75449282246E+03  0.17432602140E+04  0.20615200197E+04  0.50400001928E-02 0. -1.
</event>
<event>
 5   0  0.4316671E-07  0.3947384E+04  0.7818609E-02  0.8015246E-01
       -1   -1    0    0    0  501  0.00000000000E+00  0.00000000000E+00  0.18097799915E+04  0.18097799915E+04  0.50400001928E-02 0.  1.
        1   -1    0    0  501    0  0.00000000000E+00  0.00000000000E+00 -0.21524497353E+04  0.21524497353E+04  0.50400001928E-02 0. -1.
    10030    2    1    2    0    0  0.00000000000E+00  0.00000000000E+00 -0.34266974379E+03  0.39622297268E+04  0.39473841788E+04 0.  0.
        2    1    3    3  502    0  0.16104625811E+04  0.79269533324E+03  0.65242497444E+03  0.19098727611E+04  0.25500000920E-02 0.  1.
       -2    1    3    3    0  502 -0.16104625811E+04 -0.79269533324E+03 -0.99509471824E+03  0.20523569657E+04  0.25500000920E-02 0. -1.
</event>
<event>
 5   0  0.7268013E-07  0.3456496E+04  0.7818609E-02  0.8124178E-01
        2   -1    0    0  501    0  0.00000000000E+00  0.00000000000E+00  0.20406579948E+04  0.20406579948E+04  0.25500000920E-02 0. -1.
       -2   -1    0    0    0  501  0.00000000000E+00  0.00000000000E+00 -0.14636654942E+04  0.14636654942E+04  0.25500000920E-02 0.  1.
    10030    2    1    2    0    0  0.00000000000E+00  0.00000000000E+00  0.57699250060E+03  0.35043234891E+04  0.34564957356E+04 0.  0.
        4    1    3    3  502    0  0.39882478753E+03  0.12686479247E+04 -0.83054764995E+03  0.15679093659E+04  0.12699999809E+01 0.  1.
       -4    1    3    3    0  502 -0.39882478753E+03 -0.12686479247E+04  0.14075401506E+04  0.19364141231E+04  0.12699999809E+01 0. -1.
</event>
<event>
 5   0  0.4316671E-07  0.2566968E+04  0.7818609E-02  0.8379509E-01
       -1   -1    0    0    0  501  0.00000000000E+00  0.00000000000E+00  0.17600616044E+04  0.17600616044E+04  0.50400001928E-02 0.  1.
        1   -1    0    0  501    0  0.00000000000E+00  0.00000000000E+00 -0.93595069066E+03  0.93595069067E+03  0.50400001928E-02 0. -1.
    10030    2    1    2    0    0  0.00000000000E+00  0.00000000000E+00  0.82411091375E+03  0.26960122951E+04  0.25669677632E+04 0.  0.
        2    1    3    3  502    0  0.47535949600E+03  0.11835942194E+04  0.56231747268E+03  0.13939378992E+04  0.25500000920E-02 0. -1.
       -2    1    3    3    0  502 -0.47535949600E+03 -0.11835942194E+04  0.26179344108E+03  0.13020743959E+04  0.25500000920E-02 0.  1.
</event>
<event>
 5   0  0.4627905E-07  0.2354379E+04  0.7818609E-02  0.8456784E-01
        1   -1    0    0  501    0  0.00000000000E+00  0.00000000000E+00  0.99803581982E+03  0.99803581983E+03  0.50400001928E-02 0. -1.
       -1   -1    0    0    0  501  0.00000000000E+00  0.00000000000E+00 -0.13885023787E+04  0.13885023787E+04  0.50400001928E-02 0.  1.
    10030    2    1    2    0    0  0.00000000000E+00  0.00000000000E+00 -0.39046655885E+03  0.23865381985E+04  0.23543789923E+04 0.  0.
        1    1    3    3  502    0 -0.18561817597E+03 -0.11609793407E+04 -0.13571176763E+03  0.11835306589E+04  0.50400001928E-02 0. -1.
       -1    1    3    3    0  502  0.18561817597E+03  0.11609793407E+04 -0.25475479122E+03  0.12030075396E+04  0.50400001928E-02 0.  1.
</event>
<event>
 5   0  0.5533705E-07  0.3936178E+04  0.7818609E-02  0.8017547E-01
        2   -1    0    0  501    0  0.00000000000E+00  0.00000000000E+00  0.20161697875E+04  0.20161697875E+04  0.25500000920E-02 0.  1.
       -2   -1    0    0    0  501  0.00000000000E+00  0.00000000000E+00 -0.19211546293E+04  0.19211546293E+04  0.25500000920E-02 0. -1.
    10030    2    1    2    0    0  0.00000000000E+00  0.00000000000E+00  0.95015158218E+02  0.39373244168E+04  0.39361778012E+04 0.  0.
        1    1    3    3  502    0  0.26061242027E+03  0.13717841007E+04 -0.13398584016E+04  0.19351824175E+04  0.50400001928E-02 0.  1.
       -1    1    3    3    0  502 -0.26061242027E+03 -0.13717841007E+04  0.14348735598E+04  0.20021419993E+04  0.50400001928E-02 0. -1.
</event>
<event>
 5   0  0.1015219E-06  0.3734039E+04  0.7818609E-02  0.8060460E-01
        2   -1    0    0  501    0  0.00000000000E+00  0.00000000000E+00  0.14145504028E+04  0.14145504028E+04  0.25500000920E-02 0. -1.
       -2   -1    0    0    0  501  0.00000000000E+00  0.00000000000E+00 -0.24642190353E+04  0.24642190353E+04  0.25500000920E-02 0.  1.
    10030    2    1    2    0    0  0.00000000000E+00  0.00000000000E+00 -0.10496686326E+04  0.38787694381E+04  0.37340391155E+04 0.  0.
        3    1    3    3  502    0  0.19415697582E+03 -0.12380192072E+04  0.91277819151E+03  0.15503394872E+04  0.10100000352E+00 0. -1.
       -3    1    3    3    0  502 -0.19415697582E+03  0.12380192072E+04 -0.19624468241E+04  0.23284299509E+04  0.10100000352E+00 0.  1.
</event>
<event>
 5   0  0.4316671E-07  0.3741047E+04  0.7818609E-02  0.8058926E-01
       -1   -1    0    0    0  501  0.00000000000E+00  0.00000000000E+00  0.21619515926E+04  0.21619515926E+04  0.50400001928E-02 0.  1.
        1   -1    0    0  501    0  0.00000000000E+00  0.00000000000E+00 -0.16183795819E+04  0.16183795819E+04  0.50400001928E-02 0. -1.
    10030    2    1    2    0    0  0.00000000000E+00  0.00000000000E+00  0.54357201076E+03  0.37803311745E+04  0.37410470805E+04 0.  0.
        2    1    3    3  502    0 -0.50145216241E+03 -0.61088654476E+03 -0.14413695695E+04  0.16438317669E+04  0.25500000920E-02 0. -1.
       -2    1    3    3    0  502  0.50145216241E+03  0.61088654476E+03  0.19849415803E+04  0.21364994077E+04  0.25500000920E-02 0.  1.
</event>
<event>
 5   0  0.7268013E-07  0.2031975E+04  0.7818609E-02  0.8591815E-01
       -2   -1    0    0    0  501  0.00000000000E+00  0.00000000000E+00  0.14756407673E+04  0.14756407674E+04  0.25500000920E-02 0. -1.
        2   -1    0    0  501    0  0.00000000000E+00  0.00000000000E+00 -0.69951363565E+03  0.69951363566E+03  0.25500000920E-02 0.  1.
    10030    2    1    2    0    0  0.00000000000E+00  0.00000000000E+00  0.77612713170E+03  0.21751544030E+04  0.20319752342E+04 0.  0.
        4    1    3    3  502    0  0.76642176230E+03  0.76103623090E+02  0.10973494623E+04  0.13406608574E+04  0.12699999809E+01 0. -1.
       -4    1    3    3    0  502 -0.76642176230E+03 -0.76103623090E+02 -0.32122233059E+03  0.83449354565E+03  0.12699999809E+01 0.  1.
</event>
<event>
 5   0  0.1034683E-06  0.2025986E+04  0.7818609E-02  0.8594567E-01
       -2   -1    0    0    0  501  0.00000000000E+00  0.00000000000E+00  0.75295589141E+03  0.75295589142E+03  0.25500000920E-02 0. -1.
        2   -1    0    0  501    0  0.00000000000E+00  0.00000000000E+00 -0.13628349081E+04  0.13628349081E+04  0.25500000920E-02 0.  1.
    10030    2    1    2    0    0  0.00000000000E+00  0.00000000000E+00 -0.60987901664E+03  0.21157907995E+04  0.20259857581E+04 0.  0.
        2    1    3    3  502    0 -0.77458456267E+03 -0.25707410048E+03 -0.93161050629E+03  0.12385340017E+04  0.25500000920E-02 0.  1.
       -2    1    3    3    0  502  0.77458456267E+03  0.25707410048E+03  0.32173148964E+03  0.87725679781E+03  0.25500000920E-02 0. -1.
</event>
<event>
 5   0  0.4627905E-07  0.3936729E+04  0.7818609E-02  0.8017433E-01
       -1   -1    0    0    0  501  0.00000000000E+00  0.00000000000E+00  0.24546557435E+04  0.24546557435E+04  0.50400001928E-02 0.  1.
        1   -1    0    0  501    0  0.00000000000E+00  0.00000000000E+00 -0.15784122883E+04  0.15784122883E+04  0.50400001928E-02 0. -1.
    10030    2    1    2    0    0  0.00000000000E+00  0.00000000000E+00  0.87624345522E+03  0.40330680318E+04  0.39367289920E+04 0.  0.
        1    1    3    3  502    0  0.35200456682E+03 -0.10688556985E+04 -0.12163603672E+04  0.16570734028E+04  0.50400001928E-02 0. -1.
       -1    1    3    3    0  502 -0.35200456682E+03  0.10688556985E+04  0.20926038224E+04  0.23759946290E+04  0.50400001928E-02 0.  1.
</event>
<event>
 5   0  0.1034683E-06  0.3764350E+04  0.7818609E-02  0.8053849E-01
       -2   -1    0    0    0  501  0.00000000000E+00  0.00000000000E+00  0.14802174054E+04  0.14802174054E+04  0.25500000920E-02 0. -1.
        2   -1    0    0  501    0  0.00000000000E+00  0.00000000000E+00 -0.23932854601E+04  0.23932854601E+04  0.25500000920E-02 0.  1.
    10030    2    1    2    0    0  0.00000000000E+00  0.00000000000E+00 -0.91306805475E+03  0.38735028655E+04  0.37643500337E+04 0.  0.
        2    1    3    3  502    0 -0.70699501371E+03 -0.26655631273E+03 -0.22303784584E+04  0.23548847711E+04  0.25500000920E-02 0.  1.
       -2    1    3    3    0  502  0.70699501371E+03  0.26655631273E+03  0.13173104036E+04  0.15186180945E+04  0.25500000920E-02 0. -1.
</event>
<event>
 5   0  0.3191750E-07  0.1974483E+04  0.7818609E-02  0.8618645E-01
       -4   -1    0    0    0  501  0.00000000000E+00  0.00000000000E+00  0.78142035370E+03  0.78142138573E+03  0.12699999809E+01 0.  1.
        4   -1    0    0  501    0  0.00000000000E+00  0.00000000000E+00 -0.12472722494E+04  0.12472728960E+04  0.12699999809E+01 0. -1.
    10030    2    1    2    0    0  0.00000000000E+00  0.00000000000E+00 -0.46585189572E+03  0.20286942817E+04  0.19744828437E+04 0.  0.
        1    1    3    3  502    0 -0.89528192889E+03 -0.26982303802E+03 -0.55834159516E+03  0.10890727896E+04  0.50400001928E-02 0. -1.
       -1    1    3    3    0  502  0.89528192889E+03  0.26982303802E+03  0.92489699435E+02  0.93962149218E+03  0.50400001928E-02 0.  1.
</event>
<event>
 5   0  0.3977376E-07  0.2067384E+04  0.7818609E-02  0.8575749E-01
        1   -1    0    0  501    0  0.00000000000E+00  0.00000000000E+00  0.19535746323E+04  0.19535746323E+04  0.50400001928E-02 0. -1.
       -1   -1    0    0    0  501  0.00000000000E+00  0.00000000000E+00 -0.54695579917E+03  0.54695579919E+03  0.50400001928E-02 0.  1.
    10030    2    1    2    0    0  0.00000000000E+00  0.00000000000E+00  0.14066188331E+04  0.25005304315E+04  0.20673838292E+04 0.  0.
        4    1    3    3  502    0 -0.87745812023E+03  0.53413515372E+03  0.56390405178E+03  0.11718457696E+04  0.12699999809E+01 0. -1.
       -4    1    3    3    0  502  0.87745812023E+03 -0.53413515372E+03  0.84271478137E+03  0.13286846619E+04  0.12699999809E+01 0.  1.
</event>
<event>
 5   0  0.5533705E-07  0.3925769E+04  0.7818609E-02  0.8019691E-01
       -2   -1    0    0    0  501  0.00000000000E+00  0.00000000000E+00  0.21523222269E+04  0.21523222269E+04  0.25500000920E-02 0.  1.
        2   -1    0    0  501    0  0.00000000000E+00  0.00000000000E+00 -0.17901199744E+04  0.17901199744E+04  0.25500000920E-02 0. -1.
    10030    2    1    2    0    0  0.00000000000E+00  0.00000000000E+00  0.36220225247E+03  0.39424422013E+04  0.39257687195E+04 0.  0.
        1    1    3    3  502    0  0.10755297289E+04 -0.16331750572E+04  0.10408512486E+02  0.19555391335E+04  0.50400001928E-02 0.  1.
       -1    1    3    3    0  502 -0.10755297289E+04  0.16331750572E+04  0.35179373999E+03  0.19869030678E+04  0.50400001928E-02 0. -1.
</event>
<event>
 5   0  0.1034683E-06  0.3822207E+04  0.7818609E-02  0.8041406E-01
       -2   -1    0    0    0  501  0.00000000000E+00  0.00000000000E+00  0.15306896713E+04  0.15306896713E+04  0.25500000920E-02 0. -1.
        2   -1    0    0  501    0  0.00000000000E+00  0.00000000000E+00 -0.23860590930E+04  0.23860590930E+04  0.25500000920E-02 0.  1.
    10030    2    1    2    0    0  0.00000000000E+00  0.00000000000E+00 -0.85536942172E+03  0.39167487643E+04  0.38222066971E+04 0.  0.
        2    1    3    3  502    0 -0.34367408459E+03  0.18509110063E+04 -0.90404323976E+02  0.18847165228E+04  0.25500000920E-02 0.  1.
       -2    1    3    3    0  502  0.34367408459E+03 -0.18509110063E+04 -0.76496509775E+03  0.20320322415E+04  0.25500000920E-02 0. -1.
</event>
<event>
 5   0  0.7752928E-07  0.1939015E+04  0.7818609E-02  0.8635676E-01
        1   -1    0    0  501    0  0.00000000000E+00  0.00000000000E+00  0.10829837658E+04  0.10829837658E+04  0.50400001928E-02 0.  1.
       -1   -1    0    0    0  501  0.00000000000E+00  0.00000000000E+00 -0.86792184965E+03  0.86792184967E+03  0.50400001928E-02 0. -1.
    10030    2    1    2    0    0  0.00000000000E+00  0.00000000000E+00  0.21506191616E+03  0.19509056155E+04  0.19390154958E+04 0.  0.
        1    1    3    3  502    0 -0.58287252659E+03  0.38235250381E+03 -0.57040455348E+03  0.90071925375E+03  0.50400001928E-02 0. -1.
       -1    1    3    3    0  502  0.58287252659E+03 -0.38235250381E+03  0.78546646964E+03  0.10501863617E+04  0.50400001928E-02 0.  1.
</event>
<event>
 5   0  0.1035864E-06  0.3911329E+04  0.7818609E-02  0.8022677E-01
       -2   -1    0    0    0  501  0.00000000000E+00  0.00000000000E+00  0.18454917050E+04  0.18454917050E+04  0.25500000920E-02 0.  1.
        2   -1    0    0  501    0  0.00000000000E+00  0.00000000000E+00 -0.20724142213E+04  0.20724142213E+04  0.25500000920E-02 0. -1.
    10030    2    1    2    0    0  0.00000000000E+00  0.00000000000E+00 -0.22692251629E+03  0.39179059263E+04  0.39113288047E+04 0.  0.
        5    1    3    3  502    0  0.82224636930E+03 -0.17423083832E+04 -0.44999282634E+03  0.19784446487E+04  0.46999998093E+01 0. -1.
       -5    1    3    3    0  502 -0.82224636930E+03  0.17423083832E+04  0.22307031005E+03  0.19394612776E+04  0.46999998093E+01 0.  1.
</event>
<event>
 5   0  0.5533705E-07  0.3271518E+04  0.7818609E-02  0.8170181E-01
        2   -1    0    0  501    0  0.00000000000E+00  0.00000000000E+00  0.24082651363E+04  0.24082651363E+04  0.25500000920E-02 0.  1.
       -2   -1    0    0    0  501  0.00000000000E+00  0.00000000000E+00 -0.11110520366E+04  0.11110520366E+04  0.25500000920E-02 0. -1.
    10030    2    1    2    0    0  0.00000000000E+00  0.00000000000E+00  0.12972130997E+04  0.35193171730E+04  0.32715182313E+04 0.  0.
        1    1    3    3  502    0  0.68651381350E+03  0.59891698729E+03  0.21100776144E+04  0.22983538267E+04  0.50400001928E-02 0.  1.
       -1    1    3    3    0  502 -0.68651381350E+03 -0.59891698729E+03 -0.81286451466E+03  0.12209633463E+04  0.50400001928E-02 0. -1.
</event>
<event>
 5   0  0.1035864E-06  0.3870344E+04  0.7818609E-02  0.8031226E-01
        2   -1    0    0  501    0  0.00000000000E+00  0.00000000000E+00  0.32032059841E+04  0.32032059841E+04  0.25500000920E-02 0.  1.
       -2   -1    0    0    0  501  0.00000000000E+00  0.00000000000E+00 -0.11691070028E+04  0.11691070028E+04  0.25500000920E-02 0. -1.
    10030    2    1    2    0    0  0.00000000000E+00  0.00000000000E+00  0.20340989813E+04  0.43723129869E+04  0.38703439369E+04 0.  0.
        5    1    3    3  502    0 -0.72925528313E+03  0.15293179827E+04  0.20733255607E+04  0.26775600331E+04  0.46999998093E+01 0.  1.
       -5    1    3    3    0  502  0.72925528313E+03 -0.15293179827E+04 -0.39226579363E+02  0.16947529539E+04  0.46999998093E+01 0. -1.
</event>
<event>
 5   0  0.4987348E-07  0.1948520E+04  0.7818609E-02  0.8631075E-01
       -1   -1    0    0    0  501  0.00000000000E+00  0.00000000000E+00  0.90022877712E+03  0.90022877714E+03  0.50400001928E-02 0. -1.
        1   -1    0    0  501    0  0.00000000000E+00  0.00000000000E+00 -0.10543794299E+04  0.10543794299E+04  0.50400001928E-02 0.  1.
    10030    2    1    2    0    0  0.00000000000E+00  0.00000000000E+00 -0.15415065281E+03  0.19546082071E+04  0.19485201614E+04 0.  0.
        1    1    3    3  502    0 -0.93278603203E+03 -0.66771751804E+02 -0.35112197875E+03  0.99891685959E+03  0.50400001928E-02 0.  1.
       -1    1    3    3    0  502  0.93278603203E+03  0.66771751804E+02  0.19697132595E+03  0.95569134749E+03  0.50400001928E-02 0. -1.
</event>
<event>
 5   0  0.7268013E-07  0.3886363E+04  0.7818609E-02  0.8027871E-01
       -2   -1    0    0    0  501  0.00000000000E+00  0.00000000000E+00  0.26732051657E+04  0.26732051657E+04  0.25500000920E-02 0. -1.
        2   -1    0    0  501    0  0.00000000000E+00  0.00000000000E+00 -0.14125196317E+04  0.14125196317E+04  0.25500000920E-02 0.  1.
    10030    2    1    2    0    0  0.00000000000E+00  0.00000000000E+00  0.12606855340E+04  0.40857247974E+04  0.38863632234E+04 0.  0.
        4    1    3    3  502    0  0.17019239720E+04 -0.90493351972E+03  0.88893482846E+03  0.21226532038E+04  0.12699999809E+01 0. -1.
       -4    1    3    3    0  502 -0.17019239720E+04  0.90493351972E+03  0.37175070558E+03  0.19630715936E+04  0.12699999809E+01 0.  1.
</event>
<event>
 5   0  0.7268013E-07  0.3979356E+04  0.7818609E-02  0.8008724E-01
        2   -1    0    0  501    0  0.00000000000E+00  0.00000000000E+00  0.19517114072E+04  0.19517114072E+04  0.25500000920E-02 0. -1.
       -2   -1    0    0    0  501  0.00000000000E+00  0.00000000000E+00 -0.20283833533E+04  0.20283833533E+04  0.25500000920E-02 0.  1.
    10030    2    1    2    0    0  0.00000000000E+00  0.00000000000E+00 -0.76671946063E+02  0.39800947605E+04  0.39793561936E+04 0.  0.
        4    1    3    3  502    0 -0.17978274203E+04  0.44941120147E+03 -0.76280697150E+03  0.20040034805E+04  0.12699999809E+01 0. -1.
       -4    1    3    3    0  502  0.17978274203E+04 -0.44941120147E+03  0.68613502544E+03  0.19760912801E+04  0.12699999809E+01 0.  1.
</event>
<event>
 5   0  0.7268013E-07  0.3666816E+04  0.7818609E-02  0.8075356E-01
       -2   -1    0    0    0  501  0.00000000000E+00  0.00000000000E+00  0.18613826318E+04  0.18613826318E+04  0.25500000920E-02 0.  1.
        2   -1    0    0  501    0  0.00000000000E+00  0.00000000000E+00 -0.18058536723E+04  0.18058536723E+04  0.25500000920E-02 0. -1.
    10030    2    1    2    0    0  0.00000000000E+00  0.00000000000E+00  0.55528959466E+02  0.36672363041E+04  0.36668158728E+04 0.  0.
        4    1    3    3  502    0 -0.10456106593E+04 -0.14505745294E+04  0.43267499182E+03  0.18397492703E+04  0.12699999809E+01 0. -1.
       -4    1    3    3    0  502  0.10456106593E+04  0.14505745294E+04 -0.37714603236E+03  0.18274870338E+04  0.12699999809E+01 0.  1.
</event>
<event>
 5   0  0.5533705E-07  0.3890246E+04  0.7818609E-02  0.8027061E-01
        2   -1    0    0  501    0  0.00000000000E+00  0.00000000000E+00  0.20892954768E+04  0.20892954768E+04  0.25500000920E-02 0. -1.
       -2   -1    0    0    0  501  0.00000000000E+00  0.00000000000E+00 -0.18108995954E+04  0.18108995954E+04  0.25500000920E-02 0.  1.
    10030    2    1    2    0    0  0.00000000000E+00  0.00000000000E+00  0.27839588146E+03  0.39001950722E+04  0.38902464362E+04 0.  0.
        1    1    3    3  502    0  0.10917538462E+04 -0.12425661662E+04  0.11653422762E+04  0.20233437075E+04  0.50400001928E-02 0. -1.
       -1    1    3    3    0  502 -0.10917538462E+04  0.12425661662E+04 -0.88694639469E+03  0.18768513647E+04  0.50400001928E-02 0.  1.
</event>
<event>
 5   0  0.4627905E-07  0.3900462E+04  0.7818609E-02  0.8024933E-01
        1   -1    0    0  501    0  0.00000000000E+00  0.00000000000E+00  0.19436204987E+04  0.19436204987E+04  0.50400001928E-02 0. -1.
       -1   -1    0    0    0  501  0.00000000000E+00  0.00000000000E+00 -0.19568640239E+04  0.19568640239E+04  0.50400001928E-02 0.  1.
    10030    2    1    2    0    0  0.00000000000E+00  0.00000000000E+00 -0.13243525284E+02  0.39004845226E+04  0.39004620393E+04 0.  0.
        1    1    3    3  502    0 -0.69139870607E+03 -0.70217917711E+03 -0.16895792532E+04  0.19559564976E+04  0.50400001928E-02 0.  1.
       -1    1    3    3    0  502  0.69139870607E+03  0.70217917711E+03  0.16763357279E+04  0.19445280250E+04  0.50400001928E-02 0. -1.
</event>
<event>
 5   0  0.1034683E-06  0.3853640E+04  0.7818609E-02  0.8034741E-01
       -2   -1    0    0    0  501  0.00000000000E+00  0.00000000000E+00  0.18525197483E+04  0.18525197483E+04  0.25500000920E-02 0. -1.
        2   -1    0    0  501    0  0.00000000000E+00  0.00000000000E+00 -0.20041004707E+04  0.20041004707E+04  0.25500000920E-02 0.  1.
    10030    2    1    2    0    0  0.00000000000E+00  0.00000000000E+00 -0.15158072243E+03  0.38566202190E+04  0.38536402010E+04 0.  0.
        2    1    3    3  502    0  0.16675914987E+04  0.88450777679E+03 -0.46263848174E+03  0.19435148002E+04  0.25500000920E-02 0. -1.
       -2    1    3    3    0  502 -0.16675914987E+04 -0.88450777679E+03  0.31105775931E+03  0.19131054188E+04  0.25500000920E-02 0.  1.
</event>
<event>
 5   0  0.5533705E-07  0.3794869E+04  0.7818609E-02  0.8047257E-01
       -2   -1    0    0    0  501  0.00000000000E+00  0.00000000000E+00  0.19602460376E+04  0.19602460376E+04  0.25500000920E-02 0.  1.
        2   -1    0    0  501    0  0.00000000000E+00  0.00000000000E+00 -0.18366358010E+04  0.18366358010E+04  0.25500000920E-02 0. -1.
    10030    2    1    2    0    0  0.00000000000E+00  0.00000000000E+00  0.12361023661E+03  0.37968818386E+04  0.37948691948E+04 0.  0.
        1    1    3    3  502    0 -0.21666607728E+03  0.14853729807E+04 -0.10994055072E+04  0.18606368668E+04  0.50400001928E-02 0. -1.
       -1    1    3    3    0  502  0.21666607728E+03 -0.14853729807E+04  0.12230157438E+04  0.19362449717E+04  0.50400001928E-02 0.  1.
</event>
<event>
 5   0  0.1035864E-06  0.3835600E+04  0.7818609E-02  0.8038558E-01
        2   -1    0    0  501    0  0.00000000000E+00  0.00000000000E+00  0.25061647184E+04  0.25061647184E+04  0.25500000920E-02 0. -1.
       -2   -1    0    0    0  501  0.00000000000E+00  0.00000000000E+00 -0.14675637392E+04  0.14675637392E+04  0.25500000920E-02 0.  1.
    10030    2    1    2    0    0  0.00000000000E+00  0.00000000000E+00  0.10386009791E+04  0.39737284576E+04  0.38355998045E+04 0.  0.
        5    1    3    3  502    0  0.11388078354E+04 -0.17966788954E+02  0.21178268945E+04  0.24046660759E+04  0.46999998093E+01 0. -1.
       -5    1    3    3    0  502 -0.11388078354E+04  0.17966788954E+02 -0.10792259153E+04  0.15690623817E+04  0.46999998093E+01 0.  1.
</event>
<event>
 5   0  0.1035864E-06  0.3069599E+04  0.7818609E-02  0.8224131E-01
       -2   -1    0    0    0  501  0.00000000000E+00  0.00000000000E+00  0.16820332348E+04  0.16820332348E+04  0.25500000920E-02 0.  1.
        2   -1    0    0  501    0  0.00000000000E+00  0.00000000000E+00 -0.14004534312E+04  0.14004534313E+04  0.25500000920E-02 0. -1.
    10030    2    1    2    0    0  0.00000000000E+00  0.00000000000E+00  0.28157980355E+03  0.30824866661E+04  0.30695988110E+04 0.  0.
        5    1    3    3  502    0 -0.65074781637E+03 -0.11131366515E+04 -0.69519631143E+03  0.14648774443E+04  0.46999998093E+01 0. -1.
       -5    1    3    3    0  502  0.65074781637E+03  0.11131366515E+04  0.97677611498E+03  0.16176092217E+04  0.46999998093E+01 0.  1.
</event>
<event>
 5   0  0.7268013E-07  0.3872490E+04  0.7818609E-02  0.8030775E-01
       -2   -1    0    0    0  501  0.00000000000E+00  0.00000000000E+00  0.20535676057E+04  0.20535676057E+04  0.25500000920E-02 0.  1.
        2   -1    0    0  501    0  0.00000000000E+00  0.00000000000E+00 -0.18256247629E+04  0.18256247629E+04  0.25500000920E-02 0. -1.
    10030    2    1    2    0    0  0.00000000000E+00  0.00000000000E+00  0.22794284282E+03  0.38791923685E+04  0.38724895729E+04 0.  0.
        4    1    3    3  502    0 -0.17382946617E+04  0.91742380595E+02 -0.73540968817E+03  0.18896862220E+04  0.12699999809E+01 0. -1.
       -4    1    3    3    0  502  0.17382946617E+04 -0.91742380595E+02  0.96335253099E+03  0.19895061465E+04  0.12699999809E+01 0.  1.
</event>
<event>
 5   0  0.7268013E-07  0.3842738E+04  0.7818609E-02  0.8037045E-01
       -2   -1    0    0    0  501  0.00000000000E+00  0.00000000000E+00  0.15527190596E+04  0.15527190596E+04  0.25500000920E-02 0. -1.
        2   -1    0    0  501    0  0.00000000000E+00  0.00000000000E+00 -0.23775449322E+04  0.23775449322E+04  0.25500000920E-02 0.  1.
    10030    2    1    2    0    0  0.00000000000E+00  0.00000000000E+00 -0.82482587255E+03  0.39302639918E+04  0.38427382587E+04 0.  0.
        4    1    3    3  502    0 -0.16932816254E+04 -0.67840621388E+03 -0.10296654277E+04  0.20946718502E+04  0.12699999809E+01 0.  1.
       -4    1    3    3    0  502  0.16932816254E+04  0.67840621388E+03  0.20483955517E+03  0.18355921416E+04  0.12699999809E+01 0. -1.
</event>
<event>
 5   0  0.7268013E-07  0.3890292E+04  0.7818609E-02  0.8027051E-01
       -2   -1    0    0    0  501  0.00000000000E+00  0.00000000000E+00  0.20197282653E+04  0.20197282653E+04  0.25500000920E-02 0.  1.
        2   -1    0    0  501    0  0.00000000000E+00  0.00000000000E+00 -0.18733181665E+04  0.18733181665E+04  0.25500000920E-02 0. -1.
    10030    2    1    2    0    0  0.00000000000E+00  0.00000000000E+00  0.14641009881E+03  0.38930464318E+04  0.38902923544E+04 0.  0.
        4    1    3    3  502    0  0.24801563372E+03  0.11534409303E+04 -0.14743872024E+04  0.18883212040E+04  0.12699999809E+01 0. -1.
       -4    1    3    3    0  502 -0.24801563372E+03 -0.11534409303E+04  0.16207973012E+04  0.20047252277E+04  0.12699999809E+01 0.  1.
</event>
<event>
 5   0  0.5385714E-07  0.3621848E+04  0.7818609E-02  0.8085505E-01
       -1   -1    0    0    0  501  0.00000000000E+00  0.00000000000E+00  0.11828768054E+04  0.11828768054E+04  0.50400001928E-02 0. -1.
        1   -1    0    0  501    0  0.00000000000E+00  0.00000000000E+00 -0.27724328643E+04  0.27724328643E+04  0.50400001928E-02 0.  1.
    10030    2    1    2    0    0  0.00000000000E+00  0.00000000000E+00 -0.15895560589E+04  0.39553096697E+04  0.36218484395E+04 0.  0.
        3    1    3    3  502    0  0.12357307267E+04  0.10496994952E+04 -0.16756029181E+04  0.23316398968E+04  0.10100000352E+00 0.  1.
       -3    1    3    3    0  502 -0.12357307267E+04 -0.10496994952E+04  0.86046859126E+02  0.16236697729E+04  0.10100000352E+00 0. -1.
</event>
<event>
 5   0  0.3471602E-07  0.3866761E+04  0.7818609E-02  0.8031978E-01
       -1   -1    0    0    0  501  0.00000000000E+00  0.00000000000E+00  0.27757276944E+04  0.27757276944E+04  0.50400001928E-02 0.  1.
        1   -1    0    0  501    0  0.00000000000E+00  0.00000000000E+00 -0.13466595278E+04  0.13466595278E+04  0.50400001928E-02 0. -1.
    10030    2    1    2    0    0  0.00000000000E+00  0.00000000000E+00  0.14290681666E+04  0.41223872222E+04  0.38667609940E+04 0.  0.
        5    1    3    3  502    0 -0.10952342798E+03 -0.16341025750E+04  0.18099063183E+04  0.24409157253E+04  0.46999998093E+01 0.  1.
       -5    1    3    3    0  502  0.10952342798E+03  0.16341025750E+04 -0.38083815178E+03  0.16814714969E+04  0.46999998093E+01 0. -1.
</event>
<event>
 5   0  0.1034683E-06  0.3139515E+04  0.7818609E-02  0.8204976E-01
        2   -1    0    0  501    0  0.00000000000E+00  0.00000000000E+00  0.36072808251E+04  0.36072808251E+04  0.25500000920E-02 0.  1.
       -2   -1    0    0    0  501  0.00000000000E+00  0.00000000000E+00 -0.68310152311E+03  0.68310152311E+03  0.25500000920E-02 0. -1.
    10030    2    1    2    0    0  0.00000000000E+00  0.00000000000E+00  0.29241793020E+04  0.42903823482E+04  0.31395152657E+04 0.  0.
        2    1    3    3  502    0  0.11647072059E+04  0.74515063819E+03  0.24777284206E+04  0.28374161619E+04  0.25500000920E-02 0.  1.
       -2    1    3    3    0  502 -0.11647072059E+04 -0.74515063819E+03  0.44645088131E+03  0.14529661863E+04  0.25500000920E-02 0. -1.
</event>
<event>
 5   0  0.1035864E-06  0.3620919E+04  0.7818609E-02  0.8085717E-01
        2   -1    0    0  501    0  0.00000000000E+00  0.00000000000E+00  0.19527209663E+04  0.19527209663E+04  0.25500000920E-02 0. -1.
       -2   -1    0    0    0  501  0.00000000000E+00  0.00000000000E+00 -0.16785623118E+04  0.16785623118E+04  0.25500000920E-02 0.  1.
    10030    2    1    2    0    0  0.00000000000E+00  0.00000000000E+00  0.27415865452E+03  0.36312832781E+04  0.36209191206E+04 0.  0.
        5    1    3    3  502    0  0.16064032671E+04 -0.66198891377E+03  0.64743766729E+03  0.18541732393E+04  0.46999998093E+01 0. -1.
       -5    1    3    3    0  502 -0.16064032671E+04  0.66198891377E+03 -0.37327901277E+03  0.17771100387E+04  0.46999998093E+01 0.  1.
</event>
<event>
 5   0  0.1035864E-06  0.3627786E+04  0.7818609E-02  0.8084156E-01
       -2   -1    0    0    0  501  0.00000000000E+00  0.00000000000E+00  0.18578733206E+04  0.18578733206E+04  0.25500000920E-02 0.  1.
        2   -1    0    0  501    0  0.00000000000E+00  0.00000000000E+00 -0.17709540624E+04  0.17709540624E+04  0.25500000920E-02 0. -1.
    10030    2    1    2    0    0  0.00000000000E+00  0.00000000000E+00  0.86919258171E+02  0.36288273829E+04  0.36277862696E+04 0.  0.
        5    1    3    3  502    0  0.38984062568E+03  0.14355812284E+04 -0.99477708277E+03  0.17895453924E+04  0.46999998093E+01 0. -1.
       -5    1    3    3    0  502 -0.38984062568E+03 -0.14355812284E+04  0.10816963409E+04  0.18392819906E+04  0.46999998093E+01 0.  1.
</event>
<event>
 5   0  0.3977376E-07  0.3588385E+04  0.7818609E-02  0.8093158E-01
        1   -1    0    0  501    0  0.00000000000E+00  0.00000000000E+00  0.22605846346E+04  0.22605846346E+04  0.50400001928E-02 0. -1.
       -1   -1    0    0    0  501  0.00000000000E+00  0.00000000000E+00 -0.14240236981E+04  0.14240236981E+04  0.50400001928E-02 0.  1.
    10030    2    1    2    0    0  0.00000000000E+00  0.00000000000E+00  0.83656093653E+03  0.36846083327E+04  0.35883846456E+04 0.  0.
        4    1    3    3  502    0 -0.24693566557E+03 -0.15808763306E+04  0.12518226106E+04  0.20315532621E+04  0.12699999809E+01 0. -1.
       -4    1    3    3    0  502  0.24693566557E+03  0.15808763306E+04 -0.41526167409E+03  0.16530550706E+04  0.12699999809E+01 0.  1.
</event>
<event>
 5   0  0.1034683E-06  0.3890315E+04  0.7818609E-02  0.8027046E-01
        2   -1    0    0  501    0  0.00000000000E+00  0.00000000000E+00  0.25717033075E+04  0.25717033075E+04  0.25500000920E-02 0. -1.
       -2   -1    0    0    0  501  0.00000000000E+00  0.00000000000E+00 -0.14712576162E+04  0.14712576162E+04  0.25500000920E-02 0.  1.
    10030    2    1    2    0    0  0.00000000000E+00  0.00000000000E+00  0.11004456913E+04  0.40429609237E+04  0.38903151943E+04 0.  0.
        2    1    3    3  502    0  0.74629960955E+02 -0.18189618695E+04 -0.16182249963E+03  0.18276702205E+04  0.25500000920E-02 0.  1.
       -2    1    3    3    0  502 -0.74629960955E+02  0.18189618695E+04  0.12622681909E+04  0.22152907032E+04  0.25500000920E-02 0. -1.
</event>
<event>
 5   0  0.7268013E-07  0.3955155E+04  0.7818609E-02  0.8013655E-01
        2   -1    0    0  501    0  0.00000000000E+00  0.00000000000E+00  0.27480080517E+04  0.27480080517E+04  0.25500000920E-02 0. -1.
       -2   -1    0    0    0  501  0.00000000000E+00  0.00000000000E+00 -0.14231444576E+04  0.14231444576E+04  0.25500000920E-02 0.  1.
    10030    2    1    2    0    0  0.00000000000E+00  0.00000000000E+00  0.13248635942E+04  0.41711525093E+04  0.39551548279E+04 0.  0.
        4    1    3    3  502    0 -0.17536474509E+04 -0.59041869594E+03  0.13983491705E+04  0.23193222359E+04  0.12699999809E+01 0. -1.
       -4    1    3    3    0  502  0.17536474509E+04  0.59041869594E+03 -0.73485576294E+02  0.18518302734E+04  0.12699999809E+01 0.  1.
</event>
<event>
 5   0  0.4627905E-07  0.2212003E+04  0.7818609E-02  0.8513449E-01
       -1   -1    0    0    0  501  0.00000000000E+00  0.00000000000E+00  0.59495218215E+03  0.59495218217E+03  0.50400001928E-02 0.  1.
        1   -1    0    0  501    0  0.00000000000E+00  0.00000000000E+00 -0.20560299785E+04  0.20560299785E+04  0.50400001928E-02 0. -1.
    10030    2    1    2    0    0  0.00000000000E+00  0.00000000000E+00 -0.14610777963E+04  0.26509821607E+04  0.22120031847E+04 0.  0.
        1    1    3    3  502    0  0.32162689194E+02 -0.10825001968E+04 -0.46149108634E+03  0.11772064974E+04  0.50400001928E-02 0.  1.
       -1    1    3    3    0  502 -0.32162689194E+02  0.10825001968E+04 -0.99958671001E+03  0.14737756633E+04  0.50400001928E-02 0. -1.
</event>
<event>
 5   0  0.5533705E-07  0.2492974E+04  0.7818609E-02  0.8405493E-01
        2   -1    0    0  501    0  0.00000000000E+00  0.00000000000E+00  0.12024595356E+04  0.12024595356E+04  0.25500000920E-02 0. -1.
       -2   -1    0    0    0  501  0.00000000000E+00  0.00000000000E+00 -0.12921266626E+04  0.12921266626E+04  0.25500000920E-02 0.  1.
    10030    2    1    2    0    0  0.00000000000E+00  0.00000000000E+00 -0.89667126993E+02  0.24945861982E+04  0.24929741488E+04 0.  0.
        1    1    3    3  502    0  0.58446512479E+03  0.88493081858E+03  0.61059226832E+03  0.12237340209E+04  0.50400001928E-02 0. -1.
       -1    1    3    3    0  502 -0.58446512479E+03 -0.88493081858E+03 -0.70025939532E+03  0.12708521773E+04  0.50400001928E-02 0.  1.
</event>
<event>
 5   0  0.1035864E-06  0.2613550E+04  0.7818609E-02  0.8363613E-01
        2   -1    0    0  501    0  0.00000000000E+00  0.00000000000E+00  0.29371020289E+04  0.29371020289E+04  0.25500000920E-02 0. -1.
       -2   -1    0    0    0  501  0.00000000000E+00  0.00000000000E+00 -0.58141033745E+03  0.58141033746E+03  0.25500000920E-02 0.  1.
    10030    2    1    2    0    0  0.00000000000E+00  0.00000000000E+00  0.23556916914E+04  0.35185123663E+04  0.26135504447E+04 0.  0.
        5    1    3    3  502    0  0.66706082801E+03  0.82173530550E+03  0.22096628524E+04  0.24500716462E+04  0.46999998093E+01 0. -1.
       -5    1    3    3    0  502 -0.66706082801E+03 -0.82173530550E+03  0.14602883909E+03  0.10684407201E+04  0.46999998093E+01 0.  1.
</event>
<event>
 5   0  0.3977376E-07  0.3878325E+04  0.7818609E-02  0.8029552E-01
        1   -1    0    0  501    0  0.00000000000E+00  0.00000000000E+00  0.22453030705E+04  0.22453030705E+04  0.50400001928E-02 0.  1.
       -1   -1    0    0    0  501  0.00000000000E+00  0.00000000000E+00 -0.16747637229E+04  0.16747637230E+04  0.50400001928E-02 0. -1.
    10030    2    1    2    0    0  0.00000000000E+00  0.00000000000E+00  0.57053934752E+03  0.39200667934E+04  0.38783254786E+04 0.  0.
        4    1    3    3  502    0  0.98557834311E+03  0.10869465502E+04  0.15668008267E+04  0.21465516339E+04  0.12699999809E+01 0.  1.
       -4    1    3    3    0  502 -0.98557834311E+03 -0.10869465502E+04 -0.99626147922E+03  0.17735151596E+04  0.12699999809E+01 0. -1.
</event>
<event>
 5   0  0.4627905E-07  0.2031903E+04  0.7818609E-02  0.8591848E-01
        1   -1    0    0  501    0  0.00000000000E+00  0.00000000000E+00  0.15863091896E+04  0.15863091896E+04  0.50400001928E-02 0.  1.
       -1   -1    0    0    0  501  0.00000000000E+00  0.00000000000E+00 -0.65066625608E+03  0.65066625610E+03  0.50400001928E-02 0. -1.
    10030    2    1    2    0    0  0.00000000000E+00  0.00000000000E+00  0.93564293354E+03  0.22369754457E+04  0.20319034046E+04 0.  0.
        1    1    3    3  502    0  0.72302657006E+03  0.67345362117E+03  0.72800051215E+03  0.12273108598E+04  0.50400001928E-02 0.  1.
       -1    1    3    3    0  502 -0.72302657006E+03 -0.67345362117E+03  0.20764242139E+03  0.10096645859E+04  0.50400001928E-02 0. -1.
</event>
<event>
 5   0  0.4627905E-07  0.3051510E+04  0.7818609E-02  0.8229173E-01
        1   -1    0    0  501    0  0.00000000000E+00  0.00000000000E+00  0.12050159257E+04  0.12050159257E+04  0.50400001928E-02 0. -1.
       -1   -1    0    0    0  501  0.00000000000E+00  0.00000000000E+00 -0.19318652586E+04  0.19318652586E+04  0.50400001928E-02 0.  1.
    10030    2    1    2    0    0  0.00000000000E+00  0.00000000000E+00 -0.72684933282E+03  0.31368811843E+04  0.30515100544E+04 0.  0.
        1    1    3    3  502    0 -0.82804991320E+03  0.82974776969E+03  0.64051463702E+03  0.13358169861E+04  0.50400001928E-02 0. -1.
       -1    1    3    3    0  502  0.82804991320E+03 -0.82974776969E+03 -0.13673639698E+04  0.18010641982E+04  0.50400001928E-02 0.  1.
</event>
<event>
 5   0  0.3977376E-07  0.4022629E+04  0.7818609E-02  0.7999997E-01
        1   -1    0    0  501    0  0.00000000000E+00  0.00000000000E+00  0.21327583142E+04  0.21327583142E+04  0.50400001928E-02 0. -1.
       -1   -1    0    0    0  501  0.00000000000E+00  0.00000000000E+00 -0.18967858044E+04  0.18967858044E+04  0.50400001928E-02 0.  1.
    10030    2    1    2    0    0  0.00000000000E+00  0.00000000000E+00  0.23597250986E+03  0.40295441186E+04  0.40226288392E+04 0.  0.
        4    1    3    3  502    0  0.58905932871E+03  0.18652130580E+04  0.58716461435E+03  0.20422474242E+04  0.12699999809E+01 0.  1.
       -4    1    3    3    0  502 -0.58905932871E+03 -0.18652130580E+04 -0.35119210449E+03  0.19872966944E+04  0.12699999809E+01 0. -1.
</event>
<event>
 5   0  0.1035864E-06  0.3659346E+04  0.7818609E-02  0.8077032E-01
       -2   -1    0    0    0  501  0.00000000000E+00  0.00000000000E+00  0.17581997198E+04  0.17581997198E+04  0.25500000920E-02 0. -1.
        2   -1    0    0  501    0  0.00000000000E+00  0.00000000000E+00 -0.19040513992E+04  0.19040513992E+04  0.25500000920E-02 0.  1.
    10030    2    1    2    0    0  0.00000000000E+00  0.00000000000E+00 -0.14585167934E+03  0.36622511190E+04  0.36593456445E+04 0.  0.
        5    1    3    3  502    0 -0.17128167026E+04 -0.39910638008E+03  0.43210696264E+03  0.18110122795E+04  0.46999998093E+01 0. -1.
       -5    1    3    3    0  502  0.17128167026E+04  0.39910638008E+03 -0.57795864198E+03  0.18512388395E+04  0.46999998093E+01 0.  1.
</event>
<event>
 5   0  0.5353715E-07  0.2001247E+04  0.7818609E-02  0.8606038E-01
       -1   -1    0    0    0  501  0.00000000000E+00  0.00000000000E+00  0.97838474408E+03  0.97838474409E+03  0.50400001928E-02 0.  1.
        1   -1    0    0  501    0  0.00000000000E+00  0.00000000000E+00 -0.10233677400E+04  0.10233677400E+04  0.50400001928E-02 0. -1.
    10030    2    1    2    0    0  0.00000000000E+00  0.00000000000E+00 -0.44982995924E+02  0.20017524841E+04  0.20012469957E+04 0.  0.
        4    1    3    3  502    0  0.20141252615E+03 -0.21040230090E+03  0.93504317081E+03  0.97935870757E+03  0.12699999809E+01 0.  1.
       -4    1    3    3    0  502 -0.20141252615E+03  0.21040230090E+03 -0.98002616674E+03  0.10223937765E+04  0.12699999809E+01 0. -1.
</event>
<event>
 5   0  0.1034683E-06  0.2522374E+04  0.7818609E-02  0.8395058E-01
       -2   -1    0    0    0  501  0.00000000000E+00  0.00000000000E+00  0.11159155726E+04  0.11159155726E+04  0.25500000920E-02 0.  1.
        2   -1    0    0  501    0  0.00000000000E+00  0.00000000000E+00 -0.14253701469E+04  0.14253701470E+04  0.25500000920E-02 0. -1.
    10030    2    1    2    0    0  0.00000000000E+00  0.00000000000E+00 -0.30945457432E+03  0.25412857196E+04  0.25223740752E+04 0.  0.
        2    1    3    3  502    0  0.56440657984E+02 -0.10294833840E+04  0.57705943354E+03  0.11815325538E+04  0.25500000920E-02 0.  1.
       -2    1    3    3    0  502 -0.56440657984E+02  0.10294833840E+04 -0.88651400786E+03  0.13597531658E+04  0.25500000920E-02 0. -1.
</event>
<event>
 5   0  0.1035864E-06  0.3847135E+04  0.7818609E-02  0.8036115E-01
        2   -1    0    0  501    0  0.00000000000E+00  0.00000000000E+00  0.16815203375E+04  0.16815203375E+04  0.25500000920E-02 0.  1.
       -2   -1    0    0    0  501  0.00000000000E+00  0.00000000000E+00 -0.22004563628E+04  0.22004563628E+04  0.25500000920E-02 0. -1.
    10030    2    1    2    0    0  0.00000000000E+00  0.00000000000E+00 -0.51893602525E+03  0.38819767003E+04  0.38471351033E+04 0.  0.
        5    1    3    3  502    0 -0.37867488291E+03 -0.16015586757E+04  0.74539480488E+03  0.18066600023E+04  0.46999998093E+01 0.  1.
       -5    1    3    3    0  502  0.37867488291E+03  0.16015586757E+04 -0.12643308301E+04  0.20753166980E+04  0.46999998093E+01 0. -1.
</event>
<event>
 5   0  0.3471602E-07  0.3203393E+04  0.7818609E-02  0.8187922E-01
       -1   -1    0    0    0  501  0.00000000000E+00  0.00000000000E+00  0.16722778505E+04  0.16722778505E+04  0.50400001928E-02 0.  1.
        1   -1    0    0  501    0  0.00000000000E+00  0.00000000000E+00 -0.15340941822E+04  0.15340941822E+04  0.50400001928E-02 0. -1.
    10030    2    1    2    0    0  0.00000000000E+00  0.00000000000E+00  0.13818366838E+03  0.32063720327E+04  0.32033930271E+04 0.  0.
        5    1    3    3  502    0  0.26914595112E+03  0.82277895808E+03  0.14179372828E+04  0.16613166420E+04  0.46999998093E+01 0.  1.
       -5    1    3    3    0  502 -0.26914595112E+03 -0.82277895808E+03 -0.12797536144E+04  0.15450553908E+04  0.46999998093E+01 0. -1.
</event>
<event>
 5   0  0.7268013E-07  0.2213837E+04  0.7818609E-02  0.8512691E-01
        2   -1    0    0  501    0  0.00000000000E+00  0.00000000000E+00  0.12686952459E+04  0.12686952459E+04  0.25500000920E-02 0.  1.
       -2   -1    0    0    0  501  0.00000000000E+00  0.00000000000E+00 -0.96577045719E+03  0.96577045720E+03  0.25500000920E-02 0. -1.
    10030    2    1    2    0    0  0.00000000000E+00  0.00000000000E+00  0.30292478869E+03  0.22344657031E+04  0.22138368392E+04 0.  0.
        4    1    3    3  502    0 -0.34343350276E+02 -0.22599747635E+03  0.12446114748E+04  0.12654302276E+04  0.12699999809E+01 0.  1.
       -4    1    3    3    0  502  0.34343350276E+02  0.22599747635E+03 -0.94168668608E+03  0.96903547544E+03  0.12699999809E+01 0. -1.
</event>
<event>
 5   0  0.7268013E-07  0.3915470E+04  0.7818609E-02  0.8021819E-01
       -2   -1    0    0    0  501  0.00000000000E+00  0.00000000000E+00  0.28377623773E+04  0.28377623773E+04  0.25500000920E-02 0.  1.
        2   -1    0    0  501    0  0.00000000000E+00  0.00000000000E+00 -0.13506155851E+04  0.13506155851E+04  0.25500000920E-02 0. -1.
    10030    2    1    2    0    0  0.00000000000E+00  0.00000000000E+00  0.14871467922E+04  0.41883779623E+04  0.39154698791E+04 0.  0.
        4    1    3    3  502    0 -0.74803555133E+03 -0.18079423208E+04  0.81542554334E+03  0.21197011702E+04  0.12699999809E+01 0. -1.
       -4    1    3    3    0  502  0.74803555133E+03  0.18079423208E+04  0.67172124886E+03  0.20686767921E+04  0.12699999809E+01 0.  1.
</event>
<event>
 5   0  0.1052083E-06  0.2082053E+04  0.7818609E-02  0.8569191E-01
       -2   -1    0    0    0  501  0.00000000000E+00  0.00000000000E+00  0.68652017180E+03  0.68652017180E+03  0.25500000920E-02 0.  1.
        2   -1    0    0  501    0  0.00000000000E+00  0.00000000000E+00 -0.15785936999E+04  0.15785936999E+04  0.25500000920E-02 0. -1.
    10030    2    1    2    0    0  0.00000000000E+00  0.00000000000E+00 -0.89207352814E+03  0.22651138717E+04  0.20820532348E+04 0.  0.
        2    1    3    3  502    0  0.44192875968E+03 -0.47325799207E+03 -0.13328524586E+04  0.14818130220E+04  0.25500000920E-02 0. -1.
       -2    1    3    3    0  502 -0.44192875968E+03  0.47325799207E+03  0.44077893047E+03  0.78330084976E+03  0.25500000920E-02 0.  1.
</event>
<event>
 5   0  0.1015219E-06  0.3780688E+04  0.7818609E-02  0.8050312E-01
        2   -1    0    0  501    0  0.00000000000E+00  0.00000000000E+00  0.28902665239E+04  0.28902665239E+04  0.25500000920E-02 0.  1.
       -2   -1    0    0    0  501  0.00000000000E+00  0.00000000000E+00 -0.12363568717E+04  0.12363568717E+04  0.25500000920E-02 0. -1.
    10030    2    1    2    0    0  0.00000000000E+00  0.00000000000E+00  0.16539096522E+04  0.41266233956E+04  0.37806882325E+04 0.  0.
        3    1    3    3  502    0  0.68053077757E+03 -0.96327253969E+03  0.24394173468E+04  0.27095706536E+04  0.10100000352E+00 0.  1.
       -3    1    3    3    0  502 -0.68053077757E+03  0.96327253969E+03 -0.78550769459E+03  0.14170527419E+04  0.10100000352E+00 0. -1.
</event>
<event>
 5   0  0.4316671E-07  0.3010780E+04  0.7818609E-02  0.8240659E-01
        1   -1    0    0  501    0  0.00000000000E+00  0.00000000000E+00  0.15430299240E+04  0.15430299240E+04  0.50400001928E-02 0. -1.
       -1   -1    0    0    0  501  0.00000000000E+00  0.00000000000E+00 -0.14686678955E+04  0.14686678956E+04  0.50400001928E-02 0.  1.
    10030    2    1    2    0    0  0.00000000000E+00  0.00000000000E+00  0.74362028436E+02  0.30116978195E+04  0.30107796407E+04 0.  0.
        2    1    3    3  502    0  0.75533370620E+03 -0.43437959394E+03 -0.11907860713E+04  0.14755290939E+04  0.25500000920E-02 0.  1.
       -2    1    3    3    0  502 -0.75533370620E+03  0.43437959394E+03  0.12651480997E+04  0.15361687256E+04  0.25500000920E-02 0. -1.
</event>
<event>
 5   0  0.5533705E-07  0.3820274E+04  0.7818609E-02  0.8041818E-01
       -2   -1    0    0    0  501  0.00000000000E+00  0.00000000000E+00  0.18705733524E+04  0.18705733524E+04  0.25500000920E-02 0. -1.
        2   -1    0    0  501    0  0.00000000000E+00  0.00000000000E+00 -0.19505369752E+04  0.19505369752E+04  0.25500000920E-02 0.  1.
    10030    2    1    2    0    0  0.00000000000E+00  0.00000000000E+00 -0.79963622776E+02  0.38211103276E+04  0.38202735444E+04 0.  0.
        1    1    3    3  502    0 -0.17465612918E+04  0.78865646044E+02  0.72955421049E+03  0.18944512351E+04  0.50400001928E-02 0. -1.
       -1    1    3    3    0  502  0.17465612918E+04 -0.78865646044E+02 -0.80951783327E+03  0.19266590925E+04  0.50400001928E-02 0.  1.
</event>
<event>
 5   0  0.3977376E-07  0.3907492E+04  0.7818609E-02  0.8023473E-01
        1   -1    0    0  501    0  0.00000000000E+00  0.00000000000E+00  0.11889326311E+04  0.11889326311E+04  0.50400001928E-02 0. -1.
       -1   -1    0    0    0  501  0.00000000000E+00  0.00000000000E+00 -0.32105458256E+04  0.32105458256E+04  0.50400001928E-02 0.  1.
    10030    2    1    2    0    0  0.00000000000E+00  0.00000000000E+00 -0.20216131945E+04  0.43994784566E+04  0.39074916228E+04 0.  0.
        4    1    3    3  502    0 -0.32358075956E+03  0.17068730877E+04 -0.20172207998E+04  0.26621986428E+04  0.12699999809E+01 0. -1.
       -4    1    3    3    0  502  0.32358075956E+03 -0.17068730877E+04 -0.43923946905E+01  0.17372798139E+04  0.12699999809E+01 0.  1.
</event>
<event>
 5   0  0.1035864E-06  0.3961283E+04  0.7818609E-02  0.8012403E-01
        2   -1    0    0  501    0  0.00000000000E+00  0.00000000000E+00  0.15081268039E+04  0.15081268039E+04  0.25500000920E-02 0. -1.
       -2   -1    0    0    0  501  0.00000000000E+00  0.00000000000E+00 -0.26012006620E+04  0.26012006620E+04  0.25500000920E-02 0.  1.
    10030    2    1    2    0    0  0.00000000000E+00  0.00000000000E+00 -0.10930738580E+04  0.41093274659E+04  0.39612828431E+04 0.  0.
        5    1    3    3  502    0  0.10813592887E+04  0.13265432706E+04 -0.15807219536E+04  0.23297551254E+04  0.46999998093E+01 0.  1.
       -5    1    3    3    0  502 -0.10813592887E+04 -0.13265432706E+04  0.48764809555E+03  0.17795723405E+04  0.46999998093E+01 0. -1.
</event>
<event>
 5   0  0.4627905E-07  0.3928751E+04  0.7818609E-02  0.8019076E-01
       -1   -1    0    0    0  501  0.00000000000E+00  0.00000000000E+00  0.26112124468E+04  0.26112124468E+04  0.50400001928E-02 0.  1.
        1   -1    0    0  501    0  0.00000000000E+00  0.00000000000E+00 -0.14777698648E+04  0.14777698648E+04  0.50400001928E-02 0. -1.
    10030    2    1    2    0    0  0.00000000000E+00  0.00000000000E+00  0.11334425820E+04  0.40889823116E+04  0.39287509793E+04 0.  0.
        1    1    3    3  502    0 -0.97947684989E+03 -0.12357223215E+04  0.17859886562E+04  0.23824651173E+04  0.50400001928E-02 0.  1.
       -1    1    3    3    0  502  0.97947684989E+03  0.12357223215E+04 -0.65254607411E+03  0.17065171942E+04  0.50400001928E-02 0. -1.
</event>
<event>
 5   0  0.3471602E-07  0.3821901E+04  0.7818609E-02  0.8041471E-01
       -1   -1    0    0    0  501  0.00000000000E+00  0.00000000000E+00  0.27153760034E+04  0.27153760034E+04  0.50400001928E-02 0.  1.
        1   -1    0    0  501    0  0.00000000000E+00  0.00000000000E+00 -0.13448345493E+04  0.13448345494E+04  0.50400001928E-02 0. -1.
    10030    2    1    2    0    0  0.00000000000E+00  0.00000000000E+00  0.13705414541E+04  0.40602105528E+04  0.38219008171E+04 0.  0.
        5    1    3    3  502    0 -0.85609012681E+03  0.16568044153E+04  0.24235942273E+03  0.18805986695E+04  0.46999998093E+01 0.  1.
       -5    1    3    3    0  502  0.85609012681E+03 -0.16568044153E+04  0.11281820313E+04  0.21796118833E+04  0.46999998093E+01 0. -1.
</event>
<event>
 5   0  0.1035864E-06  0.3700642E+04  0.7818609E-02  0.8067820E-01
        2   -1    0    0  501    0  0.00000000000E+00  0.00000000000E+00  0.17768039949E+04  0.17768039949E+04  0.25500000920E-02 0. -1.
       -2   -1    0    0    0  501  0.00000000000E+00  0.00000000000E+00 -0.19268798869E+04  0.19268798869E+04  0.25500000920E-02 0.  1.
    10030    2    1    2    0    0  0.00000000000E+00  0.00000000000E+00 -0.15007589200E+03  0.37036838818E+04  0.37006420420E+04 0.  0.
        5    1    3    3  502    0 -0.31060519113E+03 -0.32180129301E+03  0.17218860405E+04  0.17790293093E+04  0.46999998093E+01 0. -1.
       -5    1    3    3    0  502  0.31060519113E+03  0.32180129301E+03 -0.18719619325E+04  0.19246545725E+04  0.46999998093E+01 0.  1.
</event>
<event>
 5   0  0.5533705E-07  0.3987502E+04  0.7818609E-02  0.8007072E-01
       -2   -1    0    0    0  501  0.00000000000E+00  0.00000000000E+00  0.18119563383E+04  0.18119563383E+04  0.25500000920E-02 0.  1.
        2   -1    0    0  501    0  0.00000000000E+00  0.00000000000E+00 -0.21937855595E+04  0.21937855595E+04  0.25500000920E-02 0. -1.
    10030    2    1    2    0    0  0.00000000000E+00  0.00000000000E+00 -0.38182922122E+03  0.40057418978E+04  0.39875023007E+04 0.  0.
        1    1    3    3  502    0  0.15056711621E+04 -0.90537138221E+03  0.75589358612E+03  0.19126207417E+04  0.50400001928E-02 0.  1.
       -1    1    3    3    0  502 -0.15056711621E+04  0.90537138221E+03 -0.11377228073E+04  0.20931211561E+04  0.50400001928E-02 0. -1.
</event>
<event>
 5   0  0.7083058E-07  0.1981806E+04  0.7818609E-02  0.8615174E-01
       -2   -1    0    0    0  501  0.00000000000E+00  0.00000000000E+00  0.61267561990E+03  0.61267561990E+03  0.25500000920E-02 0.  1.
        2   -1    0    0  501    0  0.00000000000E+00  0.00000000000E+00 -0.16026243484E+04  0.16026243484E+04  0.25500000920E-02 0. -1.
    10030    2    1    2    0    0  0.00000000000E+00  0.00000000000E+00 -0.98994872846E+03  0.22152999683E+04  0.19818061117E+04 0.  0.
        1    1    3    3  502    0 -0.21581817655E+03  0.96187793158E+03 -0.60732613112E+03  0.11578564981E+04  0.50400001928E-02 0. -1.
       -1    1    3    3    0  502  0.21581817655E+03 -0.96187793158E+03 -0.38262259734E+03  0.10574434702E+04  0.50400001928E-02 0.  1.
</event>
<event>
 5   0  0.4627905E-07  0.2241737E+04  0.7818609E-02  0.8501254E-01
        1   -1    0    0  501    0  0.00000000000E+00  0.00000000000E+00  0.13820577458E+04  0.13820577458E+04  0.50400001928E-02 0.  1.
       -1   -1    0    0    0  501  0.00000000000E+00  0.00000000000E+00 -0.90904014264E+03  0.90904014265E+03  0.50400001928E-02 0. -1.
    10030    2    1    2    0    0  0.00000000000E+00  0.00000000000E+00  0.47301760317E+03  0.22910978885E+04  0.22417368003E+04 0.  0.
        1    1    3    3  502    0 -0.48804347543E+03 -0.94589985258E+03 -0.12255752239E+03  0.10714164976E+04  0.50400001928E-02 0. -1.
       -1    1    3    3    0  502  0.48804347543E+03  0.94589985258E+03  0.59557512555E+03  0.12196813909E+04  0.50400001928E-02 0.  1.
</event>
<event>
 5   0  0.1035864E-06  0.3479280E+04  0.7818609E-02  0.8118718E-01
       -2   -1    0    0    0  501  0.00000000000E+00  0.00000000000E+00  0.12211257488E+04  0.12211257488E+04  0.25500000920E-02 0.  1.
        2   -1    0    0  501    0  0.00000000000E+00  0.00000000000E+00 -0.24783260181E+04  0.24783260181E+04  0.25500000920E-02 0. -1.
    10030    2    1    2    0    0  0.00000000000E+00  0.00000000000E+00 -0.12572002692E+04  0.36994517669E+04  0.34792802213E+04 0.  0.
        5    1    3    3  502    0  0.44740832135E+03  0.16580601531E+04 -0.33357478620E+03  0.17494661772E+04  0.46999998093E+01 0.  1.
       -5    1    3    3    0  502 -0.44740832135E+03 -0.16580601531E+04 -0.92362548302E+03  0.19499855897E+04  0.46999998093E+01 0. -1.
</event>
<event>
 5   0  0.3977376E-07  0.2708511E+04  0.7818609E-02  0.8332249E-01
       -1   -1    0    0    0  501  0.00000000000E+00  0.00000000000E+00  0.11924209290E+04  0.11924209290E+04  0.50400001928E-02 0.  1.
        1   -1    0    0  501    0  0.00000000000E+00  0.00000000000E+00 -0.15380540502E+04  0.15380540502E+04  0.50400001928E-02 0. -1.
    10030    2    1    2    0    0  0.00000000000E+00  0.00000000000E+00 -0.34563312118E+03  0.27304749792E+04  0.27085109115E+04 0.  0.
        4    1    3    3  502    0  0.10345351846E+04 -0.32845192287E+03  0.64360415524E+03  0.12618920855E+04  0.12699999809E+01 0. -1.
       -4    1    3    3    0  502 -0.10345351846E+04  0.32845192287E+03 -0.98923727642E+03  0.14685828938E+04  0.12699999809E+01 0.  1.
</event>
<event>
 5   0  0.4316671E-07  0.2001772E+04  0.7818609E-02  0.8605793E-01
        1   -1    0    0  501    0  0.00000000000E+00  0.00000000000E+00  0.13041331517E+04  0.13041331517E+04  0.50400001928E-02 0.  1.
       -1   -1    0    0    0  501  0.00000000000E+00  0.00000000000E+00 -0.76815229123E+03  0.76815229125E+03  0.50400001928E-02 0. -1.
    10030    2    1    2    0    0  0.00000000000E+00  0.00000000000E+00  0.53598086048E+03  0.20722854430E+04  0.20017720835E+04 0.  0.
        2    1    3    3  502    0 -0.24716678736E+03  0.84144726510E+03  0.76731686772E+03  0.11652897048E+04  0.25500000920E-02 0.  1.
       -2    1    3    3    0  502  0.24716678736E+03 -0.84144726510E+03 -0.23133600725E+03  0.90699573812E+03  0.25500000920E-02 0. -1.
</event>
<event>
 5   0  0.5385714E-07  0.3754560E+04  0.7818609E-02  0.8055977E-01
       -1   -1    0    0    0  501  0.00000000000E+00  0.00000000000E+00  0.16282738469E+04  0.16282738469E+04  0.50400001928E-02 0.  1.
        1   -1    0    0  501    0  0.00000000000E+00  0.00000000000E+00 -0.21643655193E+04  0.21643655193E+04  0.50400001928E-02 0. -1.
    10030    2    1    2    0    0  0.00000000000E+00  0.00000000000E+00 -0.53609167242E+03  0.37926393662E+04  0.37545597719E+04 0.  0.
        3    1    3    3  502    0  0.26050155337E+03 -0.99579817972E+03  0.13178146248E+04  0.16721574297E+04  0.10100000352E+00 0.  1.
       -3    1    3    3    0  502 -0.26050155337E+03  0.99579817972E+03 -0.18539062973E+04  0.21204819366E+04  0.10100000352E+00 0. -1.
</event>
<event>
 5   0  0.5533705E-07  0.2059504E+04  0.7818609E-02  0.8579295E-01
       -2   -1    0    0    0  501  0.00000000000E+00  0.00000000000E+00  0.10489371286E+04  0.10489371286E+04  0.25500000920E-02 0. -1.
        2   -1    0    0  501    0  0.00000000000E+00  0.00000000000E+00 -0.10109180412E+04  0.10109180412E+04  0.25500000920E-02 0.  1.
    10030    2    1    2    0    0  0.00000000000E+00  0.00000000000E+00  0.38019087359E+02  0.20598551698E+04  0.20595042776E+04 0.  0.
        1    1    3    3  502    0 -0.43034486971E+03  0.92811644726E+03  0.13647154213E+03  0.10320956004E+04  0.50400001928E-02 0.  1.
       -1    1    3    3    0  502  0.43034486971E+03 -0.92811644726E+03 -0.98452454775E+02  0.10277595694E+04  0.50400001928E-02 0. -1.
</event>
<event>
 5   0  0.3471602E-07  0.3840074E+04  0.7818609E-02  0.8037609E-01
       -1   -1    0    0    0  501  0.00000000000E+00  0.00000000000E+00  0.19971654220E+04  0.19971654220E+04  0.50400001928E-02 0.  1.
        1   -1    0    0  501    0  0.00000000000E+00  0.00000000000E+00 -0.18458867652E+04  0.18458867652E+04  0.50400001928E-02 0. -1.
    10030    2    1    2    0    0  0.00000000000E+00  0.00000000000E+00  0.15127865678E+03  0.38430521872E+04  0.38400735516E+04 0.  0.
        5    1    3    3  502    0  0.13951792172E+04 -0.17930667997E+03 -0.12322191024E+04  0.18700432990E+04  0.46999998093E+01 0. -1.
       -5    1    3    3    0  502 -0.13951792172E+04  0.17930667997E+03  0.13834977592E+04  0.19730088883E+04  0.46999998093E+01 0.  1.
</event>
<event>
 5   0  0.1034683E-06  0.2973823E+04  0.7818609E-02  0.8251246E-01
        2   -1    0    0  501    0  0.00000000000E+00  0.00000000000E+00  0.95438446798E+03  0.95438446798E+03  0.25500000920E-02 0.  1.
       -2   -1    0    0    0  501  0.00000000000E+00  0.00000000000E+00 -0.23165774859E+04  0.23165774859E+04  0.25500000920E-02 0. -1.
    10030    2    1    2    0    0  0.00000000000E+00  0.00000000000E+00 -0.13621930179E+04  0.32709619539E+04  0.29738228403E+04 0.  0.
        2    1    3    3  502    0  0.11614563283E+04 -0.90751108650E+03 -0.89649070929E+03  0.17251819517E+04  0.25500000920E-02 0.  1.
       -2    1    3    3    0  502 -0.11614563283E+04  0.90751108650E+03 -0.46570230862E+03  0.15457800021E+04  0.25500000920E-02 0. -1.
</event>
<event>
 5   0  0.4316671E-07  0.3093700E+04  0.7818609E-02  0.8217469E-01
       -1   -1    0    0    0  501  0.00000000000E+00  0.00000000000E+00  0.17639327095E+04  0.17639327095E+04  0.50400001928E-02 0. -1.
        1   -1    0    0  501    0  0.00000000000E+00  0.00000000000E+00 -0.13564831835E+04  0.13564831835E+04  0.50400001928E-02 0.  1.
    10030    2    1    2    0    0  0.00000000000E+00  0.00000000000E+00  0.40744952598E+03  0.31204158930E+04  0.30937000871E+04 0.  0.
        2    1    3    3  502    0  0.34468378597E+03 -0.11150555968E+04 -0.82022124435E+03  0.14265057960E+04  0.25500000920E-02 0.  1.
       -2    1    3    3    0  502 -0.34468378597E+03  0.11150555968E+04  0.12276707703E+04  0.16939100970E+04  0.25500000920E-02 0. -1.
</event>
<event>
 5   0  0.5533705E-07  0.3386564E+04  0.7818609E-02  0.8141212E-01
        2   -1    0    0  501    0  0.00000000000E+00  0.00000000000E+00  0.19161816720E+04  0.19161816720E+04  0.25500000920E-02 0.  1.
       -2   -1    0    0    0  501  0.00000000000E+00  0.00000000000E+00 -0.14963109695E+04  0.14963109695E+04  0.25500000920E-02 0. -1.
    10030    2    1    2    0    0  0.00000000000E+00  0.00000000000E+00  0.41987070241E+03  0.34124926415E+04  0.33865638369E+04 0.  0.
        1    1    3    3  502    0  0.82044015344E+03  0.46942306549E+03  0.16255844721E+04  0.18804267962E+04  0.50400001928E-02 0.  1.
       -1    1    3    3    0  502 -0.82044015344E+03 -0.46942306549E+03 -0.12057137697E+04  0.15320658453E+04  0.50400001928E-02 0. -1.
</event>
<event>
 5   0  0.3977376E-07  0.3842354E+04  0.7818609E-02  0.8037126E-01
       -1   -1    0    0    0  501  0.00000000000E+00  0.00000000000E+00  0.26121884389E+04  0.26121884389E+04  0.50400001928E-02 0. -1.
        1   -1    0    0  501    0  0.00000000000E+00  0.00000000000E+00 -0.14129611164E+04  0.14129611164E+04  0.50400001928E-02 0.  1.
    10030    2    1    2    0    0  0.00000000000E+00  0.00000000000E+00  0.11992273226E+04  0.40251495553E+04  0.38423538061E+04 0.  0.
        4    1    3    3  502    0 -0.44583669111E+03  0.70543637809E+03  0.24124033624E+04  0.25526657506E+04  0.12699999809E+01 0. -1.
       -4    1    3    3    0  502  0.44583669111E+03 -0.70543637809E+03 -0.12131760398E+04  0.14724838047E+04  0.12699999809E+01 0.  1.
</event>
<event>
 5   0  0.5533705E-07  0.3951585E+04  0.7818609E-02  0.8014385E-01
        2   -1    0    0  501    0  0.00000000000E+00  0.00000000000E+00  0.17625459313E+04  0.17625459313E+04  0.25500000920E-02 0. -1.
       -2   -1    0    0    0  501  0.00000000000E+00  0.00000000000E+00 -0.22148393948E+04  0.22148393948E+04  0.25500000920E-02 0.  1.
    10030    2    1    2    0    0  0.00000000000E+00  0.00000000000E+00 -0.45229346350E+03  0.39773853262E+04  0.39515850814E+04 0.  0.
        1    1    3    3  502    0 -0.11056919298E+04  0.41183042189E+03 -0.18212959933E+04  0.21700871032E+04  0.50400001928E-02 0.  1.
       -1    1    3    3    0  502  0.11056919298E+04 -0.41183042189E+03  0.13690025298E+04  0.18072982230E+04  0.50400001928E-02 0. -1.
</event>
<event>
 5   0  0.3471602E-07  0.3416541E+04  0.7818609E-02  0.8133858E-01
        1   -1    0    0  501    0  0.00000000000E+00  0.00000000000E+00  0.13044005255E+04  0.13044005255E+04  0.50400001928E-02 0.  1.
       -1   -1    0    0    0  501  0.00000000000E+00  0.00000000000E+00 -0.22371874106E+04  0.22371874106E+04  0.50400001928E-02 0. -1.
    10030    2    1    2    0    0  0.00000000000E+00  0.00000000000E+00 -0.93278688513E+03  0.35415879361E+04  0.34165411949E+04 0.  0.
        5    1    3    3  502    0  0.73102956372E+02  0.91196393619E+03  0.10290240005E+04  0.13769294632E+04  0.46999998093E+01 0.  1.
       -5    1    3    3    0  502 -0.73102956372E+02 -0.91196393619E+03 -0.19618108856E+04  0.21646584729E+04  0.46999998093E+01 0. -1.
</event>
<event>
 5   0  0.3471602E-07  0.3859733E+04  0.7818609E-02  0.8033457E-01
       -1   -1    0    0    0  501  0.00000000000E+00  0.00000000000E+00  0.13525100960E+04  0.13525100960E+04  0.50400001928E-02 0.  1.
        1   -1    0    0  501    0  0.00000000000E+00  0.00000000000E+00 -0.27536829514E+04  0.27536829514E+04  0.50400001928E-02 0. -1.
    10030    2    1    2    0    0  0.00000000000E+00  0.00000000000E+00 -0.14011728553E+04  0.41061930474E+04  0.38597326296E+04 0.  0.
        5    1    3    3  502    0  0.36374653952E+03  0.63844024665E+03 -0.25990356162E+04  0.27009120159E+04  0.46999998093E+01 0. -1.
       -5    1    3    3    0  502 -0.36374653952E+03 -0.63844024665E+03  0.11978627609E+04  0.14052810315E+04  0.46999998093E+01 0.  1.
</event>
<event>
 5   0  0.5385714E-07  0.2271290E+04  0.7818609E-02  0.8489328E-01
       -1   -1    0    0    0  501  0.00000000000E+00  0.00000000000E+00  0.11256941397E+04  0.11256941398E+04  0.50400001928E-02 0. -1.
        1   -1    0    0  501    0  0.00000000000E+00  0.00000000000E+00 -0.11456836140E+04  0.11456836140E+04  0.50400001928E-02 0.  1.
    10030    2    1    2    0    0  0.00000000000E+00  0.00000000000E+00 -0.19989474290E+02  0.22713777538E+04  0.22712897925E+04 0.  0.
        3    1    3    3  502    0  0.74305105816E+03  0.91011065197E+00  0.84885376281E+03  0.11281304996E+04  0.10100000352E+00 0. -1.
       -3    1    3    3    0  502 -0.74305105816E+03 -0.91011065197E+00 -0.86884323710E+03  0.11432472542E+04  0.10100000352E+00 0.  1.
</event>
<event>
 5   0  0.1015219E-06  0.3856558E+04  0.7818609E-02  0.8034126E-01
        2   -1    0    0  501    0  0.00000000000E+00  0.00000000000E+00  0.21015484718E+04  0.21015484718E+04  0.25500000920E-02 0.  1.
       -2   -1    0    0    0  501  0.00000000000E+00  0.00000000000E+00 -0.17692951140E+04  0.17692951140E+04  0.25500000920E-02 0. -1.
    10030    2    1    2    0    0  0.00000000000E+00  0.00000000000E+00  0.33225335783E+03  0.38708435858E+04  0.38565577621E+04 0.  0.
        3    1    3    3  502    0  0.45143397602E+03  0.14321226836E+03 -0.17100103832E+04  0.17743838112E+04  0.10100000352E+00 0. -1.
       -3    1    3    3    0  502 -0.45143397602E+03 -0.14321226836E+03  0.20422637410E+04  0.20964597746E+04  0.10100000352E+00 0.  1.
</event>
<event>
 5   0  0.5533705E-07  0.3953762E+04  0.7818609E-02  0.8013940E-01
        2   -1    0    0  501    0  0.00000000000E+00  0.00000000000E+00  0.15833510355E+04  0.15833510355E+04  0.25500000920E-02 0. -1.
       -2   -1    0    0    0  501  0.00000000000E+00  0.00000000000E+00 -0.24682192632E+04  0.24682192632E+04  0.25500000920E-02 0.  1.
    10030    2    1    2    0    0  0.00000000000E+00  0.00000000000E+00 -0.88486822767E+03  0.40515702987E+04  0.39537615134E+04 0.  0.
        1    1    3    3  502    0 -0.11997992755E+04  0.12943267649E+04  0.47024894455E+03  0.18264539813E+04  0.50400001928E-02 0. -1.
       -1    1    3    3    0  502  0.11997992755E+04 -0.12943267649E+04 -0.13551171722E+04  0.22251163175E+04  0.50400001928E-02 0.  1.
</event>
<event>
 5   0  0.5533705E-07  0.3953272E+04  0.7818609E-02  0.8014040E-01
        2   -1    0    0  501    0  0.00000000000E+00  0.00000000000E+00  0.26209343711E+04  0.26209343711E+04  0.25500000920E-02 0.  1.
       -2   -1    0    0    0  501  0.00000000000E+00  0.00000000000E+00 -0.14907237692E+04  0.14907237692E+04  0.25500000920E-02 0. -1.
    10030    2    1    2    0    0  0.00000000000E+00  0.00000000000E+00  0.11302106019E+04  0.41116581403E+04  0.39532716398E+04 0.  0.
        1    1    3    3  502    0 -0.61237901183E+03  0.15089677048E+04  0.17303015746E+04  0.23761176586E+04  0.50400001928E-02 0.  1.
       -1    1    3    3    0  502  0.61237901183E+03 -0.15089677048E+04 -0.60009097273E+03  0.17355404818E+04  0.50400001928E-02 0. -1.
</event>
<event>
 5   0  0.1035864E-06  0.3078962E+04  0.7818609E-02  0.8221536E-01
        2   -1    0    0  501    0  0.00000000000E+00  0.00000000000E+00  0.20927093690E+04  0.20927093690E+04  0.25500000920E-02 0. -1.
       -2   -1    0    0    0  501  0.00000000000E+00  0.00000000000E+00 -0.11325037464E+04  0.11325037464E+04  0.25500000920E-02 0.  1.
    10030    2    1    2    0    0  0.00000000000E+00  0.00000000000E+00  0.96020562254E+03  0.32252131154E+04  0.30789616435E+04 0.  0.
        5    1    3    3  502    0  0.27266876951E+03  0.80182231667E+03 -0.86654089523E+03  0.12116858085E+04  0.46999998093E+01 0.  1.
       -5    1    3    3    0  502 -0.27266876951E+03 -0.80182231667E+03  0.18267465178E+04  0.20135273069E+04  0.46999998093E+01 0. -1.
</event>
<event>
 5   0  0.1035864E-06  0.3896546E+04  0.7818609E-02  0.8025748E-01
        2   -1    0    0  501    0  0.00000000000E+00  0.00000000000E+00  0.13569886261E+04  0.13569886261E+04  0.25500000920E-02 0. -1.
       -2   -1    0    0    0  501  0.00000000000E+00  0.00000000000E+00 -0.27971992052E+04  0.27971992053E+04  0.25500000920E-02 0.  1.
    10030    2    1    2    0    0  0.00000000000E+00  0.00000000000E+00 -0.14402105792E+04  0.41541878313E+04  0.38965459096E+04 0.  0.
        5    1    3    3  502    0 -0.15620963895E+04  0.99687710324E+03 -0.13614070249E+04  0.22994260733E+04  0.46999998093E+01 0.  1.
       -5    1    3    3    0  502  0.15620963895E+04 -0.99687710324E+03 -0.78803554242E+02  0.18547617581E+04  0.46999998093E+01 0. -1.
</event>
<event>
 5   0  0.1034683E-06  0.3909775E+04  0.7818609E-02  0.8022999E-01
       -2   -1    0    0    0  501  0.00000000000E+00  0.00000000000E+00  0.16958556536E+04  0.16958556536E+04  0.25500000920E-02 0. -1.
        2   -1    0    0  501    0  0.00000000000E+00  0.00000000000E+00 -0.22534852243E+04  0.22534852243E+04  0.25500000920E-02 0.  1.
    10030    2    1    2    0    0  0.00000000000E+00  0.00000000000E+00 -0.55762957069E+03  0.39493408778E+04  0.39097752661E+04 0.  0.
        2    1    3    3  502    0  0.10348070026E+03  0.12469625829E+04  0.12383707326E+04  0.17604505133E+04  0.25500000920E-02 0. -1.
       -2    1    3    3    0  502 -0.10348070026E+03 -0.12469625829E+04 -0.17960003033E+04  0.21888903645E+04  0.25500000920E-02 0.  1.
</event>
<event>
 5   0  0.3471602E-07  0.3966249E+04  0.7818609E-02  0.8011390E-01
       -1   -1    0    0    0  501  0.00000000000E+00  0.00000000000E+00  0.16756737095E+04  0.16756737095E+04  0.50400001928E-02 0. -1.
        1   -1    0    0  501    0  0.00000000000E+00  0.00000000000E+00 -0.23469863279E+04  0.23469863279E+04  0.50400001928E-02 0.  1.
    10030    2    1    2    0    0  0.00000000000E+00  0.00000000000E+00 -0.67131261839E+03  0.40226600374E+04  0.39662492540E+04 0.  0.
        5    1    3    3  502    0 -0.15911598232E+04  0.86046709212E+03 -0.11599692012E+04  0.21488936310E+04  0.46999998093E+01 0.  1.
       -5    1    3    3    0  502  0.15911598232E+04 -0.86046709212E+03  0.48865658285E+03  0.18737664064E+04  0.46999998093E+01 0. -1.
</event>
<event>
 5   0  0.4316671E-07  0.3935745E+04  0.7818609E-02  0.8017636E-01
       -1   -1    0    0    0  501  0.00000000000E+00  0.00000000000E+00  0.12218559751E+04  0.12218559752E+04  0.50400001928E-02 0. -1.
        1   -1    0    0  501    0  0.00000000000E+00  0.00000000000E+00 -0.31693776055E+04  0.31693776055E+04  0.50400001928E-02 0.  1.
    10030    2    1    2    0    0  0.00000000000E+00  0.00000000000E+00 -0.19475216303E+04  0.43912335806E+04  0.39357454007E+04 0.  0.
        2    1    3    3  502    0  0.24297758888E+02  0.89857659133E+03 -0.29269253840E+04  0.30618495187E+04  0.25500000920E-02 0.  1.
       -2    1    3    3    0  502 -0.24297758888E+02 -0.89857659133E+03  0.97940375364E+03  0.13293840620E+04  0.25500000920E-02 0. -1.
</event>
<event>
 5   0  0.5385714E-07  0.4016853E+04  0.7818609E-02  0.8001155E-01
        1   -1    0    0  501    0  0.00000000000E+00  0.00000000000E+00  0.22538333317E+04  0.22538333317E+04  0.50400001928E-02 0.  1.
       -1   -1    0    0    0  501  0.00000000000E+00  0.00000000000E+00 -0.17897408698E+04  0.17897408698E+04  0.50400001928E-02 0. -1.
    10030    2    1    2    0    0  0.00000000000E+00  0.00000000000E+00  0.46409246191E+03  0.40435742016E+04  0.40168533096E+04 0.  0.
        3    1    3    3  502    0 -0.67748532798E+03  0.46000732408E+03  0.20781444015E+04  0.22336690157E+04  0.10100000352E+00 0.  1.
       -3    1    3    3    0  502  0.67748532798E+03 -0.46000732408E+03 -0.16140519396E+04  0.18099051859E+04  0.10100000352E+00 0. -1.
</event>
<event>
 5   0  0.3471602E-07  0.3955388E+04  0.7818609E-02  0.8013607E-01
        1   -1    0    0  501    0  0.00000000000E+00  0.00000000000E+00  0.20592504973E+04  0.20592504974E+04  0.50400001928E-02 0. -1.
       -1   -1    0    0    0  501  0.00000000000E+00  0.00000000000E+00 -0.18993673397E+04  0.18993673397E+04  0.50400001928E-02 0.  1.
    10030    2    1    2    0    0  0.00000000000E+00  0.00000000000E+00  0.15988315763E+03  0.39586178371E+04  0.39553877883E+04 0.  0.
        5    1    3    3  502    0 -0.14067997706E+04  0.10502627336E+04 -0.83135877739E+03  0.19425027441E+04  0.46999998093E+01 0.  1.
       -5    1    3    3    0  502  0.14067997706E+04 -0.10502627336E+04  0.99124193502E+03  0.20161150929E+04  0.46999998093E+01 0. -1.
</event>
<event>
 5   0  0.1034683E-06  0.3074482E+04  0.7818609E-02  0.8222776E-01
        2   -1    0    0  501    0  0.00000000000E+00  0.00000000000E+00  0.13685042607E+04  0.13685042607E+04  0.25500000920E-02 0.  1.
       -2   -1    0    0    0  501  0.00000000000E+00  0.00000000000E+00 -0.17267826270E+04  0.17267826270E+04  0.25500000920E-02 0. -1.
    10030    2    1    2    0    0  0.00000000000E+00  0.00000000000E+00 -0.35827836622E+03  0.30952868877E+04  0.30744816684E+04 0.  0.
        2    1    3    3  502    0  0.54805781363E+03  0.11061697303E+04 -0.11013787791E+04  0.16543923520E+04  0.25500000920E-02 0. -1.
       -2    1    3    3    0  502 -0.54805781363E+03 -0.11061697303E+04  0.74310041287E+03  0.14408945357E+04  0.25500000920E-02 0.  1.
</event>
<event>
 5   0  0.1034683E-06  0.3928858E+04  0.7818609E-02  0.8019054E-01
       -2   -1    0    0    0  501  0.00000000000E+00  0.00000000000E+00  0.14821016314E+04  0.14821016314E+04  0.25500000920E-02 0.  1.
        2   -1    0    0  501    0  0.00000000000E+00  0.00000000000E+00 -0.26037218588E+04  0.26037218588E+04  0.25500000920E-02 0. -1.
    10030    2    1    2    0    0  0.00000000000E+00  0.00000000000E+00 -0.11216202274E+04  0.40858234902E+04  0.39288575514E+04 0.  0.
        2    1    3    3  502    0 -0.98163938063E+03 -0.15758412996E+03  0.12011436106E+04  0.15592288494E+04  0.25500000920E-02 0.  1.
       -2    1    3    3    0  502  0.98163938063E+03  0.15758412996E+03 -0.23227638380E+04  0.25265946408E+04  0.25500000920E-02 0. -1.
</event>
<event>
 5   0  0.3977376E-07  0.3660663E+04  0.7818609E-02  0.8076736E-01
       -1   -1    0    0    0  501  0.00000000000E+00  0.00000000000E+00  0.13578566098E+04  0.13578566098E+04  0.50400001928E-02 0. -1.
        1   -1    0    0  501    0  0.00000000000E+00  0.00000000000E+00 -0.24672071304E+04  0.24672071304E+04  0.50400001928E-02 0.  1.
    10030    2    1    2    0    0  0.00000000000E+00  0.00000000000E+00 -0.11093505206E+04  0.38250637401E+04  0.36606630600E+04 0.  0.
        4    1    3    3  502    0  0.88711787789E+03 -0.12301526799E+04 -0.16253171516E+04  0.22230409806E+04  0.12699999809E+01 0.  1.
       -4    1    3    3    0  502 -0.88711787789E+03  0.12301526799E+04  0.51596663099E+03  0.16020227596E+04  0.12699999809E+01 0. -1.
</event>
<event>
 5   0  0.4627905E-07  0.2263723E+04  0.7818609E-02  0.8492363E-01
        1   -1    0    0  501    0  0.00000000000E+00  0.00000000000E+00  0.26430829958E+04  0.26430829958E+04  0.50400001928E-02 0. -1.
       -1   -1    0    0    0  501  0.00000000000E+00  0.00000000000E+00 -0.48470316460E+03  0.48470316462E+03  0.50400001928E-02 0.  1.
    10030    2    1    2    0    0  0.00000000000E+00  0.00000000000E+00  0.21583798312E+04  0.31277861604E+04  0.22637232096E+04 0.  0.
        1    1    3    3  502    0  0.26107882188E+02 -0.22938941362E+03  0.26102041789E+04  0.26203944322E+04  0.50400001928E-02 0. -1.
       -1    1    3    3    0  502 -0.26107882188E+02  0.22938941362E+03 -0.45182434776E+03  0.50739172820E+03  0.50400001928E-02 0.  1.
</event>
<event>
 5   0  0.3977376E-07  0.3922544E+04  0.7818609E-02  0.8020357E-01
        1   -1    0    0  501    0  0.00000000000E+00  0.00000000000E+00  0.20582182553E+04  0.20582182553E+04  0.50400001928E-02 0. -1.
       -1   -1    0    0    0  501  0.00000000000E+00  0.00000000000E+00 -0.18688922222E+04  0.18688922222E+04  0.50400001928E-02 0.  1.
    10030    2    1    2    0    0  0.00000000000E+00  0.00000000000E+00  0.18932603309E+03  0.39271104775E+04  0.39225441177E+04 0.  0.
        4    1    3    3  502    0 -0.13554065343E+04  0.56226230990E+03  0.13974544391E+04  0.20263628255E+04  0.12699999809E+01 0. -1.
       -4    1    3    3    0  502  0.13554065343E+04 -0.56226230990E+03 -0.12081284060E+04  0.19007476520E+04  0.12699999809E+01 0.  1.
</event>
<event>
 5   0  0.3471602E-07  0.3715081E+04  0.7818609E-02  0.8064628E-01
        1   -1    0    0  501    0  0.00000000000E+00  0.00000000000E+00  0.14921934656E+04  0.14921934656E+04  0.50400001928E-02 0. -1.
       -1   -1    0    0    0  501  0.00000000000E+00  0.00000000000E+00 -0.23123389333E+04  0.23123389333E+04  0.50400001928E-02 0.  1.
    10030    2    1    2    0    0  0.00000000000E+00  0.00000000000E+00 -0.82014546772E+03  0.38045323989E+04  0.37150811816E+04 0.  0.
        5    1    3    3  502    0 -0.16560499097E+03 -0.16892589886E+04 -0.11828370400E+04  0.20688514922E+04  0.46999998093E+01 0.  1.
       -5    1    3    3    0  502  0.16560499097E+03  0.16892589886E+04  0.36269157225E+03  0.17356809067E+04  0.46999998093E+01 0. -1.
</event>
<event>
 5   0  0.7268013E-07  0.2487240E+04  0.7818609E-02  0.8407546E-01
        2   -1    0    0  501    0  0.00000000000E+00  0.00000000000E+00  0.30548485286E+04  0.30548485286E+04  0.25500000920E-02 0. -1.
       -2   -1    0    0    0  501  0.00000000000E+00  0.00000000000E+00 -0.50627390616E+03  0.50627390616E+03  0.25500000920E-02 0.  1.
    10030    2    1    2    0    0  0.00000000000E+00  0.00000000000E+00  0.25485746224E+04  0.35611224347E+04  0.24872395118E+04 0.  0.
        4    1    3    3  502    0 -0.10860777653E+04  0.60556676277E+03  0.12995961419E+04  0.17986738897E+04  0.12699999809E+01 0. -1.
       -4    1    3    3    0  502  0.10860777653E+04 -0.60556676277E+03  0.12489784805E+04  0.17624485451E+04  0.12699999809E+01 0.  1.
</event>
<event>
 5   0  0.5533705E-07  0.3722929E+04  0.7818609E-02  0.8062899E-01
        2   -1    0    0  501    0  0.00000000000E+00  0.00000000000E+00  0.13698043481E+04  0.13698043481E+04  0.25500000920E-02 0.  1.
       -2   -1    0    0    0  501  0.00000000000E+00  0.00000000000E+00 -0.25295943155E+04  0.25295943155E+04  0.25500000920E-02 0. -1.
    10030    2    1    2    0    0  0.00000000000E+00  0.00000000000E+00 -0.11597899674E+04  0.38993986637E+04  0.37229285743E+04 0.  0.
        1    1    3    3  502    0 -0.13594612449E+04 -0.81469535703E+03  0.44269547690E+03  0.16455523955E+04  0.50400001928E-02 0.  1.
       -1    1    3    3    0  502  0.13594612449E+04  0.81469535703E+03 -0.16024854443E+04  0.22538462681E+04  0.50400001928E-02 0. -1.
</event>
<event>
 5   0  0.5533705E-07  0.3867733E+04  0.7818609E-02  0.8031774E-01
       -2   -1    0    0    0  501  0.00000000000E+00  0.00000000000E+00  0.13636159714E+04  0.13636159714E+04  0.25500000920E-02 0. -1.
        2   -1    0    0  501    0  0.00000000000E+00  0.00000000000E+00 -0.27425895107E+04  0.27425895107E+04  0.25500000920E-02 0.  1.
    10030    2    1    2    0    0  0.00000000000E+00  0.00000000000E+00 -0.13789735393E+04  0.41062054821E+04  0.38677325966E+04 0.  0.
        1    1    3    3  502    0 -0.10828377259E+03 -0.57102368641E+03  0.12687008138E+04  0.13954910179E+04  0.50400001928E-02 0. -1.
       -1    1    3    3    0  502  0.10828377259E+03  0.57102368641E+03 -0.26476743532E+04  0.27107144642E+04  0.50400001928E-02 0.  1.
</event>
<event>
 5   0  0.5533705E-07  0.2422250E+04  0.7818609E-02  0.8431220E-01
       -2   -1    0    0    0  501  0.00000000000E+00  0.00000000000E+00  0.65967404292E+03  0.65967404292E+03  0.25500000920E-02 0.  1.
        2   -1    0    0  501    0  0.00000000000E+00  0.00000000000E+00 -0.22235582661E+04  0.22235582661E+04  0.25500000920E-02 0. -1.
    10030    2    1    2    0    0  0.00000000000E+00  0.00000000000E+00 -0.15638842232E+04  0.28832323090E+04  0.24222499219E+04 0.  0.
        1    1    3    3  502    0  0.40710893828E+03 -0.26190239595E+03 -0.21033988106E+04  0.21583829848E+04  0.50400001928E-02 0. -1.
       -1    1    3    3    0  502 -0.40710893828E+03  0.26190239595E+03  0.53951458747E+03  0.72484932417E+03  0.50400001928E-02 0.  1.
</event>
<event>
 5   0  0.1015219E-06  0.3868384E+04  0.7818609E-02  0.8031637E-01
        2   -1    0    0  501    0  0.00000000000E+00  0.00000000000E+00  0.12231024382E+04  0.12231024382E+04  0.25500000920E-02 0. -1.
       -2   -1    0    0    0  501  0.00000000000E+00  0.00000000000E+00 -0.30586963877E+04  0.30586963877E+04  0.25500000920E-02 0.  1.
    10030    2    1    2    0    0  0.00000000000E+00  0.00000000000E+00 -0.18355939495E+04  0.42817988259E+04  0.38683841637E+04 0.  0.
        3    1    3    3  502    0  0.25669946655E+03 -0.17885155910E+04 -0.16817910615E+04  0.24684213214E+04  0.10100000352E+00 0.  1.
       -3    1    3    3    0  502 -0.25669946655E+03  0.17885155910E+04 -0.15380288803E+03  0.18133775045E+04  0.10100000352E+00 0. -1.
</event>
<event>
 5   0  0.1035864E-06  0.4003494E+04  0.7818609E-02  0.8003842E-01
       -2   -1    0    0    0  501  0.00000000000E+00  0.00000000000E+00  0.16893144272E+04  0.16893144272E+04  0.25500000920E-02 0.  1.
        2   -1    0    0  501    0  0.00000000000E+00  0.00000000000E+00 -0.23719622583E+04  0.23719622583E+04  0.25500000920E-02 0. -1.
    10030    2    1    2    0    0  0.00000000000E+00  0.00000000000E+00 -0.68264783107E+03  0.40612766856E+04  0.40034935064E+04 0.  0.
        5    1    3    3  502    0 -0.11124291419E+04  0.16600741429E+04 -0.22292075241E+03  0.20107363098E+04  0.46999998093E+01 0. -1.
       -5    1    3    3    0  502  0.11124291419E+04 -0.16600741429E+04 -0.45972707865E+03  0.20505403757E+04  0.46999998093E+01 0.  1.
</event>
<event>
 5   0  0.4627905E-07  0.3698416E+04  0.7818609E-02  0.8068313E-01
       -1   -1    0    0    0  501  0.00000000000E+00  0.00000000000E+00  0.18463109932E+04  0.18463109932E+04  0.50400001928E-02 0.  1.
        1   -1    0    0  501    0  0.00000000000E+00  0.00000000000E+00 -0.18521092532E+04  0.18521092532E+04  0.50400001928E-02 0. -1.
    10030    2    1    2    0    0  0.00000000000E+00  0.00000000000E+00 -0.57982599519E+01  0.36984202464E+04  0.36984157012E+04 0.  0.
        1    1    3    3  502    0 -0.64661452884E+03 -0.15188696545E+04  0.83046513936E+03  0.18479036025E+04  0.50400001928E-02 0.  1.
       -1    1    3    3    0  502  0.64661452884E+03  0.15188696545E+04 -0.83626339931E+03  0.18505166439E+04  0.50400001928E-02 0. -1.
</event>
<event>
 5   0  0.7268013E-07  0.3869370E+04  0.7818609E-02  0.8031430E-01
        2   -1    0    0  501    0  0.00000000000E+00  0.00000000000E+00  0.18071170696E+04  0.18071170696E+04  0.25500000920E-02 0.  1.
       -2   -1    0    0    0  501  0.00000000000E+00  0.00000000000E+00 -0.20712576993E+04  0.20712576993E+04  0.25500000920E-02 0. -1.
    10030    2    1    2    0    0  0.00000000000E+00  0.00000000000E+00 -0.26414062970E+03  0.38783747689E+04  0.38693695321E+04 0.  0.
        4    1    3    3  502    0 -0.11082239112E+02  0.14946320774E+04  0.10991841137E+04  0.18553315584E+04  0.12699999809E+01 0.  1.
       -4    1    3    3    0  502  0.11082239112E+02 -0.14946320774E+04 -0.13633247434E+04  0.20230432105E+04  0.12699999809E+01 0. -1.
</event>
<event>
 5   0  0.5385714E-07  0.2891084E+04  0.7818609E-02  0.8275535E-01
       -1   -1    0    0    0  501  0.00000000000E+00  0.00000000000E+00  0.72641225164E+03  0.72641225165E+03  0.50400001928E-02 0.  1.
        1   -1    0    0  501    0  0.00000000000E+00  0.00000000000E+00 -0.28765915132E+04  0.28765915132E+04  0.50400001928E-02 0. -1.
    10030    2    1    2    0    0  0.00000000000E+00  0.00000000000E+00 -0.21501792616E+04  0.36030037649E+04  0.28910837540E+04 0.  0.
        3    1    3    3  502    0  0.10483659823E+04 -0.75889190852E+03 -0.18775439877E+04  0.22803858440E+04  0.10100000352E+00 0.  1.
       -3    1    3    3    0  502 -0.10483659823E+04  0.75889190852E+03 -0.27263527384E+03  0.13226179208E+04  0.10100000352E+00 0. -1.
</event>
<event>
 5   0  0.1035864E-06  0.3956189E+04  0.7818609E-02  0.8013443E-01
       -2   -1    0    0    0  501  0.00000000000E+00  0.00000000000E+00  0.16549754510E+04  0.16549754510E+04  0.25500000920E-02 0. -1.
        2   -1    0    0  501    0  0.00000000000E+00  0.00000000000E+00 -0.23642991013E+04  0.23642991013E+04  0.25500000920E-02 0.  1.
    10030    2    1    2    0    0  0.00000000000E+00  0.00000000000E+00 -0.70932365033E+03  0.40192745522E+04  0.39561885553E+04 0.  0.
        5    1    3    3  502    0  0.14741059845E+04  0.48623761108E+03 -0.16003540911E+04  0.22294776910E+04  0.46999998093E+01 0.  1.
       -5    1    3    3    0  502 -0.14741059845E+04 -0.48623761108E+03  0.89103044073E+03  0.17897968612E+04  0.46999998093E+01 0. -1.
</event>
<event>
 5   0  0.3977376E-07  0.3801409E+04  0.7818609E-02  0.8045853E-01
       -1   -1    0    0    0  501  0.00000000000E+00  0.00000000000E+00  0.28410139428E+04  0.28410139428E+04  0.50400001928E-02 0.  1.
        1   -1    0    0  501    0  0.00000000000E+00  0.00000000000E+00 -0.12716153819E+04  0.12716153819E+04  0.50400001928E-02 0. -1.
    10030    2    1    2    0    0  0.00000000000E+00  0.00000000000E+00  0.15693985608E+04  0.41126293247E+04  0.38014087020E+04 0.  0.
        4    1    3    3  502    0  0.13823731553E+04 -0.10175846139E+04  0.16677605172E+04  0.23932949552E+04  0.12699999809E+01 0.  1.
       -4    1    3    3    0  502 -0.13823731553E+04  0.10175846139E+04 -0.98361956360E+02  0.17193343695E+04  0.12699999809E+01 0. -1.
</event>
<event>
 5   0  0.7268013E-07  0.2443834E+04  0.7818609E-02  0.8423273E-01
        2   -1    0    0  501    0  0.00000000000E+00  0.00000000000E+00  0.30316322245E+04  0.30316322245E+04  0.25500000920E-02 0.  1.
       -2   -1    0    0    0  501  0.00000000000E+00  0.00000000000E+00 -0.49250078926E+03  0.49250078927E+03  0.25500000920E-02 0. -1.
    10030    2    1    2    0    0  0.00000000000E+00  0.00000000000E+00  0.25391314352E+04  0.35241330138E+04  0.24438340887E+04 0.  0.
        4    1    3    3  502    0  0.71125295274E+03  0.98342318097E+03  0.10652329912E+04  0.16148451486E+04  0.12699999809E+01 0. -1.
       -4    1    3    3    0  502 -0.71125295274E+03 -0.98342318097E+03  0.14738984440E+04  0.19092878651E+04  0.12699999809E+01 0.  1.
</event>
<event>
 5   0  0.3191750E-07  0.2550081E+04  0.7818609E-02  0.8385358E-01
        3   -1    0    0  501    0  0.00000000000E+00  0.00000000000E+00  0.10230275116E+04  0.10230275165E+04  0.10100000352E+00 0.  1.
       -3   -1    0    0    0  501  0.00000000000E+00  0.00000000000E+00 -0.15891340360E+04  0.15891340392E+04  0.10100000352E+00 0. -1.
    10030    2    1    2    0    0  0.00000000000E+00  0.00000000000E+00 -0.56610652439E+03  0.26121615557E+04  0.25500806646E+04 0.  0.
        4    1    3    3  502    0 -0.94572931293E+03 -0.77519399768E+03 -0.65294888914E+03  0.13862443984E+04  0.12699999809E+01 0. -1.
       -4    1    3    3    0  502  0.94572931293E+03  0.77519399768E+03  0.86842364742E+02  0.12259171573E+04  0.12699999809E+01 0.  1.
</event>
<event>
 5   0  0.3471602E-07  0.2004942E+04  0.7818609E-02  0.8604314E-01
        1   -1    0    0  501    0  0.00000000000E+00  0.00000000000E+00  0.15697544909E+04  0.15697544909E+04  0.50400001928E-02 0. -1.
       -1   -1    0    0    0  501  0.00000000000E+00  0.00000000000E+00 -0.64019420419E+03  0.64019420421E+03  0.50400001928E-02 0.  1.
    10030    2    1    2    0    0  0.00000000000E+00  0.00000000000E+00  0.92956028666E+03  0.22099486951E+04  0.20049416222E+04 0.  0.
        5    1    3    3  502    0 -0.14896905380E+03  0.86417804811E+02 -0.62375376441E+03  0.64710946878E+03  0.46999998093E+01 0.  1.
       -5    1    3    3    0  502  0.14896905380E+03 -0.86417804811E+02  0.15533140511E+04  0.15628392263E+04  0.46999998093E+01 0. -1.
</event>
<event>
 5   0  0.3471602E-07  0.2260009E+04  0.7818609E-02  0.8493858E-01
       -1   -1    0    0    0  501  0.00000000000E+00  0.00000000000E+00  0.93214134985E+03  0.93214134986E+03  0.50400001928E-02 0. -1.
        1   -1    0    0  501    0  0.00000000000E+00  0.00000000000E+00 -0.13698671625E+04  0.13698671625E+04  0.50400001928E-02 0.  1.
    10030    2    1    2    0    0  0.00000000000E+00  0.00000000000E+00 -0.43772581265E+03  0.23020085124E+04  0.22600086956E+04 0.  0.
        5    1    3    3  502    0  0.41133068381E+03  0.99086440330E+03  0.14252994848E+03  0.10822855785E+04  0.46999998093E+01 0. -1.
       -5    1    3    3    0  502 -0.41133068381E+03 -0.99086440330E+03 -0.58025576113E+03  0.12197229339E+04  0.46999998093E+01 0.  1.
</event>
<event>
 5   0  0.1015219E-06  0.3859246E+04  0.7818609E-02  0.8033559E-01
       -2   -1    0    0    0  501  0.00000000000E+00  0.00000000000E+00  0.15539314452E+04  0.15539314452E+04  0.25500000920E-02 0. -1.
        2   -1    0    0  501    0  0.00000000000E+00  0.00000000000E+00 -0.23961444526E+04  0.23961444526E+04  0.25500000920E-02 0.  1.
    10030    2    1    2    0    0  0.00000000000E+00  0.00000000000E+00 -0.84221300742E+03  0.39500758978E+04  0.38592456320E+04 0.  0.
        3    1    3    3  502    0 -0.15175374854E+03  0.10186128437E+04  0.12491216104E+04  0.16189212869E+04  0.10100000352E+00 0. -1.
       -3    1    3    3    0  502  0.15175374854E+03 -0.10186128437E+04 -0.20913346178E+04  0.23311546108E+04  0.10100000352E+00 0.  1.
</event>
<event>
 5   0  0.5533705E-07  0.2111174E+04  0.7818609E-02  0.8556337E-01
        2   -1    0    0  501    0  0.00000000000E+00  0.00000000000E+00  0.11829218601E+04  0.11829218601E+04  0.25500000920E-02 0.  1.
       -2   -1    0    0    0  501  0.00000000000E+00  0.00000000000E+00 -0.94195926798E+03  0.94195926799E+03  0.25500000920E-02 0. -1.
    10030    2    1    2    0    0  0.00000000000E+00  0.00000000000E+00  0.24096259208E+03  0.21248811281E+04  0.21111742793E+04 0.  0.
        1    1    3    3  502    0 -0.10101013605E+04  0.27371551831E+03 -0.18397407573E+02  0.10466916490E+04  0.50400001928E-02 0. -1.
       -1    1    3    3    0  502  0.10101013605E+04 -0.27371551831E+03  0.25935999966E+03  0.10781894791E+04  0.50400001928E-02 0.  1.
</event>
<event>
 5   0  0.1035864E-06  0.2929421E+04  0.7818609E-02  0.8264177E-01
       -2   -1    0    0    0  501  0.00000000000E+00  0.00000000000E+00  0.92526515884E+03  0.92526515884E+03  0.25500000920E-02 0. -1.
        2   -1    0    0  501    0  0.00000000000E+00  0.00000000000E+00 -0.23186610547E+04  0.23186610547E+04  0.25500000920E-02 0.  1.
    10030    2    1    2    0    0  0.00000000000E+00  0.00000000000E+00 -0.13933958958E+04  0.32439262135E+04  0.29294206178E+04 0.  0.
        5    1    3    3  502    0 -0.43509704955E+03  0.12381083400E+04 -0.14170211811E+04  0.19313707106E+04  0.46999998093E+01 0.  1.
       -5    1    3    3    0  502  0.43509704955E+03 -0.12381083400E+04  0.23625285265E+02  0.13125555029E+04  0.46999998093E+01 0. -1.
</event>
<event>
 5   0  0.1035864E-06  0.3876057E+04  0.7818609E-02  0.8030027E-01
       -2   -1    0    0    0  501  0.00000000000E+00  0.00000000000E+00  0.13233033569E+04  0.13233033569E+04  0.25500000920E-02 0. -1.
        2   -1    0    0  501    0  0.00000000000E+00  0.00000000000E+00 -0.28383166831E+04  0.28383166831E+04  0.25500000920E-02 0.  1.
    10030    2    1    2    0    0  0.00000000000E+00  0.00000000000E+00 -0.15150133263E+04  0.41616200400E+04  0.38760567564E+04 0.  0.
        5    1    3    3  502    0  0.15840215885E+03  0.97973172616E+03 -0.25447674575E+04  0.27314518121E+04  0.46999998093E+01 0.  1.
       -5    1    3    3    0  502 -0.15840215885E+03 -0.97973172616E+03  0.10297541312E+04  0.14301682279E+04  0.46999998093E+01 0. -1.
</event>
<event>
 5   0  0.5533705E-07  0.3817829E+04  0.7818609E-02  0.8042340E-01
       -2   -1    0    0    0  501  0.00000000000E+00  0.00000000000E+00  0.13588074013E+04  0.13588074013E+04  0.25500000920E-02 0.  1.
        2   -1    0    0  501    0  0.00000000000E+00  0.00000000000E+00 -0.26817305041E+04  0.26817305041E+04  0.25500000920E-02 0. -1.
    10030    2    1    2    0    0  0.00000000000E+00  0.00000000000E+00 -0.13229231029E+04  0.40405379054E+04  0.38178293609E+04 0.  0.
        1    1    3    3  502    0  0.19467501709E+03  0.16268329108E+04  0.37520414615E+03  0.16808515203E+04  0.50400001928E-02 0.  1.
       -1    1    3    3    0  502 -0.19467501709E+03 -0.16268329108E+04 -0.16981272490E+04  0.23596863851E+04  0.50400001928E-02 0. -1.
</event>
<event>
 5   0  0.5533705E-07  0.3796858E+04  0.7818609E-02  0.8046829E-01
       -2   -1    0    0    0  501  0.00000000000E+00  0.00000000000E+00  0.21739402969E+04  0.21739402969E+04  0.25500000920E-02 0.  1.
        2   -1    0    0  501    0  0.00000000000E+00  0.00000000000E+00 -0.16578344417E+04  0.16578344417E+04  0.25500000920E-02 0. -1.
    10030    2    1    2    0    0  0.00000000000E+00  0.00000000000E+00  0.51610585517E+03  0.38317747387E+04  0.37968582268E+04 0.  0.
        1    1    3    3  502    0 -0.32448967928E+03 -0.11056336135E+04  0.17806733839E+04  0.21209707540E+04  0.50400001928E-02 0.  1.
       -1    1    3    3    0  502  0.32448967928E+03  0.11056336135E+04 -0.12645675287E+04  0.17108039847E+04  0.50400001928E-02 0. -1.
</event>
<event>
 5   0  0.5533705E-07  0.3755629E+04  0.7818609E-02  0.8055744E-01
        2   -1    0    0  501    0  0.00000000000E+00  0.00000000000E+00  0.20712129507E+04  0.20712129507E+04  0.25500000920E-02 0. -1.
       -2   -1    0    0    0  501  0.00000000000E+00  0.00000000000E+00 -0.17024741904E+04  0.17024741904E+04  0.25500000920E-02 0.  1.
    10030    2    1    2    0    0  0.00000000000E+00  0.00000000000E+00  0.36873876026E+03  0.37736871411E+04  0.37556286246E+04 0.  0.
        1    1    3    3  502    0  0.15353342998E+04  0.75432959890E+03 -0.59390128032E+03  0.18107963129E+04  0.50400001928E-02 0.  1.
       -1    1    3    3    0  502 -0.15353342998E+04 -0.75432959890E+03  0.96264004059E+03  0.19628908283E+04  0.50400001928E-02 0. -1.
</event>
<event>
 5   0  0.3977376E-07  0.2271703E+04  0.7818609E-02  0.8489163E-01
        1   -1    0    0  501    0  0.00000000000E+00  0.00000000000E+00  0.12316526718E+04  0.12316526718E+04  0.50400001928E-02 0.  1.
       -1   -1    0    0    0  501  0.00000000000E+00  0.00000000000E+00 -0.10475015484E+04  0.10475015484E+04  0.50400001928E-02 0. -1.
    10030    2    1    2    0    0  0.00000000000E+00  0.00000000000E+00  0.18415112340E+03  0.22791542202E+04  0.22717025164E+04 0.  0.
        4    1    3    3  502    0  0.42497616646E+03 -0.91018279288E+03  0.62402133283E+03  0.11825572693E+04  0.12699999809E+01 0.  1.
       -4    1    3    3    0  502 -0.42497616646E+03  0.91018279288E+03 -0.43987020943E+03  0.10965969508E+04  0.12699999809E+01 0. -1.
</event>
<event>
 5   0  0.4316671E-07  0.3121567E+04  0.7818609E-02  0.8209844E-01
        1   -1    0    0  501    0  0.00000000000E+00  0.00000000000E+00  0.20768221557E+04  0.20768221557E+04  0.50400001928E-02 0.  1.
       -1   -1    0    0    0  501  0.00000000000E+00  0.00000000000E+00 -0.11729677277E+04  0.11729677277E+04  0.50400001928E-02 0. -1.
    10030    2    1    2    0    0  0.00000000000E+00  0.00000000000E+00  0.90385442800E+03  0.32497898834E+04  0.31215671479E+04 0.  0.
        2    1    3    3  502    0  0.15407761828E+04 -0.21903205736E+03  0.57545643326E+03  0.16592517573E+04  0.25500000920E-02 0.  1.
       -2    1    3    3    0  502 -0.15407761828E+04  0.21903205736E+03  0.32839799474E+03  0.15905381261E+04  0.25500000920E-02 0. -1.
</event>
<event>
 5   0  0.4627905E-07  0.3715725E+04  0.7818609E-02  0.8064486E-01
        1   -1    0    0  501    0  0.00000000000E+00  0.00000000000E+00  0.14564965409E+04  0.14564965410E+04  0.50400001928E-02 0.  1.
       -1   -1    0    0    0  501  0.00000000000E+00  0.00000000000E+00 -0.23698328001E+04  0.23698328001E+04  0.50400001928E-02 0. -1.
    10030    2    1    2    0    0  0.00000000000E+00  0.00000000000E+00 -0.91333625919E+03  0.38263293411E+04  0.37157251115E+04 0.  0.
        1    1    3    3  502    0  0.54156591905E+03 -0.51292667874E+02 -0.22859835692E+04  0.23498181762E+04  0.50400001928E-02 0. -1.
       -1    1    3    3    0  502 -0.54156591905E+03  0.51292667874E+02  0.13726473100E+04  0.14765111649E+04  0.50400001928E-02 0.  1.
</event>
<event>
 5   0  0.1015219E-06  0.3600094E+04  0.7818609E-02  0.8090470E-01
        2   -1    0    0  501    0  0.00000000000E+00  0.00000000000E+00  0.15653393867E+04  0.15653393867E+04  0.25500000920E-02 0. -1.
       -2   -1    0    0    0  501  0.00000000000E+00  0.00000000000E+00 -0.20699462144E+04  0.20699462144E+04  0.25500000920E-02 0.  1.
    10030    2    1    2    0    0  0.00000000000E+00  0.00000000000E+00 -0.50460682768E+03  0.36352856011E+04  0.36000935198E+04 0.  0.
        3    1    3    3  502    0 -0.14739049268E+04  0.78942191169E+02 -0.12926860223E+04  0.19620562594E+04  0.10100000352E+00 0.  1.
       -3    1    3    3    0  502  0.14739049268E+04 -0.78942191169E+02  0.78807919464E+03  0.16732293417E+04  0.10100000352E+00 0. -1.
</event>
<event>
 5   0  0.4627905E-07  0.3348422E+04  0.7818609E-02  0.8150683E-01
       -1   -1    0    0    0  501  0.00000000000E+00  0.00000000000E+00  0.11189768874E+04  0.11189768874E+04  0.50400001928E-02 0.  1.
        1   -1    0    0  501    0  0.00000000000E+00  0.00000000000E+00 -0.25049511971E+04  0.25049511971E+04  0.50400001928E-02 0. -1.
    10030    2    1    2    0    0  0.00000000000E+00  0.00000000000E+00 -0.13859743096E+04  0.36239280845E+04  0.33484220126E+04 0.  0.
        1    1    3    3  502    0  0.14670866579E+04  0.79878325091E+03 -0.81439820847E+03  0.18583978007E+04  0.50400001928E-02 0. -1.
       -1    1    3    3    0  502 -0.14670866579E+04 -0.79878325091E+03 -0.57157610116E+03  0.17655302838E+04  0.50400001928E-02 0.  1.
</event>
<event>
 5   0  0.1015219E-06  0.3900195E+04  0.7818609E-02  0.8024989E-01
        2   -1    0    0  501    0  0.00000000000E+00  0.00000000000E+00  0.23963472656E+04  0.23963472656E+04  0.25500000920E-02 0. -1.
       -2   -1    0    0    0  501  0.00000000000E+00  0.00000000000E+00 -0.15869483459E+04  0.15869483459E+04  0.25500000920E-02 0.  1.
    10030    2    1    2    0    0  0.00000000000E+00  0.00000000000E+00  0.80939891972E+03  0.39832956116E+04  0.39001945231E+04 0.  0.
        3    1    3    3  502    0  0.12220086314E+03  0.90775345512E+03 -0.13535894469E+04  0.16343664789E+04  0.10100000352E+00 0.  1.
       -3    1    3    3    0  502 -0.12220086314E+03 -0.90775345512E+03  0.21629883666E+04  0.23489291327E+04  0.10100000352E+00 0. -1.
</event>
<event>
 5   0  0.7268013E-07  0.3691325E+04  0.7818609E-02  0.8069887E-01
        2   -1    0    0  501    0  0.00000000000E+00  0.00000000000E+00  0.18978985830E+04  0.18978985830E+04  0.25500000920E-02 0. -1.
       -2   -1    0    0    0  501  0.00000000000E+00  0.00000000000E+00 -0.17948645803E+04  0.17948645803E+04  0.25500000920E-02 0.  1.
    10030    2    1    2    0    0  0.00000000000E+00  0.00000000000E+00  0.10303400272E+03  0.36927631633E+04  0.36913254766E+04 0.  0.
        4    1    3    3  502    0 -0.71251157521E+03  0.24693809645E+03  0.17367555967E+04  0.18934024358E+04  0.12699999809E+01 0. -1.
       -4    1    3    3    0  502  0.71251157521E+03 -0.24693809645E+03 -0.16337215940E+04  0.17993607275E+04  0.12699999809E+01 0.  1.
</event>
<event>
 5   0  0.7268013E-07  0.1991701E+04  0.7818609E-02  0.8610511E-01
       -2   -1    0    0    0  501  0.00000000000E+00  0.00000000000E+00  0.71639744682E+03  0.71639744683E+03  0.25500000920E-02 0.  1.
        2   -1    0    0  501    0  0.00000000000E+00  0.00000000000E+00 -0.13843124229E+04  0.13843124229E+04  0.25500000920E-02 0. -1.
    10030    2    1    2    0    0  0.00000000000E+00  0.00000000000E+00 -0.66791497609E+03  0.21007098697E+04  0.19917006656E+04 0.  0.
        4    1    3    3  502    0 -0.37513410128E+03  0.80701290707E+03  0.13740357681E+03  0.90048696934E+03  0.12699999809E+01 0.  1.
       -4    1    3    3    0  502  0.37513410128E+03 -0.80701290707E+03 -0.80531855290E+03  0.12002229004E+04  0.12699999809E+01 0. -1.
</event>
<event>
 5   0  0.1015219E-06  0.3907176E+04  0.7818609E-02  0.8023538E-01
       -2   -1    0    0    0  501  0.00000000000E+00  0.00000000000E+00  0.25213213178E+04  0.25213213178E+04  0.25500000920E-02 0. -1.
        2   -1    0    0  501    0  0.00000000000E+00  0.00000000000E+00 -0.15136931737E+04  0.15136931737E+04  0.25500000920E-02 0.  1.
    10030    2    1    2    0    0  0.00000000000E+00  0.00000000000E+00  0.10076281440E+04  0.40350144915E+04  0.39071764063E+04 0.  0.
        3    1    3    3  502    0  0.11454704028E+04  0.24033245770E+03 -0.11115392684E+04  0.16141194781E+04  0.10100000352E+00 0. -1.
       -3    1    3    3    0  502 -0.11454704028E+04 -0.24033245770E+03  0.21191674125E+04  0.24208950135E+04  0.10100000352E+00 0.  1.
</event>
<event>
 5   0  0.3977376E-07  0.2761642E+04  0.7818609E-02  0.8315277E-01
        1   -1    0    0  501    0  0.00000000000E+00  0.00000000000E+00  0.20725539183E+04  0.20725539183E+04  0.50400001928E-02 0. -1.
       -1   -1    0    0    0  501  0.00000000000E+00  0.00000000000E+00 -0.91995991953E+03  0.91995991954E+03  0.50400001928E-02 0.  1.
    10030    2    1    2    0    0  0.00000000000E+00  0.00000000000E+00  0.11525939988E+04  0.29925138378E+04  0.27616419289E+04 0.  0.
        4    1    3    3  502    0 -0.93898855288E+03  0.78882199721E+03  0.12639561779E+04  0.17611151235E+04  0.12699999809E+01 0. -1.
       -4    1    3    3    0  502  0.93898855288E+03 -0.78882199721E+03 -0.11136217917E+03  0.12313987143E+04  0.12699999809E+01 0.  1.
</event>
<event>
 5   0  0.7268013E-07  0.3809085E+04  0.7818609E-02  0.8044208E-01
       -2   -1    0    0    0  501  0.00000000000E+00  0.00000000000E+00  0.21179350567E+04  0.21179350567E+04  0.25500000920E-02 0. -1.
        2   -1    0    0  501    0  0.00000000000E+00  0.00000000000E+00 -0.17126504211E+04  0.17126504211E+04  0.25500000920E-02 0.  1.
    10030    2    1    2    0    0  0.00000000000E+00  0.00000000000E+00  0.40528463565E+03  0.38305854778E+04  0.38090851220E+04 0.  0.
        4    1    3    3  502    0  0.40914570347E+03  0.80388930566E+03  0.18895019291E+04  0.20937663135E+04  0.12699999809E+01 0. -1.
       -4    1    3    3    0  502 -0.40914570347E+03 -0.80388930566E+03 -0.14842172935E+04  0.17368191643E+04  0.12699999809E+01 0.  1.
</event>
<event>
 5   0  0.3977376E-07  0.3863268E+04  0.7818609E-02  0.8032712E-01
       -1   -1    0    0    0  501  0.00000000000E+00  0.00000000000E+00  0.18664072531E+04  0.18664072531E+04  0.50400001928E-02 0. -1.
        1   -1    0    0  501    0  0.00000000000E+00  0.00000000000E+00 -0.19991406374E+04  0.19991406374E+04  0.50400001928E-02 0.  1.
    10030    2    1    2    0    0  0.00000000000E+00  0.00000000000E+00 -0.13273338436E+03  0.38655478905E+04  0.38632683498E+04 0.  0.
        4    1    3    3  502    0  0.40276141068E+03 -0.16131374630E+04 -0.10501964473E+04  0.19665562335E+04  0.12699999809E+01 0.  1.
       -4    1    3    3    0  502 -0.40276141068E+03  0.16131374630E+04  0.91746306297E+03  0.18989916570E+04  0.12699999809E+01 0. -1.
</event>
<event>
 5   0  0.1035864E-06  0.3283371E+04  0.7818609E-02  0.8167140E-01
        2   -1    0    0  501    0  0.00000000000E+00  0.00000000000E+00  0.17298747377E+04  0.17298747377E+04  0.25500000920E-02 0. -1.
       -2   -1    0    0    0  501  0.00000000000E+00  0.00000000000E+00 -0.15579922019E+04  0.15579922019E+04  0.25500000920E-02 0.  1.
    10030    2    1    2    0    0  0.00000000000E+00  0.00000000000E+00  0.17188253587E+03  0.32878669396E+04  0.32833710431E+04 0.  0.
        5    1    3    3  502    0 -0.26454450913E+03 -0.15999834991E+04 -0.16970865971E+03  0.16305686474E+04  0.46999998093E+01 0.  1.
       -5    1    3    3    0  502  0.26454450913E+03  0.15999834991E+04  0.34159119558E+03  0.16572982923E+04  0.46999998093E+01 0. -1.
</event>
<event>
 5   0  0.1035864E-06  0.3865727E+04  0.7818609E-02  0.8032195E-01
        2   -1    0    0  501    0  0.00000000000E+00  0.00000000000E+00  0.23285046850E+04  0.23285046850E+04  0.25500000920E-02 0. -1.
       -2   -1    0    0    0  501  0.00000000000E+00  0.00000000000E+00 -0.16044465328E+04  0.16044465328E+04  0.25500000920E-02 0.  1.
    10030    2    1    2    0    0  0.00000000000E+00  0.00000000000E+00  0.72405815223E+03  0.39329512178E+04  0.38657269787E+04 0.  0.
        5    1    3    3  502    0  0.48286436414E+03 -0.15090070301E+04  0.14883852615E+04  0.21738383076E+04  0.46999998093E+01 0. -1.
       -5    1    3    3    0  502 -0.48286436414E+03  0.15090070301E+04 -0.76432710924E+03  0.17591129102E+04  0.46999998093E+01 0.  1.
</event>
<event>
 5   0  0.3977376E-07  0.2946402E+04  0.7818609E-02  0.8259204E-01
        1   -1    0    0  501    0  0.00000000000E+00  0.00000000000E+00  0.20950247473E+04  0.20950247473E+04  0.50400001928E-02 0. -1.
       -1   -1    0    0    0  501  0.00000000000E+00  0.00000000000E+00 -0.10359402636E+04  0.10359402636E+04  0.50400001928E-02 0.  1.
    10030    2    1    2    0    0  0.00000000000E+00  0.00000000000E+00  0.10590844838E+04  0.31309650109E+04  0.29464015266E+04 0.  0.
        4    1    3    3  502    0 -0.52649065689E+03  0.13747879453E+04  0.58856011730E+03  0.15854459723E+04  0.12699999809E+01 0.  1.
       -4    1    3    3    0  502  0.52649065689E+03 -0.13747879453E+04  0.47052436647E+03  0.15455190386E+04  0.12699999809E+01 0. -1.
</event>
<event>
 5   0  0.3977376E-07  0.3184139E+04  0.7818609E-02  0.8193019E-01
       -1   -1    0    0    0  501  0.00000000000E+00  0.00000000000E+00  0.99937897233E+03  0.99937897235E+03  0.50400001928E-02 0.  1.
        1   -1    0    0  501    0  0.00000000000E+00  0.00000000000E+00 -0.25362606548E+04  0.25362606548E+04  0.50400001928E-02 0. -1.
    10030    2    1    2    0    0  0.00000000000E+00  0.00000000000E+00 -0.15368816824E+04  0.35356396271E+04  0.31841391721E+04 0.  0.
        4    1    3    3  502    0 -0.87449854593E+03 -0.71490791179E+03 -0.20142792699E+04  0.23093643323E+04  0.12699999809E+01 0. -1.
       -4    1    3    3    0  502  0.87449854593E+03  0.71490791179E+03  0.47739758751E+03  0.12262752948E+04  0.12699999809E+01 0.  1.
</event>
<event>
 5   0  0.7268013E-07  0.3963399E+04  0.7818609E-02  0.8011971E-01
       -2   -1    0    0    0  501  0.00000000000E+00  0.00000000000E+00  0.17474889829E+04  0.17474889829E+04  0.25500000920E-02 0.  1.
        2   -1    0    0  501    0  0.00000000000E+00  0.00000000000E+00 -0.22473008167E+04  0.22473008167E+04  0.25500000920E-02 0. -1.
    10030    2    1    2    0    0  0.00000000000E+00  0.00000000000E+00 -0.49981183383E+03  0.39947897996E+04  0.39633992574E+04 0.  0.
        4    1    3    3  502    0 -0.12445036251E+04 -0.72379145573E+03 -0.16224801269E+04  0.21691257961E+04  0.12699999809E+01 0. -1.
       -4    1    3    3    0  502  0.12445036251E+04  0.72379145573E+03  0.11226682931E+04  0.18256640034E+04  0.12699999809E+01 0.  1.
</event>
<event>
 5   0  0.7268013E-07  0.3908939E+04  0.7818609E-02  0.8023173E-01
        2   -1    0    0  501    0  0.00000000000E+00  0.00000000000E+00  0.23299093126E+04  0.23299093126E+04  0.25500000920E-02 0.  1.
       -2   -1    0    0    0  501  0.00000000000E+00  0.00000000000E+00 -0.16395276479E+04  0.16395276479E+04  0.25500000920E-02 0. -1.
    10030    2    1    2    0    0  0.00000000000E+00  0.00000000000E+00  0.69038166475E+03  0.39694369605E+04  0.39089388509E+04 0.  0.
        4    1    3    3  502    0 -0.18144974283E+04 -0.63547697680E+03 -0.11987498199E+02  0.19225964783E+04  0.12699999809E+01 0.  1.
       -4    1    3    3    0  502  0.18144974283E+04  0.63547697680E+03  0.70236916294E+03  0.20468404822E+04  0.12699999809E+01 0. -1.
</event>
<event>
 5   0  0.3471602E-07  0.3888412E+04  0.7818609E-02  0.8027444E-01
       -1   -1    0    0    0  501  0.00000000000E+00  0.00000000000E+00  0.29604861365E+04  0.29604861365E+04  0.50400001928E-02 0. -1.
        1   -1    0    0  501    0  0.00000000000E+00  0.00000000000E+00 -0.12767959694E+04  0.12767959694E+04  0.50400001928E-02 0.  1.
    10030    2    1    2    0    0  0.00000000000E+00  0.00000000000E+00  0.16836901671E+04  0.42372821059E+04  0.38884118951E+04 0.  0.
        5    1    3    3  502    0 -0.98952824082E+03 -0.44311737856E+03  0.26004512283E+04  0.28174257455E+04  0.46999998093E+01 0. -1.
       -5    1    3    3    0  502  0.98952824082E+03  0.44311737856E+03 -0.91676106127E+03  0.14198563603E+04  0.46999998093E+01 0.  1.
</event>
<event>
 5   0  0.1034683E-06  0.3281639E+04  0.7818609E-02  0.8167583E-01
       -2   -1    0    0    0  501  0.00000000000E+00  0.00000000000E+00  0.19424186419E+04  0.19424186419E+04  0.25500000920E-02 0. -1.
        2   -1    0    0  501    0  0.00000000000E+00  0.00000000000E+00 -0.13860498710E+04  0.13860498710E+04  0.25500000920E-02 0.  1.
    10030    2    1    2    0    0  0.00000000000E+00  0.00000000000E+00  0.55636877089E+03  0.33284685129E+04  0.32816392904E+04 0.  0.
        2    1    3    3  502    0  0.25075838890E+03 -0.13450362304E+04  0.11968056451E+04  0.18177860113E+04  0.25500000920E-02 0. -1.
       -2    1    3    3    0  502 -0.25075838890E+03  0.13450362304E+04 -0.64043687419E+03  0.15106825016E+04  0.25500000920E-02 0.  1.
</event>
<event>
 5   0  0.3191750E-07  0.3874312E+04  0.7818609E-02  0.8030393E-01
        3   -1    0    0  501    0  0.00000000000E+00  0.00000000000E+00  0.31875861460E+04  0.31875861476E+04  0.10100000352E+00 0.  1.
       -3   -1    0    0    0  501  0.00000000000E+00  0.00000000000E+00 -0.11772458280E+04  0.11772458324E+04  0.10100000352E+00 0. -1.
    10030    2    1    2    0    0  0.00000000000E+00  0.00000000000E+00  0.20103403180E+04  0.43648319800E+04  0.38743115543E+04 0.  0.
        2    1    3    3  502    0 -0.82323008422E+03 -0.86165872356E+03  0.27257520238E+04  0.29748760684E+04  0.25500000920E-02 0.  1.
       -2    1    3    3    0  502  0.82323008422E+03  0.86165872356E+03 -0.71541170576E+03  0.13899559116E+04  0.25500000920E-02 0. -1.
</event>
<event>
 5   0  0.7268013E-07  0.3860385E+04  0.7818609E-02  0.8033319E-01
        2   -1    0    0  501    0  0.00000000000E+00  0.00000000000E+00  0.14425329625E+04  0.14425329625E+04  0.25500000920E-02 0. -1.
       -2   -1    0    0    0  501  0.00000000000E+00  0.00000000000E+00 -0.25827090849E+04  0.25827090849E+04  0.25500000920E-02 0.  1.
    10030    2    1    2    0    0  0.00000000000E+00  0.00000000000E+00 -0.11401761224E+04  0.40252420474E+04  0.38603849485E+04 0.  0.
        4    1    3    3  502    0 -0.14766191743E+04  0.25854263793E+03 -0.18379043290E+04  0.23717382691E+04  0.12699999809E+01 0.  1.
       -4    1    3    3    0  502  0.14766191743E+04 -0.25854263793E+03  0.69772820667E+03  0.16535037783E+04  0.12699999809E+01 0. -1.
</event>
<event>
 5   0  0.7268013E-07  0.2576669E+04  0.7818609E-02  0.8376170E-01
       -2   -1    0    0    0  501  0.00000000000E+00  0.00000000000E+00  0.85270736427E+03  0.85270736427E+03  0.25500000920E-02 0.  1.
        2   -1    0    0  501    0  0.00000000000E+00  0.00000000000E+00 -0.19465132387E+04  0.19465132387E+04  0.25500000920E-02 0. -1.
    10030    2    1    2    0    0  0.00000000000E+00  0.00000000000E+00 -0.10938058745E+04  0.27992206030E+04  0.25766693023E+04 0.  0.
        4    1    3    3  502    0 -0.86843936336E+02 -0.12143771863E+03 -0.19370833395E+04  0.19428284705E+04  0.12699999809E+01 0. -1.
       -4    1    3    3    0  502  0.86843936336E+02  0.12143771863E+03  0.84327746500E+03  0.85639213253E+03  0.12699999809E+01 0.  1.
</event>
<event>
 5   0  0.3471602E-07  0.3886713E+04  0.7818609E-02  0.8027798E-01
        1   -1    0    0  501    0  0.00000000000E+00  0.00000000000E+00  0.29530531191E+04  0.29530531191E+04  0.50400001928E-02 0.  1.
       -1   -1    0    0    0  501  0.00000000000E+00  0.00000000000E+00 -0.12788917743E+04  0.12788917743E+04  0.50400001928E-02 0. -1.
    10030    2    1    2    0    0  0.00000000000E+00  0.00000000000E+00  0.16741613448E+04  0.42319448934E+04  0.38867134410E+04 0.  0.
        5    1    3    3  502    0 -0.16479167985E+02 -0.15420446608E+04 -0.45051465917E+03  0.16065985332E+04  0.46999998093E+01 0. -1.
       -5    1    3    3    0  502  0.16479167985E+02  0.15420446608E+04  0.21246760039E+04  0.26253463601E+04  0.46999998093E+01 0.  1.
</event>
<event>
 5   0  0.7268013E-07  0.3900186E+04  0.7818609E-02  0.8024991E-01
        2   -1    0    0  501    0  0.00000000000E+00  0.00000000000E+00  0.23349466459E+04  0.23349466459E+04  0.25500000920E-02 0.  1.
       -2   -1    0    0    0  501  0.00000000000E+00  0.00000000000E+00 -0.16286718525E+04  0.16286718525E+04  0.25500000920E-02 0. -1.
    10030    2    1    2    0    0  0.00000000000E+00  0.00000000000E+00  0.70627479338E+03  0.39636184984E+04  0.39001855747E+04 0.  0.
        4    1    3    3  502    0  0.11869127769E+04  0.13579288631E+04  0.11069063823E+04  0.21161228909E+04  0.12699999809E+01 0.  1.
       -4    1    3    3    0  502 -0.11869127769E+04 -0.13579288631E+04 -0.40063158895E+03  0.18474956076E+04  0.12699999809E+01 0. -1.
</event>
<event>
 5   0  0.1015219E-06  0.3952514E+04  0.7818609E-02  0.8014195E-01
        2   -1    0    0  501    0  0.00000000000E+00  0.00000000000E+00  0.17108588146E+04  0.17108588146E+04  0.25500000920E-02 0. -1.
       -2   -1    0    0    0  501  0.00000000000E+00  0.00000000000E+00 -0.22828247201E+04  0.22828247201E+04  0.25500000920E-02 0.  1.
    10030    2    1    2    0    0  0.00000000000E+00  0.00000000000E+00 -0.57196590548E+03  0.39936835347E+04  0.39525135266E+04 0.  0.
        3    1    3    3  502    0 -0.17588326108E+04 -0.87020252760E+03 -0.52261498046E+03  0.20307316464E+04  0.10100000352E+00 0.  1.
       -3    1    3    3    0  502  0.17588326108E+04  0.87020252760E+03 -0.49350925024E+02  0.19629518883E+04  0.10100000352E+00 0. -1.
</event>
<event>
 5   0  0.5533705E-07  0.3907044E+04  0.7818609E-02  0.8023566E-01
       -2   -1    0    0    0  501  0.00000000000E+00  0.00000000000E+00  0.18519657420E+04  0.18519657420E+04  0.25500000920E-02 0.  1.
        2   -1    0    0  501    0  0.00000000000E+00  0.00000000000E+00 -0.20606475260E+04  0.20606475260E+04  0.25500000920E-02 0. -1.
    10030    2    1    2    0    0  0.00000000000E+00  0.00000000000E+00 -0.20868178392E+03  0.39126132680E+04  0.39070442150E+04 0.  0.
        1    1    3    3  502    0 -0.11250548271E+04  0.14986114944E+03 -0.16965889608E+04  0.20412302246E+04  0.50400001928E-02 0. -1.
       -1    1    3    3    0  502  0.11250548271E+04 -0.14986114944E+03  0.14879071769E+04  0.18713830434E+04  0.50400001928E-02 0.  1.
</event>
<event>
 5   0  0.3977376E-07  0.3375982E+04  0.7818609E-02  0.8143826E-01
       -1   -1    0    0    0  501  0.00000000000E+00  0.00000000000E+00  0.14657077308E+04  0.14657077308E+04  0.50400001928E-02 0. -1.
        1   -1    0    0  501    0  0.00000000000E+00  0.00000000000E+00 -0.19439845418E+04  0.19439845418E+04  0.50400001928E-02 0.  1.
    10030    2    1    2    0    0  0.00000000000E+00  0.00000000000E+00 -0.47827681104E+03  0.34096922727E+04  0.33759817367E+04 0.  0.
        4    1    3    3  502    0 -0.51813945007E+03 -0.46491007238E+03 -0.17922522035E+04  0.19227010790E+04  0.12699999809E+01 0.  1.
       -4    1    3    3    0  502  0.51813945007E+03  0.46491007238E+03  0.13139753925E+04  0.14869911937E+04  0.12699999809E+01 0. -1.
</event>
<event>
 5   0  0.7268013E-07  0.2392503E+04  0.7818609E-02  0.8442316E-01
        2   -1    0    0  501    0  0.00000000000E+00  0.00000000000E+00  0.18255386475E+04  0.18255386475E+04  0.25500000920E-02 0. -1.
       -2   -1    0    0    0  501  0.00000000000E+00  0.00000000000E+00 -0.78388784054E+03  0.78388784054E+03  0.25500000920E-02 0.  1.
    10030    2    1    2    0    0  0.00000000000E+00  0.00000000000E+00  0.10416508069E+04  0.26094264880E+04  0.23925029138E+04 0.  0.
        4    1    3    3  502    0 -0.23882678726E+03 -0.59725338645E+03 -0.57921813853E+03  0.86558945629E+03  0.12699999809E+01 0.  1.
       -4    1    3    3    0  502  0.23882678726E+03  0.59725338645E+03  0.16208689455E+04  0.17438370317E+04  0.12699999809E+01 0. -1.
</event>
<event>
 5   0  0.3191750E-07  0.1958570E+04  0.7818609E-02  0.8626239E-01
       -4   -1    0    0    0  501  0.00000000000E+00  0.00000000000E+00  0.12605598770E+04  0.12605605167E+04  0.12699999809E+01 0. -1.
        4   -1    0    0  501    0  0.00000000000E+00  0.00000000000E+00 -0.76077072636E+03  0.76077178640E+03  0.12699999809E+01 0.  1.
    10030    2    1    2    0    0  0.00000000000E+00  0.00000000000E+00  0.49978915062E+03  0.20213323031E+04  0.19585696527E+04 0.  0.
        3    1    3    3  502    0 -0.21711883049E+03 -0.35420232166E+03 -0.66531412788E+03  0.78437412641E+03  0.10100000352E+00 0.  1.
       -3    1    3    3    0  502  0.21711883049E+03  0.35420232166E+03  0.11651032785E+04  0.12369581767E+04  0.10100000352E+00 0. -1.
</event>
<event>
 5   0  0.5533705E-07  0.3968869E+04  0.7818609E-02  0.8010856E-01
       -2   -1    0    0    0  501  0.00000000000E+00  0.00000000000E+00  0.18370925545E+04  0.18370925545E+04  0.25500000920E-02 0. -1.
        2   -1    0    0  501    0  0.00000000000E+00  0.00000000000E+00 -0.21435939913E+04  0.21435939913E+04  0.25500000920E-02 0.  1.
    10030    2    1    2    0    0  0.00000000000E+00  0.00000000000E+00 -0.30650143679E+03  0.39806865458E+04  0.39688691393E+04 0.  0.
        1    1    3    3  502    0  0.41026199215E+03 -0.21133284526E+03 -0.20890243871E+04  0.21393922884E+04  0.50400001928E-02 0.  1.
       -1    1    3    3    0  502 -0.41026199215E+03  0.21133284526E+03  0.17825229503E+04  0.18412942574E+04  0.50400001928E-02 0. -1.
</event>
<event>
 5   0  0.4316671E-07  0.2503289E+04  0.7818609E-02  0.8401815E-01
       -1   -1    0    0    0  501  0.00000000000E+00  0.00000000000E+00  0.14852160113E+04  0.14852160113E+04  0.50400001928E-02 0. -1.
        1   -1    0    0  501    0  0.00000000000E+00  0.00000000000E+00 -0.10548052566E+04  0.10548052567E+04  0.50400001928E-02 0.  1.
    10030    2    1    2    0    0  0.00000000000E+00  0.00000000000E+00  0.43041075469E+03  0.25400212680E+04  0.25032887616E+04 0.  0.
        2    1    3    3  502    0 -0.66839171226E+03  0.22311379047E+02  0.12887322502E+04  0.14519215169E+04  0.25500000920E-02 0. -1.
       -2    1    3    3    0  502  0.66839171226E+03 -0.22311379047E+02 -0.85832149549E+03  0.10880997511E+04  0.25500000920E-02 0.  1.
</event>
<event>
 5   0  0.3977376E-07  0.3863133E+04  0.7818609E-02  0.8032741E-01
       -1   -1    0    0    0  501  0.00000000000E+00  0.00000000000E+00  0.16332858373E+04  0.16332858374E+04  0.50400001928E-02 0.  1.
        1   -1    0    0  501    0  0.00000000000E+00  0.00000000000E+00 -0.22843211543E+04  0.22843211543E+04  0.50400001928E-02 0. -1.
    10030    2    1    2    0    0  0.00000000000E+00  0.00000000000E+00 -0.65103531692E+03  0.39176069916E+04  0.38631331270E+04 0.  0.
        4    1    3    3  502    0  0.13328140403E+04 -0.10685653943E+04  0.58870574649E+03  0.18068761265E+04  0.12699999809E+01 0.  1.
       -4    1    3    3    0  502 -0.13328140403E+04  0.10685653943E+04 -0.12397410634E+04  0.21107308651E+04  0.12699999809E+01 0. -1.
</event>
<event>
 5   0  0.5533705E-07  0.3966394E+04  0.7818609E-02  0.8011360E-01
        2   -1    0    0  501    0  0.00000000000E+00  0.00000000000E+00  0.21813037421E+04  0.21813037421E+04  0.25500000920E-02 0. -1.
       -2   -1    0    0    0  501  0.00000000000E+00  0.00000000000E+00 -0.18030828281E+04  0.18030828281E+04  0.25500000920E-02 0.  1.
    10030    2    1    2    0    0  0.00000000000E+00  0.00000000000E+00  0.37822091403E+03  0.39843865703E+04  0.39663944939E+04 0.  0.
        1    1    3    3  502    0  0.10672363088E+04  0.15712294055E+03  0.18608077891E+04  0.21508804210E+04  0.50400001928E-02 0.  1.
       -1    1    3    3    0  502 -0.10672363088E+04 -0.15712294055E+03 -0.14825868751E+04  0.18335061493E+04  0.50400001928E-02 0. -1.
</event>
<event>
 5   0  0.7268013E-07  0.3905004E+04  0.7818609E-02  0.8023989E-01
       -2   -1    0    0    0  501  0.00000000000E+00  0.00000000000E+00  0.13147335102E+04  0.13147335102E+04  0.25500000920E-02 0.  1.
        2   -1    0    0  501    0  0.00000000000E+00  0.00000000000E+00 -0.28996475792E+04  0.28996475792E+04  0.25500000920E-02 0. -1.
    10030    2    1    2    0    0  0.00000000000E+00  0.00000000000E+00 -0.15849140690E+04  0.42143810895E+04  0.39050038874E+04 0.  0.
        4    1    3    3  502    0  0.74878248559E+03  0.99529009535E+03 -0.24152426157E+04  0.27174760514E+04  0.12699999809E+01 0. -1.
       -4    1    3    3    0  502 -0.74878248559E+03 -0.99529009535E+03  0.83032854665E+03  0.14969050380E+04  0.12699999809E+01 0.  1.
</event>
<event>
 5   0  0.3191750E-07  0.3827606E+04  0.7818609E-02  0.8040257E-01
       -3   -1    0    0    0  501  0.00000000000E+00  0.00000000000E+00  0.22382402868E+04  0.22382402891E+04  0.10100000352E+00 0. -1.
        3   -1    0    0  501    0  0.00000000000E+00  0.00000000000E+00 -0.16363935230E+04  0.16363935261E+04  0.10100000352E+00 0.  1.
    10030    2    1    2    0    0  0.00000000000E+00  0.00000000000E+00  0.60184676378E+03  0.38746338152E+04  0.38276059979E+04 0.  0.
        4    1    3    3  502    0  0.15317951659E+04 -0.11464219937E+04  0.34574479259E+03  0.19442790161E+04  0.12699999809E+01 0. -1.
       -4    1    3    3    0  502 -0.15317951659E+04  0.11464219937E+04  0.25610197119E+03  0.19303547991E+04  0.12699999809E+01 0.  1.
</event>
<event>
 5   0  0.5533705E-07  0.3176093E+04  0.7818609E-02  0.8195160E-01
       -2   -1    0    0    0  501  0.00000000000E+00  0.00000000000E+00  0.11535670625E+04  0.11535670625E+04  0.25500000920E-02 0. -1.
        2   -1    0    0  501    0  0.00000000000E+00  0.00000000000E+00 -0.21861681614E+04  0.21861681614E+04  0.25500000920E-02 0.  1.
    10030    2    1    2    0    0  0.00000000000E+00  0.00000000000E+00 -0.10326010989E+04  0.33397352239E+04  0.31760929358E+04 0.  0.
        1    1    3    3  502    0 -0.89470183292E+03  0.12446073578E+04 -0.95284445580E+03  0.18048411015E+04  0.50400001928E-02 0.  1.
       -1    1    3    3    0  502  0.89470183292E+03 -0.12446073578E+04 -0.79756643060E+02  0.15348941224E+04  0.50400001928E-02 0. -1.
</event>
<event>
 5   0  0.5533705E-07  0.3388242E+04  0.7818609E-02  0.8140798E-01
        2   -1    0    0  501    0  0.00000000000E+00  0.00000000000E+00  0.27912944414E+04  0.27912944414E+04  0.25500000920E-02 0. -1.
       -2   -1    0    0    0  501  0.00000000000E+00  0.00000000000E+00 -0.10282133308E+04  0.10282133308E+04  0.25500000920E-02 0.  1.
    10030    2    1    2    0    0  0.00000000000E+00  0.00000000000E+00  0.17630811106E+04  0.38195077722E+04  0.33882421135E+04 0.  0.
        1    1    3    3  502    0 -0.11316690893E+04 -0.12567262975E+04  0.99432656095E+03  0.19618157977E+04  0.50400001928E-02 0. -1.
       -1    1    3    3    0  502  0.11316690893E+04  0.12567262975E+04  0.76875454966E+03  0.18576919745E+04  0.50400001928E-02 0.  1.
</event>
<event>
 5   0  0.3977376E-07  0.3849518E+04  0.7818609E-02  0.8035611E-01
        1   -1    0    0  501    0  0.00000000000E+00  0.00000000000E+00  0.18992710457E+04  0.18992710457E+04  0.50400001928E-02 0.  1.
       -1   -1    0    0    0  501  0.00000000000E+00  0.00000000000E+00 -0.19505893055E+04  0.19505893055E+04  0.50400001928E-02 0. -1.
    10030    2    1    2    0    0  0.00000000000E+00  0.00000000000E+00 -0.51318259804E+02  0.38498603513E+04  0.38495183024E+04 0.  0.
        4    1    3    3  502    0 -0.97159417300E+02  0.90389870168E+03 -0.17223426224E+04  0.19475467997E+04  0.12699999809E+01 0. -1.
       -4    1    3    3    0  502  0.97159417300E+02 -0.90389870168E+03  0.16710243626E+04  0.19023135516E+04  0.12699999809E+01 0.  1.
</event>
<event>
 5   0  0.3977376E-07  0.3798192E+04  0.7818609E-02  0.8046543E-01
        1   -1    0    0  501    0  0.00000000000E+00  0.00000000000E+00  0.21261233746E+04  0.21261233746E+04  0.50400001928E-02 0.  1.
       -1   -1    0    0    0  501  0.00000000000E+00  0.00000000000E+00 -0.16963109952E+04  0.16963109952E+04  0.50400001928E-02 0. -1.
    10030    2    1    2    0    0  0.00000000000E+00  0.00000000000E+00  0.42981237940E+03  0.38224343698E+04  0.37981924424E+04 0.  0.
        4    1    3    3  502    0  0.29128218989E+03 -0.55534459278E+03  0.20189185726E+04  0.21140687658E+04  0.12699999809E+01 0.  1.
       -4    1    3    3    0  502 -0.29128218989E+03  0.55534459278E+03 -0.15891061932E+04  0.17083656040E+04  0.12699999809E+01 0. -1.
</event>
<event>
 5   0  0.4627905E-07  0.3679647E+04  0.7818609E-02  0.8072487E-01
        1   -1    0    0  501    0  0.00000000000E+00  0.00000000000E+00  0.16866181227E+04  0.16866181227E+04  0.50400001928E-02 0.  1.
       -1   -1    0    0    0  501  0.00000000000E+00  0.00000000000E+00 -0.20069458848E+04  0.20069458848E+04  0.50400001928E-02 0. -1.
    10030    2    1    2    0    0  0.00000000000E+00  0.00000000000E+00 -0.32032776208E+03  0.36935640076E+04  0.36796474291E+04 0.  0.
        1    1    3    3  502    0  0.26763411752E+03  0.11531000983E+04 -0.15739236069E+04  0.19693916264E+04  0.50400001928E-02 0. -1.
       -1    1    3    3    0  502 -0.26763411752E+03 -0.11531000983E+04  0.12535958449E+04  0.17241723812E+04  0.50400001928E-02 0.  1.
</event>
<event>
 5   0  0.3471602E-07  0.3687344E+04  0.7818609E-02  0.8070772E-01
       -1   -1    0    0    0  501  0.00000000000E+00  0.00000000000E+00  0.19334064397E+04  0.19334064397E+04  0.50400001928E-02 0. -1.
        1   -1    0    0  501    0  0.00000000000E+00  0.00000000000E+00 -0.17581027582E+04  0.17581027582E+04  0.50400001928E-02 0.  1.
    10030    2    1    2    0    0  0.00000000000E+00  0.00000000000E+00  0.17530368151E+03  0.36915091979E+04  0.36873444072E+04 0.  0.
        5    1    3    3  502    0 -0.17208314830E+04 -0.24411113224E+03 -0.52806628590E+03  0.18165151609E+04  0.46999998093E+01 0.  1.
       -5    1    3    3    0  502  0.17208314830E+04  0.24411113224E+03  0.70336996741E+03  0.18749940370E+04  0.46999998093E+01 0. -1.
</event>
<event>
 5   0  0.3471602E-07  0.3873968E+04  0.7818609E-02  0.8030465E-01
       -1   -1    0    0    0  501  0.00000000000E+00  0.00000000000E+00  0.20824418754E+04  0.20824418754E+04  0.50400001928E-02 0. -1.
        1   -1    0    0  501    0  0.00000000000E+00  0.00000000000E+00 -0.18016859315E+04  0.18016859315E+04  0.50400001928E-02 0.  1.
    10030    2    1    2    0    0  0.00000000000E+00  0.00000000000E+00  0.28075594395E+03  0.38841278069E+04  0.38739675941E+04 0.  0.
        5    1    3    3  502    0  0.89769877435E+03  0.15366717540E+04 -0.62625868287E+03  0.18866491982E+04  0.46999998093E+01 0.  1.
       -5    1    3    3    0  502 -0.89769877435E+03 -0.15366717540E+04  0.90701462682E+03  0.19974786087E+04  0.46999998093E+01 0. -1.
</event>
<event>
 5   0  0.7268013E-07  0.3596291E+04  0.7818609E-02  0.8091342E-01
        2   -1    0    0  501    0  0.00000000000E+00  0.00000000000E+00  0.13363779163E+04  0.13363779163E+04  0.25500000920E-02 0. -1.
       -2   -1    0    0    0  501  0.00000000000E+00  0.00000000000E+00 -0.24194712297E+04  0.24194712297E+04  0.25500000920E-02 0.  1.
    10030    2    1    2    0    0  0.00000000000E+00  0.00000000000E+00 -0.10830933134E+04  0.37558491460E+04  0.35962913789E+04 0.  0.
        4    1    3    3  502    0 -0.21392229820E+03 -0.12579085656E+04  0.78164224035E+03  0.14963498635E+04  0.12699999809E+01 0. -1.
       -4    1    3    3    0  502  0.21392229820E+03  0.12579085656E+04 -0.18647355537E+04  0.22594992825E+04  0.12699999809E+01 0.  1.
</event>
<event>
 5   0  0.5533705E-07  0.2152004E+04  0.7818609E-02  0.8538675E-01
       -2   -1    0    0    0  501  0.00000000000E+00  0.00000000000E+00  0.51498867862E+03  0.51498867863E+03  0.25500000920E-02 0.  1.
        2   -1    0    0  501    0  0.00000000000E+00  0.00000000000E+00 -0.22481666843E+04  0.22481666843E+04  0.25500000920E-02 0. -1.
    10030    2    1    2    0    0  0.00000000000E+00  0.00000000000E+00 -0.17331780057E+04  0.27631553629E+04  0.21520040800E+04 0.  0.
        1    1    3    3  502    0 -0.44386146583E+03 -0.43800504163E+03 -0.19924959599E+04  0.20877982583E+04  0.50400001928E-02 0. -1.
       -1    1    3    3    0  502  0.44386146583E+03  0.43800504163E+03  0.25931795420E+03  0.67535710460E+03  0.50400001928E-02 0.  1.
</event>
<event>
 5   0  0.3191750E-07  0.3878085E+04  0.7818609E-02  0.8029603E-01
       -4   -1    0    0    0  501  0.00000000000E+00  0.00000000000E+00  0.18670816176E+04  0.18670820495E+04  0.12699999809E+01 0.  1.
        4   -1    0    0  501    0  0.00000000000E+00  0.00000000000E+00 -0.20137760098E+04  0.20137764103E+04  0.12699999809E+01 0. -1.
    10030    2    1    2    0    0  0.00000000000E+00  0.00000000000E+00 -0.14669439225E+03  0.38808584598E+04  0.38780849836E+04 0.  0.
        5    1    3    3  502    0  0.12113009121E+04  0.11994703276E+04  0.85137249365E+03  0.19054753159E+04  0.46999998093E+01 0.  1.
       -5    1    3    3    0  502 -0.12113009121E+04 -0.11994703276E+04 -0.99806688589E+03  0.19753831439E+04  0.46999998093E+01 0. -1.
</event>
<event>
 5   0  0.1015219E-06  0.2684493E+04  0.7818609E-02  0.8340054E-01
        2   -1    0    0  501    0  0.00000000000E+00  0.00000000000E+00  0.24816418867E+04  0.24816418867E+04  0.25500000920E-02 0. -1.
       -2   -1    0    0    0  501  0.00000000000E+00  0.00000000000E+00 -0.72598158027E+03  0.72598158028E+03  0.25500000920E-02 0.  1.
    10030    2    1    2    0    0  0.00000000000E+00  0.00000000000E+00  0.17556603064E+04  0.32076234670E+04  0.26844934707E+04 0.  0.
        3    1    3    3  502    0 -0.10542419011E+04 -0.54385903709E+03  0.12741913743E+03  0.11930818434E+04  0.10100000352E+00 0.  1.
       -3    1    3    3    0  502  0.10542419011E+04  0.54385903709E+03  0.16282411690E+04  0.20145416235E+04  0.10100000352E+00 0. -1.
</event>
<event>
 5   0  0.1035864E-06  0.3498707E+04  0.7818609E-02  0.8114097E-01
        2   -1    0    0  501    0  0.00000000000E+00  0.00000000000E+00  0.28068658980E+04  0.28068658980E+04  0.25500000920E-02 0.  1.
       -2   -1    0    0    0  501  0.00000000000E+00  0.00000000000E+00 -0.10902683570E+04  0.10902683570E+04  0.25500000920E-02 0. -1.
    10030    2    1    2    0    0  0.00000000000E+00  0.00000000000E+00  0.17165975410E+04  0.38971342551E+04  0.34987066588E+04 0.  0.
        5    1    3    3  502    0  0.27840591300E+03  0.10176105198E+03  0.27786815195E+04  0.27944513309E+04  0.46999998093E+01 0.  1.
       -5    1    3    3    0  502 -0.27840591300E+03 -0.10176105198E+03 -0.10620839784E+04  0.11026829242E+04  0.46999998093E+01 0. -1.
</event>
<event>
 5   0  0.1034683E-06  0.3672979E+04  0.7818609E-02  0.8073977E-01
       -2   -1    0    0    0  501  0.00000000000E+00  0.00000000000E+00  0.14327287054E+04  0.14327287054E+04  0.25500000920E-02 0.  1.
        2   -1    0    0  501    0  0.00000000000E+00  0.00000000000E+00 -0.23540350434E+04  0.23540350434E+04  0.25500000920E-02 0. -1.
    10030    2    1    2    0    0  0.00000000000E+00  0.00000000000E+00 -0.92130633807E+03  0.37867637488E+04  0.36729789437E+04 0.  0.
        2    1    3    3  502    0  0.15315755928E+04  0.69830058861E+03 -0.12178059680E+04  0.20775944947E+04  0.25500000920E-02 0. -1.
       -2    1    3    3    0  502 -0.15315755928E+04 -0.69830058861E+03  0.29649962993E+03  0.17091692541E+04  0.25500000920E-02 0.  1.
</event>
<event>
 5   0  0.5533705E-07  0.3889445E+04  0.7818609E-02  0.8027228E-01
        2   -1    0    0  501    0  0.00000000000E+00  0.00000000000E+00  0.14890088593E+04  0.14890088593E+04  0.25500000920E-02 0. -1.
       -2   -1    0    0    0  501  0.00000000000E+00  0.00000000000E+00 -0.25399085041E+04  0.25399085041E+04  0.25500000920E-02 0.  1.
    10030    2    1    2    0    0  0.00000000000E+00  0.00000000000E+00 -0.10508996448E+04  0.40289173635E+04  0.38894453407E+04 0.  0.
        1    1    3    3  502    0 -0.12777684058E+04  0.11242164686E+04  0.44924433012E+03  0.17602202236E+04  0.50400001928E-02 0. -1.
       -1    1    3    3    0  502  0.12777684058E+04 -0.11242164686E+04 -0.15001439749E+04  0.22686971399E+04  0.50400001928E-02 0.  1.
</event>
<event>
 5   0  0.7268013E-07  0.2753827E+04  0.7818609E-02  0.8317748E-01
        2   -1    0    0  501    0  0.00000000000E+00  0.00000000000E+00  0.17960791845E+04  0.17960791845E+04  0.25500000920E-02 0.  1.
       -2   -1    0    0    0  501  0.00000000000E+00  0.00000000000E+00 -0.10555717715E+04  0.10555717715E+04  0.25500000920E-02 0. -1.
    10030    2    1    2    0    0  0.00000000000E+00  0.00000000000E+00  0.74050741298E+03  0.28516509560E+04  0.27538267821E+04 0.  0.
        4    1    3    3  502    0 -0.63615846976E+03  0.93623196757E+03  0.11821070216E+04  0.16366448971E+04  0.12699999809E+01 0.  1.
       -4    1    3    3    0  502  0.63615846976E+03 -0.93623196757E+03 -0.44159960866E+03  0.12150060588E+04  0.12699999809E+01 0. -1.
</event>
<event>
 5   0  0.7268013E-07  0.3937805E+04  0.7818609E-02  0.8017212E-01
       -2   -1    0    0    0  501  0.00000000000E+00  0.00000000000E+00  0.14845370292E+04  0.14845370292E+04  0.25500000920E-02 0.  1.
        2   -1    0    0  501    0  0.00000000000E+00  0.00000000000E+00 -0.26113041459E+04  0.26113041459E+04  0.25500000920E-02 0. -1.
    10030    2    1    2    0    0  0.00000000000E+00  0.00000000000E+00 -0.11267671168E+04  0.40958411751E+04  0.39378053273E+04 0.  0.
        4    1    3    3  502    0 -0.19058142993E+04 -0.36994266666E+03 -0.22220984868E+03  0.19540635993E+04  0.12699999809E+01 0. -1.
       -4    1    3    3    0  502  0.19058142993E+04  0.36994266666E+03 -0.90455726808E+03  0.21417775758E+04  0.12699999809E+01 0.  1.
</event>
<event>
 5   0  0.3471602E-07  0.3954529E+04  0.7818609E-02  0.8013783E-01
        1   -1    0    0  501    0  0.00000000000E+00  0.00000000000E+00  0.19359994667E+04  0.19359994667E+04  0.50400001928E-02 0. -1.
       -1   -1    0    0    0  501  0.00000000000E+00  0.00000000000E+00 -0.20194091784E+04  0.20194091784E+04  0.50400001928E-02 0.  1.
    10030    2    1    2    0    0  0.00000000000E+00  0.00000000000E+00 -0.83409711726E+02  0.39554086452E+04  0.39545290959E+04 0.  0.
        5    1    3    3  502    0 -0.86110639392E+03  0.73271441849E+03 -0.16641563721E+04  0.20119177820E+04  0.46999998093E+01 0.  1.
       -5    1    3    3    0  502  0.86110639392E+03 -0.73271441849E+03  0.15807466604E+04  0.19434908631E+04  0.46999998093E+01 0. -1.
</event>
<event>
 5   0  0.4316671E-07  0.3767728E+04  0.7818609E-02  0.8053116E-01
        1   -1    0    0  501    0  0.00000000000E+00  0.00000000000E+00  0.20527546885E+04  0.20527546885E+04  0.50400001928E-02 0. -1.
       -1   -1    0    0    0  501  0.00000000000E+00  0.00000000000E+00 -0.17288690736E+04  0.17288690736E+04  0.50400001928E-02 0.  1.
    10030    2    1    2    0    0  0.00000000000E+00  0.00000000000E+00  0.32388561491E+03  0.37816237622E+04  0.37677282794E+04 0.  0.
        2    1    3    3  502    0 -0.30024544772E+03 -0.16705677355E+04 -0.65838426148E+03  0.18205531367E+04  0.25500000920E-02 0. -1.
       -2    1    3    3    0  502  0.30024544772E+03  0.16705677355E+04  0.98226987639E+03  0.19610706254E+04  0.25500000920E-02 0.  1.
</event>
<event>
 5   0  0.3191750E-07  0.3765120E+04  0.7818609E-02  0.8053682E-01
       -3   -1    0    0    0  501  0.00000000000E+00  0.00000000000E+00  0.22330826185E+04  0.22330826208E+04  0.10100000352E+00 0.  1.
        3   -1    0    0  501    0  0.00000000000E+00  0.00000000000E+00 -0.15870583702E+04  0.15870583734E+04  0.10100000352E+00 0. -1.
    10030    2    1    2    0    0  0.00000000000E+00  0.00000000000E+00  0.64602424825E+03  0.38201409942E+04  0.37651201689E+04 0.  0.
        1    1    3    3  502    0  0.15401568183E+04 -0.10570232951E+04  0.85819924742E+02  0.18699589116E+04  0.50400001928E-02 0. -1.
       -1    1    3    3    0  502 -0.15401568183E+04  0.10570232951E+04  0.56020432351E+03  0.19501820827E+04  0.50400001928E-02 0.  1.
</event>
<event>
 5   0  0.5533705E-07  0.3740548E+04  0.7818609E-02  0.8059035E-01
        2   -1    0    0  501    0  0.00000000000E+00  0.00000000000E+00  0.14992142087E+04  0.14992142087E+04  0.25500000920E-02 0.  1.
       -2   -1    0    0    0  501  0.00000000000E+00  0.00000000000E+00 -0.23331721678E+04  0.23331721678E+04  0.25500000920E-02 0. -1.
    10030    2    1    2    0    0  0.00000000000E+00  0.00000000000E+00 -0.83395795915E+03  0.38323863765E+04  0.37405480161E+04 0.  0.
        1    1    3    3  502    0  0.84224455240E+03 -0.12146494846E+04 -0.15910529436E+04  0.21716810829E+04  0.50400001928E-02 0. -1.
       -1    1    3    3    0  502 -0.84224455240E+03  0.12146494846E+04  0.75709498443E+03  0.16607052936E+04  0.50400001928E-02 0.  1.
</event>
<event>
 5   0  0.1034683E-06  0.3887884E+04  0.7818609E-02  0.8027554E-01
        2   -1    0    0  501    0  0.00000000000E+00  0.00000000000E+00  0.23413602223E+04  0.23413602223E+04  0.25500000920E-02 0. -1.
       -2   -1    0    0    0  501  0.00000000000E+00  0.00000000000E+00 -0.16139808037E+04  0.16139808037E+04  0.25500000920E-02 0.  1.
    10030    2    1    2    0    0  0.00000000000E+00  0.00000000000E+00  0.72737941860E+03  0.39553410260E+04  0.38878839763E+04 0.  0.
        2    1    3    3  502    0 -0.53916938238E+03  0.10360929712E+04 -0.12172083425E+04  0.16869464772E+04  0.25500000920E-02 0.  1.
       -2    1    3    3    0  502  0.53916938238E+03 -0.10360929712E+04  0.19445877611E+04  0.22683945487E+04  0.25500000920E-02 0. -1.
</event>
<event>
 5   0  0.1015219E-06  0.3880141E+04  0.7818609E-02  0.8029172E-01
       -2   -1    0    0    0  501  0.00000000000E+00  0.00000000000E+00  0.19112464124E+04  0.19112464124E+04  0.25500000920E-02 0. -1.
        2   -1    0    0  501    0  0.00000000000E+00  0.00000000000E+00 -0.19693292327E+04  0.19693292327E+04  0.25500000920E-02 0.  1.
    10030    2    1    2    0    0  0.00000000000E+00  0.00000000000E+00 -0.58082820363E+02  0.38805756451E+04  0.38801409412E+04 0.  0.
        3    1    3    3  502    0  0.47581988460E+03  0.90736142260E+03 -0.16766980167E+04  0.19649492521E+04  0.10100000352E+00 0.  1.
       -3    1    3    3    0  502 -0.47581988460E+03 -0.90736142260E+03  0.16186151963E+04  0.19156263931E+04  0.10100000352E+00 0. -1.
</event>
<event>
 5   0  0.4316671E-07  0.3858021E+04  0.7818609E-02  0.8033817E-01
       -1   -1    0    0    0  501  0.00000000000E+00  0.00000000000E+00  0.16427885831E+04  0.16427885831E+04  0.50400001928E-02 0. -1.
        1   -1    0    0  501    0  0.00000000000E+00  0.00000000000E+00 -0.22651009850E+04  0.22651009850E+04  0.50400001928E-02 0.  1.
    10030    2    1    2    0    0  0.00000000000E+00  0.00000000000E+00 -0.62231240185E+03  0.39078895681E+04  0.38580212741E+04 0.  0.
        2    1    3    3  502    0 -0.80330306949E+03 -0.23179574689E+03  0.14497206596E+04  0.16735337107E+04  0.25500000920E-02 0. -1.
       -2    1    3    3    0  502  0.80330306949E+03  0.23179574689E+03 -0.20720330615E+04  0.22343558574E+04  0.25500000920E-02 0.  1.
</event>
<event>
 5   0  0.4627905E-07  0.3495735E+04  0.7818609E-02  0.8114801E-01
       -1   -1    0    0    0  501  0.00000000000E+00  0.00000000000E+00  0.11646068900E+04  0.11646068901E+04  0.50400001928E-02 0. -1.
        1   -1    0    0  501    0  0.00000000000E+00  0.00000000000E+00 -0.26232375082E+04  0.26232375083E+04  0.50400001928E-02 0.  1.
    10030    2    1    2    0    0  0.00000000000E+00  0.00000000000E+00 -0.14586306182E+04  0.37878443983E+04  0.34957348162E+04 0.  0.
        1    1    3    3  502    0 -0.36278918898E+03 -0.14504630069E+04  0.25164116069E+03  0.15161735402E+04  0.50400001928E-02 0. -1.
       -1    1    3    3    0  502  0.36278918898E+03  0.14504630069E+04 -0.17102717789E+04  0.22716708582E+04  0.50400001928E-02 0.  1.
</event>
<event>
 5   0  0.1034683E-06  0.3731629E+04  0.7818609E-02  0.8060988E-01
        2   -1    0    0  501    0  0.00000000000E+00  0.00000000000E+00  0.15063512429E+04  0.15063512429E+04  0.25500000920E-02 0. -1.
       -2   -1    0    0    0  501  0.00000000000E+00  0.00000000000E+00 -0.23110568246E+04  0.23110568246E+04  0.25500000920E-02 0.  1.
    10030    2    1    2    0    0  0.00000000000E+00  0.00000000000E+00 -0.80470558166E+03  0.38174080675E+04  0.37316287704E+04 0.  0.
        2    1    3    3  502    0  0.99105493016E+03 -0.10136866713E+04  0.83859117910E+03  0.16471143578E+04  0.25500000920E-02 0. -1.
       -2    1    3    3    0  502 -0.99105493016E+03  0.10136866713E+04 -0.16432967608E+04  0.21702937096E+04  0.25500000920E-02 0.  1.
</event>
<event>
 5   0  0.3977376E-07  0.3901591E+04  0.7818609E-02  0.8024698E-01
        1   -1    0    0  501    0  0.00000000000E+00  0.00000000000E+00  0.15339839889E+04  0.15339839889E+04  0.50400001928E-02 0. -1.
       -1   -1    0    0    0  501  0.00000000000E+00  0.00000000000E+00 -0.24808628359E+04  0.24808628359E+04  0.50400001928E-02 0.  1.
    10030    2    1    2    0    0  0.00000000000E+00  0.00000000000E+00 -0.94687884699E+03  0.40148468248E+04  0.39015914030E+04 0.  0.
        4    1    3    3  502    0 -0.55706560575E+03  0.13199239970E+04 -0.18359132333E+04  0.23287551310E+04  0.12699999809E+01 0.  1.
       -4    1    3    3    0  502  0.55706560575E+03 -0.13199239970E+04  0.88903438632E+03  0.16860916938E+04  0.12699999809E+01 0. -1.
</event>
<event>
 5   0  0.7268013E-07  0.3842782E+04  0.7818609E-02  0.8037036E-01
        2   -1    0    0  501    0  0.00000000000E+00  0.00000000000E+00  0.24932747997E+04  0.24932747997E+04  0.25500000920E-02 0.  1.
       -2   -1    0    0    0  501  0.00000000000E+00  0.00000000000E+00 -0.14806806243E+04  0.14806806243E+04  0.25500000920E-02 0. -1.
    10030    2    1    2    0    0  0.00000000000E+00  0.00000000000E+00  0.10125941754E+04  0.39739554240E+04  0.38427821624E+04 0.  0.
        4    1    3    3  502    0  0.57717046236E+03 -0.18278507878E+04  0.36919002063E+03  0.19520417848E+04  0.12699999809E+01 0. -1.
       -4    1    3    3    0  502 -0.57717046236E+03  0.18278507878E+04  0.64340415475E+03  0.20219136392E+04  0.12699999809E+01 0.  1.
</event>
<event>
 5   0  0.3471602E-07  0.3724268E+04  0.7818609E-02  0.8062605E-01
        1   -1    0    0  501    0  0.00000000000E+00  0.00000000000E+00  0.25200108637E+04  0.25200108637E+04  0.50400001928E-02 0. -1.
       -1   -1    0    0    0  501  0.00000000000E+00  0.00000000000E+00 -0.13760033395E+04  0.13760033395E+04  0.50400001928E-02 0.  1.
    10030    2    1    2    0    0  0.00000000000E+00  0.00000000000E+00  0.11440075243E+04  0.38960142032E+04  0.37242681772E+04 0.  0.
        5    1    3    3  502    0 -0.13975075681E+04  0.11126352874E+04  0.11221218004E+04  0.21095412086E+04  0.46999998093E+01 0. -1.
       -5    1    3    3    0  502  0.13975075681E+04 -0.11126352874E+04  0.21885723852E+02  0.17864729946E+04  0.46999998093E+01 0.  1.
</event>
<event>
 5   0  0.5533705E-07  0.3763107E+04  0.7818609E-02  0.8054119E-01
       -2   -1    0    0    0  501  0.00000000000E+00  0.00000000000E+00  0.14804871000E+04  0.14804871000E+04  0.25500000920E-02 0. -1.
        2   -1    0    0  501    0  0.00000000000E+00  0.00000000000E+00 -0.23912695596E+04  0.23912695596E+04  0.25500000920E-02 0.  1.
    10030    2    1    2    0    0  0.00000000000E+00  0.00000000000E+00 -0.91078245963E+03  0.38717566596E+04  0.37631070863E+04 0.  0.
        1    1    3    3  502    0 -0.97835756068E+03 -0.15612884837E+04 -0.63016386635E+02  0.18435770423E+04  0.50400001928E-02 0. -1.
       -1    1    3    3    0  502  0.97835756068E+03  0.15612884837E+04 -0.84776607300E+03  0.20281796174E+04  0.50400001928E-02 0.  1.
</event>
<event>
 5   0  0.5533705E-07  0.3901260E+04  0.7818609E-02  0.8024767E-01
        2   -1    0    0  501    0  0.00000000000E+00  0.00000000000E+00  0.15404636136E+04  0.15404636136E+04  0.25500000920E-02 0. -1.
       -2   -1    0    0    0  501  0.00000000000E+00  0.00000000000E+00 -0.24700075284E+04  0.24700075284E+04  0.25500000920E-02 0.  1.
    10030    2    1    2    0    0  0.00000000000E+00  0.00000000000E+00 -0.92954391488E+03  0.40104711420E+04  0.39012596544E+04 0.  0.
        1    1    3    3  502    0 -0.27858093058E+03  0.15608948987E+04  0.70323745892E+03  0.17345152474E+04  0.50400001928E-02 0. -1.
       -1    1    3    3    0  502  0.27858093058E+03 -0.15608948987E+04 -0.16327813738E+04  0.22759558946E+04  0.50400001928E-02 0.  1.
</event>
<event>
 5   0  0.4627905E-07  0.3604910E+04  0.7818609E-02  0.8089368E-01
        1   -1    0    0  501    0  0.00000000000E+00  0.00000000000E+00  0.16827308072E+04  0.16827308072E+04  0.50400001928E-02 0.  1.
       -1   -1    0    0    0  501  0.00000000000E+00  0.00000000000E+00 -0.19306977088E+04  0.19306977088E+04  0.50400001928E-02 0. -1.
    10030    2    1    2    0    0  0.00000000000E+00  0.00000000000E+00 -0.24796690158E+03  0.36134285160E+04  0.36049102702E+04 0.  0.
        1    1    3    3  502    0  0.84107715721E+02 -0.14600591924E+04  0.93207029326E+03  0.17342439231E+04  0.50400001928E-02 0.  1.
       -1    1    3    3    0  502 -0.84107715721E+02  0.14600591924E+04 -0.11800371948E+04  0.18791845930E+04  0.50400001928E-02 0. -1.
</event>
<event>
 5   0  0.4316671E-07  0.3850855E+04  0.7818609E-02  0.8035329E-01
       -1   -1    0    0    0  501  0.00000000000E+00  0.00000000000E+00  0.13193190041E+04  0.13193190041E+04  0.50400001928E-02 0. -1.
        1   -1    0    0  501    0  0.00000000000E+00  0.00000000000E+00 -0.28099876700E+04  0.28099876700E+04  0.50400001928E-02 0.  1.
    10030    2    1    2    0    0  0.00000000000E+00  0.00000000000E+00 -0.14906686659E+04  0.41293066742E+04  0.38508545205E+04 0.  0.
        2    1    3    3  502    0  0.78122983090E+03 -0.10564529323E+04 -0.22545337194E+04  0.26094702794E+04  0.25500000920E-02 0.  1.
       -2    1    3    3    0  502 -0.78122983090E+03  0.10564529323E+04  0.76386505355E+03  0.15198363948E+04  0.25500000920E-02 0. -1.
</event>
<event>
 5   0  0.3977376E-07  0.3684386E+04  0.7818609E-02  0.8071431E-01
       -1   -1    0    0    0  501  0.00000000000E+00  0.00000000000E+00  0.24607749144E+04  0.24607749144E+04  0.50400001928E-02 0. -1.
        1   -1    0    0  501    0  0.00000000000E+00  0.00000000000E+00 -0.13791081061E+04  0.13791081061E+04  0.50400001928E-02 0.  1.
    10030    2    1    2    0    0  0.00000000000E+00  0.00000000000E+00  0.10816668083E+04  0.38398830205E+04  0.36843857734E+04 0.  0.
        4    1    3    3  502    0  0.14388048970E+04 -0.62776779619E+03  0.15455860463E+04  0.22029729406E+04  0.12699999809E+01 0. -1.
       -4    1    3    3    0  502 -0.14388048970E+04  0.62776779619E+03 -0.46391923798E+03  0.16369100799E+04  0.12699999809E+01 0.  1.
</event>
<event>
 5   0  0.4316671E-07  0.3870338E+04  0.7818609E-02  0.8031227E-01
        1   -1    0    0  501    0  0.00000000000E+00  0.00000000000E+00  0.29155035586E+04  0.29155035586E+04  0.50400001928E-02 0.  1.
       -1   -1    0    0    0  501  0.00000000000E+00  0.00000000000E+00 -0.12844709383E+04  0.12844709383E+04  0.50400001928E-02 0. -1.
    10030    2    1    2    0    0  0.00000000000E+00  0.00000000000E+00  0.16310326203E+04  0.41999744970E+04  0.38703382755E+04 0.  0.
        2    1    3    3  502    0  0.12786200716E+04  0.10690161361E+03  0.23875459720E+04  0.27104746837E+04  0.25500000920E-02 0.  1.
       -2    1    3    3    0  502 -0.12786200716E+04 -0.10690161361E+03 -0.75651335168E+03  0.14894998133E+04  0.25500000920E-02 0. -1.
</event>
<event>
 5   0  0.4627905E-07  0.3112529E+04  0.7818609E-02  0.8212308E-01
       -1   -1    0    0    0  501  0.00000000000E+00  0.00000000000E+00  0.11658712592E+04  0.11658712592E+04  0.50400001928E-02 0. -1.
        1   -1    0    0  501    0  0.00000000000E+00  0.00000000000E+00 -0.20773812388E+04  0.20773812388E+04  0.50400001928E-02 0.  1.
    10030    2    1    2    0    0  0.00000000000E+00  0.00000000000E+00 -0.91150997967E+03  0.32432524980E+04  0.31125289272E+04 0.  0.
        1    1    3    3  502    0  0.11832953630E+04  0.74893164683E+03  0.25163317135E+03  0.14228161444E+04  0.50400001928E-02 0.  1.
       -1    1    3    3    0  502 -0.11832953630E+04 -0.74893164683E+03 -0.11631431510E+04  0.18204363536E+04  0.50400001928E-02 0. -1.
</event>
<event>
 5   0  0.1015219E-06  0.3833820E+04  0.7818609E-02  0.8038936E-01
       -2   -1    0    0    0  501  0.00000000000E+00  0.00000000000E+00  0.25865248231E+04  0.25865248231E+04  0.25500000920E-02 0.  1.
        2   -1    0    0  501    0  0.00000000000E+00  0.00000000000E+00 -0.14206491215E+04  0.14206491215E+04  0.25500000920E-02 0. -1.
    10030    2    1    2    0    0  0.00000000000E+00  0.00000000000E+00  0.11658757016E+04  0.40071739447E+04  0.38338201407E+04 0.  0.
        3    1    3    3  502    0 -0.43041259448E+03 -0.82765855371E+03 -0.11673779519E+04  0.14943376379E+04  0.10100000352E+00 0. -1.
       -3    1    3    3    0  502  0.43041259448E+03  0.82765855371E+03  0.23332536535E+04  0.25128363068E+04  0.10100000352E+00 0.  1.
</event>
<event>
 5   0  0.1034683E-06  0.4008327E+04  0.7818609E-02  0.8002869E-01
        2   -1    0    0  501    0  0.00000000000E+00  0.00000000000E+00  0.28615705487E+04  0.28615705487E+04  0.25500000920E-02 0. -1.
       -2   -1    0    0    0  501  0.00000000000E+00  0.00000000000E+00 -0.14036599064E+04  0.14036599064E+04  0.25500000920E-02 0.  1.
    10030    2    1    2    0    0  0.00000000000E+00  0.00000000000E+00  0.14579106423E+04  0.42652304551E+04  0.40083272564E+04 0.  0.
        2    1    3    3  502    0 -0.19811402672E+04 -0.15276369419E+03  0.10072889034E+04  0.22277532267E+04  0.25500000920E-02 0. -1.
       -2    1    3    3    0  502  0.19811402672E+04  0.15276369419E+03  0.45062173896E+03  0.20374772283E+04  0.25500000920E-02 0.  1.
</event>
<event>
 5   0  0.1035864E-06  0.3819132E+04  0.7818609E-02  0.8042062E-01
       -2   -1    0    0    0  501  0.00000000000E+00  0.00000000000E+00  0.21130977161E+04  0.21130977161E+04  0.25500000920E-02 0.  1.
        2   -1    0    0  501    0  0.00000000000E+00  0.00000000000E+00 -0.17256386158E+04  0.17256386158E+04  0.25500000920E-02 0. -1.
    10030    2    1    2    0    0  0.00000000000E+00  0.00000000000E+00  0.38745910037E+03  0.38387363319E+04  0.38191323715E+04 0.  0.
        5    1    3    3  502    0  0.10128310786E+04  0.18226371460E+03 -0.14230588429E+04  0.17561792094E+04  0.46999998093E+01 0. -1.
       -5    1    3    3    0  502 -0.10128310786E+04 -0.18226371460E+03  0.18105179432E+04  0.20825571224E+04  0.46999998093E+01 0.  1.
</event>
<event>
 5   0  0.3977376E-07  0.2377937E+04  0.7818609E-02  0.8447810E-01
        1   -1    0    0  501    0  0.00000000000E+00  0.00000000000E+00  0.29996327469E+04  0.29996327469E+04  0.50400001928E-02 0. -1.
       -1   -1    0    0    0  501  0.00000000000E+00  0.00000000000E+00 -0.47127319856E+03  0.47127319858E+03  0.50400001928E-02 0.  1.
    10030    2    1    2    0    0  0.00000000000E+00  0.00000000000E+00  0.25283595483E+04  0.34709059455E+04  0.23779373576E+04 0.  0.
        4    1    3    3  502    0 -0.11499492439E+04  0.30208881315E+03  0.12670960123E+04  0.17375772880E+04  0.12699999809E+01 0. -1.
       -4    1    3    3    0  502  0.11499492439E+04 -0.30208881315E+03  0.12612635360E+04  0.17333286574E+04  0.12699999809E+01 0.  1.
</event>
<event>
 5   0  0.6119689E-07  0.1931328E+04  0.7818609E-02  0.8639418E-01
       -1   -1    0    0    0  501  0.00000000000E+00  0.00000000000E+00  0.66142105383E+03  0.66142105385E+03  0.50400001928E-02 0. -1.
        1   -1    0    0  501    0  0.00000000000E+00  0.00000000000E+00 -0.14098540201E+04  0.14098540201E+04  0.50400001928E-02 0.  1.
    10030    2    1    2    0    0  0.00000000000E+00  0.00000000000E+00 -0.74843296623E+03  0.20712750739E+04  0.19313281769E+04 0.  0.
        1    1    3    3  502    0 -0.77517950722E+02  0.80194109729E+03 -0.94513334672E+03  0.12419322040E+04  0.50400001928E-02 0. -1.
       -1    1    3    3    0  502  0.77517950722E+02 -0.80194109729E+03  0.19670038049E+03  0.82934286993E+03  0.50400001928E-02 0.  1.
</event>
<event>
 5   0  0.4627905E-07  0.3671851E+04  0.7818609E-02  0.8074229E-01
        1   -1    0    0  501    0  0.00000000000E+00  0.00000000000E+00  0.24711149039E+04  0.24711149039E+04  0.50400001928E-02 0. -1.
       -1   -1    0    0    0  501  0.00000000000E+00  0.00000000000E+00 -0.13640090781E+04  0.13640090781E+04  0.50400001928E-02 0.  1.
    10030    2    1    2    0    0  0.00000000000E+00  0.00000000000E+00  0.11071058258E+04  0.38351239820E+04  0.36718513924E+04 0.  0.
        1    1    3    3  502    0 -0.83903603263E+03 -0.12102736940E+04  0.16986036669E+04  0.22481099385E+04  0.50400001928E-02 0. -1.
       -1    1    3    3    0  502  0.83903603263E+03  0.12102736940E+04 -0.59149784104E+03  0.15870140435E+04  0.50400001928E-02 0.  1.
</event>
<event>
 5   0  0.4316671E-07  0.2083749E+04  0.7818609E-02  0.8568436E-01
       -1   -1    0    0    0  501  0.00000000000E+00  0.00000000000E+00  0.17702123621E+04  0.17702123621E+04  0.50400001928E-02 0. -1.
        1   -1    0    0  501    0  0.00000000000E+00  0.00000000000E+00 -0.61320451258E+03  0.61320451260E+03  0.50400001928E-02 0.  1.
    10030    2    1    2    0    0  0.00000000000E+00  0.00000000000E+00  0.11570078496E+04  0.23834168747E+04  0.20837487456E+04 0.  0.
        2    1    3    3  502    0  0.12475705299E+03  0.58423329428E+03 -0.39783819827E+03  0.71775211349E+03  0.25500000920E-02 0.  1.
       -2    1    3    3    0  502 -0.12475705299E+03 -0.58423329428E+03  0.15548460478E+04  0.16656647612E+04  0.25500000920E-02 0. -1.
</event>
<event>
 5   0  0.3977376E-07  0.3078992E+04  0.7818609E-02  0.8221527E-01
       -1   -1    0    0    0  501  0.00000000000E+00  0.00000000000E+00  0.14089764259E+04  0.14089764259E+04  0.50400001928E-02 0.  1.
        1   -1    0    0  501    0  0.00000000000E+00  0.00000000000E+00 -0.16821060427E+04  0.16821060427E+04  0.50400001928E-02 0. -1.
    10030    2    1    2    0    0  0.00000000000E+00  0.00000000000E+00 -0.27312961675E+03  0.30910824686E+04  0.30789918870E+04 0.  0.
        4    1    3    3  502    0 -0.44889241772E+03 -0.85599417809E+03  0.10663957771E+04  0.14392470261E+04  0.12699999809E+01 0.  1.
       -4    1    3    3    0  502  0.44889241772E+03  0.85599417809E+03 -0.13395253939E+04  0.16518354426E+04  0.12699999809E+01 0. -1.
</event>
<event>
 5   0  0.5385714E-07  0.2203421E+04  0.7818609E-02  0.8517006E-01
       -1   -1    0    0    0  501  0.00000000000E+00  0.00000000000E+00  0.16695405591E+04  0.16695405591E+04  0.50400001928E-02 0.  1.
        1   -1    0    0  501    0  0.00000000000E+00  0.00000000000E+00 -0.72700596807E+03  0.72700596809E+03  0.50400001928E-02 0. -1.
    10030    2    1    2    0    0  0.00000000000E+00  0.00000000000E+00  0.94253459105E+03  0.23965465272E+04  0.22034209316E+04 0.  0.
        3    1    3    3  502    0  0.23059147219E+03 -0.87880623524E+03 -0.20648069508E+03  0.93172265927E+03  0.10100000352E+00 0. -1.
       -3    1    3    3    0  502 -0.23059147219E+03  0.87880623524E+03  0.11490152861E+04  0.14648238680E+04  0.10100000352E+00 0.  1.
</event>
<event>
 5   0  0.1573397E-06  0.2050659E+04  0.7818609E-02  0.8583296E-01
        2   -1    0    0  501    0  0.00000000000E+00  0.00000000000E+00  0.10145213281E+04  0.10145213281E+04  0.25500000920E-02 0. -1.
       -2   -1    0    0    0  501  0.00000000000E+00  0.00000000000E+00 -0.10362525087E+04  0.10362525087E+04  0.25500000920E-02 0.  1.
    10030    2    1    2    0    0  0.00000000000E+00  0.00000000000E+00 -0.21731180616E+02  0.20507738368E+04  0.20506586956E+04 0.  0.
        2    1    3    3  502    0  0.15395147338E+03 -0.24492471867E+03 -0.99459307300E+03  0.10358110614E+04  0.25500000920E-02 0.  1.
       -2    1    3    3    0  502 -0.15395147338E+03  0.24492471867E+03  0.97286189238E+03  0.10149627755E+04  0.25500000920E-02 0. -1.
</event>
<event>
 5   0  0.3191750E-07  0.3799570E+04  0.7818609E-02  0.8046247E-01
       -3   -1    0    0    0  501  0.00000000000E+00  0.00000000000E+00  0.14118989550E+04  0.14118989586E+04  0.10100000352E+00 0.  1.
        3   -1    0    0  501    0  0.00000000000E+00  0.00000000000E+00 -0.25562608958E+04  0.25562608978E+04  0.10100000352E+00 0. -1.
    10030    2    1    2    0    0  0.00000000000E+00  0.00000000000E+00 -0.11443619408E+04  0.39681598564E+04  0.37995695012E+04 0.  0.
        1    1    3    3  502    0  0.11932300026E+04  0.95242559461E+03  0.60859096273E+03  0.16435617762E+04  0.50400001928E-02 0.  1.
       -1    1    3    3    0  502 -0.11932300026E+04 -0.95242559461E+03 -0.17529529036E+04  0.23245980802E+04  0.50400001928E-02 0. -1.
</event>
<event>
 5   0  0.5533705E-07  0.3332532E+04  0.7818609E-02  0.8154667E-01
       -2   -1    0    0    0  501  0.00000000000E+00  0.00000000000E+00  0.12268558706E+04  0.12268558706E+04  0.25500000920E-02 0. -1.
        2   -1    0    0  501    0  0.00000000000E+00  0.00000000000E+00 -0.22630554523E+04  0.22630554523E+04  0.25500000920E-02 0.  1.
    10030    2    1    2    0    0  0.00000000000E+00  0.00000000000E+00 -0.10361995817E+04  0.34899113229E+04  0.33325322907E+04 0.  0.
        1    1    3    3  502    0  0.75777441105E+03  0.29562853079E+03 -0.20410201776E+04  0.21971303220E+04  0.50400001928E-02 0.  1.
       -1    1    3    3    0  502 -0.75777441105E+03 -0.29562853079E+03  0.10048205959E+04  0.12927810009E+04  0.50400001928E-02 0. -1.
</event>
<event>
 5   0  0.5385714E-07  0.2273394E+04  0.7818609E-02  0.8488486E-01
        1   -1    0    0  501    0  0.00000000000E+00  0.00000000000E+00  0.15779417012E+04  0.15779417012E+04  0.50400001928E-02 0.  1.
       -1   -1    0    0    0  501  0.00000000000E+00  0.00000000000E+00 -0.81883915150E+03  0.81883915151E+03  0.50400001928E-02 0. -1.
    10030    2    1    2    0    0  0.00000000000E+00  0.00000000000E+00  0.75910254967E+03  0.23967808527E+04  0.22733943290E+04 0.  0.
        3    1    3    3  502    0 -0.64398345828E+03  0.83424532277E+03  0.82857860032E+03  0.13406052589E+04  0.10100000352E+00 0.  1.
       -3    1    3    3    0  502  0.64398345828E+03 -0.83424532277E+03 -0.69476050647E+02  0.10561755938E+04  0.10100000352E+00 0. -1.
</event>
<event>
 5   0  0.5533705E-07  0.3839665E+04  0.7818609E-02  0.8037696E-01
       -2   -1    0    0    0  501  0.00000000000E+00  0.00000000000E+00  0.17517782473E+04  0.17517782474E+04  0.25500000920E-02 0. -1.
        2   -1    0    0  501    0  0.00000000000E+00  0.00000000000E+00 -0.21040091816E+04  0.21040091816E+04  0.25500000920E-02 0.  1.
    10030    2    1    2    0    0  0.00000000000E+00  0.00000000000E+00 -0.35223093427E+03  0.38557874290E+04  0.38396653586E+04 0.  0.
        1    1    3    3  502    0 -0.85853387057E+02  0.12181761464E+04 -0.16636975145E+04  0.20637861681E+04  0.50400001928E-02 0.  1.
       -1    1    3    3    0  502  0.85853387057E+02 -0.12181761464E+04  0.13114665803E+04  0.17920012609E+04  0.50400001928E-02 0. -1.
</event>
<event>
 5   0  0.4627905E-07  0.2738642E+04  0.7818609E-02  0.8322575E-01
        1   -1    0    0  501    0  0.00000000000E+00  0.00000000000E+00  0.12504124097E+04  0.12504124097E+04  0.50400001928E-02 0. -1.
       -1   -1    0    0    0  501  0.00000000000E+00  0.00000000000E+00 -0.14995370547E+04  0.14995370547E+04  0.50400001928E-02 0.  1.
    10030    2    1    2    0    0  0.00000000000E+00  0.00000000000E+00 -0.24912464504E+03  0.27499494645E+04  0.27386418109E+04 0.  0.
        1    1    3    3  502    0 -0.33225684928E+02 -0.13673496776E+04 -0.58788772384E+02  0.13690161455E+04  0.50400001928E-02 0.  1.
       -1    1    3    3    0  502  0.33225684928E+02  0.13673496776E+04 -0.19033587266E+03  0.13809333189E+04  0.50400001928E-02 0. -1.
</event>
<event>
 5   0  0.1015219E-06  0.2053421E+04  0.7818609E-02  0.8582044E-01
        2   -1    0    0  501    0  0.00000000000E+00  0.00000000000E+00  0.10124929793E+04  0.10124929793E+04  0.25500000920E-02 0.  1.
       -2   -1    0    0    0  501  0.00000000000E+00  0.00000000000E+00 -0.10411281505E+04  0.10411281505E+04  0.25500000920E-02 0. -1.
    10030    2    1    2    0    0  0.00000000000E+00  0.00000000000E+00 -0.28635171268E+02  0.20536211298E+04  0.20534214793E+04 0.  0.
        3    1    3    3  502    0 -0.10171166648E+04 -0.11670748514E+03  0.63072015199E+02  0.10257314640E+04  0.10100000352E+00 0. -1.
       -3    1    3    3    0  502  0.10171166648E+04  0.11670748514E+03 -0.91707186467E+02  0.10278896658E+04  0.10100000352E+00 0.  1.
</event>
<event>
 5   0  0.1035864E-06  0.3988039E+04  0.7818609E-02  0.8006964E-01
        2   -1    0    0  501    0  0.00000000000E+00  0.00000000000E+00  0.12830207707E+04  0.12830207707E+04  0.25500000920E-02 0.  1.
       -2   -1    0    0    0  501  0.00000000000E+00  0.00000000000E+00 -0.30990257595E+04  0.30990257595E+04  0.25500000920E-02 0. -1.
    10030    2    1    2    0    0  0.00000000000E+00  0.00000000000E+00 -0.18160049888E+04  0.43820465301E+04  0.39880393269E+04 0.  0.
        5    1    3    3  502    0 -0.11557399017E+04  0.31372627632E+03  0.84385848327E+03  0.14650181318E+04  0.46999998093E+01 0.  1.
       -5    1    3    3    0  502  0.11557399017E+04 -0.31372627632E+03 -0.26598634720E+04  0.29170283983E+04  0.46999998093E+01 0. -1.
</event>
<event>
 5   0  0.5533705E-07  0.3883728E+04  0.7818609E-02  0.8028422E-01
       -2   -1    0    0    0  501  0.00000000000E+00  0.00000000000E+00  0.17544124883E+04  0.17544124883E+04  0.25500000920E-02 0. -1.
        2   -1    0    0  501    0  0.00000000000E+00  0.00000000000E+00 -0.21493435963E+04  0.21493435963E+04  0.25500000920E-02 0.  1.
    10030    2    1    2    0    0  0.00000000000E+00  0.00000000000E+00 -0.39493110800E+03  0.39037560847E+04  0.38837277181E+04 0.  0.
        1    1    3    3  502    0  0.18719402341E+04 -0.35801154920E+03 -0.57154433880E+03  0.19897224531E+04  0.50400001928E-02 0.  1.
       -1    1    3    3    0  502 -0.18719402341E+04  0.35801154920E+03  0.17661323080E+03  0.19140336315E+04  0.50400001928E-02 0. -1.
</event>
<event>
 5   0  0.1034683E-06  0.2511788E+04  0.7818609E-02  0.8398798E-01
       -2   -1    0    0    0  501  0.00000000000E+00  0.00000000000E+00  0.53587473747E+03  0.53587473748E+03  0.25500000920E-02 0.  1.
        2   -1    0    0  501    0  0.00000000000E+00  0.00000000000E+00 -0.29433564246E+04  0.29433564246E+04  0.25500000920E-02 0. -1.
    10030    2    1    2    0    0  0.00000000000E+00  0.00000000000E+00 -0.24074816871E+04  0.34792311621E+04  0.25117884874E+04 0.  0.
        2    1    3    3  502    0  0.77795023174E+02  0.44068110450E+03 -0.28291776829E+04  0.28643495358E+04  0.25500000920E-02 0. -1.
       -2    1    3    3    0  502 -0.77795023174E+02 -0.44068110450E+03  0.42169599580E+03  0.61488162631E+03  0.25500000920E-02 0.  1.
</event>
<event>
 5   0  0.1035864E-06  0.2600384E+04  0.7818609E-02  0.8368071E-01
        2   -1    0    0  501    0  0.00000000000E+00  0.00000000000E+00  0.27666416039E+04  0.27666416039E+04  0.25500000920E-02 0. -1.
       -2   -1    0    0    0  501  0.00000000000E+00  0.00000000000E+00 -0.61102953567E+03  0.61102953567E+03  0.25500000920E-02 0.  1.
    10030    2    1    2    0    0  0.00000000000E+00  0.00000000000E+00  0.21556120683E+04  0.33776711396E+04  0.26003843828E+04 0.  0.
        5    1    3    3  502    0 -0.11901572431E+04 -0.17513842146E+03  0.17185397329E+04  0.20977484676E+04  0.46999998093E+01 0.  1.
       -5    1    3    3    0  502  0.11901572431E+04  0.17513842146E+03  0.43707233539E+03  0.12799226720E+04  0.46999998093E+01 0. -1.
</event>
<event>
 5   0  0.1015219E-06  0.3802012E+04  0.7818609E-02  0.8045723E-01
        2   -1    0    0  501    0  0.00000000000E+00  0.00000000000E+00  0.24108299467E+04  0.24108299467E+04  0.25500000920E-02 0. -1.
       -2   -1    0    0    0  501  0.00000000000E+00  0.00000000000E+00 -0.14989956472E+04  0.14989956472E+04  0.25500000920E-02 0.  1.
    10030    2    1    2    0    0  0.00000000000E+00  0.00000000000E+00  0.91183429952E+03  0.39098255940E+04  0.38020118866E+04 0.  0.
        3    1    3    3  502    0 -0.10583904348E+03  0.18978577990E+04  0.48421954005E+03  0.19615133702E+04  0.10100000352E+00 0. -1.
       -3    1    3    3    0  502  0.10583904348E+03 -0.18978577990E+04  0.42761475947E+03  0.19483122237E+04  0.10100000352E+00 0.  1.
</event>
<event>
 5   0  0.1015219E-06  0.2416067E+04  0.7818609E-02  0.8433513E-01
       -2   -1    0    0    0  501  0.00000000000E+00  0.00000000000E+00  0.76184428958E+03  0.76184428958E+03  0.25500000920E-02 0.  1.
        2   -1    0    0  501    0  0.00000000000E+00  0.00000000000E+00 -0.19155420398E+04  0.19155420398E+04  0.25500000920E-02 0. -1.
    10030    2    1    2    0    0  0.00000000000E+00  0.00000000000E+00 -0.11536977502E+04  0.26773863294E+04  0.24160668571E+04 0.  0.
        3    1    3    3  502    0  0.75984123285E+02  0.90814224282E+03 -0.14556188781E+04  0.17173590913E+04  0.10100000352E+00 0. -1.
       -3    1    3    3    0  502 -0.75984123285E+02 -0.90814224282E+03  0.30192112785E+03  0.96002723806E+03  0.10100000352E+00 0.  1.
</event>
<event>
 5   0  0.5533705E-07  0.3877464E+04  0.7818609E-02  0.8029733E-01
        2   -1    0    0  501    0  0.00000000000E+00  0.00000000000E+00  0.20160010395E+04  0.20160010395E+04  0.25500000920E-02 0.  1.
       -2   -1    0    0    0  501  0.00000000000E+00  0.00000000000E+00 -0.18644245799E+04  0.18644245799E+04  0.25500000920E-02 0. -1.
    10030    2    1    2    0    0  0.00000000000E+00  0.00000000000E+00  0.15157645962E+03  0.38804256194E+04  0.38774640636E+04 0.  0.
        1    1    3    3  502    0  0.92173868024E+03 -0.13492464160E+04  0.11199517123E+04  0.19809997283E+04  0.50400001928E-02 0.  1.
       -1    1    3    3    0  502 -0.92173868024E+03  0.13492464160E+04 -0.96837525268E+03  0.18994258911E+04  0.50400001928E-02 0. -1.
</event>
<event>
 5   0  0.7268013E-07  0.2042373E+04  0.7818609E-02  0.8587062E-01
       -2   -1    0    0    0  501  0.00000000000E+00  0.00000000000E+00  0.58622023443E+03  0.58622023444E+03  0.25500000920E-02 0. -1.
        2   -1    0    0  501    0  0.00000000000E+00  0.00000000000E+00 -0.17788909025E+04  0.17788909025E+04  0.25500000920E-02 0.  1.
    10030    2    1    2    0    0  0.00000000000E+00  0.00000000000E+00 -0.11926706681E+04  0.23651111369E+04  0.20423729747E+04 0.  0.
        4    1    3    3  502    0 -0.41670839006E+03  0.39795456033E+03  0.37998469246E+03  0.69022003292E+03  0.12699999809E+01 0. -1.
       -4    1    3    3    0  502  0.41670839006E+03 -0.39795456033E+03 -0.15726553605E+04  0.16748911040E+04  0.12699999809E+01 0.  1.
</event>
<event>
 5   0  0.3471602E-07  0.3848387E+04  0.7818609E-02  0.8035850E-01
        1   -1    0    0  501    0  0.00000000000E+00  0.00000000000E+00  0.26336537476E+04  0.26336537476E+04  0.50400001928E-02 0.  1.
       -1   -1    0    0    0  501  0.00000000000E+00  0.00000000000E+00 -0.14058497064E+04  0.14058497064E+04  0.50400001928E-02 0. -1.
    10030    2    1    2    0    0  0.00000000000E+00  0.00000000000E+00  0.12278040413E+04  0.40395034540E+04  0.38483873754E+04 0.  0.
        5    1    3    3  502    0  0.28808027710E+03  0.13124201856E+04  0.20596413502E+04  0.24591831105E+04  0.46999998093E+01 0.  1.
       -5    1    3    3    0  502 -0.28808027710E+03 -0.13124201856E+04 -0.83183730894E+03  0.15803203435E+04  0.46999998093E+01 0. -1.
</event>
<event>
 5   0  0.4627905E-07  0.2489555E+04  0.7818609E-02  0.8406716E-01
        1   -1    0    0  501    0  0.00000000000E+00  0.00000000000E+00  0.18641237561E+04  0.18641237561E+04  0.50400001928E-02 0. -1.
       -1   -1    0    0    0  501  0.00000000000E+00  0.00000000000E+00 -0.83120581832E+03  0.83120581834E+03  0.50400001928E-02 0.  1.
    10030    2    1    2    0    0  0.00000000000E+00  0.00000000000E+00  0.10329179378E+04  0.26953295744E+04  0.24895545884E+04 0.  0.
        1    1    3    3  502    0 -0.95545429308E+03  0.61670544745E+03 -0.31595662916E+02  0.11376364978E+04  0.50400001928E-02 0.  1.
       -1    1    3    3    0  502  0.95545429308E+03 -0.61670544745E+03  0.10645136007E+04  0.15576930767E+04  0.50400001928E-02 0. -1.
</event>
<event>
 5   0  0.1034683E-06  0.3895146E+04  0.7818609E-02  0.8026039E-01
        2   -1    0    0  501    0  0.00000000000E+00  0.00000000000E+00  0.11847757588E+04  0.11847757588E+04  0.25500000920E-02 0.  1.
       -2   -1    0    0    0  501  0.00000000000E+00  0.00000000000E+00 -0.32014843515E+04  0.32014843515E+04  0.25500000920E-02 0. -1.
    10030    2    1    2    0    0  0.00000000000E+00  0.00000000000E+00 -0.20167085927E+04  0.43862601103E+04  0.38951462370E+04 0.  0.
        2    1    3    3  502    0  0.18887328183E+04 -0.38752081994E+03 -0.13178880312E+04  0.23354470466E+04  0.25500000920E-02 0. -1.
       -2    1    3    3    0  502 -0.18887328183E+04  0.38752081994E+03 -0.69882056156E+03  0.20508130637E+04  0.25500000920E-02 0.  1.
</event>
<event>
 5   0  0.1035864E-06  0.3789943E+04  0.7818609E-02  0.8048317E-01
       -2   -1    0    0    0  501  0.00000000000E+00  0.00000000000E+00  0.17328828319E+04  0.17328828319E+04  0.25500000920E-02 0. -1.
        2   -1    0    0  501    0  0.00000000000E+00  0.00000000000E+00 -0.20722212883E+04  0.20722212883E+04  0.25500000920E-02 0.  1.
    10030    2    1    2    0    0  0.00000000000E+00  0.00000000000E+00 -0.33933845643E+03  0.38051041202E+04  0.37899428463E+04 0.  0.
        5    1    3    3  502    0  0.15092331488E+04 -0.96180729964E+03  0.45574858087E+03  0.18467774197E+04  0.46999998093E+01 0. -1.
       -5    1    3    3    0  502 -0.15092331488E+04  0.96180729964E+03 -0.79508703730E+03  0.19583267005E+04  0.46999998093E+01 0.  1.
</event>
<event>
 5   0  0.5533705E-07  0.2750839E+04  0.7818609E-02  0.8318696E-01
       -2   -1    0    0    0  501  0.00000000000E+00  0.00000000000E+00  0.14531495210E+04  0.14531495210E+04  0.25500000920E-02 0. -1.
        2   -1    0    0  501    0  0.00000000000E+00  0.00000000000E+00 -0.13018468571E+04  0.13018468571E+04  0.25500000920E-02 0.  1.
    10030    2    1    2    0    0  0.00000000000E+00  0.00000000000E+00  0.15130266386E+03  0.27549963781E+04  0.27508385171E+04 0.  0.
        1    1    3    3  502    0 -0.13230889631E+03  0.12278812474E+04 -0.53072242724E+03  0.13441965246E+04  0.50400001928E-02 0.  1.
       -1    1    3    3    0  502  0.13230889631E+03 -0.12278812474E+04  0.68202509109E+03  0.14107998535E+04  0.50400001928E-02 0. -1.
</event>
<event>
 5   0  0.1015219E-06  0.3980001E+04  0.7818609E-02  0.8008593E-01
        2   -1    0    0  501    0  0.00000000000E+00  0.00000000000E+00  0.18501130120E+04  0.18501130120E+04  0.25500000920E-02 0.  1.
       -2   -1    0    0    0  501  0.00000000000E+00  0.00000000000E+00 -0.21404653707E+04  0.21404653707E+04  0.25500000920E-02 0. -1.
    10030    2    1    2    0    0  0.00000000000E+00  0.00000000000E+00 -0.29035235869E+03  0.39905783827E+04  0.39800014241E+04 0.  0.
        3    1    3    3  502    0 -0.19148866136E+03 -0.18499930685E+04  0.56449045555E+03  0.19436542248E+04  0.10100000352E+00 0.  1.
       -3    1    3    3    0  502  0.19148866136E+03  0.18499930685E+04 -0.85484281424E+03  0.20469241579E+04  0.10100000352E+00 0. -1.
</event>
<event>
 5   0  0.3471602E-07  0.2036960E+04  0.7818609E-02  0.8589533E-01
       -1   -1    0    0    0  501  0.00000000000E+00  0.00000000000E+00  0.53371961484E+03  0.53371961486E+03  0.50400001928E-02 0.  1.
        1   -1    0    0  501    0  0.00000000000E+00  0.00000000000E+00 -0.19435324335E+04  0.19435324335E+04  0.50400001928E-02 0. -1.
    10030    2    1    2    0    0  0.00000000000E+00  0.00000000000E+00 -0.14098128187E+04  0.24772520484E+04  0.20369598738E+04 0.  0.
        5    1    3    3  502    0  0.88490538940E+03 -0.47085549032E+02 -0.94397455033E+02  0.89118323965E+03  0.46999998093E+01 0.  1.
       -5    1    3    3    0  502 -0.88490538940E+03  0.47085549032E+02 -0.13154153636E+04  0.15860688087E+04  0.46999998093E+01 0. -1.
</event>
<event>
 5   0  0.3471602E-07  0.3303729E+04  0.7818609E-02  0.8161947E-01
        1   -1    0    0  501    0  0.00000000000E+00  0.00000000000E+00  0.11243170686E+04  0.11243170686E+04  0.50400001928E-02 0.  1.
       -1   -1    0    0    0  501  0.00000000000E+00  0.00000000000E+00 -0.24269462062E+04  0.24269462062E+04  0.50400001928E-02 0. -1.
    10030    2    1    2    0    0  0.00000000000E+00  0.00000000000E+00 -0.13026291376E+04  0.35512632748E+04  0.33037294345E+04 0.  0.
        5    1    3    3  502    0  0.12633457823E+04  0.10102049717E+04 -0.29144993124E+03  0.16436306771E+04  0.46999998093E+01 0.  1.
       -5    1    3    3    0  502 -0.12633457823E+04 -0.10102049717E+04 -0.10111792064E+04  0.19076325977E+04  0.46999998093E+01 0. -1.
</event>
<event>
 5   0  0.5533705E-07  0.3922163E+04  0.7818609E-02  0.8020435E-01
       -2   -1    0    0    0  501  0.00000000000E+00  0.00000000000E+00  0.15314036654E+04  0.15314036654E+04  0.25500000920E-02 0.  1.
        2   -1    0    0  501    0  0.00000000000E+00  0.00000000000E+00 -0.25113175484E+04  0.25113175484E+04  0.25500000920E-02 0. -1.
    10030    2    1    2    0    0  0.00000000000E+00  0.00000000000E+00 -0.97991388301E+03  0.40427212137E+04  0.39221631269E+04 0.  0.
        1    1    3    3  502    0  0.84798880476E+03 -0.64118177711E+03 -0.21885305989E+04  0.24330773244E+04  0.50400001928E-02 0. -1.
       -1    1    3    3    0  502 -0.84798880476E+03  0.64118177711E+03  0.12086167159E+04  0.16096438893E+04  0.50400001928E-02 0.  1.
</event>
<event>
 5   0  0.7268013E-07  0.2415874E+04  0.7818609E-02  0.8433584E-01
       -2   -1    0    0    0  501  0.00000000000E+00  0.00000000000E+00  0.13319364302E+04  0.13319364302E+04  0.25500000920E-02 0. -1.
        2   -1    0    0  501    0  0.00000000000E+00  0.00000000000E+00 -0.10954817142E+04  0.10954817142E+04  0.25500000920E-02 0.  1.
    10030    2    1    2    0    0  0.00000000000E+00  0.00000000000E+00  0.23645471597E+03  0.24274181444E+04  0.24158741720E+04 0.  0.
        4    1    3    3  502    0  0.63454684578E+03  0.34598565996E+03 -0.85425829653E+03  0.11189792788E+04  0.12699999809E+01 0.  1.
       -4    1    3    3    0  502 -0.63454684578E+03 -0.34598565996E+03  0.10907130125E+04  0.13084388656E+04  0.12699999809E+01 0. -1.
</event>
<event>
 5   0  0.1035864E-06  0.3930328E+04  0.7818609E-02  0.8018751E-01
        2   -1    0    0  501    0  0.00000000000E+00  0.00000000000E+00  0.25788730206E+04  0.25788730206E+04  0.25500000920E-02 0. -1.
       -2   -1    0    0    0  501  0.00000000000E+00  0.00000000000E+00 -0.14975024933E+04  0.14975024933E+04  0.25500000920E-02 0.  1.
    10030    2    1    2    0    0  0.00000000000E+00  0.00000000000E+00  0.10813705273E+04  0.40763755138E+04  0.39303276088E+04 0.  0.
        5    1    3    3  502    0 -0.14497943129E+04  0.13343506929E+03 -0.82826205834E+03  0.16750368935E+04  0.46999998093E+01 0.  1.
       -5    1    3    3    0  502  0.14497943129E+04 -0.13343506929E+03  0.19096325856E+04  0.24013386203E+04  0.46999998093E+01 0. -1.
</event>
<event>
 5   0  0.4316671E-07  0.3947025E+04  0.7818609E-02  0.8015319E-01
        1   -1    0    0  501    0  0.00000000000E+00  0.00000000000E+00  0.14588413071E+04  0.14588413071E+04  0.50400001928E-02 0.  1.
       -1   -1    0    0    0  501  0.00000000000E+00  0.00000000000E+00 -0.26697563941E+04  0.26697563941E+04  0.50400001928E-02 0. -1.
    10030    2    1    2    0    0  0.00000000000E+00  0.00000000000E+00 -0.12109150869E+04  0.41285977012E+04  0.39470246555E+04 0.  0.
        2    1    3    3  502    0  0.45640440581E+03 -0.17915834716E+04  0.11671958166E+03  0.18524847579E+04  0.25500000920E-02 0.  1.
       -2    1    3    3    0  502 -0.45640440581E+03  0.17915834716E+04 -0.13276346686E+04  0.22761129433E+04  0.25500000920E-02 0. -1.
</event>
<event>
 5   0  0.5533705E-07  0.3974850E+04  0.7818609E-02  0.8009639E-01
       -2   -1    0    0    0  501  0.00000000000E+00  0.00000000000E+00  0.18523378691E+04  0.18523378691E+04  0.25500000920E-02 0. -1.
        2   -1    0    0  501    0  0.00000000000E+00  0.00000000000E+00 -0.21323635121E+04  0.21323635121E+04  0.25500000920E-02 0.  1.
    10030    2    1    2    0    0  0.00000000000E+00  0.00000000000E+00 -0.28002564301E+03  0.39847013812E+04  0.39748497753E+04 0.  0.
        1    1    3    3  502    0  0.14752164459E+04  0.23831300719E+03  0.11735021993E+04  0.19000431741E+04  0.50400001928E-02 0. -1.
       -1    1    3    3    0  502 -0.14752164459E+04 -0.23831300719E+03 -0.14535278423E+04  0.20846582070E+04  0.50400001928E-02 0.  1.
</event>
<event>
 5   0  0.3977376E-07  0.4137446E+04  0.7818609E-02  0.7977379E-01
        1   -1    0    0  501    0  0.00000000000E+00  0.00000000000E+00  0.16439068307E+04  0.16439068307E+04  0.50400001928E-02 0. -1.
       -1   -1    0    0    0  501  0.00000000000E+00  0.00000000000E+00 -0.26033190252E+04  0.26033190252E+04  0.50400001928E-02 0.  1.
    10030    2    1    2    0    0  0.00000000000E+00  0.00000000000E+00 -0.95941219446E+03  0.42472258559E+04  0.41374455540E+04 0.  0.
        4    1    3    3  502    0 -0.15767971172E+03 -0.75717095652E+03  0.14899119736E+04  0.16786929591E+04  0.12699999809E+01 0. -1.
       -4    1    3    3    0  502  0.15767971172E+03  0.75717095652E+03 -0.24493241681E+04  0.25685328968E+04  0.12699999809E+01 0.  1.
</event>
<event>
 5   0  0.1015219E-06  0.3710616E+04  0.7818609E-02  0.8065613E-01
        2   -1    0    0  501    0  0.00000000000E+00  0.00000000000E+00  0.24940712333E+04  0.24940712333E+04  0.25500000920E-02 0.  1.
       -2   -1    0    0    0  501  0.00000000000E+00  0.00000000000E+00 -0.13801400192E+04  0.13801400192E+04  0.25500000920E-02 0. -1.
    10030    2    1    2    0    0  0.00000000000E+00  0.00000000000E+00  0.11139312141E+04  0.38742112526E+04  0.37106158626E+04 0.  0.
        3    1    3    3  502    0  0.84689945344E+03 -0.16457590173E+04  0.42323224952E+03  0.18986539902E+04  0.10100000352E+00 0. -1.
       -3    1    3    3    0  502 -0.84689945344E+03  0.16457590173E+04  0.69069896455E+03  0.19755572624E+04  0.10100000352E+00 0.  1.
</event>
<event>
 5   0  0.1035864E-06  0.3875942E+04  0.7818609E-02  0.8030051E-01
        2   -1    0    0  501    0  0.00000000000E+00  0.00000000000E+00  0.16240143373E+04  0.16240143373E+04  0.25500000920E-02 0.  1.
       -2   -1    0    0    0  501  0.00000000000E+00  0.00000000000E+00 -0.23126225312E+04  0.23126225312E+04  0.25500000920E-02 0. -1.
    10030    2    1    2    0    0  0.00000000000E+00  0.00000000000E+00 -0.68860819388E+03  0.39366368685E+04  0.38759422842E+04 0.  0.
        5    1    3    3  502    0 -0.10253851735E+04 -0.13465008035E+04  0.61452933733E+03  0.18005964468E+04  0.46999998093E+01 0.  1.
       -5    1    3    3    0  502  0.10253851735E+04  0.13465008035E+04 -0.13031375312E+04  0.21360404217E+04  0.46999998093E+01 0. -1.
</event>
<event>
 5   0  0.5533705E-07  0.4036973E+04  0.7818609E-02  0.7997129E-01
        2   -1    0    0  501    0  0.00000000000E+00  0.00000000000E+00  0.18918452953E+04  0.18918452953E+04  0.25500000920E-02 0.  1.
       -2   -1    0    0    0  501  0.00000000000E+00  0.00000000000E+00 -0.21536049040E+04  0.21536049040E+04  0.25500000920E-02 0. -1.
    10030    2    1    2    0    0  0.00000000000E+00  0.00000000000E+00 -0.26175960874E+03  0.40454501993E+04  0.40369727795E+04 0.  0.
        1    1    3    3  502    0  0.11644852726E+04 -0.11650746691E+04 -0.12998895748E+04  0.20983655167E+04  0.50400001928E-02 0. -1.
       -1    1    3    3    0  502 -0.11644852726E+04  0.11650746691E+04  0.10381299661E+04  0.19470846826E+04  0.50400001928E-02 0.  1.
</event>
<event>
 5   0  0.1034683E-06  0.3762241E+04  0.7818609E-02  0.8054307E-01
       -2   -1    0    0    0  501  0.00000000000E+00  0.00000000000E+00  0.16440909521E+04  0.16440909521E+04  0.25500000920E-02 0.  1.
        2   -1    0    0  501    0  0.00000000000E+00  0.00000000000E+00 -0.21523230514E+04  0.21523230514E+04  0.25500000920E-02 0. -1.
    10030    2    1    2    0    0  0.00000000000E+00  0.00000000000E+00 -0.50823209936E+03  0.37964140035E+04  0.37622412761E+04 0.  0.
        2    1    3    3  502    0 -0.63822183919E+03 -0.12180138671E+04  0.10411826866E+04  0.17248032593E+04  0.25500000920E-02 0. -1.
       -2    1    3    3    0  502  0.63822183919E+03  0.12180138671E+04 -0.15494147860E+04  0.20716107442E+04  0.25500000920E-02 0.  1.
</event>
<event>
 5   0  0.4316671E-07  0.3541322E+04  0.7818609E-02  0.8104066E-01
        1   -1    0    0  501    0  0.00000000000E+00  0.00000000000E+00  0.20509312311E+04  0.20509312311E+04  0.50400001928E-02 0. -1.
       -1   -1    0    0    0  501  0.00000000000E+00  0.00000000000E+00 -0.15286909297E+04  0.15286909298E+04  0.50400001928E-02 0.  1.
    10030    2    1    2    0    0  0.00000000000E+00  0.00000000000E+00  0.52224030134E+03  0.35796221608E+04  0.35413217705E+04 0.  0.
        2    1    3    3  502    0 -0.11536353194E+04 -0.21466320431E+03 -0.10792244297E+04  0.15942647557E+04  0.25500000920E-02 0.  1.
       -2    1    3    3    0  502  0.11536353194E+04  0.21466320431E+03  0.16014647310E+04  0.19853574052E+04  0.25500000920E-02 0. -1.
</event>
<event>
 5   0  0.7268013E-07  0.3911614E+04  0.7818609E-02  0.8022618E-01
       -2   -1    0    0    0  501  0.00000000000E+00  0.00000000000E+00  0.16238810535E+04  0.16238810535E+04  0.25500000920E-02 0.  1.
        2   -1    0    0  501    0  0.00000000000E+00  0.00000000000E+00 -0.23555798610E+04  0.23555798610E+04  0.25500000920E-02 0. -1.
    10030    2    1    2    0    0  0.00000000000E+00  0.00000000000E+00 -0.73169880745E+03  0.39794609145E+04  0.39116142480E+04 0.  0.
        4    1    3    3  502    0 -0.12162534370E+04  0.14548335564E+04 -0.85307881458E+03  0.20793167572E+04  0.12699999809E+01 0. -1.
       -4    1    3    3    0  502  0.12162534370E+04 -0.14548335564E+04  0.12138000713E+03  0.19001441574E+04  0.12699999809E+01 0.  1.
</event>
<event>
 5   0  0.1015219E-06  0.3817129E+04  0.7818609E-02  0.8042489E-01
       -2   -1    0    0    0  501  0.00000000000E+00  0.00000000000E+00  0.17773772110E+04  0.17773772110E+04  0.25500000920E-02 0.  1.
        2   -1    0    0  501    0  0.00000000000E+00  0.00000000000E+00 -0.20494350128E+04  0.20494350128E+04  0.25500000920E-02 0. -1.
    10030    2    1    2    0    0  0.00000000000E+00  0.00000000000E+00 -0.27205780176E+03  0.38268122239E+04  0.38171293336E+04 0.  0.
        3    1    3    3  502    0 -0.69660374771E+03  0.14516264187E+04  0.89133548317E+03  0.18403681682E+04  0.10100000352E+00 0.  1.
       -3    1    3    3    0  502  0.69660374771E+03 -0.14516264187E+04 -0.11633932849E+04  0.19864440557E+04  0.10100000352E+00 0. -1.
</event>
<event>
 5   0  0.3977376E-07  0.3971361E+04  0.7818609E-02  0.8010349E-01
        1   -1    0    0  501    0  0.00000000000E+00  0.00000000000E+00  0.25614513004E+04  0.25614513004E+04  0.50400001928E-02 0. -1.
       -1   -1    0    0    0  501  0.00000000000E+00  0.00000000000E+00 -0.15393335256E+04  0.15393335256E+04  0.50400001928E-02 0.  1.
    10030    2    1    2    0    0  0.00000000000E+00  0.00000000000E+00  0.10221177748E+04  0.41007848261E+04  0.39713614094E+04 0.  0.
        4    1    3    3  502    0 -0.17574581604E+04  0.40901020063E+03  0.13669113332E+04  0.22637130418E+04  0.12699999809E+01 0. -1.
       -4    1    3    3    0  502  0.17574581604E+04 -0.40901020063E+03 -0.34479355841E+03  0.18370717843E+04  0.12699999809E+01 0.  1.
</event>
<event>
 5   0  0.7268013E-07  0.3922262E+04  0.7818609E-02  0.8020415E-01
        2   -1    0    0  501    0  0.00000000000E+00  0.00000000000E+00  0.26884685606E+04  0.26884685607E+04  0.25500000920E-02 0.  1.
       -2   -1    0    0    0  501  0.00000000000E+00  0.00000000000E+00 -0.14305669629E+04  0.14305669629E+04  0.25500000920E-02 0. -1.
    10030    2    1    2    0    0  0.00000000000E+00  0.00000000000E+00  0.12579015978E+04  0.41190355236E+04  0.39222617473E+04 0.  0.
        4    1    3    3  502    0 -0.14706010695E+04 -0.84990529064E+03 -0.40054973192E+03  0.17451212592E+04  0.12699999809E+01 0. -1.
       -4    1    3    3    0  502  0.14706010695E+04  0.84990529064E+03  0.16584513297E+04  0.23739142643E+04  0.12699999809E+01 0.  1.
</event>
<event>
 5   0  0.5385714E-07  0.3959838E+04  0.7818609E-02  0.8012698E-01
        1   -1    0    0  501    0  0.00000000000E+00  0.00000000000E+00  0.25563781162E+04  0.25563781162E+04  0.50400001928E-02 0.  1.
       -1   -1    0    0    0  501  0.00000000000E+00  0.00000000000E+00 -0.15334503682E+04  0.15334503682E+04  0.50400001928E-02 0. -1.
    10030    2    1    2    0    0  0.00000000000E+00  0.00000000000E+00  0.10229277480E+04  0.40898284844E+04  0.39598378571E+04 0.  0.
        3    1    3    3  502    0 -0.49260364786E+03  0.56789526170E+03 -0.13803068039E+04  0.15717538819E+04  0.10100000352E+00 0. -1.
       -3    1    3    3    0  502  0.49260364786E+03 -0.56789526170E+03  0.24032345519E+04  0.25180746025E+04  0.10100000352E+00 0.  1.
</event>
<event>
 5   0  0.1035864E-06  0.3928541E+04  0.7818609E-02  0.8019119E-01
        2   -1    0    0  501    0  0.00000000000E+00  0.00000000000E+00  0.17051126784E+04  0.17051126784E+04  0.25500000920E-02 0. -1.
       -2   -1    0    0    0  501  0.00000000000E+00  0.00000000000E+00 -0.22628179241E+04  0.22628179241E+04  0.25500000920E-02 0.  1.
    10030    2    1    2    0    0  0.00000000000E+00  0.00000000000E+00 -0.55770524572E+03  0.39679306025E+04  0.39285414756E+04 0.  0.
        5    1    3    3  502    0 -0.12338416899E+04  0.33106688752E+03 -0.17859145137E+04  0.21957876355E+04  0.46999998093E+01 0.  1.
       -5    1    3    3    0  502  0.12338416899E+04 -0.33106688752E+03  0.12282092680E+04  0.17721429671E+04  0.46999998093E+01 0. -1.
</event>
<event>
 5   0  0.1035864E-06  0.3847567E+04  0.7818609E-02  0.8036024E-01
        2   -1    0    0  501    0  0.00000000000E+00  0.00000000000E+00  0.31649118534E+04  0.31649118534E+04  0.25500000920E-02 0. -1.
       -2   -1    0    0    0  501  0.00000000000E+00  0.00000000000E+00 -0.11693665690E+04  0.11693665690E+04  0.25500000920E-02 0.  1.
    10030    2    1    2    0    0  0.00000000000E+00  0.00000000000E+00  0.19955452844E+04  0.43342784224E+04  0.38475665635E+04 0.  0.
        5    1    3    3  502    0 -0.16866204216E+03 -0.33530514417E+03  0.31232590024E+04  0.31457344628E+04  0.46999998093E+01 0. -1.
       -5    1    3    3    0  502  0.16866204216E+03  0.33530514417E+03 -0.11277137180E+04  0.11885439596E+04  0.46999998093E+01 0.  1.
</event>
<event>
 5   0  0.4627905E-07  0.3855310E+04  0.7818609E-02  0.8034389E-01
        1   -1    0    0  501    0  0.00000000000E+00  0.00000000000E+00  0.18028989303E+04  0.18028989303E+04  0.50400001928E-02 0. -1.
       -1   -1    0    0    0  501  0.00000000000E+00  0.00000000000E+00 -0.20610434785E+04  0.20610434785E+04  0.50400001928E-02 0.  1.
    10030    2    1    2    0    0  0.00000000000E+00  0.00000000000E+00 -0.25814454822E+03  0.38639424088E+04  0.38553096283E+04 0.  0.
        1    1    3    3  502    0 -0.52908861603E+02  0.99856728471E+03  0.15226219025E+04  0.18216238436E+04  0.50400001928E-02 0. -1.
       -1    1    3    3    0  502  0.52908861603E+02 -0.99856728471E+03 -0.17807664507E+04  0.20423185652E+04  0.50400001928E-02 0.  1.
</event>
<event>
 5   0  0.3471602E-07  0.3998186E+04  0.7818609E-02  0.8004913E-01
        1   -1    0    0  501    0  0.00000000000E+00  0.00000000000E+00  0.21086392189E+04  0.21086392189E+04  0.50400001928E-02 0. -1.
       -1   -1    0    0    0  501  0.00000000000E+00  0.00000000000E+00 -0.18952375836E+04  0.18952375836E+04  0.50400001928E-02 0.  1.
    10030    2    1    2    0    0  0.00000000000E+00  0.00000000000E+00  0.21340163522E+03  0.40038768025E+04  0.39981857375E+04 0.  0.
        5    1    3    3  502    0 -0.10473072255E+04 -0.16846454979E+02 -0.15984306745E+04  0.19110570214E+04  0.46999998093E+01 0.  1.
       -5    1    3    3    0  502  0.10473072255E+04  0.16846454979E+02  0.18118323097E+04  0.20928197811E+04  0.46999998093E+01 0. -1.
</event>
<event>
 5   0  0.1035864E-06  0.2137252E+04  0.7818609E-02  0.8545009E-01
        2   -1    0    0  501    0  0.00000000000E+00  0.00000000000E+00  0.13949948884E+04  0.13949948884E+04  0.25500000920E-02 0. -1.
       -2   -1    0    0    0  501  0.00000000000E+00  0.00000000000E+00 -0.81861312528E+03  0.81861312528E+03  0.25500000920E-02 0.  1.
    10030    2    1    2    0    0  0.00000000000E+00  0.00000000000E+00  0.57638176316E+03  0.22136080137E+04  0.21372516234E+04 0.  0.
        5    1    3    3  502    0  0.49936995207E+03 -0.46747154088E+03 -0.56213929181E+03  0.88539407269E+03  0.46999998093E+01 0.  1.
       -5    1    3    3    0  502 -0.49936995207E+03  0.46747154088E+03  0.11385210550E+04  0.13282139410E+04  0.46999998093E+01 0. -1.
</event>
<event>
 5   0  0.7268013E-07  0.3945701E+04  0.7818609E-02  0.8015591E-01
       -2   -1    0    0    0  501  0.00000000000E+00  0.00000000000E+00  0.16734095112E+04  0.16734095112E+04  0.25500000920E-02 0.  1.
        2   -1    0    0  501    0  0.00000000000E+00  0.00000000000E+00 -0.23258741088E+04  0.23258741088E+04  0.25500000920E-02 0. -1.
    10030    2    1    2    0    0  0.00000000000E+00  0.00000000000E+00 -0.65246459757E+03  0.39992836200E+04  0.39457013853E+04 0.  0.
        4    1    3    3  502    0 -0.36830130530E+02  0.16083961179E+04  0.83113380403E+03  0.18108228913E+04  0.12699999809E+01 0.  1.
       -4    1    3    3    0  502  0.36830130530E+02 -0.16083961179E+04 -0.14835984016E+04  0.21884607286E+04  0.12699999809E+01 0. -1.
</event>
<event>
 5   0  0.7268013E-07  0.3804543E+04  0.7818609E-02  0.8045181E-01
        2   -1    0    0  501    0  0.00000000000E+00  0.00000000000E+00  0.20272308855E+04  0.20272308855E+04  0.25500000920E-02 0.  1.
       -2   -1    0    0    0  501  0.00000000000E+00  0.00000000000E+00 -0.17850143900E+04  0.17850143900E+04  0.25500000920E-02 0. -1.
    10030    2    1    2    0    0  0.00000000000E+00  0.00000000000E+00  0.24221649553E+03  0.38122452755E+04  0.38045427071E+04 0.  0.
        4    1    3    3  502    0 -0.82066644864E+03 -0.11065059717E+04  0.14355513105E+04  0.19896376714E+04  0.12699999809E+01 0.  1.
       -4    1    3    3    0  502  0.82066644864E+03  0.11065059717E+04 -0.11933348150E+04  0.18226076042E+04  0.12699999809E+01 0. -1.
</event>
<event>
 5   0  0.7268013E-07  0.3824022E+04  0.7818609E-02  0.8041019E-01
        2   -1    0    0  501    0  0.00000000000E+00  0.00000000000E+00  0.14084411968E+04  0.14084411968E+04  0.25500000920E-02 0.  1.
       -2   -1    0    0    0  501  0.00000000000E+00  0.00000000000E+00 -0.25956261186E+04  0.25956261186E+04  0.25500000920E-02 0. -1.
    10030    2    1    2    0    0  0.00000000000E+00  0.00000000000E+00 -0.11871849218E+04  0.40040673155E+04  0.38240223624E+04 0.  0.
        4    1    3    3  502    0  0.50069250753E+03  0.95858457308E+03  0.10574173606E+04  0.15125179200E+04  0.12699999809E+01 0.  1.
       -4    1    3    3    0  502 -0.50069250753E+03 -0.95858457308E+03 -0.22446022824E+04  0.24915493955E+04  0.12699999809E+01 0. -1.
</event>
<event>
 5   0  0.4316671E-07  0.2272952E+04  0.7818609E-02  0.8488663E-01
       -1   -1    0    0    0  501  0.00000000000E+00  0.00000000000E+00  0.51100576415E+03  0.51100576418E+03  0.50400001928E-02 0. -1.
        1   -1    0    0  501    0  0.00000000000E+00  0.00000000000E+00 -0.25275199819E+04  0.25275199819E+04  0.50400001928E-02 0.  1.
    10030    2    1    2    0    0  0.00000000000E+00  0.00000000000E+00 -0.20165142177E+04  0.30385257460E+04  0.22729516315E+04 0.  0.
        2    1    3    3  502    0  0.80716677720E+03 -0.68065421614E+03 -0.15703080385E+04  0.18922673448E+04  0.25500000920E-02 0.  1.
       -2    1    3    3    0  502 -0.80716677720E+03  0.68065421614E+03 -0.44620617916E+03  0.11462584013E+04  0.25500000920E-02 0. -1.
</event>
<event>
 5   0  0.4316671E-07  0.3418269E+04  0.7818609E-02  0.8133437E-01
        1   -1    0    0  501    0  0.00000000000E+00  0.00000000000E+00  0.14368785351E+04  0.14368785351E+04  0.50400001928E-02 0.  1.
       -1   -1    0    0    0  501  0.00000000000E+00  0.00000000000E+00 -0.20329773325E+04  0.20329773325E+04  0.50400001928E-02 0. -1.
    10030    2    1    2    0    0  0.00000000000E+00  0.00000000000E+00 -0.59609879739E+03  0.34698558676E+04  0.34182694402E+04 0.  0.
        2    1    3    3  502    0  0.44151474565E+03  0.15577174295E+04 -0.85378076645E+03  0.18303989887E+04  0.25500000920E-02 0. -1.
       -2    1    3    3    0  502 -0.44151474565E+03 -0.15577174295E+04  0.25768196905E+03  0.16394568789E+04  0.25500000920E-02 0.  1.
</event>
<event>
 5   0  0.1015219E-06  0.3732062E+04  0.7818609E-02  0.8060893E-01
       -2   -1    0    0    0  501  0.00000000000E+00  0.00000000000E+00  0.18579531860E+04  0.18579531860E+04  0.25500000920E-02 0. -1.
        2   -1    0    0  501    0  0.00000000000E+00  0.00000000000E+00 -0.18741436886E+04  0.18741436886E+04  0.25500000920E-02 0.  1.
    10030    2    1    2    0    0  0.00000000000E+00  0.00000000000E+00 -0.16190502599E+02  0.37320968746E+04  0.37320617558E+04 0.  0.
        3    1    3    3  502    0  0.40101514331E+03  0.37712507648E+03  0.17749063159E+04  0.18583134582E+04  0.10100000352E+00 0. -1.
       -3    1    3    3    0  502 -0.40101514331E+03 -0.37712507648E+03 -0.17910968185E+04  0.18737834165E+04  0.10100000352E+00 0.  1.
</event>
<event>
 5   0  0.3471602E-07  0.2516987E+04  0.7818609E-02  0.8396959E-01
       -1   -1    0    0    0  501  0.00000000000E+00  0.00000000000E+00  0.10561150072E+04  0.10561150072E+04  0.50400001928E-02 0.  1.
        1   -1    0    0  501    0  0.00000000000E+00  0.00000000000E+00 -0.14996527947E+04  0.14996527947E+04  0.50400001928E-02 0. -1.
    10030    2    1    2    0    0  0.00000000000E+00  0.00000000000E+00 -0.44353778755E+03  0.25557678019E+04  0.25169869464E+04 0.  0.
        5    1    3    3  502    0  0.85703429896E+03  0.88936354734E+03 -0.46696077154E+03  0.13204354437E+04  0.46999998093E+01 0. -1.
       -5    1    3    3    0  502 -0.85703429896E+03 -0.88936354734E+03  0.23422983988E+02  0.12353323582E+04  0.46999998093E+01 0.  1.
</event>
<event>
 5   0  0.3191750E-07  0.2629510E+04  0.7818609E-02  0.8358246E-01
        3   -1    0    0  501    0  0.00000000000E+00  0.00000000000E+00  0.12927387752E+04  0.12927387792E+04  0.10100000352E+00 0.  1.
       -3   -1    0    0    0  501  0.00000000000E+00  0.00000000000E+00 -0.13371457119E+04  0.13371457157E+04  0.10100000352E+00 0. -1.
    10030    2    1    2    0    0  0.00000000000E+00  0.00000000000E+00 -0.44406936628E+02  0.26298844949E+04  0.26295095513E+04 0.  0.
        1    1    3    3  502    0  0.83508339989E+03 -0.69064721317E+03 -0.76677067641E+03  0.13275146433E+04  0.50400001928E-02 0. -1.
       -1    1    3    3    0  502 -0.83508339989E+03  0.69064721317E+03  0.72236373978E+03  0.13023698516E+04  0.50400001928E-02 0.  1.
</event>
<event>
 5   0  0.1034683E-06  0.3802402E+04  0.7818609E-02  0.8045640E-01
       -2   -1    0    0    0  501  0.00000000000E+00  0.00000000000E+00  0.16727520782E+04  0.16727520782E+04  0.25500000920E-02 0. -1.
        2   -1    0    0  501    0  0.00000000000E+00  0.00000000000E+00 -0.21608498598E+04  0.21608498598E+04  0.25500000920E-02 0.  1.
    10030    2    1    2    0    0  0.00000000000E+00  0.00000000000E+00 -0.48809778162E+03  0.38336019379E+04  0.38024024477E+04 0.  0.
        2    1    3    3  502    0  0.11023944323E+04 -0.22916214804E+03  0.13004403106E+04  0.17201551604E+04  0.25500000920E-02 0. -1.
       -2    1    3    3    0  502 -0.11023944323E+04  0.22916214804E+03 -0.17885380922E+04  0.21134467776E+04  0.25500000920E-02 0.  1.
</event>
<event>
 5   0  0.5385714E-07  0.2567849E+04  0.7818609E-02  0.8379205E-01
        1   -1    0    0  501    0  0.00000000000E+00  0.00000000000E+00  0.20001944994E+04  0.20001944994E+04  0.50400001928E-02 0.  1.
       -1   -1    0    0    0  501  0.00000000000E+00  0.00000000000E+00 -0.82415100278E+03  0.82415100280E+03  0.50400001928E-02 0. -1.
    10030    2    1    2    0    0  0.00000000000E+00  0.00000000000E+00  0.11760434966E+04  0.28243455022E+04  0.25678491408E+04 0.  0.
        3    1    3    3  502    0  0.42365519199E+03 -0.19268602058E+03  0.19041468748E+04  0.19602007436E+04  0.10100000352E+00 0.  1.
       -3    1    3    3    0  502 -0.42365519199E+03  0.19268602058E+03 -0.72810337820E+03  0.86414475858E+03  0.10100000352E+00 0. -1.
</event>
<event>
 5   0  0.5533705E-07  0.3896669E+04  0.7818609E-02  0.8025722E-01
       -2   -1    0    0    0  501  0.00000000000E+00  0.00000000000E+00  0.23034508157E+04  0.23034508157E+04  0.25500000920E-02 0. -1.
        2   -1    0    0  501    0  0.00000000000E+00  0.00000000000E+00 -0.16479651252E+04  0.16479651252E+04  0.25500000920E-02 0.  1.
    10030    2    1    2    0    0  0.00000000000E+00  0.00000000000E+00  0.65548569050E+03  0.39514159409E+04  0.38966686345E+04 0.  0.
        1    1    3    3  502    0  0.94641447118E+03  0.11230486300E+04  0.16259911442E+04  0.21910695510E+04  0.50400001928E-02 0. -1.
       -1    1    3    3    0  502 -0.94641447118E+03 -0.11230486300E+04 -0.97050545365E+03  0.17603463898E+04  0.50400001928E-02 0.  1.
</event>
<event>
 5   0  0.7268013E-07  0.3698826E+04  0.7818609E-02  0.8068222E-01
       -2   -1    0    0    0  501  0.00000000000E+00  0.00000000000E+00  0.30405338527E+04  0.30405338527E+04  0.25500000920E-02 0. -1.
        2   -1    0    0  501    0  0.00000000000E+00  0.00000000000E+00 -0.11249103014E+04  0.11249103014E+04  0.25500000920E-02 0.  1.
    10030    2    1    2    0    0  0.00000000000E+00  0.00000000000E+00  0.19156235513E+04  0.41654441542E+04  0.36988256800E+04 0.  0.
        4    1    3    3  502    0  0.53360172414E+03  0.69303721037E+03 -0.87726327183E+03  0.12387993526E+04  0.12699999809E+01 0.  1.
       -4    1    3    3    0  502 -0.53360172414E+03 -0.69303721037E+03  0.27928868231E+04  0.29266448016E+04  0.12699999809E+01 0. -1.
</event>
<event>
 5   0  0.7268013E-07  0.3714781E+04  0.7818609E-02  0.8064694E-01
        2   -1    0    0  501    0  0.00000000000E+00  0.00000000000E+00  0.20713953095E+04  0.20713953095E+04  0.25500000920E-02 0.  1.
       -2   -1    0    0    0  501  0.00000000000E+00  0.00000000000E+00 -0.16654956710E+04  0.16654956710E+04  0.25500000920E-02 0. -1.
    10030    2    1    2    0    0  0.00000000000E+00  0.00000000000E+00  0.40589963857E+03  0.37368909805E+04  0.37147812430E+04 0.  0.
        4    1    3    3  502    0 -0.12299064668E+04 -0.11829811950E+04 -0.53475237517E+03  0.17883165660E+04  0.12699999809E+01 0. -1.
       -4    1    3    3    0  502  0.12299064668E+04  0.11829811950E+04  0.94065201374E+03  0.19485744144E+04  0.12699999809E+01 0.  1.
</event>
<event>
 5   0  0.3191750E-07  0.2319411E+04  0.7818609E-02  0.8470307E-01
       -4   -1    0    0    0  501  0.00000000000E+00  0.00000000000E+00  0.15130063755E+04  0.15130069085E+04  0.12699999809E+01 0.  1.
        4   -1    0    0  501    0  0.00000000000E+00  0.00000000000E+00 -0.88890249147E+03  0.88890339871E+03  0.12699999809E+01 0. -1.
    10030    2    1    2    0    0  0.00000000000E+00  0.00000000000E+00  0.62410388405E+03  0.24019103072E+04  0.23194110170E+04 0.  0.
        3    1    3    3  502    0  0.33574657092E+03  0.14387300527E+03 -0.82777595907E+03  0.90478630082E+03  0.10100000352E+00 0. -1.
       -3    1    3    3    0  502 -0.33574657092E+03 -0.14387300527E+03  0.14518798431E+04  0.14971240064E+04  0.10100000352E+00 0.  1.
</event>
<event>
 5   0  0.7268013E-07  0.2543606E+04  0.7818609E-02  0.8387613E-01
       -2   -1    0    0    0  501  0.00000000000E+00  0.00000000000E+00  0.61903294725E+03  0.61903294725E+03  0.25500000920E-02 0.  1.
        2   -1    0    0  501    0  0.00000000000E+00  0.00000000000E+00 -0.26129196598E+04  0.26129196598E+04  0.25500000920E-02 0. -1.
    10030    2    1    2    0    0  0.00000000000E+00  0.00000000000E+00 -0.19938867125E+04  0.32319526070E+04  0.25436063830E+04 0.  0.
        4    1    3    3  502    0  0.60397051551E+03  0.12547936906E+03  0.41621963099E+03  0.74415445291E+03  0.12699999809E+01 0.  1.
       -4    1    3    3    0  502 -0.60397051551E+03 -0.12547936906E+03 -0.24101063435E+04  0.24877981541E+04  0.12699999809E+01 0. -1.
</event>
<event>
 5   0  0.4627905E-07  0.3770171E+04  0.7818609E-02  0.8052586E-01
        1   -1    0    0  501    0  0.00000000000E+00  0.00000000000E+00  0.21519342713E+04  0.21519342713E+04  0.50400001928E-02 0.  1.
       -1   -1    0    0    0  501  0.00000000000E+00  0.00000000000E+00 -0.16513273612E+04  0.16513273612E+04  0.50400001928E-02 0. -1.
    10030    2    1    2    0    0  0.00000000000E+00  0.00000000000E+00  0.50060691014E+03  0.38032616325E+04  0.37701713180E+04 0.  0.
        1    1    3    3  502    0  0.21134292138E+03  0.38756996271E+02  0.21395408275E+04  0.21503029758E+04  0.50400001928E-02 0.  1.
       -1    1    3    3    0  502 -0.21134292138E+03 -0.38756996271E+02 -0.16389339174E+04  0.16529586567E+04  0.50400001928E-02 0. -1.
</event>
<event>
 5   0  0.3471602E-07  0.2066874E+04  0.7818609E-02  0.8575978E-01
        1   -1    0    0  501    0  0.00000000000E+00  0.00000000000E+00  0.18616675443E+04  0.18616675443E+04  0.50400001928E-02 0. -1.
       -1   -1    0    0    0  501  0.00000000000E+00  0.00000000000E+00 -0.57367494349E+03  0.57367494352E+03  0.50400001928E-02 0.  1.
    10030    2    1    2    0    0  0.00000000000E+00  0.00000000000E+00  0.12879926008E+04  0.24353424878E+04  0.20668739907E+04 0.  0.
        5    1    3    3  502    0 -0.47724261286E+03 -0.73359469184E+03  0.12915625524E+04  0.15601530695E+04  0.46999998093E+01 0. -1.
       -5    1    3    3    0  502  0.47724261286E+03  0.73359469184E+03 -0.35699516032E+01  0.87518941834E+03  0.46999998093E+01 0.  1.
</event>
<event>
 5   0  0.7268013E-07  0.3951849E+04  0.7818609E-02  0.8014331E-01
       -2   -1    0    0    0  501  0.00000000000E+00  0.00000000000E+00  0.20128579557E+04  0.20128579557E+04  0.25500000920E-02 0. -1.
        2   -1    0    0  501    0  0.00000000000E+00  0.00000000000E+00 -0.19396684968E+04  0.19396684968E+04  0.25500000920E-02 0.  1.
    10030    2    1    2    0    0  0.00000000000E+00  0.00000000000E+00  0.73189458914E+02  0.39525264525E+04  0.39518487649E+04 0.  0.
        4    1    3    3  502    0 -0.18925306387E+04  0.30309064104E+03  0.51703051197E+03  0.19851595196E+04  0.12699999809E+01 0.  1.
       -4    1    3    3    0  502  0.18925306387E+04 -0.30309064104E+03 -0.44384105306E+03  0.19673669328E+04  0.12699999809E+01 0. -1.
</event>
<event>
 5   0  0.3471602E-07  0.1915149E+04  0.7818609E-02  0.8647352E-01
        1   -1    0    0  501    0  0.00000000000E+00  0.00000000000E+00  0.14691703571E+04  0.14691703572E+04  0.50400001928E-02 0.  1.
       -1   -1    0    0    0  501  0.00000000000E+00  0.00000000000E+00 -0.62412699955E+03  0.62412699957E+03  0.50400001928E-02 0. -1.
    10030    2    1    2    0    0  0.00000000000E+00  0.00000000000E+00  0.84504335759E+03  0.20932973567E+04  0.19151489622E+04 0.  0.
        5    1    3    3  502    0  0.62818766993E+03 -0.57650143363E+03  0.89889958369E+03  0.12389577084E+04  0.46999998093E+01 0.  1.
       -5    1    3    3    0  502 -0.62818766993E+03  0.57650143363E+03 -0.53856226094E+02  0.85433964833E+03  0.46999998093E+01 0. -1.
</event>
<event>
 5   0  0.3471602E-07  0.3724538E+04  0.7818609E-02  0.8062546E-01
        1   -1    0    0  501    0  0.00000000000E+00  0.00000000000E+00  0.20711408436E+04  0.20711408436E+04  0.50400001928E-02 0. -1.
       -1   -1    0    0    0  501  0.00000000000E+00  0.00000000000E+00 -0.16744611969E+04  0.16744611969E+04  0.50400001928E-02 0.  1.
    10030    2    1    2    0    0  0.00000000000E+00  0.00000000000E+00  0.39667964670E+03  0.37456020404E+04  0.37245375422E+04 0.  0.
        5    1    3    3  502    0 -0.79409696568E+03  0.42850766346E+03 -0.14399265740E+04  0.16992996902E+04  0.46999998093E+01 0.  1.
       -5    1    3    3    0  502  0.79409696568E+03 -0.42850766346E+03  0.18366062207E+04  0.20463023502E+04  0.46999998093E+01 0. -1.
</event>
<event>
 5   0  0.3977376E-07  0.3948174E+04  0.7818609E-02  0.8015084E-01
       -1   -1    0    0    0  501  0.00000000000E+00  0.00000000000E+00  0.32528288961E+04  0.32528288961E+04  0.50400001928E-02 0.  1.
        1   -1    0    0  501    0  0.00000000000E+00  0.00000000000E+00 -0.11980398342E+04  0.11980398342E+04  0.50400001928E-02 0. -1.
    10030    2    1    2    0    0  0.00000000000E+00  0.00000000000E+00  0.20547890619E+04  0.44508687303E+04  0.39481735481E+04 0.  0.
        4    1    3    3  502    0  0.16029089506E+04  0.10111904814E+04  0.40461214224E+03  0.19379205071E+04  0.12699999809E+01 0. -1.
       -4    1    3    3    0  502 -0.16029089506E+04 -0.10111904814E+04  0.16501769196E+04  0.25129482232E+04  0.12699999809E+01 0.  1.
</event>
<event>
 5   0  0.1015219E-06  0.2679068E+04  0.7818609E-02  0.8341829E-01
        2   -1    0    0  501    0  0.00000000000E+00  0.00000000000E+00  0.22476841750E+04  0.22476841750E+04  0.25500000920E-02 0. -1.
       -2   -1    0    0    0  501  0.00000000000E+00  0.00000000000E+00 -0.79831122410E+03  0.79831122410E+03  0.25500000920E-02 0.  1.
    10030    2    1    2    0    0  0.00000000000E+00  0.00000000000E+00  0.14493729509E+04  0.30459953991E+04  0.26790681254E+04 0.  0.
        3    1    3    3  502    0 -0.11550638809E+04 -0.86332070676E+02 -0.40316386644E+02  0.11589871511E+04  0.10100000352E+00 0.  1.
       -3    1    3    3    0  502  0.11550638809E+04  0.86332070676E+02  0.14896893376E+04  0.18870082480E+04  0.10100000352E+00 0. -1.
</event>
<event>
 5   0  0.5533705E-07  0.3882740E+04  0.7818609E-02  0.8028628E-01
       -2   -1    0    0    0  501  0.00000000000E+00  0.00000000000E+00  0.19039221708E+04  0.19039221708E+04  0.25500000920E-02 0.  1.
        2   -1    0    0  501    0  0.00000000000E+00  0.00000000000E+00 -0.19795548279E+04  0.19795548279E+04  0.25500000920E-02 0. -1.
    10030    2    1    2    0    0  0.00000000000E+00  0.00000000000E+00 -0.75632657092E+02  0.38834769986E+04  0.38827404369E+04 0.  0.
        1    1    3    3  502    0 -0.17384252405E+04 -0.45531333317E+03  0.69681996157E+03  0.19274310901E+04  0.50400001928E-02 0.  1.
       -1    1    3    3    0  502  0.17384252405E+04  0.45531333317E+03 -0.77245261867E+03  0.19560459085E+04  0.50400001928E-02 0. -1.
</event>
<event>
 5   0  0.1035864E-06  0.3852726E+04  0.7818609E-02  0.8034934E-01
        2   -1    0    0  501    0  0.00000000000E+00  0.00000000000E+00  0.26644563154E+04  0.26644563154E+04  0.25500000920E-02 0.  1.
       -2   -1    0    0    0  501  0.00000000000E+00  0.00000000000E+00 -0.13927326075E+04  0.13927326075E+04  0.25500000920E-02 0. -1.
    10030    2    1    2    0    0  0.00000000000E+00  0.00000000000E+00  0.12717237079E+04  0.40571889230E+04  0.38527264070E+04 0.  0.
        5    1    3    3  502    0  0.15071558964E+04 -0.10761011938E+04  0.11944260992E+04  0.22036761268E+04  0.46999998093E+01 0.  1.
       -5    1    3    3    0  502 -0.15071558964E+04  0.10761011938E+04  0.77297608646E+02  0.18535127962E+04  0.46999998093E+01 0. -1.
</event>
<event>
 5   0  0.3471602E-07  0.3842899E+04  0.7818609E-02  0.8037011E-01
        1   -1    0    0  501    0  0.00000000000E+00  0.00000000000E+00  0.22792998801E+04  0.22792998801E+04  0.50400001928E-02 0.  1.
       -1   -1    0    0    0  501  0.00000000000E+00  0.00000000000E+00 -0.16197820849E+04  0.16197820849E+04  0.50400001928E-02 0. -1.
    10030    2    1    2    0    0  0.00000000000E+00  0.00000000000E+00  0.65951779522E+03  0.38990819650E+04  0.38428994845E+04 0.  0.
        5    1    3    3  502    0 -0.55250270673E+03 -0.17331204481E+04 -0.29814346980E+03  0.18433332165E+04  0.46999998093E+01 0. -1.
       -5    1    3    3    0  502  0.55250270673E+03  0.17331204481E+04  0.95766126502E+03  0.20557487485E+04  0.46999998093E+01 0.  1.
</event>
<event>
 5   0  0.5533705E-07  0.3783132E+04  0.7818609E-02  0.8049784E-01
        2   -1    0    0  501    0  0.00000000000E+00  0.00000000000E+00  0.23824767005E+04  0.23824767005E+04  0.25500000920E-02 0.  1.
       -2   -1    0    0    0  501  0.00000000000E+00  0.00000000000E+00 -0.15018075935E+04  0.15018075935E+04  0.25500000920E-02 0. -1.
    10030    2    1    2    0    0  0.00000000000E+00  0.00000000000E+00  0.88066910703E+03  0.38842842940E+04  0.37831318244E+04 0.  0.
        1    1    3    3  502    0 -0.10279528532E+04  0.30927212025E+03  0.20394387432E+04  0.23047010001E+04  0.50400001928E-02 0.  1.
       -1    1    3    3    0  502  0.10279528532E+04 -0.30927212025E+03 -0.11587696361E+04  0.15795832939E+04  0.50400001928E-02 0. -1.
</event>
<event>
 5   0  0.5533705E-07  0.4008385E+04  0.7818609E-02  0.8002857E-01
       -2   -1    0    0    0  501  0.00000000000E+00  0.00000000000E+00  0.15695978594E+04  0.15695978594E+04  0.25500000920E-02 0.  1.
        2   -1    0    0  501    0  0.00000000000E+00  0.00000000000E+00 -0.25591188404E+04  0.25591188404E+04  0.25500000920E-02 0. -1.
    10030    2    1    2    0    0  0.00000000000E+00  0.00000000000E+00 -0.98952098097E+03  0.41287166997E+04  0.40083849385E+04 0.  0.
        1    1    3    3  502    0  0.40684891446E+03  0.19601134870E+04 -0.39587571287E+03  0.20406588400E+04  0.50400001928E-02 0.  1.
       -1    1    3    3    0  502 -0.40684891446E+03 -0.19601134870E+04 -0.59364526811E+03  0.20880578597E+04  0.50400001928E-02 0. -1.
</event>
<event>
 5   0  0.3191750E-07  0.3994188E+04  0.7818609E-02  0.8005720E-01
       -3   -1    0    0    0  501  0.00000000000E+00  0.00000000000E+00  0.21855420997E+04  0.21855421021E+04  0.10100000352E+00 0.  1.
        3   -1    0    0  501    0  0.00000000000E+00  0.00000000000E+00 -0.18248944185E+04  0.18248944213E+04  0.10100000352E+00 0. -1.
    10030    2    1    2    0    0  0.00000000000E+00  0.00000000000E+00  0.36064768128E+03  0.40104365233E+04  0.39941875717E+04 0.  0.
        5    1    3    3  502    0 -0.16215022224E+04  0.37022166786E+03  0.12902747259E+04  0.21050331349E+04  0.46999998093E+01 0.  1.
       -5    1    3    3    0  502  0.16215022224E+04 -0.37022166786E+03 -0.92962704463E+03  0.19054033884E+04  0.46999998093E+01 0. -1.
</event>
<event>
 5   0  0.1035864E-06  0.3323165E+04  0.7818609E-02  0.8157026E-01
        2   -1    0    0  501    0  0.00000000000E+00  0.00000000000E+00  0.19814907096E+04  0.19814907096E+04  0.25500000920E-02 0.  1.
       -2   -1    0    0    0  501  0.00000000000E+00  0.00000000000E+00 -0.13933232457E+04  0.13933232457E+04  0.25500000920E-02 0. -1.
    10030    2    1    2    0    0  0.00000000000E+00  0.00000000000E+00  0.58816746393E+03  0.33748139554E+04  0.33231653988E+04 0.  0.
        5    1    3    3  502    0  0.13949229716E+04 -0.68542305695E+03  0.89076983662E+03  0.17913982962E+04  0.46999998093E+01 0.  1.
       -5    1    3    3    0  502 -0.13949229716E+04  0.68542305695E+03 -0.30260237269E+03  0.15834156592E+04  0.46999998093E+01 0. -1.
</event>
<event>
 5   0  0.3471602E-07  0.3884987E+04  0.7818609E-02  0.8028159E-01
       -1   -1    0    0    0  501  0.00000000000E+00  0.00000000000E+00  0.19565427410E+04  0.19565427410E+04  0.50400001928E-02 0.  1.
        1   -1    0    0  501    0  0.00000000000E+00  0.00000000000E+00 -0.19285453935E+04  0.19285453935E+04  0.50400001928E-02 0. -1.
    10030    2    1    2    0    0  0.00000000000E+00  0.00000000000E+00  0.27997347475E+02  0.38850881345E+04  0.38849872537E+04 0.  0.
        5    1    3    3  502    0 -0.10882293869E+04  0.15776015514E+04  0.33053421697E+03  0.19448251366E+04  0.46999998093E+01 0. -1.
       -5    1    3    3    0  502  0.10882293869E+04 -0.15776015514E+04 -0.30253686949E+03  0.19402629979E+04  0.46999998093E+01 0.  1.
</event>
<event>
 5   0  0.1035864E-06  0.2327445E+04  0.7818609E-02  0.8467178E-01
        2   -1    0    0  501    0  0.00000000000E+00  0.00000000000E+00  0.10545198908E+04  0.10545198908E+04  0.25500000920E-02 0.  1.
       -2   -1    0    0    0  501  0.00000000000E+00  0.00000000000E+00 -0.12842334975E+04  0.12842334975E+04  0.25500000920E-02 0. -1.
    10030    2    1    2    0    0  0.00000000000E+00  0.00000000000E+00 -0.22971360670E+03  0.23387533883E+04  0.23274447513E+04 0.  0.
        5    1    3    3  502    0 -0.96947161497E+03 -0.45213772854E+03 -0.57525756493E+03  0.12145975028E+04  0.46999998093E+01 0. -1.
       -5    1    3    3    0  502  0.96947161497E+03  0.45213772854E+03  0.34554395824E+03  0.11241558855E+04  0.46999998093E+01 0.  1.
</event>
<event>
 5   0  0.3471602E-07  0.3912955E+04  0.7818609E-02  0.8022340E-01
        1   -1    0    0  501    0  0.00000000000E+00  0.00000000000E+00  0.15752124108E+04  0.15752124108E+04  0.50400001928E-02 0. -1.
       -1   -1    0    0    0  501  0.00000000000E+00  0.00000000000E+00 -0.24300237978E+04  0.24300237978E+04  0.50400001928E-02 0.  1.
    10030    2    1    2    0    0  0.00000000000E+00  0.00000000000E+00 -0.85481138692E+03  0.40052362086E+04  0.39129547122E+04 0.  0.
        5    1    3    3  502    0 -0.53183371808E+03 -0.11547655373E+04 -0.19495715397E+04  0.23274840124E+04  0.46999998093E+01 0.  1.
       -5    1    3    3    0  502  0.53183371808E+03  0.11547655373E+04  0.10947601528E+04  0.16777521962E+04  0.46999998093E+01 0. -1.
</event>
<event>
 5   0  0.1035864E-06  0.3819504E+04  0.7818609E-02  0.8041982E-01
        2   -1    0    0  501    0  0.00000000000E+00  0.00000000000E+00  0.24184047133E+04  0.24184047133E+04  0.25500000920E-02 0. -1.
       -2   -1    0    0    0  501  0.00000000000E+00  0.00000000000E+00 -0.15080823369E+04  0.15080823369E+04  0.25500000920E-02 0.  1.
    10030    2    1    2    0    0  0.00000000000E+00  0.00000000000E+00  0.91032237637E+03  0.39264870501E+04  0.38195043822E+04 0.  0.
        5    1    3    3  502    0  0.73945795861E+03 -0.28581633532E+03 -0.13309273477E+04  0.15491542031E+04  0.46999998093E+01 0.  1.
       -5    1    3    3    0  502 -0.73945795861E+03  0.28581633532E+03  0.22412497241E+04  0.23773328471E+04  0.46999998093E+01 0. -1.
</event>
<event>
 5   0  0.5533705E-07  0.3698659E+04  0.7818609E-02  0.8068259E-01
       -2   -1    0    0    0  501  0.00000000000E+00  0.00000000000E+00  0.20550937020E+04  0.20550937020E+04  0.25500000920E-02 0. -1.
        2   -1    0    0  501    0  0.00000000000E+00  0.00000000000E+00 -0.16641671779E+04  0.16641671779E+04  0.25500000920E-02 0.  1.
    10030    2    1    2    0    0  0.00000000000E+00  0.00000000000E+00  0.39092652412E+03  0.37192608799E+04  0.36986589388E+04 0.  0.
        1    1    3    3  502    0 -0.44628224382E+03  0.17940546682E+04  0.24283717192E+03  0.18646098481E+04  0.50400001928E-02 0.  1.
       -1    1    3    3    0  502  0.44628224382E+03 -0.17940546682E+04  0.14808935220E+03  0.18546510318E+04  0.50400001928E-02 0. -1.
</event>
<event>
 5   0  0.1034683E-06  0.4024757E+04  0.7818609E-02  0.7999571E-01
        2   -1    0    0  501    0  0.00000000000E+00  0.00000000000E+00  0.18276284438E+04  0.18276284438E+04  0.25500000920E-02 0.  1.
       -2   -1    0    0    0  501  0.00000000000E+00  0.00000000000E+00 -0.22158042228E+04  0.22158042228E+04  0.25500000920E-02 0. -1.
    10030    2    1    2    0    0  0.00000000000E+00  0.00000000000E+00 -0.38817577901E+03  0.40434326667E+04  0.40247567994E+04 0.  0.
        2    1    3    3  502    0 -0.38693125814E+02 -0.30190594167E+03  0.18043692145E+04  0.18298613657E+04  0.25500000920E-02 0.  1.
       -2    1    3    3    0  502  0.38693125814E+02  0.30190594167E+03 -0.21925449935E+04  0.22135713009E+04  0.25500000920E-02 0. -1.
</event>
<event>
 5   0  0.7268013E-07  0.3937743E+04  0.7818609E-02  0.8017225E-01
       -2   -1    0    0    0  501  0.00000000000E+00  0.00000000000E+00  0.14389169963E+04  0.14389169963E+04  0.25500000920E-02 0. -1.
        2   -1    0    0  501    0  0.00000000000E+00  0.00000000000E+00 -0.26940082837E+04  0.26940082837E+04  0.25500000920E-02 0.  1.
    10030    2    1    2    0    0  0.00000000000E+00  0.00000000000E+00 -0.12550912874E+04  0.41329252799E+04  0.39377426566E+04 0.  0.
        4    1    3    3  502    0 -0.13054513398E+04 -0.14284151845E+04 -0.10086983078E+04  0.21822114995E+04  0.12699999809E+01 0.  1.
       -4    1    3    3    0  502  0.13054513398E+04  0.14284151845E+04 -0.24639297960E+03  0.19507137804E+04  0.12699999809E+01 0. -1.
</event>
<event>
 5   0  0.1035864E-06  0.2088834E+04  0.7818609E-02  0.8566178E-01
        2   -1    0    0  501    0  0.00000000000E+00  0.00000000000E+00  0.14687972685E+04  0.14687972685E+04  0.25500000920E-02 0.  1.
       -2   -1    0    0    0  501  0.00000000000E+00  0.00000000000E+00 -0.74265345311E+03  0.74265345312E+03  0.25500000920E-02 0. -1.
    10030    2    1    2    0    0  0.00000000000E+00  0.00000000000E+00  0.72614381543E+03  0.22114507217E+04  0.20888344725E+04 0.  0.
        5    1    3    3  502    0 -0.70552765076E+03  0.76251150748E+03  0.47705917190E+03  0.11431537991E+04  0.46999998093E+01 0.  1.
       -5    1    3    3    0  502  0.70552765076E+03 -0.76251150748E+03  0.24908464353E+03  0.10682969225E+04  0.46999998093E+01 0. -1.
</event>
<event>
 5   0  0.7268013E-07  0.3918904E+04  0.7818609E-02  0.8021109E-01
        2   -1    0    0  501    0  0.00000000000E+00  0.00000000000E+00  0.20377457385E+04  0.20377457385E+04  0.25500000920E-02 0.  1.
       -2   -1    0    0    0  501  0.00000000000E+00  0.00000000000E+00 -0.18841662212E+04  0.18841662212E+04  0.25500000920E-02 0. -1.
    10030    2    1    2    0    0  0.00000000000E+00  0.00000000000E+00  0.15357951729E+03  0.39219119596E+04  0.39189037690E+04 0.  0.
        4    1    3    3  502    0 -0.85857306180E+03  0.14847449006E+04 -0.87147911464E+03  0.19238223885E+04  0.12699999809E+01 0.  1.
       -4    1    3    3    0  502  0.85857306180E+03 -0.14847449006E+04  0.10250586319E+04  0.19980895711E+04  0.12699999809E+01 0. -1.
</event>
<event>
 5   0  0.3977376E-07  0.2610968E+04  0.7818609E-02  0.8364485E-01
        1   -1    0    0  501    0  0.00000000000E+00  0.00000000000E+00  0.24125718041E+04  0.24125718041E+04  0.50400001928E-02 0. -1.
       -1   -1    0    0    0  501  0.00000000000E+00  0.00000000000E+00 -0.70641983217E+03  0.70641983219E+03  0.50400001928E-02 0.  1.
    10030    2    1    2    0    0  0.00000000000E+00  0.00000000000E+00  0.17061519719E+04  0.31189916363E+04  0.26109680726E+04 0.  0.
        4    1    3    3  502    0 -0.68571505467E+03  0.55080380554E+03  0.20055119507E+04  0.21899017708E+04  0.12699999809E+01 0. -1.
       -4    1    3    3    0  502  0.68571505467E+03 -0.55080380554E+03 -0.29935997877E+03  0.92908986551E+03  0.12699999809E+01 0.  1.
</event>
<event>
 5   0  0.4316671E-07  0.2119194E+04  0.7818609E-02  0.8552835E-01
        1   -1    0    0  501    0  0.00000000000E+00  0.00000000000E+00  0.85992009345E+03  0.85992009347E+03  0.50400001928E-02 0. -1.
       -1   -1    0    0    0  501  0.00000000000E+00  0.00000000000E+00 -0.13056402892E+04  0.13056402893E+04  0.50400001928E-02 0.  1.
    10030    2    1    2    0    0  0.00000000000E+00  0.00000000000E+00 -0.44572019579E+03  0.21655603827E+04  0.21191944881E+04 0.  0.
        2    1    3    3  502    0 -0.39383023167E+03 -0.66783425015E+03 -0.96090968616E+03  0.12346871110E+04  0.25500000920E-02 0.  1.
       -2    1    3    3    0  502  0.39383023167E+03  0.66783425015E+03  0.51518949036E+03  0.93087327174E+03  0.25500000920E-02 0. -1.
</event>
<event>
 5   0  0.5533705E-07  0.3954511E+04  0.7818609E-02  0.8013787E-01
       -2   -1    0    0    0  501  0.00000000000E+00  0.00000000000E+00  0.17294804483E+04  0.17294804483E+04  0.25500000920E-02 0. -1.
        2   -1    0    0  501    0  0.00000000000E+00  0.00000000000E+00 -0.22605277139E+04  0.22605277139E+04  0.25500000920E-02 0.  1.
    10030    2    1    2    0    0  0.00000000000E+00  0.00000000000E+00 -0.53104726567E+03  0.39900081622E+04  0.39545105811E+04 0.  0.
        1    1    3    3  502    0 -0.54974015813E+03  0.10374850515E+04 -0.18706999373E+04  0.22086438665E+04  0.50400001928E-02 0.  1.
       -1    1    3    3    0  502  0.54974015813E+03 -0.10374850515E+04  0.13396526716E+04  0.17813642957E+04  0.50400001928E-02 0. -1.
</event>
<event>
 5   0  0.3471602E-07  0.3728606E+04  0.7818609E-02  0.8061652E-01
        1   -1    0    0  501    0  0.00000000000E+00  0.00000000000E+00  0.29491546705E+04  0.29491546705E+04  0.50400001928E-02 0. -1.
       -1   -1    0    0    0  501  0.00000000000E+00  0.00000000000E+00 -0.11785159805E+04  0.11785159805E+04  0.50400001928E-02 0.  1.
    10030    2    1    2    0    0  0.00000000000E+00  0.00000000000E+00  0.17706386900E+04  0.41276706510E+04  0.37286061247E+04 0.  0.
        5    1    3    3  502    0 -0.10455007888E+04 -0.12546379663E+04 -0.11003070519E+03  0.16368619892E+04  0.46999998093E+01 0.  1.
       -5    1    3    3    0  502  0.10455007888E+04  0.12546379663E+04  0.18806693952E+04  0.24908086618E+04  0.46999998093E+01 0. -1.
</event>
<event>
 5   0  0.5533705E-07  0.3917321E+04  0.7818609E-02  0.8021436E-01
       -2   -1    0    0    0  501  0.00000000000E+00  0.00000000000E+00  0.20290956233E+04  0.20290956233E+04  0.25500000920E-02 0.  1.
        2   -1    0    0  501    0  0.00000000000E+00  0.00000000000E+00 -0.18906700543E+04  0.18906700543E+04  0.25500000920E-02 0. -1.
    10030    2    1    2    0    0  0.00000000000E+00  0.00000000000E+00  0.13842556905E+03  0.39197656776E+04  0.39173206824E+04 0.  0.
        1    1    3    3  502    0 -0.13256476817E+03 -0.73017055757E+03  0.18829742351E+04  0.20239353821E+04  0.50400001928E-02 0.  1.
       -1    1    3    3    0  502  0.13256476817E+03  0.73017055757E+03 -0.17445486661E+04  0.18958302955E+04  0.50400001928E-02 0. -1.
</event>
<event>
 5   0  0.3977376E-07  0.3574515E+04  0.7818609E-02  0.8096354E-01
        1   -1    0    0  501    0  0.00000000000E+00  0.00000000000E+00  0.21823301623E+04  0.21823301623E+04  0.50400001928E-02 0. -1.
       -1   -1    0    0    0  501  0.00000000000E+00  0.00000000000E+00 -0.14637060563E+04  0.14637060563E+04  0.50400001928E-02 0.  1.
    10030    2    1    2    0    0  0.00000000000E+00  0.00000000000E+00  0.71862410602E+03  0.36460362186E+04  0.35745152820E+04 0.  0.
        4    1    3    3  502    0  0.17384462651E+04  0.10506747880E+03 -0.50032611630E+02  0.17423373574E+04  0.12699999809E+01 0.  1.
       -4    1    3    3    0  502 -0.17384462651E+04 -0.10506747880E+03  0.76865671765E+03  0.19036988612E+04  0.12699999809E+01 0. -1.
</event>
<event>
 5   0  0.4423720E-07  0.2262132E+04  0.7818609E-02  0.8493003E-01
        1   -1    0    0  501    0  0.00000000000E+00  0.00000000000E+00  0.20077872380E+04  0.20077872380E+04  0.50400001928E-02 0. -1.
       -1   -1    0    0    0  501  0.00000000000E+00  0.00000000000E+00 -0.63717404980E+03  0.63717404982E+03  0.50400001928E-02 0.  1.
    10030    2    1    2    0    0  0.00000000000E+00  0.00000000000E+00  0.13706131882E+04  0.26449612878E+04  0.22621316722E+04 0.  0.
        5    1    3    3  502    0 -0.22397344973E+02 -0.88543710402E+02  0.20034571712E+04  0.20055434068E+04  0.46999998093E+01 0. -1.
       -5    1    3    3    0  502  0.22397344973E+02  0.88543710402E+02 -0.63284398302E+03  0.63941788101E+03  0.46999998093E+01 0.  1.
</event>
<event>
 5   0  0.1015219E-06  0.3536951E+04  0.7818609E-02  0.8105088E-01
       -2   -1    0    0    0  501  0.00000000000E+00  0.00000000000E+00  0.12643648156E+04  0.12643648156E+04  0.25500000920E-02 0. -1.
        2   -1    0    0  501    0  0.00000000000E+00  0.00000000000E+00 -0.24735782743E+04  0.24735782743E+04  0.25500000920E-02 0.  1.
    10030    2    1    2    0    0  0.00000000000E+00  0.00000000000E+00 -0.12092134587E+04  0.37379430899E+04  0.35369508555E+04 0.  0.
        3    1    3    3  502    0 -0.34472899911E+03  0.15641076457E+03 -0.24302580465E+04  0.24595643096E+04  0.10100000352E+00 0.  1.
       -3    1    3    3    0  502  0.34472899911E+03 -0.15641076457E+03  0.12210445879E+04  0.12783787803E+04  0.10100000352E+00 0. -1.
</event>
<event>
 5   0  0.3977376E-07  0.3894205E+04  0.7818609E-02  0.8026236E-01
       -1   -1    0    0    0  501  0.00000000000E+00  0.00000000000E+00  0.28936720848E+04  0.28936720848E+04  0.50400001928E-02 0. -1.
        1   -1    0    0  501    0  0.00000000000E+00  0.00000000000E+00 -0.13101718564E+04  0.13101718564E+04  0.50400001928E-02 0.  1.
    10030    2    1    2    0    0  0.00000000000E+00  0.00000000000E+00  0.15835002285E+04  0.42038439412E+04  0.38942047851E+04 0.  0.
        4    1    3    3  502    0 -0.65899082384E+03  0.18257856314E+04  0.95703913046E+03  0.21641828915E+04  0.12699999809E+01 0. -1.
       -4    1    3    3    0  502  0.65899082384E+03 -0.18257856314E+04  0.62646109801E+03  0.20396610497E+04  0.12699999809E+01 0.  1.
</event>
<event>
 5   0  0.1015219E-06  0.2325153E+04  0.7818609E-02  0.8468069E-01
        2   -1    0    0  501    0  0.00000000000E+00  0.00000000000E+00  0.11940017233E+04  0.11940017233E+04  0.25500000920E-02 0. -1.
       -2   -1    0    0    0  501  0.00000000000E+00  0.00000000000E+00 -0.11319782433E+04  0.11319782433E+04  0.25500000920E-02 0.  1.
    10030    2    1    2    0    0  0.00000000000E+00  0.00000000000E+00  0.62023479989E+02  0.23259799666E+04  0.23251528752E+04 0.  0.
        3    1    3    3  502    0  0.56642225562E+03  0.33564922595E+03 -0.92749890718E+03  0.11374307924E+04  0.10100000352E+00 0.  1.
       -3    1    3    3    0  502 -0.56642225562E+03 -0.33564922595E+03  0.98952238717E+03  0.11885491742E+04  0.10100000352E+00 0. -1.
</event>
<event>
 5   0  0.1035864E-06  0.3958875E+04  0.7818609E-02  0.8012894E-01
        2   -1    0    0  501    0  0.00000000000E+00  0.00000000000E+00  0.17521147462E+04  0.17521147462E+04  0.25500000920E-02 0.  1.
       -2   -1    0    0    0  501  0.00000000000E+00  0.00000000000E+00 -0.22362541034E+04  0.22362541034E+04  0.25500000920E-02 0. -1.
    10030    2    1    2    0    0  0.00000000000E+00  0.00000000000E+00 -0.48413935726E+03  0.39883688496E+04  0.39588754923E+04 0.  0.
        5    1    3    3  502    0 -0.12819066322E+04 -0.14929258667E+04 -0.25903121883E+02  0.19679444400E+04  0.46999998093E+01 0.  1.
       -5    1    3    3    0  502  0.12819066322E+04  0.14929258667E+04 -0.45823623538E+03  0.20204244096E+04  0.46999998093E+01 0. -1.
</event>
<event>
 5   0  0.4627905E-07  0.4414563E+04  0.7818609E-02  0.7925767E-01
        1   -1    0    0  501    0  0.00000000000E+00  0.00000000000E+00  0.21419351448E+04  0.21419351448E+04  0.50400001928E-02 0.  1.
       -1   -1    0    0    0  501  0.00000000000E+00  0.00000000000E+00 -0.22746214320E+04  0.22746214320E+04  0.50400001928E-02 0. -1.
    10030    2    1    2    0    0  0.00000000000E+00  0.00000000000E+00 -0.13268628724E+03  0.44165565768E+04  0.44145629846E+04 0.  0.
        1    1    3    3  502    0  0.15474332127E+04 -0.14554325864E+04 -0.66599518955E+03  0.22262935911E+04  0.50400001928E-02 0. -1.
       -1    1    3    3    0  502 -0.15474332127E+04  0.14554325864E+04  0.53330890231E+03  0.21902629857E+04  0.50400001928E-02 0.  1.
</event>
<event>
 5   0  0.3471602E-07  0.3969644E+04  0.7818609E-02  0.8010699E-01
        1   -1    0    0  501    0  0.00000000000E+00  0.00000000000E+00  0.27522951201E+04  0.27522951201E+04  0.50400001928E-02 0.  1.
       -1   -1    0    0    0  501  0.00000000000E+00  0.00000000000E+00 -0.14313572707E+04  0.14313572707E+04  0.50400001928E-02 0. -1.
    10030    2    1    2    0    0  0.00000000000E+00  0.00000000000E+00  0.13209378493E+04  0.41836523908E+04  0.39696436270E+04 0.  0.
        5    1    3    3  502    0 -0.17556812793E+04 -0.92577471912E+03  0.66517699373E+03  0.20933127115E+04  0.46999998093E+01 0. -1.
       -5    1    3    3    0  502  0.17556812793E+04  0.92577471912E+03  0.65576085561E+03  0.20903396793E+04  0.46999998093E+01 0.  1.
</event>
<event>
 5   0  0.1034683E-06  0.3812580E+04  0.7818609E-02  0.8043461E-01
       -2   -1    0    0    0  501  0.00000000000E+00  0.00000000000E+00  0.24389843635E+04  0.24389843636E+04  0.25500000920E-02 0. -1.
        2   -1    0    0  501    0  0.00000000000E+00  0.00000000000E+00 -0.14899404178E+04  0.14899404178E+04  0.25500000920E-02 0.  1.
    10030    2    1    2    0    0  0.00000000000E+00  0.00000000000E+00  0.94904394572E+03  0.39289247814E+04  0.38125799043E+04 0.  0.
        2    1    3    3  502    0  0.10352821905E+04 -0.15937380917E+04  0.32121712264E+03  0.19274311295E+04  0.25500000920E-02 0.  1.
       -2    1    3    3    0  502 -0.10352821905E+04  0.15937380917E+04  0.62782682308E+03  0.20014936519E+04  0.25500000920E-02 0. -1.
</event>
<event>
 5   0  0.5533705E-07  0.3811937E+04  0.7818609E-02  0.8043598E-01
        2   -1    0    0  501    0  0.00000000000E+00  0.00000000000E+00  0.21101589441E+04  0.21101589441E+04  0.25500000920E-02 0. -1.
       -2   -1    0    0    0  501  0.00000000000E+00  0.00000000000E+00 -0.17215361960E+04  0.17215361960E+04  0.25500000920E-02 0.  1.
    10030    2    1    2    0    0  0.00000000000E+00  0.00000000000E+00  0.38862274814E+03  0.38316951401E+04  0.38119365166E+04 0.  0.
        1    1    3    3  502    0  0.16961208086E+04 -0.14087055851E+03 -0.66806605409E+03  0.18283824994E+04  0.50400001928E-02 0. -1.
       -1    1    3    3    0  502 -0.16961208086E+04  0.14087055851E+03  0.10566888022E+04  0.20033126407E+04  0.50400001928E-02 0.  1.
</event>
<event>
 5   0  0.3977376E-07  0.3414289E+04  0.7818609E-02  0.8134408E-01
        1   -1    0    0  501    0  0.00000000000E+00  0.00000000000E+00  0.14522568655E+04  0.14522568655E+04  0.50400001928E-02 0.  1.
       -1   -1    0    0    0  501  0.00000000000E+00  0.00000000000E+00 -0.20067673070E+04  0.20067673070E+04  0.50400001928E-02 0. -1.
    10030    2    1    2    0    0  0.00000000000E+00  0.00000000000E+00 -0.55451044150E+03  0.34590241725E+04  0.34142885637E+04 0.  0.
        4    1    3    3  502    0  0.10214302734E+04 -0.43067466601E+02 -0.16623428085E+04  0.19515531856E+04  0.12699999809E+01 0. -1.
       -4    1    3    3    0  502 -0.10214302734E+04  0.43067466601E+02  0.11078323670E+04  0.15074709869E+04  0.12699999809E+01 0.  1.
</event>
<event>
 5   0  0.5385714E-07  0.3871179E+04  0.7818609E-02  0.8031050E-01
       -1   -1    0    0    0  501  0.00000000000E+00  0.00000000000E+00  0.28300157558E+04  0.28300157558E+04  0.50400001928E-02 0.  1.
        1   -1    0    0  501    0  0.00000000000E+00  0.00000000000E+00 -0.13238466337E+04  0.13238466337E+04  0.50400001928E-02 0. -1.
    10030    2    1    2    0    0  0.00000000000E+00  0.00000000000E+00  0.15061691221E+04  0.41538623896E+04  0.38711790616E+04 0.  0.
        3    1    3    3  502    0  0.13540596717E+04  0.28283945069E+03  0.22058441756E+04  0.26036943535E+04  0.10100000352E+00 0.  1.
       -3    1    3    3    0  502 -0.13540596717E+04 -0.28283945069E+03 -0.69967505347E+03  0.15501680361E+04  0.10100000352E+00 0. -1.
</event>
<event>
 5   0  0.4627905E-07  0.3942187E+04  0.7818609E-02  0.8016312E-01
       -1   -1    0    0    0  501  0.00000000000E+00  0.00000000000E+00  0.29634227198E+04  0.29634227198E+04  0.50400001928E-02 0.  1.
        1   -1    0    0  501    0  0.00000000000E+00  0.00000000000E+00 -0.13110550617E+04  0.13110550617E+04  0.50400001928E-02 0. -1.
    10030    2    1    2    0    0  0.00000000000E+00  0.00000000000E+00  0.16523676581E+04  0.42744777815E+04  0.39421873911E+04 0.  0.
        1    1    3    3  502    0  0.44053687286E+03  0.18306055383E+04  0.14584481268E+04  0.23816507535E+04  0.50400001928E-02 0.  1.
       -1    1    3    3    0  502 -0.44053687286E+03 -0.18306055383E+04  0.19391953131E+03  0.18928270280E+04  0.50400001928E-02 0. -1.
</event>
<event>
 5   0  0.4316671E-07  0.3912339E+04  0.7818609E-02  0.8022468E-01
       -1   -1    0    0    0  501  0.00000000000E+00  0.00000000000E+00  0.18868270567E+04  0.18868270567E+04  0.50400001928E-02 0.  1.
        1   -1    0    0  501    0  0.00000000000E+00  0.00000000000E+00 -0.20280599694E+04  0.20280599694E+04  0.50400001928E-02 0. -1.
    10030    2    1    2    0    0  0.00000000000E+00  0.00000000000E+00 -0.14123291265E+03  0.39148870261E+04  0.39123386474E+04 0.  0.
        2    1    3    3  502    0  0.14286574232E+03  0.91005898528E+03 -0.17974231165E+04  0.20197395468E+04  0.25500000920E-02 0. -1.
       -2    1    3    3    0  502 -0.14286574232E+03 -0.91005898528E+03  0.16561902039E+04  0.18951474793E+04  0.25500000920E-02 0.  1.
</event>
<event>
 5   0  0.5533705E-07  0.2408284E+04  0.7818609E-02  0.8436409E-01
        2   -1    0    0  501    0  0.00000000000E+00  0.00000000000E+00  0.87283220478E+03  0.87283220478E+03  0.25500000920E-02 0.  1.
       -2   -1    0    0    0  501  0.00000000000E+00  0.00000000000E+00 -0.16612101017E+04  0.16612101017E+04  0.25500000920E-02 0. -1.
    10030    2    1    2    0    0  0.00000000000E+00  0.00000000000E+00 -0.78837789690E+03  0.25340423065E+04  0.24082837671E+04 0.  0.
        1    1    3    3  502    0 -0.56278794515E+03 -0.34527526849E+03 -0.14537545105E+04  0.15966676107E+04  0.50400001928E-02 0. -1.
       -1    1    3    3    0  502  0.56278794515E+03  0.34527526849E+03  0.66537661362E+03  0.93737469574E+03  0.50400001928E-02 0.  1.
</event>
<event>
 5   0  0.5533705E-07  0.3213794E+04  0.7818609E-02  0.8185184E-01
        2   -1    0    0  501    0  0.00000000000E+00  0.00000000000E+00  0.10539595843E+04  0.10539595843E+04  0.25500000920E-02 0. -1.
       -2   -1    0    0    0  501  0.00000000000E+00  0.00000000000E+00 -0.24499204970E+04  0.24499204970E+04  0.25500000920E-02 0.  1.
    10030    2    1    2    0    0  0.00000000000E+00  0.00000000000E+00 -0.13959609126E+04  0.35038800813E+04  0.32137935146E+04 0.  0.
        1    1    3    3  502    0 -0.12223546007E+04 -0.56211214686E+03 -0.16559217366E+04  0.21335879718E+04  0.50400001928E-02 0.  1.
       -1    1    3    3    0  502  0.12223546007E+04  0.56211214686E+03  0.25996082398E+03  0.13702921095E+04  0.50400001928E-02 0. -1.
</event>
<event>
 5   0  0.5385714E-07  0.2653621E+04  0.7818609E-02  0.8350212E-01
       -1   -1    0    0    0  501  0.00000000000E+00  0.00000000000E+00  0.68730618006E+03  0.68730618008E+03  0.50400001928E-02 0. -1.
        1   -1    0    0  501    0  0.00000000000E+00  0.00000000000E+00 -0.25613420845E+04  0.25613420845E+04  0.50400001928E-02 0.  1.
    10030    2    1    2    0    0  0.00000000000E+00  0.00000000000E+00 -0.18740359044E+04  0.32486482646E+04  0.26536211063E+04 0.  0.
        3    1    3    3  502    0  0.11136457373E+04 -0.63034564668E+03 -0.13661698576E+04  0.18718874305E+04  0.10100000352E+00 0.  1.
       -3    1    3    3    0  502 -0.11136457373E+04  0.63034564668E+03 -0.50786604683E+03  0.13767608341E+04  0.10100000352E+00 0. -1.
</event>
<event>
 5   0  0.7268013E-07  0.2876177E+04  0.7818609E-02  0.8280001E-01
        2   -1    0    0  501    0  0.00000000000E+00  0.00000000000E+00  0.14986563564E+04  0.14986563564E+04  0.25500000920E-02 0.  1.
       -2   -1    0    0    0  501  0.00000000000E+00  0.00000000000E+00 -0.13799687905E+04  0.13799687905E+04  0.25500000920E-02 0. -1.
    10030    2    1    2    0    0  0.00000000000E+00  0.00000000000E+00  0.11868756587E+03  0.28786251470E+04  0.28761773239E+04 0.  0.
        4    1    3    3  502    0 -0.78165199203E+03  0.81280274397E+03 -0.83386701283E+03  0.14024849180E+04  0.12699999809E+01 0. -1.
       -4    1    3    3    0  502  0.78165199203E+03 -0.81280274397E+03  0.95255457870E+03  0.14761402290E+04  0.12699999809E+01 0.  1.
</event>
<event>
 5   0  0.5385714E-07  0.3873260E+04  0.7818609E-02  0.8030614E-01
        1   -1    0    0  501    0  0.00000000000E+00  0.00000000000E+00  0.22016145325E+04  0.22016145325E+04  0.50400001928E-02 0. -1.
       -1   -1    0    0    0  501  0.00000000000E+00  0.00000000000E+00 -0.17035388583E+04  0.17035388583E+04  0.50400001928E-02 0.  1.
    10030    2    1    2    0    0  0.00000000000E+00  0.00000000000E+00  0.49807567423E+03  0.39051533908E+04  0.38732600776E+04 0.  0.
        3    1    3    3  502    0 -0.57986234687E+03  0.82960818742E+03 -0.14156316252E+04  0.17402594618E+04  0.10100000352E+00 0.  1.
       -3    1    3    3    0  502  0.57986234687E+03 -0.82960818742E+03  0.19137072994E+04  0.21648939290E+04  0.10100000352E+00 0. -1.
</event>
<event>
 5   0  0.5385714E-07  0.3888081E+04  0.7818609E-02  0.8027513E-01
        1   -1    0    0  501    0  0.00000000000E+00  0.00000000000E+00  0.16908399249E+04  0.16908399249E+04  0.50400001928E-02 0.  1.
       -1   -1    0    0    0  501  0.00000000000E+00  0.00000000000E+00 -0.22351569871E+04  0.22351569871E+04  0.50400001928E-02 0. -1.
    10030    2    1    2    0    0  0.00000000000E+00  0.00000000000E+00 -0.54431706214E+03  0.39259969120E+04  0.38880805919E+04 0.  0.
        3    1    3    3  502    0  0.17377464353E+04 -0.12685717864E+03  0.59847793359E+03  0.18422896798E+04  0.10100000352E+00 0. -1.
       -3    1    3    3    0  502 -0.17377464353E+04  0.12685717864E+03 -0.11427949957E+04  0.20837072322E+04  0.10100000352E+00 0.  1.
</event>
<event>
 5   0  0.5533705E-07  0.3773036E+04  0.7818609E-02  0.8051966E-01
       -2   -1    0    0    0  501  0.00000000000E+00  0.00000000000E+00  0.18414811158E+04  0.18414811158E+04  0.25500000920E-02 0.  1.
        2   -1    0    0  501    0  0.00000000000E+00  0.00000000000E+00 -0.19326564188E+04  0.19326564188E+04  0.25500000920E-02 0. -1.
    10030    2    1    2    0    0  0.00000000000E+00  0.00000000000E+00 -0.91175302995E+02  0.37741375346E+04  0.37730360712E+04 0.  0.
        1    1    3    3  502    0 -0.11021166872E+04  0.14357873184E+04 -0.57753598050E+03  0.18999195311E+04  0.50400001928E-02 0. -1.
       -1    1    3    3    0  502  0.11021166872E+04 -0.14357873184E+04  0.48636067751E+03  0.18742180035E+04  0.50400001928E-02 0.  1.
</event>
<event>
 5   0  0.4316671E-07  0.2768582E+04  0.7818609E-02  0.8313089E-01
       -1   -1    0    0    0  501  0.00000000000E+00  0.00000000000E+00  0.12945209483E+04  0.12945209483E+04  0.50400001928E-02 0.  1.
        1   -1    0    0  501    0  0.00000000000E+00  0.00000000000E+00 -0.14802863634E+04  0.14802863634E+04  0.50400001928E-02 0. -1.
    10030    2    1    2    0    0  0.00000000000E+00  0.00000000000E+00 -0.18576541511E+03  0.27748073117E+04  0.27685820969E+04 0.  0.
        2    1    3    3  502    0 -0.10308285937E+04  0.96155954047E+02  0.82810033127E+03  0.13257464749E+04  0.25500000920E-02 0.  1.
       -2    1    3    3    0  502  0.10308285937E+04 -0.96155954047E+02 -0.10138657464E+04  0.14490608368E+04  0.25500000920E-02 0. -1.
</event>
<event>
 5   0  0.5385714E-07  0.2458605E+04  0.7818609E-02  0.8417883E-01
        1   -1    0    0  501    0  0.00000000000E+00  0.00000000000E+00  0.69511182194E+03  0.69511182196E+03  0.50400001928E-02 0.  1.
       -1   -1    0    0    0  501  0.00000000000E+00  0.00000000000E+00 -0.21740174348E+04  0.21740174348E+04  0.50400001928E-02 0. -1.
    10030    2    1    2    0    0  0.00000000000E+00  0.00000000000E+00 -0.14789056129E+04  0.28691292568E+04  0.24586054747E+04 0.  0.
        3    1    3    3  502    0  0.52232775732E+03 -0.93283083469E+03 -0.14475528876E+04  0.17995580082E+04  0.10100000352E+00 0. -1.
       -3    1    3    3    0  502 -0.52232775732E+03  0.93283083469E+03 -0.31352725247E+02  0.10695712486E+04  0.10100000352E+00 0.  1.
</event>
<event>
 5   0  0.1034683E-06  0.3885845E+04  0.7818609E-02  0.8027980E-01
       -2   -1    0    0    0  501  0.00000000000E+00  0.00000000000E+00  0.17433201432E+04  0.17433201432E+04  0.25500000920E-02 0. -1.
        2   -1    0    0  501    0  0.00000000000E+00  0.00000000000E+00 -0.21653788953E+04  0.21653788953E+04  0.25500000920E-02 0.  1.
    10030    2    1    2    0    0  0.00000000000E+00  0.00000000000E+00 -0.42205875213E+03  0.39086990385E+04  0.38858454143E+04 0.  0.
        2    1    3    3  502    0 -0.13170603000E+04  0.40531499847E+03 -0.15887637996E+04  0.21031163764E+04  0.25500000920E-02 0. -1.
       -2    1    3    3    0  502  0.13170603000E+04 -0.40531499847E+03  0.11667050475E+04  0.18055826621E+04  0.25500000920E-02 0.  1.
</event>
<event>
 5   0  0.3977376E-07  0.4123728E+04  0.7818609E-02  0.7980041E-01
       -1   -1    0    0    0  501  0.00000000000E+00  0.00000000000E+00  0.23418847335E+04  0.23418847335E+04  0.50400001928E-02 0.  1.
        1   -1    0    0  501    0  0.00000000000E+00  0.00000000000E+00 -0.18153256751E+04  0.18153256751E+04  0.50400001928E-02 0. -1.
    10030    2    1    2    0    0  0.00000000000E+00  0.00000000000E+00  0.52655905835E+03  0.41572104086E+04  0.41237281602E+04 0.  0.
        4    1    3    3  502    0 -0.13465926457E+04 -0.29223712374E+03  0.18095413460E+04  0.22744572508E+04  0.12699999809E+01 0.  1.
       -4    1    3    3    0  502  0.13465926457E+04  0.29223712374E+03 -0.12829822876E+04  0.18827531578E+04  0.12699999809E+01 0. -1.
</event>
<event>
 5   0  0.5533705E-07  0.3396502E+04  0.7818609E-02  0.8138765E-01
        2   -1    0    0  501    0  0.00000000000E+00  0.00000000000E+00  0.20698776209E+04  0.20698776209E+04  0.25500000920E-02 0. -1.
       -2   -1    0    0    0  501  0.00000000000E+00  0.00000000000E+00 -0.13933463335E+04  0.13933463335E+04  0.25500000920E-02 0.  1.
    10030    2    1    2    0    0  0.00000000000E+00  0.00000000000E+00  0.67653128737E+03  0.34632239544E+04  0.33965019617E+04 0.  0.
        1    1    3    3  502    0 -0.13931927178E+04 -0.94083666644E+03  0.58360997774E+03  0.17795393190E+04  0.50400001928E-02 0.  1.
       -1    1    3    3    0  502  0.13931927178E+04  0.94083666644E+03  0.92921309631E+02  0.16836846354E+04  0.50400001928E-02 0. -1.
</event>
<event>
 5   0  0.1035864E-06  0.2893435E+04  0.7818609E-02  0.8274833E-01
        2   -1    0    0  501    0  0.00000000000E+00  0.00000000000E+00  0.28585049684E+04  0.28585049684E+04  0.25500000920E-02 0. -1.
       -2   -1    0    0    0  501  0.00000000000E+00  0.00000000000E+00 -0.73219800106E+03  0.73219800106E+03  0.25500000920E-02 0.  1.
    10030    2    1    2    0    0  0.00000000000E+00  0.00000000000E+00  0.21263069673E+04  0.35907029694E+04  0.28934350685E+04 0.  0.
        5    1    3    3  502    0 -0.28526819304E+03  0.34512375038E+03  0.27703421767E+04  0.28062975985E+04  0.46999998093E+01 0. -1.
       -5    1    3    3    0  502  0.28526819304E+03 -0.34512375038E+03 -0.64403520941E+03  0.78440537096E+03  0.46999998093E+01 0.  1.
</event>
<event>
 5   0  0.3977376E-07  0.3878763E+04  0.7818609E-02  0.8029461E-01
        1   -1    0    0  501    0  0.00000000000E+00  0.00000000000E+00  0.23386513234E+04  0.23386513234E+04  0.50400001928E-02 0. -1.
       -1   -1    0    0    0  501  0.00000000000E+00  0.00000000000E+00 -0.16082777704E+04  0.16082777704E+04  0.50400001928E-02 0.  1.
    10030    2    1    2    0    0  0.00000000000E+00  0.00000000000E+00  0.73037355306E+03  0.39469290938E+04  0.38787631720E+04 0.  0.
        4    1    3    3  502    0 -0.67562668870E+03 -0.71791087872E+03  0.20646671581E+04  0.22879509476E+04  0.12699999809E+01 0. -1.
       -4    1    3    3    0  502  0.67562668870E+03  0.71791087872E+03 -0.13342936050E+04  0.16589781462E+04  0.12699999809E+01 0.  1.
</event>
<event>
 5   0  0.5533705E-07  0.3824471E+04  0.7818609E-02  0.8040924E-01
        2   -1    0    0  501    0  0.00000000000E+00  0.00000000000E+00  0.20916044533E+04  0.20916044534E+04  0.25500000920E-02 0.  1.
       -2   -1    0    0    0  501  0.00000000000E+00  0.00000000000E+00 -0.17482487738E+04  0.17482487738E+04  0.25500000920E-02 0. -1.
    10030    2    1    2    0    0  0.00000000000E+00  0.00000000000E+00  0.34335567958E+03  0.38398532271E+04  0.38244711639E+04 0.  0.
        1    1    3    3  502    0 -0.15705569400E+04  0.51261915479E+03  0.11384720148E+04  0.20063763426E+04  0.50400001928E-02 0.  1.
       -1    1    3    3    0  502  0.15705569400E+04 -0.51261915479E+03 -0.79511633524E+03  0.18334768845E+04  0.50400001928E-02 0. -1.
</event>
<event>
 5   0  0.5385714E-07  0.2045780E+04  0.7818609E-02  0.8585511E-01
        1   -1    0    0  501    0  0.00000000000E+00  0.00000000000E+00  0.79266397289E+03  0.79266397291E+03  0.50400001928E-02 0.  1.
       -1   -1    0    0    0  501  0.00000000000E+00  0.00000000000E+00 -0.13199846540E+04  0.13199846540E+04  0.50400001928E-02 0. -1.
    10030    2    1    2    0    0  0.00000000000E+00  0.00000000000E+00 -0.52732068112E+03  0.21126486269E+04  0.20457803206E+04 0.  0.
        3    1    3    3  502    0 -0.65723449127E+03  0.53301947810E+03 -0.85710654542E+03  0.12044494929E+04  0.10100000352E+00 0. -1.
       -3    1    3    3    0  502  0.65723449127E+03 -0.53301947810E+03  0.32978586430E+03  0.90819913403E+03  0.10100000352E+00 0.  1.
</event>
<event>
 5   0  0.1034683E-06  0.3905425E+04  0.7818609E-02  0.8023902E-01
       -2   -1    0    0    0  501  0.00000000000E+00  0.00000000000E+00  0.16604812537E+04  0.16604812537E+04  0.25500000920E-02 0. -1.
        2   -1    0    0  501    0  0.00000000000E+00  0.00000000000E+00 -0.22963735679E+04  0.22963735679E+04  0.25500000920E-02 0.  1.
    10030    2    1    2    0    0  0.00000000000E+00  0.00000000000E+00 -0.63589231424E+03  0.39568548216E+04  0.39054245664E+04 0.  0.
        2    1    3    3  502    0  0.28928527996E+03 -0.15517665541E+04  0.84672219778E+03  0.17912576285E+04  0.25500000920E-02 0. -1.
       -2    1    3    3    0  502 -0.28928527996E+03  0.15517665541E+04 -0.14826145120E+04  0.21655971931E+04  0.25500000920E-02 0.  1.
</event>
<event>
 5   0  0.5533705E-07  0.2848020E+04  0.7818609E-02  0.8288513E-01
        2   -1    0    0  501    0  0.00000000000E+00  0.00000000000E+00  0.12079990643E+04  0.12079990643E+04  0.25500000920E-02 0.  1.
       -2   -1    0    0    0  501  0.00000000000E+00  0.00000000000E+00 -0.16786471325E+04  0.16786471325E+04  0.25500000920E-02 0. -1.
    10030    2    1    2    0    0  0.00000000000E+00  0.00000000000E+00 -0.47064806819E+03  0.28866461969E+04  0.28480197790E+04 0.  0.
        1    1    3    3  502    0 -0.85859029632E+03 -0.63515861393E+03 -0.11900119422E+04  0.15989784815E+04  0.50400001928E-02 0. -1.
       -1    1    3    3    0  502  0.85859029632E+03  0.63515861393E+03  0.71936387403E+03  0.12876677153E+04  0.50400001928E-02 0.  1.
</event>
<event>
 5   0  0.1034683E-06  0.2793561E+04  0.7818609E-02  0.8305270E-01
        2   -1    0    0  501    0  0.00000000000E+00  0.00000000000E+00  0.14031241573E+04  0.14031241573E+04  0.25500000920E-02 0. -1.
       -2   -1    0    0    0  501  0.00000000000E+00  0.00000000000E+00 -0.13904655202E+04  0.13904655202E+04  0.25500000920E-02 0.  1.
    10030    2    1    2    0    0  0.00000000000E+00  0.00000000000E+00  0.12658637085E+02  0.27935896776E+04  0.27935609973E+04 0.  0.
        2    1    3    3  502    0  0.98933753316E+03 -0.78805060241E+03 -0.58628393293E+03  0.13941095210E+04  0.25500000920E-02 0.  1.
       -2    1    3    3    0  502 -0.98933753316E+03  0.78805060241E+03  0.59894257002E+03  0.13994801566E+04  0.25500000920E-02 0. -1.
</event>
<event>
 5   0  0.7268013E-07  0.3911909E+04  0.7818609E-02  0.8022557E-01
        2   -1    0    0  501    0  0.00000000000E+00  0.00000000000E+00  0.21617898987E+04  0.21617898987E+04  0.25500000920E-02 0.  1.
       -2   -1    0    0    0  501  0.00000000000E+00  0.00000000000E+00 -0.17697178257E+04  0.17697178257E+04  0.25500000920E-02 0. -1.
    10030    2    1    2    0    0  0.00000000000E+00  0.00000000000E+00  0.39207207298E+03  0.39315077245E+04  0.39119090579E+04 0.  0.
        4    1    3    3  502    0 -0.10832573261E+04 -0.40976327239E+02 -0.14401964865E+04  0.18025795479E+04  0.12699999809E+01 0. -1.
       -4    1    3    3    0  502  0.10832573261E+04  0.40976327239E+02  0.18322685595E+04  0.21289281765E+04  0.12699999809E+01 0.  1.
</event>
<event>
 5   0  0.3471602E-07  0.2118612E+04  0.7818609E-02  0.8553089E-01
        1   -1    0    0  501    0  0.00000000000E+00  0.00000000000E+00  0.13116330330E+04  0.13116330330E+04  0.50400001928E-02 0.  1.
       -1   -1    0    0    0  501  0.00000000000E+00  0.00000000000E+00 -0.85552045138E+03  0.85552045140E+03  0.50400001928E-02 0. -1.
    10030    2    1    2    0    0  0.00000000000E+00  0.00000000000E+00  0.45611258161E+03  0.21671534844E+04  0.21186117006E+04 0.  0.
        5    1    3    3  502    0 -0.25169391915E+02 -0.84901031108E+03  0.87553198881E+03  0.12198484988E+04  0.46999998093E+01 0.  1.
       -5    1    3    3    0  502  0.25169391915E+02  0.84901031108E+03 -0.41941940720E+03  0.94730498560E+03  0.46999998093E+01 0. -1.
</event>
<event>
 5   0  0.3977376E-07  0.3901225E+04  0.7818609E-02  0.8024775E-01
        1   -1    0    0  501    0  0.00000000000E+00  0.00000000000E+00  0.17578655387E+04  0.17578655387E+04  0.50400001928E-02 0. -1.
       -1   -1    0    0    0  501  0.00000000000E+00  0.00000000000E+00 -0.21644933449E+04  0.21644933450E+04  0.50400001928E-02 0.  1.
    10030    2    1    2    0    0  0.00000000000E+00  0.00000000000E+00 -0.40662780626E+03  0.39223588836E+04  0.39012245564E+04 0.  0.
        4    1    3    3  502    0 -0.46312255006E+02  0.18750215858E+04  0.33534577652E+03  0.19053370239E+04  0.12699999809E+01 0. -1.
       -4    1    3    3    0  502  0.46312255006E+02 -0.18750215858E+04 -0.74197358279E+03  0.20170218597E+04  0.12699999809E+01 0.  1.
</event>
<event>
 5   0  0.1034683E-06  0.3737802E+04  0.7818609E-02  0.8059636E-01
       -2   -1    0    0    0  501  0.00000000000E+00  0.00000000000E+00  0.13393936821E+04  0.13393936821E+04  0.25500000920E-02 0. -1.
        2   -1    0    0  501    0  0.00000000000E+00  0.00000000000E+00 -0.26077409828E+04  0.26077409828E+04  0.25500000920E-02 0.  1.
    10030    2    1    2    0    0  0.00000000000E+00  0.00000000000E+00 -0.12683473007E+04  0.39471346649E+04  0.37378024543E+04 0.  0.
        2    1    3    3  502    0  0.39500499599E+03 -0.14545194499E+04 -0.18011112129E+04  0.23485436718E+04  0.25500000920E-02 0.  1.
       -2    1    3    3    0  502 -0.39500499599E+03  0.14545194499E+04  0.53276391219E+03  0.15985909931E+04  0.25500000920E-02 0. -1.
</event>
<event>
 5   0  0.1034683E-06  0.2419794E+04  0.7818609E-02  0.8432130E-01
       -2   -1    0    0    0  501  0.00000000000E+00  0.00000000000E+00  0.12447995711E+04  0.12447995711E+04  0.25500000920E-02 0. -1.
        2   -1    0    0  501    0  0.00000000000E+00  0.00000000000E+00 -0.11759727002E+04  0.11759727002E+04  0.25500000920E-02 0.  1.
    10030    2    1    2    0    0  0.00000000000E+00  0.00000000000E+00  0.68826870892E+02  0.24207722713E+04  0.24197936382E+04 0.  0.
        2    1    3    3  502    0  0.18318721772E+03  0.10020534586E+04 -0.61867646027E+03  0.11918176257E+04  0.25500000920E-02 0.  1.
       -2    1    3    3    0  502 -0.18318721772E+03 -0.10020534586E+04  0.68750333117E+03  0.12289546456E+04  0.25500000920E-02 0. -1.
</event>
<event>
 5   0  0.5533705E-07  0.3926998E+04  0.7818609E-02  0.8019437E-01
       -2   -1    0    0    0  501  0.00000000000E+00  0.00000000000E+00  0.25403248989E+04  0.25403248989E+04  0.25500000920E-02 0.  1.
        2   -1    0    0  501    0  0.00000000000E+00  0.00000000000E+00 -0.15176515041E+04  0.15176515041E+04  0.25500000920E-02 0. -1.
    10030    2    1    2    0    0  0.00000000000E+00  0.00000000000E+00  0.10226733948E+04  0.40579764030E+04  0.39269977864E+04 0.  0.
        1    1    3    3  502    0  0.66534483338E+03 -0.17306463352E+04 -0.15636266154E+03  0.18607175409E+04  0.50400001928E-02 0. -1.
       -1    1    3    3    0  502 -0.66534483338E+03  0.17306463352E+04  0.11790360564E+04  0.21972588621E+04  0.50400001928E-02 0.  1.
</event>
<event>
 5   0  0.1035864E-06  0.3795376E+04  0.7818609E-02  0.8047148E-01
        2   -1    0    0  501    0  0.00000000000E+00  0.00000000000E+00  0.17794383322E+04  0.17794383322E+04  0.25500000920E-02 0. -1.
       -2   -1    0    0    0  501  0.00000000000E+00  0.00000000000E+00 -0.20237962786E+04  0.20237962786E+04  0.25500000920E-02 0.  1.
    10030    2    1    2    0    0  0.00000000000E+00  0.00000000000E+00 -0.24435794634E+03  0.38032346108E+04  0.37953764898E+04 0.  0.
        5    1    3    3  502    0 -0.82467632127E+03 -0.13235067780E+04  0.96146528802E+03  0.18319931267E+04  0.46999998093E+01 0. -1.
       -5    1    3    3    0  502  0.82467632127E+03  0.13235067780E+04 -0.12058232344E+04  0.19712414841E+04  0.46999998093E+01 0.  1.
</event>
<event>
 5   0  0.3977376E-07  0.3939281E+04  0.7818609E-02  0.8016909E-01
        1   -1    0    0  501    0  0.00000000000E+00  0.00000000000E+00  0.17252053724E+04  0.17252053724E+04  0.50400001928E-02 0.  1.
       -1   -1    0    0    0  501  0.00000000000E+00  0.00000000000E+00 -0.22487079961E+04  0.22487079961E+04  0.50400001928E-02 0. -1.
    10030    2    1    2    0    0  0.00000000000E+00  0.00000000000E+00 -0.52350262373E+03  0.39739133685E+04  0.39392807037E+04 0.  0.
        4    1    3    3  502    0 -0.17537355771E+03 -0.17943386848E+04  0.53836373689E+03  0.18815537002E+04  0.12699999809E+01 0.  1.
       -4    1    3    3    0  502  0.17537355771E+03  0.17943386848E+04 -0.10618663606E+04  0.20923596683E+04  0.12699999809E+01 0. -1.
</event>
<event>
 5   0  0.1034683E-06  0.3772458E+04  0.7818609E-02  0.8052091E-01
       -2   -1    0    0    0  501  0.00000000000E+00  0.00000000000E+00  0.16621100389E+04  0.16621100389E+04  0.25500000920E-02 0.  1.
        2   -1    0    0  501    0  0.00000000000E+00  0.00000000000E+00 -0.21405677318E+04  0.21405677318E+04  0.25500000920E-02 0. -1.
    10030    2    1    2    0    0  0.00000000000E+00  0.00000000000E+00 -0.47845769288E+03  0.38026777707E+04  0.37724576159E+04 0.  0.
        2    1    3    3  502    0 -0.16340722377E+04  0.91668397865E+03 -0.45858995767E+03  0.19289391758E+04  0.25500000920E-02 0. -1.
       -2    1    3    3    0  502  0.16340722377E+04 -0.91668397865E+03 -0.19867735220E+02  0.18737385948E+04  0.25500000920E-02 0.  1.
</event>
<event>
 5   0  0.1015219E-06  0.4026698E+04  0.7818609E-02  0.7999182E-01
        2   -1    0    0  501    0  0.00000000000E+00  0.00000000000E+00  0.23523824876E+04  0.23523824876E+04  0.25500000920E-02 0. -1.
       -2   -1    0    0    0  501  0.00000000000E+00  0.00000000000E+00 -0.17231781461E+04  0.17231781461E+04  0.25500000920E-02 0.  1.
    10030    2    1    2    0    0  0.00000000000E+00  0.00000000000E+00  0.62920434158E+03  0.40755606337E+04  0.40266979494E+04 0.  0.
        3    1    3    3  502    0 -0.13507443161E+04  0.14178151552E+04  0.78810822106E+03  0.21108824222E+04  0.10100000352E+00 0. -1.
       -3    1    3    3    0  502  0.13507443161E+04 -0.14178151552E+04 -0.15890387947E+03  0.19646782116E+04  0.10100000352E+00 0.  1.
</event>
<event>
 5   0  0.1035864E-06  0.3901007E+04  0.7818609E-02  0.8024820E-01
       -2   -1    0    0    0  501  0.00000000000E+00  0.00000000000E+00  0.25253848262E+04  0.25253848262E+04  0.25500000920E-02 0. -1.
        2   -1    0    0  501    0  0.00000000000E+00  0.00000000000E+00 -0.15064886694E+04  0.15064886694E+04  0.25500000920E-02 0.  1.
    10030    2    1    2    0    0  0.00000000000E+00  0.00000000000E+00  0.10188961567E+04  0.40318734956E+04  0.39010068580E+04 0.  0.
        5    1    3    3  502    0 -0.48915958443E+03  0.11040234418E+04  0.20925965507E+04  0.24160147502E+04  0.46999998093E+01 0. -1.
       -5    1    3    3    0  502  0.48915958443E+03 -0.11040234418E+04 -0.10737003940E+04  0.16158587454E+04  0.46999998093E+01 0.  1.
</event>
<event>
 5   0  0.3471602E-07  0.2165457E+04  0.7818609E-02  0.8532945E-01
        1   -1    0    0  501    0  0.00000000000E+00  0.00000000000E+00  0.13278002557E+04  0.13278002557E+04  0.50400001928E-02 0.  1.
       -1   -1    0    0    0  501  0.00000000000E+00  0.00000000000E+00 -0.88288946623E+03  0.88288946625E+03  0.50400001928E-02 0. -1.
    10030    2    1    2    0    0  0.00000000000E+00  0.00000000000E+00  0.44491078944E+03  0.22106897219E+04  0.21654568654E+04 0.  0.
        5    1    3    3  502    0 -0.78794900323E+02 -0.76765574456E+03 -0.55286532440E+03  0.94930824045E+03  0.46999998093E+01 0. -1.
       -5    1    3    3    0  502  0.78794900323E+02  0.76765574456E+03  0.99777611384E+03  0.12613814815E+04  0.46999998093E+01 0.  1.
</event>
<event>
 5   0  0.7268013E-07  0.3927084E+04  0.7818609E-02  0.8019420E-01
       -2   -1    0    0    0  501  0.00000000000E+00  0.00000000000E+00  0.19116458420E+04  0.19116458420E+04  0.25500000920E-02 0. -1.
        2   -1    0    0  501    0  0.00000000000E+00  0.00000000000E+00 -0.20168467435E+04  0.20168467435E+04  0.25500000920E-02 0.  1.
    10030    2    1    2    0    0  0.00000000000E+00  0.00000000000E+00 -0.10520090155E+03  0.39284925855E+04  0.39270837481E+04 0.  0.
        4    1    3    3  502    0 -0.86055981253E+02  0.19479534935E+04  0.17892724570E+03  0.19580462244E+04  0.12699999809E+01 0.  1.
       -4    1    3    3    0  502  0.86055981253E+02 -0.19479534935E+04 -0.28412814724E+03  0.19704463611E+04  0.12699999809E+01 0. -1.
</event>
<event>
 5   0  0.5385714E-07  0.3843334E+04  0.7818609E-02  0.8036919E-01
        1   -1    0    0  501    0  0.00000000000E+00  0.00000000000E+00  0.11258372322E+04  0.11258372322E+04  0.50400001928E-02 0.  1.
       -1   -1    0    0    0  501  0.00000000000E+00  0.00000000000E+00 -0.32800520195E+04  0.32800520195E+04  0.50400001928E-02 0. -1.
    10030    2    1    2    0    0  0.00000000000E+00  0.00000000000E+00 -0.21542147873E+04  0.44058892517E+04  0.38433343270E+04 0.  0.
        3    1    3    3  502    0  0.12088256299E+04  0.14372858229E+04 -0.61038527232E+03  0.19747455864E+04  0.10100000352E+00 0.  1.
       -3    1    3    3    0  502 -0.12088256299E+04 -0.14372858229E+04 -0.15438295150E+04  0.24311436653E+04  0.10100000352E+00 0. -1.
</event>
<event>
 5   0  0.1144225E-06  0.2051055E+04  0.7818609E-02  0.8583116E-01
        2   -1    0    0  501    0  0.00000000000E+00  0.00000000000E+00  0.18695652663E+04  0.18695652663E+04  0.25500000920E-02 0. -1.
       -2   -1    0    0    0  501  0.00000000000E+00  0.00000000000E+00 -0.56254093741E+03  0.56254093741E+03  0.25500000920E-02 0.  1.
    10030    2    1    2    0    0  0.00000000000E+00  0.00000000000E+00  0.13070243288E+04  0.24321062037E+04  0.20510553356E+04 0.  0.
        5    1    3    3  502    0  0.91198897584E+02  0.14173517958E+03 -0.54599307140E+03  0.57143383174E+03  0.46999998093E+01 0.  1.
       -5    1    3    3    0  502 -0.91198897584E+02 -0.14173517958E+03  0.18530174002E+04  0.18606723719E+04  0.46999998093E+01 0. -1.
</event>
<event>
 5   0  0.1034683E-06  0.2067068E+04  0.7818609E-02  0.8575891E-01
       -2   -1    0    0    0  501  0.00000000000E+00  0.00000000000E+00  0.77800687169E+03  0.77800687169E+03  0.25500000920E-02 0.  1.
        2   -1    0    0  501    0  0.00000000000E+00  0.00000000000E+00 -0.13729857529E+04  0.13729857529E+04  0.25500000920E-02 0. -1.
    10030    2    1    2    0    0  0.00000000000E+00  0.00000000000E+00 -0.59497888124E+03  0.21509926246E+04  0.20670678272E+04 0.  0.
        2    1    3    3  502    0  0.29450447592E+03 -0.71867059272E+03  0.41208442987E+03  0.87922345540E+03  0.25500000920E-02 0.  1.
       -2    1    3    3    0  502 -0.29450447592E+03  0.71867059272E+03 -0.10070633111E+04  0.12717691692E+04  0.25500000920E-02 0. -1.
</event>
<event>
 5   0  0.5533705E-07  0.3918009E+04  0.7818609E-02  0.8021294E-01
       -2   -1    0    0    0  501  0.00000000000E+00  0.00000000000E+00  0.15111652048E+04  0.15111652048E+04  0.25500000920E-02 0.  1.
        2   -1    0    0  501    0  0.00000000000E+00  0.00000000000E+00 -0.25395624801E+04  0.25395624801E+04  0.25500000920E-02 0. -1.
    10030    2    1    2    0    0  0.00000000000E+00  0.00000000000E+00 -0.10283972753E+04  0.40507276849E+04  0.39180089103E+04 0.  0.
        1    1    3    3  502    0 -0.10809804246E+04  0.83163926189E+03 -0.19680901957E+04  0.23944773038E+04  0.50400001928E-02 0. -1.
       -1    1    3    3    0  502  0.10809804246E+04 -0.83163926189E+03  0.93969292032E+03  0.16562503810E+04  0.50400001928E-02 0.  1.
</event>
<event>
 5   0  0.4316671E-07  0.3964995E+04  0.7818609E-02  0.8011646E-01
        1   -1    0    0  501    0  0.00000000000E+00  0.00000000000E+00  0.16148569322E+04  0.16148569323E+04  0.50400001928E-02 0.  1.
       -1   -1    0    0    0  501  0.00000000000E+00  0.00000000000E+00 -0.24338361515E+04  0.24338361515E+04  0.50400001928E-02 0. -1.
    10030    2    1    2    0    0  0.00000000000E+00  0.00000000000E+00 -0.81897921928E+03  0.40486930838E+04  0.39649954256E+04 0.  0.
        2    1    3    3  502    0 -0.12897359218E+04 -0.70427104540E+03 -0.17683249111E+04  0.22992149627E+04  0.25500000920E-02 0. -1.
       -2    1    3    3    0  502  0.12897359218E+04  0.70427104540E+03  0.94934569184E+03  0.17494781211E+04  0.25500000920E-02 0.  1.
</event>
<event>
 5   0  0.5533705E-07  0.3006915E+04  0.7818609E-02  0.8241759E-01
       -2   -1    0    0    0  501  0.00000000000E+00  0.00000000000E+00  0.13249926232E+04  0.13249926232E+04  0.25500000920E-02 0. -1.
        2   -1    0    0  501    0  0.00000000000E+00  0.00000000000E+00 -0.17059598939E+04  0.17059598939E+04  0.25500000920E-02 0.  1.
    10030    2    1    2    0    0  0.00000000000E+00  0.00000000000E+00 -0.38096727065E+03  0.30309525171E+04  0.30069148807E+04 0.  0.
        1    1    3    3  502    0  0.10530447670E+04 -0.10317367464E+04  0.10683239326E+03  0.14781059351E+04  0.50400001928E-02 0. -1.
       -1    1    3    3    0  502 -0.10530447670E+04  0.10317367464E+04 -0.48779966390E+03  0.15528465820E+04  0.50400001928E-02 0.  1.
</event>
<event>
 5   0  0.4877688E-07  0.1953941E+04  0.7818609E-02  0.8628463E-01
        1   -1    0    0  501    0  0.00000000000E+00  0.00000000000E+00  0.15209267087E+04  0.15209267087E+04  0.50400001928E-02 0. -1.
       -1   -1    0    0    0  501  0.00000000000E+00  0.00000000000E+00 -0.62755885246E+03  0.62755885248E+03  0.50400001928E-02 0.  1.
    10030    2    1    2    0    0  0.00000000000E+00  0.00000000000E+00  0.89336785623E+03  0.21484855612E+04  0.19539406542E+04 0.  0.
        1    1    3    3  502    0  0.72469812330E+03 -0.57851098271E+03  0.10847381346E+03  0.93361067650E+03  0.50400001928E-02 0.  1.
       -1    1    3    3    0  502 -0.72469812330E+03  0.57851098271E+03  0.78489404277E+03  0.12148748847E+04  0.50400001928E-02 0. -1.
</event>
<event>
 5   0  0.1034683E-06  0.3050783E+04  0.7818609E-02  0.8229376E-01
        2   -1    0    0  501    0  0.00000000000E+00  0.00000000000E+00  0.17529117704E+04  0.17529117704E+04  0.25500000920E-02 0. -1.
       -2   -1    0    0    0  501  0.00000000000E+00  0.00000000000E+00 -0.13274022420E+04  0.13274022420E+04  0.25500000920E-02 0.  1.
    10030    2    1    2    0    0  0.00000000000E+00  0.00000000000E+00  0.42550952838E+03  0.30803140125E+04  0.30507828596E+04 0.  0.
        2    1    3    3  502    0 -0.13613397565E+04 -0.51032351386E+02 -0.48015990187E+03  0.14444389101E+04  0.25500000920E-02 0.  1.
       -2    1    3    3    0  502  0.13613397565E+04  0.51032351386E+02  0.90566943024E+03  0.16358751024E+04  0.25500000920E-02 0. -1.
</event>
<event>
 5   0  0.5533705E-07  0.3946506E+04  0.7818609E-02  0.8015426E-01
       -2   -1    0    0    0  501  0.00000000000E+00  0.00000000000E+00  0.20308364998E+04  0.20308364998E+04  0.25500000920E-02 0. -1.
        2   -1    0    0  501    0  0.00000000000E+00  0.00000000000E+00 -0.19173022448E+04  0.19173022448E+04  0.25500000920E-02 0.  1.
    10030    2    1    2    0    0  0.00000000000E+00  0.00000000000E+00  0.11353425503E+03  0.39481387446E+04  0.39465059887E+04 0.  0.
        1    1    3    3  502    0 -0.98728480729E+03 -0.18948097303E+03 -0.16419026876E+04  0.19252217445E+04  0.50400001928E-02 0.  1.
       -1    1    3    3    0  502  0.98728480729E+03  0.18948097303E+03  0.17554369426E+04  0.20229170001E+04  0.50400001928E-02 0. -1.
</event>
<event>
 5   0  0.5533705E-07  0.3876407E+04  0.7818609E-02  0.8029954E-01
       -2   -1    0    0    0  501  0.00000000000E+00  0.00000000000E+00  0.14792512777E+04  0.14792512777E+04  0.25500000920E-02 0.  1.
        2   -1    0    0  501    0  0.00000000000E+00  0.00000000000E+00 -0.25395505147E+04  0.25395505147E+04  0.25500000920E-02 0. -1.
    10030    2    1    2    0    0  0.00000000000E+00  0.00000000000E+00 -0.10602992370E+04  0.40188017924E+04  0.38764072767E+04 0.  0.
        1    1    3    3  502    0 -0.13237095572E+04 -0.22464881714E+03 -0.19793383201E+04  0.23917471163E+04  0.50400001928E-02 0. -1.
       -1    1    3    3    0  502  0.13237095572E+04  0.22464881714E+03  0.91903908312E+03  0.16270546761E+04  0.50400001928E-02 0.  1.
</event>
<event>
 5   0  0.3977376E-07  0.2273258E+04  0.7818609E-02  0.8488540E-01
        1   -1    0    0  501    0  0.00000000000E+00  0.00000000000E+00  0.75554847056E+03  0.75554847058E+03  0.50400001928E-02 0. -1.
       -1   -1    0    0    0  501  0.00000000000E+00  0.00000000000E+00 -0.17099178058E+04  0.17099178058E+04  0.50400001928E-02 0.  1.
    10030    2    1    2    0    0  0.00000000000E+00  0.00000000000E+00 -0.95436933526E+03  0.24654662764E+04  0.22732582634E+04 0.  0.
        4    1    3    3  502    0  0.54738575753E+03  0.51090658607E+03 -0.14046301993E+04  0.15917425410E+04  0.12699999809E+01 0.  1.
       -4    1    3    3    0  502 -0.54738575753E+03 -0.51090658607E+03  0.45026086402E+03  0.87372373540E+03  0.12699999809E+01 0. -1.
</event>
<event>
 5   0  0.5533705E-07  0.3849118E+04  0.7818609E-02  0.8035696E-01
        2   -1    0    0  501    0  0.00000000000E+00  0.00000000000E+00  0.24452725082E+04  0.24452725082E+04  0.25500000920E-02 0.  1.
       -2   -1    0    0    0  501  0.00000000000E+00  0.00000000000E+00 -0.15147301082E+04  0.15147301082E+04  0.25500000920E-02 0. -1.
    10030    2    1    2    0    0  0.00000000000E+00  0.00000000000E+00  0.93054240000E+03  0.39600026164E+04  0.38491182840E+04 0.  0.
        1    1    3    3  502    0  0.34308342026E+03  0.60975094834E+03  0.23098019251E+04  0.24134389127E+04  0.50400001928E-02 0.  1.
       -1    1    3    3    0  502 -0.34308342026E+03 -0.60975094834E+03 -0.13792595251E+04  0.15465637037E+04  0.50400001928E-02 0. -1.
</event>
<event>
 5   0  0.4316671E-07  0.2098385E+04  0.7818609E-02  0.8561955E-01
        1   -1    0    0  501    0  0.00000000000E+00  0.00000000000E+00  0.71350831603E+03  0.71350831605E+03  0.50400001928E-02 0. -1.
       -1   -1    0    0    0  501  0.00000000000E+00  0.00000000000E+00 -0.15428058005E+04  0.15428058005E+04  0.50400001928E-02 0.  1.
    10030    2    1    2    0    0  0.00000000000E+00  0.00000000000E+00 -0.82929748444E+03  0.22563141165E+04  0.20983848729E+04 0.  0.
        2    1    3    3  502    0  0.88314171908E+03 -0.45405940997E+03 -0.50492590910E+02  0.99431320292E+03  0.25500000920E-02 0. -1.
       -2    1    3    3    0  502 -0.88314171908E+03  0.45405940997E+03 -0.77880489353E+03  0.12620009136E+04  0.25500000920E-02 0.  1.
</event>
<event>
 5   0  0.1015219E-06  0.3803665E+04  0.7818609E-02  0.8045369E-01
        2   -1    0    0  501    0  0.00000000000E+00  0.00000000000E+00  0.19308204028E+04  0.19308204028E+04  0.25500000920E-02 0.  1.
       -2   -1    0    0    0  501  0.00000000000E+00  0.00000000000E+00 -0.18732801175E+04  0.18732801175E+04  0.25500000920E-02 0. -1.
    10030    2    1    2    0    0  0.00000000000E+00  0.00000000000E+00  0.57540285283E+02  0.38041005203E+04  0.38036653223E+04 0.  0.
        3    1    3    3  502    0 -0.10515726488E+04  0.13765341657E+04  0.81391799880E+03  0.19139262953E+04  0.10100000352E+00 0. -1.
       -3    1    3    3    0  502  0.10515726488E+04 -0.13765341657E+04 -0.75637771352E+03  0.18901742250E+04  0.10100000352E+00 0.  1.
</event>
<event>
 5   0  0.4316671E-07  0.2633342E+04  0.7818609E-02  0.8356963E-01
        1   -1    0    0  501    0  0.00000000000E+00  0.00000000000E+00  0.12196420853E+04  0.12196420853E+04  0.50400001928E-02 0. -1.
       -1   -1    0    0    0  501  0.00000000000E+00  0.00000000000E+00 -0.14214193392E+04  0.14214193392E+04  0.50400001928E-02 0.  1.
    10030    2    1    2    0    0  0.00000000000E+00  0.00000000000E+00 -0.20177725397E+03  0.26410614245E+04  0.26333422466E+04 0.  0.
        2    1    3    3  502    0 -0.12207420286E+04  0.30606445664E+03 -0.48898066826E+03  0.13501809679E+04  0.25500000920E-02 0.  1.
       -2    1    3    3    0  502  0.12207420286E+04 -0.30606445664E+03  0.28720341430E+03  0.12908804566E+04  0.25500000920E-02 0. -1.
</event>
<event>
 5   0  0.3471602E-07  0.2654561E+04  0.7818609E-02  0.8349901E-01
       -1   -1    0    0    0  501  0.00000000000E+00  0.00000000000E+00  0.16487871483E+04  0.16487871483E+04  0.50400001928E-02 0. -1.
        1   -1    0    0  501    0  0.00000000000E+00  0.00000000000E+00 -0.10684665748E+04  0.10684665748E+04  0.50400001928E-02 0.  1.
    10030    2    1    2    0    0  0.00000000000E+00  0.00000000000E+00  0.58032057347E+03  0.27172537231E+04  0.26545613249E+04 0.  0.
        5    1    3    3  502    0 -0.99653778817E+02  0.10614313851E+04 -0.51913453592E+03  0.11857867504E+04  0.46999998093E+01 0.  1.
       -5    1    3    3    0  502  0.99653778817E+02 -0.10614313851E+04  0.10994551094E+04  0.15314669727E+04  0.46999998093E+01 0. -1.
</event>
<event>
 5   0  0.5533705E-07  0.2380091E+04  0.7818609E-02  0.8446995E-01
       -2   -1    0    0    0  501  0.00000000000E+00  0.00000000000E+00  0.48847429548E+03  0.48847429548E+03  0.25500000920E-02 0. -1.
        2   -1    0    0  501    0  0.00000000000E+00  0.00000000000E+00 -0.28992493092E+04  0.28992493092E+04  0.25500000920E-02 0.  1.
    10030    2    1    2    0    0  0.00000000000E+00  0.00000000000E+00 -0.24107750137E+04  0.33877236047E+04  0.23800913963E+04 0.  0.
        1    1    3    3  502    0 -0.11150296152E+04  0.38056741812E+02 -0.17947841480E+04  0.21132887868E+04  0.50400001928E-02 0.  1.
       -1    1    3    3    0  502  0.11150296152E+04 -0.38056741812E+02 -0.61599086569E+03  0.12744348179E+04  0.50400001928E-02 0. -1.
</event>
<event>
 5   0  0.7268013E-07  0.3795603E+04  0.7818609E-02  0.8047099E-01
       -2   -1    0    0    0  501  0.00000000000E+00  0.00000000000E+00  0.19003661111E+04  0.19003661111E+04  0.25500000920E-02 0.  1.
        2   -1    0    0  501    0  0.00000000000E+00  0.00000000000E+00 -0.18952405758E+04  0.18952405758E+04  0.25500000920E-02 0. -1.
    10030    2    1    2    0    0  0.00000000000E+00  0.00000000000E+00  0.51255353374E+01  0.37956066869E+04  0.37956032261E+04 0.  0.
        4    1    3    3  502    0  0.14564345512E+04  0.10001881477E+04  0.69543526126E+03  0.18987389890E+04  0.12699999809E+01 0.  1.
       -4    1    3    3    0  502 -0.14564345512E+04 -0.10001881477E+04 -0.69030972592E+03  0.18968676979E+04  0.12699999809E+01 0. -1.
</event>
<event>
 5   0  0.5533705E-07  0.3764722E+04  0.7818609E-02  0.8053768E-01
       -2   -1    0    0    0  501  0.00000000000E+00  0.00000000000E+00  0.17251793016E+04  0.17251793016E+04  0.25500000920E-02 0. -1.
        2   -1    0    0  501    0  0.00000000000E+00  0.00000000000E+00 -0.20538639903E+04  0.20538639903E+04  0.25500000920E-02 0.  1.
    10030    2    1    2    0    0  0.00000000000E+00  0.00000000000E+00 -0.32868468870E+03  0.37790432920E+04  0.37647223773E+04 0.  0.
        1    1    3    3  502    0  0.46183447960E+03  0.90256466938E+03  0.14276823998E+04  0.17510542835E+04  0.50400001928E-02 0. -1.
       -1    1    3    3    0  502 -0.46183447960E+03 -0.90256466938E+03 -0.17563670885E+04  0.20279890085E+04  0.50400001928E-02 0.  1.
</event>
<event>
 5   0  0.4316671E-07  0.3963128E+04  0.7818609E-02  0.8012026E-01
        1   -1    0    0  501    0  0.00000000000E+00  0.00000000000E+00  0.16978903821E+04  0.16978903821E+04  0.50400001928E-02 0.  1.
       -1   -1    0    0    0  501  0.00000000000E+00  0.00000000000E+00 -0.23126316530E+04  0.23126316530E+04  0.50400001928E-02 0. -1.
    10030    2    1    2    0    0  0.00000000000E+00  0.00000000000E+00 -0.61474127093E+03  0.40105220351E+04  0.39631275735E+04 0.  0.
        2    1    3    3  502    0 -0.17723381042E+04 -0.80502092592E+03  0.67674468914E+02  0.19477733134E+04  0.25500000920E-02 0. -1.
       -2    1    3    3    0  502  0.17723381042E+04  0.80502092592E+03 -0.68241573985E+03  0.20627487217E+04  0.25500000920E-02 0.  1.
</event>
<event>
 5   0  0.1035864E-06  0.3613697E+04  0.7818609E-02  0.8087361E-01
       -2   -1    0    0    0  501  0.00000000000E+00  0.00000000000E+00  0.14515739761E+04  0.14515739761E+04  0.25500000920E-02 0.  1.
        2   -1    0    0  501    0  0.00000000000E+00  0.00000000000E+00 -0.22490769107E+04  0.22490769107E+04  0.25500000920E-02 0. -1.
    10030    2    1    2    0    0  0.00000000000E+00  0.00000000000E+00 -0.79750293459E+03  0.37006508868E+04  0.36136970065E+04 0.  0.
        5    1    3    3  502    0 -0.10403773565E+04 -0.12651421843E+04 -0.11798026753E+04  0.20186446525E+04  0.46999998093E+01 0. -1.
       -5    1    3    3    0  502  0.10403773565E+04  0.12651421843E+04  0.38229974067E+03  0.16820062343E+04  0.46999998093E+01 0.  1.
</event>
<event>
 5   0  0.1015219E-06  0.3349553E+04  0.7818609E-02  0.8150400E-01
        2   -1    0    0  501    0  0.00000000000E+00  0.00000000000E+00  0.97444280782E+03  0.97444280783E+03  0.25500000920E-02 0.  1.
       -2   -1    0    0    0  501  0.00000000000E+00  0.00000000000E+00 -0.28784414443E+04  0.28784414443E+04  0.25500000920E-02 0. -1.
    10030    2    1    2    0    0  0.00000000000E+00  0.00000000000E+00 -0.19039986365E+04  0.38528842521E+04  0.33495531422E+04 0.  0.
        3    1    3    3  502    0  0.70043344647E+03 -0.14168407125E+04 -0.15891605885E+04  0.22413112242E+04  0.10100000352E+00 0. -1.
       -3    1    3    3    0  502 -0.70043344647E+03  0.14168407125E+04 -0.31483804799E+03  0.16115730279E+04  0.10100000352E+00 0.  1.
</event>
<event>
 5   0  0.3977376E-07  0.3750970E+04  0.7818609E-02  0.8056759E-01
        1   -1    0    0  501    0  0.00000000000E+00  0.00000000000E+00  0.21813151651E+04  0.21813151651E+04  0.50400001928E-02 0. -1.
       -1   -1    0    0    0  501  0.00000000000E+00  0.00000000000E+00 -0.16125340144E+04  0.16125340144E+04  0.50400001928E-02 0.  1.
    10030    2    1    2    0    0  0.00000000000E+00  0.00000000000E+00  0.56878115065E+03  0.37938491795E+04  0.37509704876E+04 0.  0.
        4    1    3    3  502    0 -0.91084559851E+03  0.51096345478E+03  0.18599915591E+04  0.21331417133E+04  0.12699999809E+01 0. -1.
       -4    1    3    3    0  502  0.91084559851E+03 -0.51096345478E+03 -0.12912104084E+04  0.16607074661E+04  0.12699999809E+01 0.  1.
</event>
<event>
 5   0  0.5533705E-07  0.2678835E+04  0.7818609E-02  0.8341905E-01
        2   -1    0    0  501    0  0.00000000000E+00  0.00000000000E+00  0.24137287940E+04  0.24137287940E+04  0.25500000920E-02 0.  1.
       -2   -1    0    0    0  501  0.00000000000E+00  0.00000000000E+00 -0.74326442486E+03  0.74326442487E+03  0.25500000920E-02 0. -1.
    10030    2    1    2    0    0  0.00000000000E+00  0.00000000000E+00  0.16704643691E+04  0.31569932188E+04  0.26788346301E+04 0.  0.
        1    1    3    3  502    0 -0.22281151639E+02 -0.72629331236E+02  0.24111877162E+04  0.24123842298E+04  0.50400001928E-02 0.  1.
       -1    1    3    3    0  502  0.22281151639E+02  0.72629331236E+02 -0.74072334713E+03  0.74460898899E+03  0.50400001928E-02 0. -1.
</event>
<event>
 5   0  0.1035864E-06  0.2451557E+04  0.7818609E-02  0.8420450E-01
        2   -1    0    0  501    0  0.00000000000E+00  0.00000000000E+00  0.19421518476E+04  0.19421518476E+04  0.25500000920E-02 0. -1.
       -2   -1    0    0    0  501  0.00000000000E+00  0.00000000000E+00 -0.77364353014E+03  0.77364353014E+03  0.25500000920E-02 0.  1.
    10030    2    1    2    0    0  0.00000000000E+00  0.00000000000E+00  0.11685083174E+04  0.27157953777E+04  0.24515572287E+04 0.  0.
        5    1    3    3  502    0 -0.75948022303E+03 -0.32467769626E+03 -0.41906123350E+03  0.92620744061E+03  0.46999998093E+01 0.  1.
       -5    1    3    3    0  502  0.75948022303E+03  0.32467769626E+03  0.15875695509E+04  0.17895879371E+04  0.46999998093E+01 0. -1.
</event>
<event>
 5   0  0.3977376E-07  0.2979806E+04  0.7818609E-02  0.8249521E-01
        1   -1    0    0  501    0  0.00000000000E+00  0.00000000000E+00  0.15742285787E+04  0.15742285788E+04  0.50400001928E-02 0.  1.
       -1   -1    0    0    0  501  0.00000000000E+00  0.00000000000E+00 -0.14100947990E+04  0.14100947990E+04  0.50400001928E-02 0. -1.
    10030    2    1    2    0    0  0.00000000000E+00  0.00000000000E+00  0.16413377974E+03  0.29843233778E+04  0.29798063906E+04 0.  0.
        4    1    3    3  502    0  0.53216431577E+03 -0.13547420369E+04 -0.23666869766E+03  0.14746316594E+04  0.12699999809E+01 0. -1.
       -4    1    3    3    0  502 -0.53216431577E+03  0.13547420369E+04  0.40080247740E+03  0.15096917183E+04  0.12699999809E+01 0.  1.
</event>
<event>
 5   0  0.3191750E-07  0.3949688E+04  0.7818609E-02  0.8014774E-01
        3   -1    0    0  501    0  0.00000000000E+00  0.00000000000E+00  0.13778249105E+04  0.13778249142E+04  0.10100000352E+00 0.  1.
       -3   -1    0    0    0  501  0.00000000000E+00  0.00000000000E+00 -0.28305542816E+04  0.28305542834E+04  0.10100000352E+00 0. -1.
    10030    2    1    2    0    0  0.00000000000E+00  0.00000000000E+00 -0.14527293710E+04  0.42083791976E+04  0.39496876896E+04 0.  0.
        5    1    3    3  502    0 -0.88290382810E+03  0.10368518873E+03 -0.26053028863E+04  0.27527976691E+04  0.46999998093E+01 0. -1.
       -5    1    3    3    0  502  0.88290382810E+03 -0.10368518873E+03  0.11525735152E+04  0.14555815285E+04  0.46999998093E+01 0.  1.
</event>
<event>
 5   0  0.7268013E-07  0.3278560E+04  0.7818609E-02  0.8168372E-01
       -2   -1    0    0    0  501  0.00000000000E+00  0.00000000000E+00  0.13380196109E+04  0.13380196109E+04  0.25500000920E-02 0. -1.
        2   -1    0    0  501    0  0.00000000000E+00  0.00000000000E+00 -0.20083701784E+04  0.20083701784E+04  0.25500000920E-02 0.  1.
    10030    2    1    2    0    0  0.00000000000E+00  0.00000000000E+00 -0.67035056754E+03  0.33463897893E+04  0.32785598574E+04 0.  0.
        4    1    3    3  502    0 -0.11655146813E+04 -0.10609430339E+04  0.12494205113E+03  0.15810239474E+04  0.12699999809E+01 0. -1.
       -4    1    3    3    0  502  0.11655146813E+04  0.10609430339E+04 -0.79529261867E+03  0.17653658418E+04  0.12699999809E+01 0.  1.
</event>
<event>
 5   0  0.3471602E-07  0.3065930E+04  0.7818609E-02  0.8225151E-01
        1   -1    0    0  501    0  0.00000000000E+00  0.00000000000E+00  0.17486204921E+04  0.17486204921E+04  0.50400001928E-02 0. -1.
       -1   -1    0    0    0  501  0.00000000000E+00  0.00000000000E+00 -0.13439059239E+04  0.13439059239E+04  0.50400001928E-02 0.  1.
    10030    2    1    2    0    0  0.00000000000E+00  0.00000000000E+00  0.40471456821E+03  0.30925264160E+04  0.30659298348E+04 0.  0.
        5    1    3    3  502    0  0.82721342027E+03 -0.16671766801E+03 -0.10885426571E+04  0.13773249543E+04  0.46999998093E+01 0.  1.
       -5    1    3    3    0  502 -0.82721342027E+03  0.16671766801E+03  0.14932572253E+04  0.17152014617E+04  0.46999998093E+01 0. -1.
</event>
<event>
 5   0  0.1034683E-06  0.3458284E+04  0.7818609E-02  0.8123748E-01
        2   -1    0    0  501    0  0.00000000000E+00  0.00000000000E+00  0.11321279661E+04  0.11321279661E+04  0.25500000920E-02 0.  1.
       -2   -1    0    0    0  501  0.00000000000E+00  0.00000000000E+00 -0.26409845663E+04  0.26409845663E+04  0.25500000920E-02 0. -1.
    10030    2    1    2    0    0  0.00000000000E+00  0.00000000000E+00 -0.15088566002E+04  0.37731125324E+04  0.34582842483E+04 0.  0.
        2    1    3    3  502    0  0.11057058514E+04 -0.62713964477E+03 -0.20333360562E+04  0.23979877150E+04  0.25500000920E-02 0. -1.
       -2    1    3    3    0  502 -0.11057058514E+04  0.62713964477E+03  0.52447945591E+03  0.13751248174E+04  0.25500000920E-02 0.  1.
</event>
<event>
 5   0  0.4316671E-07  0.2394706E+04  0.7818609E-02  0.8441488E-01
        1   -1    0    0  501    0  0.00000000000E+00  0.00000000000E+00  0.96698067146E+03  0.96698067147E+03  0.50400001928E-02 0. -1.
       -1   -1    0    0    0  501  0.00000000000E+00  0.00000000000E+00 -0.14826084523E+04  0.14826084523E+04  0.50400001928E-02 0.  1.
    10030    2    1    2    0    0  0.00000000000E+00  0.00000000000E+00 -0.51562778084E+03  0.24495891238E+04  0.23947055909E+04 0.  0.
        2    1    3    3  502    0 -0.75487276712E+03 -0.81539715614E+03 -0.71407266858E+03  0.13208350362E+04  0.25500000920E-02 0.  1.
       -2    1    3    3    0  502  0.75487276712E+03  0.81539715614E+03  0.19844488774E+03  0.11287540876E+04  0.25500000920E-02 0. -1.
</event>
<event>
 5   0  0.6914315E-07  0.1915187E+04  0.7818609E-02  0.8647333E-01
        1   -1    0    0  501    0  0.00000000000E+00  0.00000000000E+00  0.87082021658E+03  0.87082021659E+03  0.50400001928E-02 0.  1.
       -1   -1    0    0    0  501  0.00000000000E+00  0.00000000000E+00 -0.10530136611E+04  0.10530136611E+04  0.50400001928E-02 0. -1.
    10030    2    1    2    0    0  0.00000000000E+00  0.00000000000E+00 -0.18219344454E+03  0.19238338777E+04  0.19151872853E+04 0.  0.
        4    1    3    3  502    0  0.78224586581E+03  0.45103471205E+03  0.22915774440E+03  0.93158777942E+03  0.12699999809E+01 0.  1.
       -4    1    3    3    0  502 -0.78224586581E+03 -0.45103471205E+03 -0.41135118894E+03  0.99224609830E+03  0.12699999809E+01 0. -1.
</event>
<event>
 5   0  0.1034683E-06  0.3706034E+04  0.7818609E-02  0.8066626E-01
       -2   -1    0    0    0  501  0.00000000000E+00  0.00000000000E+00  0.16014302617E+04  0.16014302617E+04  0.25500000920E-02 0. -1.
        2   -1    0    0  501    0  0.00000000000E+00  0.00000000000E+00 -0.21441286750E+04  0.21441286750E+04  0.25500000920E-02 0.  1.
    10030    2    1    2    0    0  0.00000000000E+00  0.00000000000E+00 -0.54269841325E+03  0.37455589367E+04  0.37060342930E+04 0.  0.
        2    1    3    3  502    0 -0.83620447179E+03 -0.63411092312E+03  0.12721376732E+04  0.16491418499E+04  0.25500000920E-02 0. -1.
       -2    1    3    3    0  502  0.83620447179E+03  0.63411092312E+03 -0.18148360864E+04  0.20964170869E+04  0.25500000920E-02 0.  1.
</event>
<event>
 5   0  0.7268013E-07  0.3775137E+04  0.7818609E-02  0.8051512E-01
        2   -1    0    0  501    0  0.00000000000E+00  0.00000000000E+00  0.13350884730E+04  0.13350884730E+04  0.25500000920E-02 0. -1.
       -2   -1    0    0    0  501  0.00000000000E+00  0.00000000000E+00 -0.26686725051E+04  0.26686725051E+04  0.25500000920E-02 0.  1.
    10030    2    1    2    0    0  0.00000000000E+00  0.00000000000E+00 -0.13335840321E+04  0.40037609781E+04  0.37751365007E+04 0.  0.
        4    1    3    3  502    0 -0.27089637793E+03  0.15394475190E+04  0.45541378394E+03  0.16280930068E+04  0.12699999809E+01 0. -1.
       -4    1    3    3    0  502  0.27089637793E+03 -0.15394475190E+04 -0.17889978161E+04  0.23756679713E+04  0.12699999809E+01 0.  1.
</event>
<event>
 5   0  0.1035864E-06  0.3966151E+04  0.7818609E-02  0.8011410E-01
        2   -1    0    0  501    0  0.00000000000E+00  0.00000000000E+00  0.17016363667E+04  0.17016363667E+04  0.25500000920E-02 0. -1.
       -2   -1    0    0    0  501  0.00000000000E+00  0.00000000000E+00 -0.23110630769E+04  0.23110630769E+04  0.25500000920E-02 0.  1.
    10030    2    1    2    0    0  0.00000000000E+00  0.00000000000E+00 -0.60942671021E+03  0.40126994435E+04  0.39661512716E+04 0.  0.
        5    1    3    3  502    0  0.93937022646E+02  0.16910257379E+04  0.73898216023E+03  0.18478389902E+04  0.46999998093E+01 0. -1.
       -5    1    3    3    0  502 -0.93937022646E+02 -0.16910257379E+04 -0.13484088704E+04  0.21648604533E+04  0.46999998093E+01 0.  1.
</event>
<event>
 5   0  0.4627905E-07  0.3920137E+04  0.7818609E-02  0.8020854E-01
       -1   -1    0    0    0  501  0.00000000000E+00  0.00000000000E+00  0.13840256290E+04  0.13840256290E+04  0.50400001928E-02 0. -1.
        1   -1    0    0  501    0  0.00000000000E+00  0.00000000000E+00 -0.27758649395E+04  0.27758649395E+04  0.50400001928E-02 0.  1.
    10030    2    1    2    0    0  0.00000000000E+00  0.00000000000E+00 -0.13918393105E+04  0.41598905686E+04  0.39201368441E+04 0.  0.
        1    1    3    3  502    0 -0.41922863204E+03  0.18315430173E+04 -0.12882384765E+04  0.22781266081E+04  0.50400001928E-02 0. -1.
       -1    1    3    3    0  502  0.41922863204E+03 -0.18315430173E+04 -0.10360083403E+03  0.18817639605E+04  0.50400001928E-02 0.  1.
</event>
<event>
 5   0  0.3977376E-07  0.2008013E+04  0.7818609E-02  0.8602883E-01
       -1   -1    0    0    0  501  0.00000000000E+00  0.00000000000E+00  0.69805256286E+03  0.69805256288E+03  0.50400001928E-02 0.  1.
        1   -1    0    0  501    0  0.00000000000E+00  0.00000000000E+00 -0.14440593313E+04  0.14440593313E+04  0.50400001928E-02 0. -1.
    10030    2    1    2    0    0  0.00000000000E+00  0.00000000000E+00 -0.74600676845E+03  0.21421118942E+04  0.20080132641E+04 0.  0.
        4    1    3    3  502    0 -0.55442194401E+03  0.83688084903E+03 -0.39067647779E+03  0.10772107364E+04  0.12699999809E+01 0.  1.
       -4    1    3    3    0  502  0.55442194401E+03 -0.83688084903E+03 -0.35533029067E+03  0.10649011578E+04  0.12699999809E+01 0. -1.
</event>
<event>
 5   0  0.7268013E-07  0.2467581E+04  0.7818609E-02  0.8414627E-01
       -2   -1    0    0    0  501  0.00000000000E+00  0.00000000000E+00  0.64745509300E+03  0.64745509301E+03  0.25500000920E-02 0. -1.
        2   -1    0    0  501    0  0.00000000000E+00  0.00000000000E+00 -0.23511104049E+04  0.23511104049E+04  0.25500000920E-02 0.  1.
    10030    2    1    2    0    0  0.00000000000E+00  0.00000000000E+00 -0.17036553119E+04  0.29985654979E+04  0.24675805201E+04 0.  0.
        4    1    3    3  502    0  0.78068724570E+03 -0.93504331002E+03 -0.10901346720E+04  0.16346784953E+04  0.12699999809E+01 0.  1.
       -4    1    3    3    0  502 -0.78068724570E+03  0.93504331002E+03 -0.61352063992E+03  0.13638870025E+04  0.12699999809E+01 0. -1.
</event>
<event>
 5   0  0.5385714E-07  0.2304684E+04  0.7818609E-02  0.8476077E-01
        1   -1    0    0  501    0  0.00000000000E+00  0.00000000000E+00  0.12616748098E+04  0.12616748098E+04  0.50400001928E-02 0.  1.
       -1   -1    0    0    0  501  0.00000000000E+00  0.00000000000E+00 -0.10524836548E+04  0.10524836548E+04  0.50400001928E-02 0. -1.
    10030    2    1    2    0    0  0.00000000000E+00  0.00000000000E+00  0.20919115506E+03  0.23141584646E+04  0.23046840261E+04 0.  0.
        3    1    3    3  502    0 -0.60703103061E+02 -0.17963428762E+03  0.12459030660E+04  0.12602491040E+04  0.10100000352E+00 0.  1.
       -3    1    3    3    0  502  0.60703103061E+02  0.17963428762E+03 -0.10367119109E+04  0.10539093607E+04  0.10100000352E+00 0. -1.
</event>
<event>
 5   0  0.4627905E-07  0.2320516E+04  0.7818609E-02  0.8469875E-01
        1   -1    0    0  501    0  0.00000000000E+00  0.00000000000E+00  0.88469875098E+03  0.88469875100E+03  0.50400001928E-02 0.  1.
       -1   -1    0    0    0  501  0.00000000000E+00  0.00000000000E+00 -0.15216467677E+04  0.15216467678E+04  0.50400001928E-02 0. -1.
    10030    2    1    2    0    0  0.00000000000E+00  0.00000000000E+00 -0.63694801677E+03  0.24063455188E+04  0.23205163175E+04 0.  0.
        1    1    3    3  502    0 -0.28351747187E+03 -0.11066793914E+04 -0.10830160353E+03  0.11475411406E+04  0.50400001928E-02 0.  1.
       -1    1    3    3    0  502  0.28351747187E+03  0.11066793914E+04 -0.52864641323E+03  0.12588043781E+04  0.50400001928E-02 0. -1.
</event>
<event>
 5   0  0.5109324E-07  0.1920680E+04  0.7818609E-02  0.8644631E-01
        1   -1    0    0  501    0  0.00000000000E+00  0.00000000000E+00  0.69191718932E+03  0.69191718934E+03  0.50400001928E-02 0.  1.
       -1   -1    0    0    0  501  0.00000000000E+00  0.00000000000E+00 -0.13328944467E+04  0.13328944467E+04  0.50400001928E-02 0. -1.
    10030    2    1    2    0    0  0.00000000000E+00  0.00000000000E+00 -0.64097725733E+03  0.20248116360E+04  0.19206796497E+04 0.  0.
        1    1    3    3  502    0  0.59468055797E+03 -0.19868979717E+03 -0.10873394314E+04  0.12551612011E+04  0.50400001928E-02 0. -1.
       -1    1    3    3    0  502 -0.59468055797E+03  0.19868979717E+03  0.44636217408E+03  0.76965043494E+03  0.50400001928E-02 0.  1.
</event>
<event>
 5   0  0.7268013E-07  0.3219657E+04  0.7818609E-02  0.8183645E-01
        2   -1    0    0  501    0  0.00000000000E+00  0.00000000000E+00  0.13226650414E+04  0.13226650414E+04  0.25500000920E-02 0.  1.
       -2   -1    0    0    0  501  0.00000000000E+00  0.00000000000E+00 -0.19593381011E+04  0.19593381011E+04  0.25500000920E-02 0. -1.
    10030    2    1    2    0    0  0.00000000000E+00  0.00000000000E+00 -0.63667305968E+03  0.32820031426E+04  0.32196571313E+04 0.  0.
        4    1    3    3  502    0 -0.73028369621E+02  0.16080107649E+04 -0.29521167632E+03  0.16365156002E+04  0.12699999809E+01 0. -1.
       -4    1    3    3    0  502  0.73028369621E+02 -0.16080107649E+04 -0.34146138336E+03  0.16454875424E+04  0.12699999809E+01 0.  1.
</event>
<event>
 5   0  0.5774880E-07  0.1967523E+04  0.7818609E-02  0.8621957E-01
       -2   -1    0    0    0  501  0.00000000000E+00  0.00000000000E+00  0.84471424560E+03  0.84471424560E+03  0.25500000920E-02 0. -1.
        2   -1    0    0  501    0  0.00000000000E+00  0.00000000000E+00 -0.11456967242E+04  0.11456967242E+04  0.25500000920E-02 0.  1.
    10030    2    1    2    0    0  0.00000000000E+00  0.00000000000E+00 -0.30098247857E+03  0.19904109698E+04  0.19675226495E+04 0.  0.
        1    1    3    3  502    0 -0.13504638136E+02  0.83864469950E+03  0.36956986482E+03  0.91656379606E+03  0.50400001928E-02 0. -1.
       -1    1    3    3    0  502  0.13504638136E+02 -0.83864469950E+03 -0.67055234339E+03  0.10738471737E+04  0.50400001928E-02 0.  1.
</event>
<event>
 5   0  0.1015219E-06  0.3467170E+04  0.7818609E-02  0.8121615E-01
        2   -1    0    0  501    0  0.00000000000E+00  0.00000000000E+00  0.17020208640E+04  0.17020208640E+04  0.25500000920E-02 0.  1.
       -2   -1    0    0    0  501  0.00000000000E+00  0.00000000000E+00 -0.17657342226E+04  0.17657342226E+04  0.25500000920E-02 0. -1.
    10030    2    1    2    0    0  0.00000000000E+00  0.00000000000E+00 -0.63713358677E+02  0.34677550866E+04  0.34671697317E+04 0.  0.
        3    1    3    3  502    0  0.87241404986E+03  0.26882508598E+03 -0.15058569191E+04  0.17609594749E+04  0.10100000352E+00 0. -1.
       -3    1    3    3    0  502 -0.87241404986E+03 -0.26882508598E+03  0.14421435604E+04  0.17067956117E+04  0.10100000352E+00 0.  1.
</event>
<event>
 5   0  0.5533705E-07  0.3905802E+04  0.7818609E-02  0.8023824E-01
       -2   -1    0    0    0  501  0.00000000000E+00  0.00000000000E+00  0.15517491019E+04  0.15517491019E+04  0.25500000920E-02 0. -1.
        2   -1    0    0  501    0  0.00000000000E+00  0.00000000000E+00 -0.24577575235E+04  0.24577575235E+04  0.25500000920E-02 0.  1.
    10030    2    1    2    0    0  0.00000000000E+00  0.00000000000E+00 -0.90600842154E+03  0.40095066254E+04  0.39058023656E+04 0.  0.
        1    1    3    3  502    0 -0.21473132058E+03  0.19212709197E+04 -0.16920120898E+03  0.19406237492E+04  0.50400001928E-02 0. -1.
       -1    1    3    3    0  502  0.21473132058E+03 -0.19212709197E+04 -0.73680721256E+03  0.20688828762E+04  0.50400001928E-02 0.  1.
</event>
<event>
 5   0  0.3471602E-07  0.3947468E+04  0.7818609E-02  0.8015228E-01
        1   -1    0    0  501    0  0.00000000000E+00  0.00000000000E+00  0.17142833398E+04  0.17142833398E+04  0.50400001928E-02 0. -1.
       -1   -1    0    0    0  501  0.00000000000E+00  0.00000000000E+00 -0.22724521397E+04  0.22724521397E+04  0.50400001928E-02 0.  1.
    10030    2    1    2    0    0  0.00000000000E+00  0.00000000000E+00 -0.55816879994E+03  0.39867354795E+04  0.39474684767E+04 0.  0.
        5    1    3    3  502    0  0.10211704562E+04 -0.16845242648E+04 -0.40357308242E+03  0.20107969619E+04  0.46999998093E+01 0. -1.
       -5    1    3    3    0  502 -0.10211704562E+04  0.16845242648E+04 -0.15459571752E+03  0.19759385176E+04  0.46999998093E+01 0.  1.
</event>
<event>
 5   0  0.1015219E-06  0.3941120E+04  0.7818609E-02  0.8016531E-01
       -2   -1    0    0    0  501  0.00000000000E+00  0.00000000000E+00  0.23562316608E+04  0.23562316608E+04  0.25500000920E-02 0.  1.
        2   -1    0    0  501    0  0.00000000000E+00  0.00000000000E+00 -0.16480156454E+04  0.16480156454E+04  0.25500000920E-02 0. -1.
    10030    2    1    2    0    0  0.00000000000E+00  0.00000000000E+00  0.70821601544E+03  0.40042473062E+04  0.39411199633E+04 0.  0.
        3    1    3    3  502    0  0.53322229425E+03 -0.78752778653E+03 -0.13993925807E+04  0.16919886627E+04  0.10100000352E+00 0. -1.
       -3    1    3    3    0  502 -0.53322229425E+03  0.78752778653E+03  0.21076085962E+04  0.23122586435E+04  0.10100000352E+00 0.  1.
</event>
<event>
 5   0  0.1034683E-06  0.3031879E+04  0.7818609E-02  0.8234686E-01
        2   -1    0    0  501    0  0.00000000000E+00  0.00000000000E+00  0.17548060517E+04  0.17548060517E+04  0.25500000920E-02 0. -1.
       -2   -1    0    0    0  501  0.00000000000E+00  0.00000000000E+00 -0.13095879972E+04  0.13095879972E+04  0.25500000920E-02 0.  1.
    10030    2    1    2    0    0  0.00000000000E+00  0.00000000000E+00  0.44521805455E+03  0.30643940489E+04  0.30318792474E+04 0.  0.
        2    1    3    3  502    0 -0.97154525957E+03  0.80535508389E+03 -0.62638491492E+03  0.14088488436E+04  0.25500000920E-02 0.  1.
       -2    1    3    3    0  502  0.97154525957E+03 -0.80535508389E+03  0.10716029695E+04  0.16555452053E+04  0.25500000920E-02 0. -1.
</event>
<event>
 5   0  0.1015219E-06  0.3057783E+04  0.7818609E-02  0.8227420E-01
       -2   -1    0    0    0  501  0.00000000000E+00  0.00000000000E+00  0.98179304429E+03  0.98179304429E+03  0.25500000920E-02 0. -1.
        2   -1    0    0  501    0  0.00000000000E+00  0.00000000000E+00 -0.23808572596E+04  0.23808572596E+04  0.25500000920E-02 0.  1.
    10030    2    1    2    0    0  0.00000000000E+00  0.00000000000E+00 -0.13990642153E+04  0.33626503039E+04  0.30577829203E+04 0.  0.
        3    1    3    3  502    0  0.63575642641E+03 -0.39155030470E+03 -0.21667223295E+04  0.22917642850E+04  0.10100000352E+00 0.  1.
       -3    1    3    3    0  502 -0.63575642641E+03  0.39155030470E+03  0.76765811420E+03  0.10708860188E+04  0.10100000352E+00 0. -1.
</event>
<event>
 5   0  0.3977376E-07  0.1973969E+04  0.7818609E-02  0.8618889E-01
       -1   -1    0    0    0  501  0.00000000000E+00  0.00000000000E+00  0.46366005725E+03  0.46366005728E+03  0.50400001928E-02 0.  1.
        1   -1    0    0  501    0  0.00000000000E+00  0.00000000000E+00 -0.21009744832E+04  0.21009744832E+04  0.50400001928E-02 0. -1.
    10030    2    1    2    0    0  0.00000000000E+00  0.00000000000E+00 -0.16373144259E+04  0.25646345405E+04  0.19739685400E+04 0.  0.
        4    1    3    3  502    0 -0.38601088814E+03 -0.44568592179E+03  0.20970096913E+03  0.62579266215E+03  0.12699999809E+01 0.  1.
       -4    1    3    3    0  502  0.38601088814E+03  0.44568592179E+03 -0.18470153951E+04  0.19388418783E+04  0.12699999809E+01 0. -1.
</event>
<event>
 5   0  0.1034683E-06  0.2616745E+04  0.7818609E-02  0.8362536E-01
       -2   -1    0    0    0  501  0.00000000000E+00  0.00000000000E+00  0.10388553836E+04  0.10388553836E+04  0.25500000920E-02 0. -1.
        2   -1    0    0  501    0  0.00000000000E+00  0.00000000000E+00 -0.16478119449E+04  0.16478119449E+04  0.25500000920E-02 0.  1.
    10030    2    1    2    0    0  0.00000000000E+00  0.00000000000E+00 -0.60895656136E+03  0.26866673285E+04  0.26167447794E+04 0.  0.
        2    1    3    3  502    0 -0.92296339530E+03 -0.87381793396E+03 -0.62328984254E+03  0.14155950829E+04  0.25500000920E-02 0. -1.
       -2    1    3    3    0  502  0.92296339530E+03  0.87381793396E+03  0.14333281180E+02  0.12710722457E+04  0.25500000920E-02 0.  1.
</event>
<event>
 5   0  0.3471602E-07  0.3805566E+04  0.7818609E-02  0.8044961E-01
        1   -1    0    0  501    0  0.00000000000E+00  0.00000000000E+00  0.24631176471E+04  0.24631176471E+04  0.50400001928E-02 0. -1.
       -1   -1    0    0    0  501  0.00000000000E+00  0.00000000000E+00 -0.14699188515E+04  0.14699188515E+04  0.50400001928E-02 0.  1.
    10030    2    1    2    0    0  0.00000000000E+00  0.00000000000E+00  0.99319879566E+03  0.39330364986E+04  0.38055659568E+04 0.  0.
        5    1    3    3  502    0 -0.10146058505E+03 -0.97721134912E+03  0.21806980997E+04  0.23917990223E+04  0.46999998093E+01 0. -1.
       -5    1    3    3    0  502  0.10146058505E+03  0.97721134912E+03 -0.11874993040E+04  0.15412374763E+04  0.46999998093E+01 0.  1.
</event>
<event>
 5   0  0.5385714E-07  0.2077231E+04  0.7818609E-02  0.8571340E-01
       -1   -1    0    0    0  501  0.00000000000E+00  0.00000000000E+00  0.13955405149E+04  0.13955405149E+04  0.50400001928E-02 0. -1.
        1   -1    0    0  501    0  0.00000000000E+00  0.00000000000E+00 -0.77297773295E+03  0.77297773297E+03  0.50400001928E-02 0.  1.
    10030    2    1    2    0    0  0.00000000000E+00  0.00000000000E+00  0.62256278191E+03  0.21685182478E+04  0.20772306020E+04 0.  0.
        3    1    3    3  502    0 -0.62098885661E+03  0.76978895711E+03  0.64226280257E+03  0.11792810167E+04  0.10100000352E+00 0. -1.
       -3    1    3    3    0  502  0.62098885661E+03 -0.76978895711E+03 -0.19700020662E+02  0.98923723117E+03  0.10100000352E+00 0.  1.
</event>
<event>
 5   0  0.7268013E-07  0.2581382E+04  0.7818609E-02  0.8374553E-01
        2   -1    0    0  501    0  0.00000000000E+00  0.00000000000E+00  0.17375944316E+04  0.17375944316E+04  0.25500000920E-02 0. -1.
       -2   -1    0    0    0  501  0.00000000000E+00  0.00000000000E+00 -0.95872962170E+03  0.95872962170E+03  0.25500000920E-02 0.  1.
    10030    2    1    2    0    0  0.00000000000E+00  0.00000000000E+00  0.77886480990E+03  0.26963240533E+04  0.25813819958E+04 0.  0.
        4    1    3    3  502    0 -0.94742966291E+03 -0.68954844357E+03  0.95461881646E+03  0.15114227469E+04  0.12699999809E+01 0. -1.
       -4    1    3    3    0  502  0.94742966291E+03  0.68954844357E+03 -0.17575400657E+03  0.11849013064E+04  0.12699999809E+01 0.  1.
</event>
<event>
 5   0  0.3471602E-07  0.2126851E+04  0.7818609E-02  0.8549507E-01
        1   -1    0    0  501    0  0.00000000000E+00  0.00000000000E+00  0.51854818648E+03  0.51854818650E+03  0.50400001928E-02 0.  1.
       -1   -1    0    0    0  501  0.00000000000E+00  0.00000000000E+00 -0.21808457875E+04  0.21808457875E+04  0.50400001928E-02 0. -1.
    10030    2    1    2    0    0  0.00000000000E+00  0.00000000000E+00 -0.16622976010E+04  0.26993939740E+04  0.21268508440E+04 0.  0.
        5    1    3    3  502    0  0.93414947897E+03  0.95694422764E+02 -0.19774561413E+03  0.95964477256E+03  0.46999998093E+01 0.  1.
       -5    1    3    3    0  502 -0.93414947897E+03 -0.95694422764E+02 -0.14645519869E+04  0.17397492014E+04  0.46999998093E+01 0. -1.
</event>
<event>
 5   0  0.3977376E-07  0.3775431E+04  0.7818609E-02  0.8051448E-01
       -1   -1    0    0    0  501  0.00000000000E+00  0.00000000000E+00  0.22655047942E+04  0.22655047942E+04  0.50400001928E-02 0. -1.
        1   -1    0    0  501    0  0.00000000000E+00  0.00000000000E+00 -0.15729251160E+04  0.15729251160E+04  0.50400001928E-02 0.  1.
    10030    2    1    2    0    0  0.00000000000E+00  0.00000000000E+00  0.69257967821E+03  0.38384299102E+04  0.37754307788E+04 0.  0.
        4    1    3    3  502    0  0.53534187441E+03  0.17920132659E+04  0.60661980690E+03  0.19661870894E+04  0.12699999809E+01 0. -1.
       -4    1    3    3    0  502 -0.53534187441E+03 -0.17920132659E+04  0.85959871309E+02  0.18722428208E+04  0.12699999809E+01 0.  1.
</event>
<event>
 5   0  0.3471602E-07  0.3814562E+04  0.7818609E-02  0.8043037E-01
       -1   -1    0    0    0  501  0.00000000000E+00  0.00000000000E+00  0.14221992333E+04  0.14221992333E+04  0.50400001928E-02 0. -1.
        1   -1    0    0  501    0  0.00000000000E+00  0.00000000000E+00 -0.25578142930E+04  0.25578142930E+04  0.50400001928E-02 0.  1.
    10030    2    1    2    0    0  0.00000000000E+00  0.00000000000E+00 -0.11356150597E+04  0.39800135263E+04  0.38145623741E+04 0.  0.
        5    1    3    3  502    0 -0.17380903299E+03  0.10374816448E+04  0.10921475677E+04  0.15163726926E+04  0.46999998093E+01 0. -1.
       -5    1    3    3    0  502  0.17380903299E+03 -0.10374816448E+04 -0.22277626274E+04  0.24636408337E+04  0.46999998093E+01 0.  1.
</event>
<event>
 5   0  0.1015219E-06  0.3232879E+04  0.7818609E-02  0.8180188E-01
        2   -1    0    0  501    0  0.00000000000E+00  0.00000000000E+00  0.29725167163E+04  0.29725167163E+04  0.25500000920E-02 0. -1.
       -2   -1    0    0    0  501  0.00000000000E+00  0.00000000000E+00 -0.87901145179E+03  0.87901145179E+03  0.25500000920E-02 0.  1.
    10030    2    1    2    0    0  0.00000000000E+00  0.00000000000E+00  0.20935052645E+04  0.38515281680E+04  0.32328787384E+04 0.  0.
        3    1    3    3  502    0  0.12142323304E+03  0.26583704914E+03  0.29407793074E+04  0.29552657889E+04  0.10100000352E+00 0. -1.
       -3    1    3    3    0  502 -0.12142323304E+03 -0.26583704914E+03 -0.84727404293E+03  0.89626237912E+03  0.10100000352E+00 0.  1.
</event>
<event>
 5   0  0.3977376E-07  0.4044347E+04  0.7818609E-02  0.7995660E-01
        1   -1    0    0  501    0  0.00000000000E+00  0.00000000000E+00  0.20336039684E+04  0.20336039684E+04  0.50400001928E-02 0.  1.
       -1   -1    0    0    0  501  0.00000000000E+00  0.00000000000E+00 -0.20108073449E+04  0.20108073449E+04  0.50400001928E-02 0. -1.
    10030    2    1    2    0    0  0.00000000000E+00  0.00000000000E+00  0.22796623524E+02  0.40444113132E+04  0.40443470653E+04 0.  0.
        4    1    3    3  502    0  0.23236746723E+02  0.40040492154E+03 -0.19706321991E+04  0.20110337950E+04  0.12699999809E+01 0. -1.
       -4    1    3    3    0  502 -0.23236746723E+02 -0.40040492154E+03  0.19934288227E+04  0.20333775182E+04  0.12699999809E+01 0.  1.
</event>
<event>
 5   0  0.3191750E-07  0.2084464E+04  0.7818609E-02  0.8568118E-01
        3   -1    0    0  501    0  0.00000000000E+00  0.00000000000E+00  0.12705017618E+04  0.12705017658E+04  0.10100000352E+00 0. -1.
       -3   -1    0    0    0  501  0.00000000000E+00  0.00000000000E+00 -0.85497497681E+03  0.85497498277E+03  0.10100000352E+00 0.  1.
    10030    2    1    2    0    0  0.00000000000E+00  0.00000000000E+00  0.41552678502E+03  0.21254767486E+04  0.20844636960E+04 0.  0.
        3    1    3    3  502    0 -0.57820618189E+03 -0.83508373530E+03  0.44594001262E+03  0.11093014643E+04  0.10100000352E+00 0.  1.
       -3    1    3    3    0  502  0.57820618189E+03  0.83508373530E+03 -0.30413227601E+02  0.10161752843E+04  0.10100000352E+00 0. -1.
</event>
<event>
 5   0  0.1015219E-06  0.3646012E+04  0.7818609E-02  0.8080033E-01
        2   -1    0    0  501    0  0.00000000000E+00  0.00000000000E+00  0.20893497284E+04  0.20893497284E+04  0.25500000920E-02 0.  1.
       -2   -1    0    0    0  501  0.00000000000E+00  0.00000000000E+00 -0.15906146951E+04  0.15906146951E+04  0.25500000920E-02 0. -1.
    10030    2    1    2    0    0  0.00000000000E+00  0.00000000000E+00  0.49873503326E+03  0.36799644235E+04  0.36460117286E+04 0.  0.
        3    1    3    3  502    0  0.18007803095E+03  0.12519780112E+04  0.15744040200E+04  0.20195606121E+04  0.10100000352E+00 0.  1.
       -3    1    3    3    0  502 -0.18007803095E+03 -0.12519780112E+04 -0.10756689867E+04  0.16604038114E+04  0.10100000352E+00 0. -1.
</event>
<event>
 5   0  0.3471602E-07  0.4077858E+04  0.7818609E-02  0.7989022E-01
       -1   -1    0    0    0  501  0.00000000000E+00  0.00000000000E+00  0.18666871013E+04  0.18666871013E+04  0.50400001928E-02 0. -1.
        1   -1    0    0  501    0  0.00000000000E+00  0.00000000000E+00 -0.22270638542E+04  0.22270638542E+04  0.50400001928E-02 0.  1.
    10030    2    1    2    0    0  0.00000000000E+00  0.00000000000E+00 -0.36037675294E+03  0.40937509555E+04  0.40778579526E+04 0.  0.
        5    1    3    3  502    0  0.15206105426E+04  0.75529479730E+02 -0.15416628081E+04  0.21667273545E+04  0.46999998093E+01 0.  1.
       -5    1    3    3    0  502 -0.15206105426E+04 -0.75529479730E+02  0.11812860552E+04  0.19270236010E+04  0.46999998093E+01 0. -1.
</event>
<event>
 5   0  0.7268013E-07  0.3894022E+04  0.7818609E-02  0.8026274E-01
       -2   -1    0    0    0  501  0.00000000000E+00  0.00000000000E+00  0.24924892993E+04  0.24924892993E+04  0.25500000920E-02 0.  1.
        2   -1    0    0  501    0  0.00000000000E+00  0.00000000000E+00 -0.15209097778E+04  0.15209097778E+04  0.25500000920E-02 0. -1.
    10030    2    1    2    0    0  0.00000000000E+00  0.00000000000E+00  0.97157952146E+03  0.40133990771E+04  0.38940217495E+04 0.  0.
        4    1    3    3  502    0 -0.56656091599E+03  0.57695814827E+03  0.23112387156E+04  0.24486114411E+04  0.12699999809E+01 0.  1.
       -4    1    3    3    0  502  0.56656091599E+03 -0.57695814827E+03 -0.13396591941E+04  0.15647876360E+04  0.12699999809E+01 0. -1.
</event>
<event>
 5   0  0.4316671E-07  0.3324989E+04  0.7818609E-02  0.8156566E-01
        1   -1    0    0  501    0  0.00000000000E+00  0.00000000000E+00  0.14112497893E+04  0.14112497894E+04  0.50400001928E-02 0. -1.
       -1   -1    0    0    0  501  0.00000000000E+00  0.00000000000E+00 -0.19584677293E+04  0.19584677293E+04  0.50400001928E-02 0.  1.
    10030    2    1    2    0    0  0.00000000000E+00  0.00000000000E+00 -0.54721793998E+03  0.33697175187E+04  0.33249885236E+04 0.  0.
        2    1    3    3  502    0 -0.99917217806E+03 -0.12348639231E+04  0.22355446970E+03  0.16041229850E+04  0.25500000920E-02 0. -1.
       -2    1    3    3    0  502  0.99917217806E+03  0.12348639231E+04 -0.77077240968E+03  0.17655945337E+04  0.25500000920E-02 0.  1.
</event>
<event>
 5   0  0.1035864E-06  0.3942546E+04  0.7818609E-02  0.8016238E-01
       -2   -1    0    0    0  501  0.00000000000E+00  0.00000000000E+00  0.24073928208E+04  0.24073928208E+04  0.25500000920E-02 0.  1.
        2   -1    0    0  501    0  0.00000000000E+00  0.00000000000E+00 -0.16141596309E+04  0.16141596309E+04  0.25500000920E-02 0. -1.
    10030    2    1    2    0    0  0.00000000000E+00  0.00000000000E+00  0.79323318986E+03  0.40215524517E+04  0.39425455265E+04 0.  0.
        5    1    3    3  502    0 -0.26817680289E+03  0.12456602687E+04  0.19308544207E+04  0.23133977580E+04  0.46999998093E+01 0.  1.
       -5    1    3    3    0  502  0.26817680289E+03 -0.12456602687E+04 -0.11376212309E+04  0.17081546937E+04  0.46999998093E+01 0. -1.
</event>
<event>
 5   0  0.4627905E-07  0.3505535E+04  0.7818609E-02  0.8112480E-01
        1   -1    0    0  501    0  0.00000000000E+00  0.00000000000E+00  0.21580955811E+04  0.21580955811E+04  0.50400001928E-02 0.  1.
       -1   -1    0    0    0  501  0.00000000000E+00  0.00000000000E+00 -0.14235670037E+04  0.14235670037E+04  0.50400001928E-02 0. -1.
    10030    2    1    2    0    0  0.00000000000E+00  0.00000000000E+00  0.73452857740E+03  0.35816625847E+04  0.35055348579E+04 0.  0.
        1    1    3    3  502    0 -0.14292067868E+04  0.63788932980E+03  0.11734877899E+04  0.19561718814E+04  0.50400001928E-02 0.  1.
       -1    1    3    3    0  502  0.14292067868E+04 -0.63788932980E+03 -0.43895921250E+03  0.16254907034E+04  0.50400001928E-02 0. -1.
</event>
<event>
 5   0  0.5533705E-07  0.3961078E+04  0.7818609E-02  0.8012445E-01
       -2   -1    0    0    0  501  0.00000000000E+00  0.00000000000E+00  0.22539744680E+04  0.22539744680E+04  0.25500000920E-02 0.  1.
        2   -1    0    0  501    0  0.00000000000E+00  0.00000000000E+00 -0.17402747486E+04  0.17402747486E+04  0.25500000920E-02 0. -1.
    10030    2    1    2    0    0  0.00000000000E+00  0.00000000000E+00  0.51369971947E+03  0.39942492166E+04  0.39610780606E+04 0.  0.
        1    1    3    3  502    0  0.50053005689E+03  0.14957179895E+04 -0.95102604007E+03  0.18417798921E+04  0.50400001928E-02 0. -1.
       -1    1    3    3    0  502 -0.50053005689E+03 -0.14957179895E+04  0.14647257595E+04  0.21524693245E+04  0.50400001928E-02 0.  1.
</event>
<event>
 5   0  0.1035864E-06  0.2327459E+04  0.7818609E-02  0.8467173E-01
        2   -1    0    0  501    0  0.00000000000E+00  0.00000000000E+00  0.14377100598E+04  0.14377100598E+04  0.25500000920E-02 0.  1.
       -2   -1    0    0    0  501  0.00000000000E+00  0.00000000000E+00 -0.94196035673E+03  0.94196035674E+03  0.25500000920E-02 0. -1.
    10030    2    1    2    0    0  0.00000000000E+00  0.00000000000E+00  0.49574970303E+03  0.23796704165E+04  0.23274585975E+04 0.  0.
        5    1    3    3  502    0  0.83595441018E+03 -0.79695305115E+03  0.39351270066E+03  0.12201755108E+04  0.46999998093E+01 0.  1.
       -5    1    3    3    0  502 -0.83595441018E+03  0.79695305115E+03  0.10223700237E+03  0.11594949057E+04  0.46999998093E+01 0. -1.
</event>
<event>
 5   0  0.4316671E-07  0.2615793E+04  0.7818609E-02  0.8362856E-01
       -1   -1    0    0    0  501  0.00000000000E+00  0.00000000000E+00  0.13156751079E+04  0.13156751079E+04  0.50400001928E-02 0. -1.
        1   -1    0    0  501    0  0.00000000000E+00  0.00000000000E+00 -0.13001641294E+04  0.13001641294E+04  0.50400001928E-02 0.  1.
    10030    2    1    2    0    0  0.00000000000E+00  0.00000000000E+00  0.15510978474E+02  0.26158392373E+04  0.26157932497E+04 0.  0.
        2    1    3    3  502    0  0.21207772606E+03 -0.12872633395E+04  0.10032986807E+03  0.13084685512E+04  0.25500000920E-02 0. -1.
       -2    1    3    3    0  502 -0.21207772606E+03  0.12872633395E+04 -0.84818889597E+02  0.13073706862E+04  0.25500000920E-02 0.  1.
</event>
<event>
 5   0  0.1015219E-06  0.4038261E+04  0.7818609E-02  0.7996872E-01
        2   -1    0    0  501    0  0.00000000000E+00  0.00000000000E+00  0.21350739917E+04  0.21350739917E+04  0.25500000920E-02 0.  1.
       -2   -1    0    0    0  501  0.00000000000E+00  0.00000000000E+00 -0.19094833982E+04  0.19094833982E+04  0.25500000920E-02 0. -1.
    10030    2    1    2    0    0  0.00000000000E+00  0.00000000000E+00  0.22559059348E+03  0.40445573899E+04  0.40382611808E+04 0.  0.
        3    1    3    3  502    0 -0.97173254408E+02  0.10464777884E+04  0.18395279635E+04  0.21185895170E+04  0.10100000352E+00 0.  1.
       -3    1    3    3    0  502  0.97173254408E+02 -0.10464777884E+04 -0.16139373700E+04  0.19259678729E+04  0.10100000352E+00 0. -1.
</event>
<event>
 5   0  0.7268013E-07  0.3855011E+04  0.7818609E-02  0.8034452E-01
       -2   -1    0    0    0  501  0.00000000000E+00  0.00000000000E+00  0.20748146552E+04  0.20748146552E+04  0.25500000920E-02 0.  1.
        2   -1    0    0  501    0  0.00000000000E+00  0.00000000000E+00 -0.17906548301E+04  0.17906548301E+04  0.25500000920E-02 0. -1.
    10030    2    1    2    0    0  0.00000000000E+00  0.00000000000E+00  0.28415982517E+03  0.38654694853E+04  0.38550107050E+04 0.  0.
        4    1    3    3  502    0 -0.13571496403E+04  0.94909493768E+03  0.11309801557E+04  0.20054311438E+04  0.12699999809E+01 0.  1.
       -4    1    3    3    0  502  0.13571496403E+04 -0.94909493768E+03 -0.84682033051E+03  0.18600383415E+04  0.12699999809E+01 0. -1.
</event>
<event>
 5   0  0.1035864E-06  0.3959336E+04  0.7818609E-02  0.8012800E-01
       -2   -1    0    0    0  501  0.00000000000E+00  0.00000000000E+00  0.23121057626E+04  0.23121057626E+04  0.25500000920E-02 0.  1.
        2   -1    0    0  501    0  0.00000000000E+00  0.00000000000E+00 -0.16950283377E+04  0.16950283377E+04  0.25500000920E-02 0. -1.
    10030    2    1    2    0    0  0.00000000000E+00  0.00000000000E+00  0.61707742492E+03  0.40071341003E+04  0.39593356955E+04 0.  0.
        5    1    3    3  502    0 -0.37786165794E+03 -0.38080380716E+03 -0.16200557934E+04  0.17065737124E+04  0.46999998093E+01 0. -1.
       -5    1    3    3    0  502  0.37786165794E+03  0.38080380716E+03  0.22371332183E+04  0.23005603879E+04  0.46999998093E+01 0.  1.
</event>
<event>
 5   0  0.4627905E-07  0.2584593E+04  0.7818609E-02  0.8373454E-01
        1   -1    0    0  501    0  0.00000000000E+00  0.00000000000E+00  0.11877878247E+04  0.11877878247E+04  0.50400001928E-02 0.  1.
       -1   -1    0    0    0  501  0.00000000000E+00  0.00000000000E+00 -0.14060002690E+04  0.14060002690E+04  0.50400001928E-02 0. -1.
    10030    2    1    2    0    0  0.00000000000E+00  0.00000000000E+00 -0.21821244426E+03  0.25937880937E+04  0.25845928121E+04 0.  0.
        1    1    3    3  502    0 -0.85212880422E+03 -0.86929894866E+03  0.32628731889E+03  0.12602648831E+04  0.50400001928E-02 0.  1.
       -1    1    3    3    0  502  0.85212880422E+03  0.86929894866E+03 -0.54449976314E+03  0.13335232106E+04  0.50400001928E-02 0. -1.
</event>
<event>
 5   0  0.5385714E-07  0.3807018E+04  0.7818609E-02  0.8044651E-01
        1   -1    0    0  501    0  0.00000000000E+00  0.00000000000E+00  0.14788585793E+04  0.14788585793E+04  0.50400001928E-02 0. -1.
       -1   -1    0    0    0  501  0.00000000000E+00  0.00000000000E+00 -0.24500965049E+04  0.24500965049E+04  0.50400001928E-02 0.  1.
    10030    2    1    2    0    0  0.00000000000E+00  0.00000000000E+00 -0.97123792565E+03  0.39289550842E+04  0.38070178546E+04 0.  0.
        3    1    3    3  502    0 -0.10290780424E+04  0.20067548306E+03  0.11540009667E+04  0.15591634000E+04  0.10100000352E+00 0. -1.
       -3    1    3    3    0  502  0.10290780424E+04 -0.20067548306E+03 -0.21252388923E+04  0.23697916842E+04  0.10100000352E+00 0.  1.
</event>
<event>
 5   0  0.1034683E-06  0.3887995E+04  0.7818609E-02  0.8027531E-01
        2   -1    0    0  501    0  0.00000000000E+00  0.00000000000E+00  0.21301014953E+04  0.21301014953E+04  0.25500000920E-02 0.  1.
       -2   -1    0    0    0  501  0.00000000000E+00  0.00000000000E+00 -0.17741534230E+04  0.17741534230E+04  0.25500000920E-02 0. -1.
    10030    2    1    2    0    0  0.00000000000E+00  0.00000000000E+00  0.35594807233E+03  0.39042549183E+04  0.38879952979E+04 0.  0.
        2    1    3    3  502    0  0.25459815543E+03  0.19002123876E+04  0.50103285703E+03  0.19815804961E+04  0.25500000920E-02 0.  1.
       -2    1    3    3    0  502 -0.25459815543E+03 -0.19002123876E+04 -0.14508478470E+03  0.19226744222E+04  0.25500000920E-02 0. -1.
</event>
<event>
 5   0  0.4627905E-07  0.2526056E+04  0.7818609E-02  0.8393761E-01
       -1   -1    0    0    0  501  0.00000000000E+00  0.00000000000E+00  0.61685678616E+03  0.61685678618E+03  0.50400001928E-02 0.  1.
        1   -1    0    0  501    0  0.00000000000E+00  0.00000000000E+00 -0.25860782893E+04  0.25860782894E+04  0.50400001928E-02 0. -1.
    10030    2    1    2    0    0  0.00000000000E+00  0.00000000000E+00 -0.19692215032E+04  0.32029350755E+04  0.25260561691E+04 0.  0.
        1    1    3    3  502    0  0.12605810812E+04 -0.26630078879E+01 -0.88502804051E+03  0.15402423142E+04  0.50400001928E-02 0.  1.
       -1    1    3    3    0  502 -0.12605810812E+04  0.26630078879E+01 -0.10841934627E+04  0.16626927613E+04  0.50400001928E-02 0. -1.
</event>
<event>
 5   0  0.1015219E-06  0.2297385E+04  0.7818609E-02  0.8478953E-01
       -2   -1    0    0    0  501  0.00000000000E+00  0.00000000000E+00  0.95081690424E+03  0.95081690424E+03  0.25500000920E-02 0.  1.
        2   -1    0    0  501    0  0.00000000000E+00  0.00000000000E+00 -0.13877477018E+04  0.13877477018E+04  0.25500000920E-02 0. -1.
    10030    2    1    2    0    0  0.00000000000E+00  0.00000000000E+00 -0.43693079759E+03  0.23385646061E+04  0.22973845770E+04 0.  0.
        3    1    3    3  502    0 -0.66244948573E+02 -0.11366262041E+04 -0.37346576727E+03  0.11982421335E+04  0.10100000352E+00 0. -1.
       -3    1    3    3    0  502  0.66244948573E+02  0.11366262041E+04 -0.63465030322E+02  0.11403224725E+04  0.10100000352E+00 0.  1.
</event>
<event>
 5   0  0.4627905E-07  0.3621653E+04  0.7818609E-02  0.8085550E-01
       -1   -1    0    0    0  501  0.00000000000E+00  0.00000000000E+00  0.20857616338E+04  0.20857616338E+04  0.50400001928E-02 0.  1.
        1   -1    0    0  501    0  0.00000000000E+00  0.00000000000E+00 -0.15721318328E+04  0.15721318328E+04  0.50400001928E-02 0. -1.
    10030    2    1    2    0    0  0.00000000000E+00  0.00000000000E+00  0.51362980098E+03  0.36578934666E+04  0.36216528051E+04 0.  0.
        1    1    3    3  502    0  0.12260985518E+04 -0.13075016726E+04 -0.30807896582E+01  0.17924530047E+04  0.50400001928E-02 0. -1.
       -1    1    3    3    0  502 -0.12260985518E+04  0.13075016726E+04  0.51671059064E+03  0.18654404620E+04  0.50400001928E-02 0.  1.
</event>
<event>
 5   0  0.1034683E-06  0.3185536E+04  0.7818609E-02  0.8192648E-01
       -2   -1    0    0    0  501  0.00000000000E+00  0.00000000000E+00  0.15785508201E+04  0.15785508201E+04  0.25500000920E-02 0.  1.
        2   -1    0    0  501    0  0.00000000000E+00  0.00000000000E+00 -0.16071130848E+04  0.16071130848E+04  0.25500000920E-02 0. -1.
    10030    2    1    2    0    0  0.00000000000E+00  0.00000000000E+00 -0.28562264706E+02  0.31856639050E+04  0.31855358595E+04 0.  0.
        2    1    3    3  502    0  0.98881999438E+03  0.53117366569E+03  0.11158081986E+04  0.15826997127E+04  0.25500000920E-02 0.  1.
       -2    1    3    3    0  502 -0.98881999438E+03 -0.53117366569E+03 -0.11443704633E+04  0.16029641923E+04  0.25500000920E-02 0. -1.
</event>
<event>
 5   0  0.1015219E-06  0.2111697E+04  0.7818609E-02  0.8556108E-01
       -2   -1    0    0    0  501  0.00000000000E+00  0.00000000000E+00  0.13929915813E+04  0.13929915813E+04  0.25500000920E-02 0. -1.
        2   -1    0    0  501    0  0.00000000000E+00  0.00000000000E+00 -0.80030331876E+03  0.80030331877E+03  0.25500000920E-02 0.  1.
    10030    2    1    2    0    0  0.00000000000E+00  0.00000000000E+00  0.59268826255E+03  0.21932949001E+04  0.21116967448E+04 0.  0.
        3    1    3    3  502    0  0.31828634534E+03 -0.90217158219E+02 -0.74508215351E+03  0.81522558777E+03  0.10100000352E+00 0.  1.
       -3    1    3    3    0  502 -0.31828634534E+03  0.90217158219E+02  0.13377704161E+04  0.13780693123E+04  0.10100000352E+00 0. -1.
</event>
<event>
 5   0  0.4627905E-07  0.3209567E+04  0.7818609E-02  0.8186295E-01
        1   -1    0    0  501    0  0.00000000000E+00  0.00000000000E+00  0.15143010094E+04  0.15143010095E+04  0.50400001928E-02 0.  1.
       -1   -1    0    0    0  501  0.00000000000E+00  0.00000000000E+00 -0.17006724649E+04  0.17006724649E+04  0.50400001928E-02 0. -1.
    10030    2    1    2    0    0  0.00000000000E+00  0.00000000000E+00 -0.18637145547E+03  0.32149734744E+04  0.32095669679E+04 0.  0.
        1    1    3    3  502    0  0.14672301913E+04 -0.52809403665E+03  0.28650724943E+03  0.15854760011E+04  0.50400001928E-02 0. -1.
       -1    1    3    3    0  502 -0.14672301913E+04  0.52809403665E+03 -0.47287870490E+03  0.16294974733E+04  0.50400001928E-02 0.  1.
</event>
<event>
 5   0  0.4316671E-07  0.2258505E+04  0.7818609E-02  0.8494464E-01
       -1   -1    0    0    0  501  0.00000000000E+00  0.00000000000E+00  0.94418347902E+03  0.94418347903E+03  0.50400001928E-02 0. -1.
        1   -1    0    0  501    0  0.00000000000E+00  0.00000000000E+00 -0.13505963888E+04  0.13505963888E+04  0.50400001928E-02 0.  1.
    10030    2    1    2    0    0  0.00000000000E+00  0.00000000000E+00 -0.40641290981E+03  0.22947798679E+04  0.22585046355E+04 0.  0.
        2    1    3    3  502    0  0.63214251771E+03  0.18490974703E+03 -0.11352263329E+04  0.13124536579E+04  0.25500000920E-02 0.  1.
       -2    1    3    3    0  502 -0.63214251771E+03 -0.18490974703E+03  0.72881342305E+03  0.98232621000E+03  0.25500000920E-02 0. -1.
</event>
<event>
 5   0  0.5533705E-07  0.3730315E+04  0.7818609E-02  0.8061277E-01
       -2   -1    0    0    0  501  0.00000000000E+00  0.00000000000E+00  0.14073695840E+04  0.14073695840E+04  0.25500000920E-02 0. -1.
        2   -1    0    0  501    0  0.00000000000E+00  0.00000000000E+00 -0.24718537752E+04  0.24718537752E+04  0.25500000920E-02 0.  1.
    10030    2    1    2    0    0  0.00000000000E+00  0.00000000000E+00 -0.10644841912E+04  0.38792233592E+04  0.37303146351E+04 0.  0.
        1    1    3    3  502    0  0.52671661533E+03 -0.64837323596E+03 -0.22664426262E+04  0.24154876161E+04  0.50400001928E-02 0.  1.
       -1    1    3    3    0  502 -0.52671661533E+03  0.64837323596E+03  0.12019584350E+04  0.14637357430E+04  0.50400001928E-02 0. -1.
</event>
<event>
 5   0  0.3778218E-07  0.2167673E+04  0.7818609E-02  0.8532005E-01
        1   -1    0    0  501    0  0.00000000000E+00  0.00000000000E+00  0.18434069142E+04  0.18434069142E+04  0.50400001928E-02 0.  1.
       -1   -1    0    0    0  501  0.00000000000E+00  0.00000000000E+00 -0.63724455633E+03  0.63724455635E+03  0.50400001928E-02 0. -1.
    10030    2    1    2    0    0  0.00000000000E+00  0.00000000000E+00  0.12061623578E+04  0.24806514705E+04  0.21676725040E+04 0.  0.
        5    1    3    3  502    0  0.63941263210E+03 -0.84865001949E+03  0.84751802650E+03  0.13591777900E+04  0.46999998093E+01 0. -1.
       -5    1    3    3    0  502 -0.63941263210E+03  0.84865001949E+03  0.35864433135E+03  0.11214736805E+04  0.46999998093E+01 0.  1.
</event>
<event>
 5   0  0.7268013E-07  0.3011337E+04  0.7818609E-02  0.8240501E-01
       -2   -1    0    0    0  501  0.00000000000E+00  0.00000000000E+00  0.86017253599E+03  0.86017253599E+03  0.25500000920E-02 0.  1.
        2   -1    0    0  501    0  0.00000000000E+00  0.00000000000E+00 -0.26355615355E+04  0.26355615355E+04  0.25500000920E-02 0. -1.
    10030    2    1    2    0    0  0.00000000000E+00  0.00000000000E+00 -0.17753889995E+04  0.34957340715E+04  0.30113370119E+04 0.  0.
        4    1    3    3  502    0  0.85314919500E+03 -0.10113375502E+04 -0.53515903951E+02  0.13242102380E+04  0.12699999809E+01 0.  1.
       -4    1    3    3    0  502 -0.85314919500E+03  0.10113375502E+04 -0.17218730956E+04  0.21715238335E+04  0.12699999809E+01 0. -1.
</event>
<event>
 5   0  0.5113916E-07  0.1922137E+04  0.7818609E-02  0.8643915E-01
       -1   -1    0    0    0  501  0.00000000000E+00  0.00000000000E+00  0.67178741378E+03  0.67178741380E+03  0.50400001928E-02 0. -1.
        1   -1    0    0  501    0  0.00000000000E+00  0.00000000000E+00 -0.13749175108E+04  0.13749175108E+04  0.50400001928E-02 0.  1.
    10030    2    1    2    0    0  0.00000000000E+00  0.00000000000E+00 -0.70313009702E+03  0.20467049246E+04  0.19221366016E+04 0.  0.
        4    1    3    3  502    0  0.60688636671E+02  0.59178888489E+03 -0.11553030000E+04  0.12994705959E+04  0.12699999809E+01 0.  1.
       -4    1    3    3    0  502 -0.60688636671E+02 -0.59178888489E+03  0.45217290299E+03  0.74723432870E+03  0.12699999809E+01 0. -1.
</event>
<event>
 5   0  0.1034683E-06  0.2233135E+04  0.7818609E-02  0.8504762E-01
       -2   -1    0    0    0  501  0.00000000000E+00  0.00000000000E+00  0.10637952579E+04  0.10637952579E+04  0.25500000920E-02 0.  1.
        2   -1    0    0  501    0  0.00000000000E+00  0.00000000000E+00 -0.11719581635E+04  0.11719581635E+04  0.25500000920E-02 0. -1.
    10030    2    1    2    0    0  0.00000000000E+00  0.00000000000E+00 -0.10816290560E+03  0.22357534213E+04  0.22331354967E+04 0.  0.
        2    1    3    3  502    0  0.42351947864E+03  0.87619809588E+03  0.49394648285E+03  0.10913638165E+04  0.25500000920E-02 0.  1.
       -2    1    3    3    0  502 -0.42351947864E+03 -0.87619809588E+03 -0.60210938846E+03  0.11443896048E+04  0.25500000920E-02 0. -1.
</event>
<event>
 5   0  0.5385714E-07  0.3850541E+04  0.7818609E-02  0.8035395E-01
       -1   -1    0    0    0  501  0.00000000000E+00  0.00000000000E+00  0.22264956036E+04  0.22264956036E+04  0.50400001928E-02 0. -1.
        1   -1    0    0  501    0  0.00000000000E+00  0.00000000000E+00 -0.16647981135E+04  0.16647981135E+04  0.50400001928E-02 0.  1.
    10030    2    1    2    0    0  0.00000000000E+00  0.00000000000E+00  0.56169749016E+03  0.38912937171E+04  0.38505405753E+04 0.  0.
        3    1    3    3  502    0  0.57312962558E+03 -0.12898517873E+04 -0.10423872715E+04  0.17546413978E+04  0.10100000352E+00 0.  1.
       -3    1    3    3    0  502 -0.57312962558E+03  0.12898517873E+04  0.16040847616E+04  0.21366523193E+04  0.10100000352E+00 0. -1.
</event>
<event>
 5   0  0.7268013E-07  0.3775437E+04  0.7818609E-02  0.8051447E-01
       -2   -1    0    0    0  501  0.00000000000E+00  0.00000000000E+00  0.19627717463E+04  0.19627717463E+04  0.25500000920E-02 0. -1.
        2   -1    0    0  501    0  0.00000000000E+00  0.00000000000E+00 -0.18155350853E+04  0.18155350853E+04  0.25500000920E-02 0.  1.
    10030    2    1    2    0    0  0.00000000000E+00  0.00000000000E+00  0.14723666103E+03  0.37783068315E+04  0.37754369123E+04 0.  0.
        4    1    3    3  502    0  0.22592332626E+03 -0.66847127927E+03  0.18258302381E+04  0.19574352791E+04  0.12699999809E+01 0. -1.
       -4    1    3    3    0  502 -0.22592332626E+03  0.66847127927E+03 -0.16785935771E+04  0.18208715524E+04  0.12699999809E+01 0.  1.
</event>
<event>
 5   0  0.5533705E-07  0.2985710E+04  0.7818609E-02  0.8247823E-01
       -2   -1    0    0    0  501  0.00000000000E+00  0.00000000000E+00  0.15063895451E+04  0.15063895451E+04  0.25500000920E-02 0. -1.
        2   -1    0    0  501    0  0.00000000000E+00  0.00000000000E+00 -0.14794422148E+04  0.14794422148E+04  0.25500000920E-02 0.  1.
    10030    2    1    2    0    0  0.00000000000E+00  0.00000000000E+00  0.26947330382E+02  0.29858317599E+04  0.29857101567E+04 0.  0.
        1    1    3    3  502    0 -0.50267968984E+03  0.88341910645E+03 -0.10799601372E+04  0.14830475671E+04  0.50400001928E-02 0.  1.
       -1    1    3    3    0  502  0.50267968984E+03 -0.88341910645E+03  0.11069074676E+04  0.15027841928E+04  0.50400001928E-02 0. -1.
</event>
<event>
 5   0  0.5385714E-07  0.2076564E+04  0.7818609E-02  0.8571638E-01
        1   -1    0    0  501    0  0.00000000000E+00  0.00000000000E+00  0.77383669097E+03  0.77383669099E+03  0.50400001928E-02 0. -1.
       -1   -1    0    0    0  501  0.00000000000E+00  0.00000000000E+00 -0.13930973880E+04  0.13930973880E+04  0.50400001928E-02 0.  1.
    10030    2    1    2    0    0  0.00000000000E+00  0.00000000000E+00 -0.61926069704E+03  0.21669340790E+04  0.20765643481E+04 0.  0.
        3    1    3    3  502    0 -0.34442859125E+03  0.89762595332E+03  0.99432317211E+02  0.96656619145E+03  0.10100000352E+00 0. -1.
       -3    1    3    3    0  502  0.34442859125E+03 -0.89762595332E+03 -0.71869301425E+03  0.12003678876E+04  0.10100000352E+00 0.  1.
</event>
<event>
 5   0  0.3471602E-07  0.2745501E+04  0.7818609E-02  0.8320391E-01
        1   -1    0    0  501    0  0.00000000000E+00  0.00000000000E+00  0.23851657131E+04  0.23851657131E+04  0.50400001928E-02 0.  1.
       -1   -1    0    0    0  501  0.00000000000E+00  0.00000000000E+00 -0.79006835164E+03  0.79006835166E+03  0.50400001928E-02 0. -1.
    10030    2    1    2    0    0  0.00000000000E+00  0.00000000000E+00  0.15950973614E+04  0.31752340647E+04  0.27455010059E+04 0.  0.
        5    1    3    3  502    0  0.87716975981E+03  0.65302031829E+03 -0.16212787337E+03  0.11055179152E+04  0.46999998093E+01 0. -1.
       -5    1    3    3    0  502 -0.87716975981E+03 -0.65302031829E+03  0.17572252348E+04  0.20697161495E+04  0.46999998093E+01 0.  1.
</event>
<event>
 5   0  0.5385714E-07  0.3895387E+04  0.7818609E-02  0.8025989E-01
       -1   -1    0    0    0  501  0.00000000000E+00  0.00000000000E+00  0.17447519490E+04  0.17447519490E+04  0.50400001928E-02 0. -1.
        1   -1    0    0  501    0  0.00000000000E+00  0.00000000000E+00 -0.21742403524E+04  0.21742403524E+04  0.50400001928E-02 0.  1.
    10030    2    1    2    0    0  0.00000000000E+00  0.00000000000E+00 -0.42948840339E+03  0.39189923015E+04  0.38953870630E+04 0.  0.
        3    1    3    3  502    0  0.86680643037E+03  0.38180609123E+03 -0.19269328878E+04  0.21471375464E+04  0.10100000352E+00 0.  1.
       -3    1    3    3    0  502 -0.86680643037E+03 -0.38180609123E+03  0.14974444844E+04  0.17718547551E+04  0.10100000352E+00 0. -1.
</event>
<event>
 5   0  0.3191750E-07  0.1921812E+04  0.7818609E-02  0.8644074E-01
       -3   -1    0    0    0  501  0.00000000000E+00  0.00000000000E+00  0.10659603328E+04  0.10659603376E+04  0.10100000352E+00 0.  1.
        3   -1    0    0  501    0  0.00000000000E+00  0.00000000000E+00 -0.86620558889E+03  0.86620559478E+03  0.10100000352E+00 0. -1.
    10030    2    1    2    0    0  0.00000000000E+00  0.00000000000E+00  0.19975474395E+03  0.19321659324E+04  0.19218124863E+04 0.  0.
        1    1    3    3  502    0  0.15214643005E+03 -0.47128574550E+02  0.10525958892E+04  0.10645786701E+04  0.50400001928E-02 0.  1.
       -1    1    3    3    0  502 -0.15214643005E+03  0.47128574550E+02 -0.85284114526E+03  0.86758726235E+03  0.50400001928E-02 0. -1.
</event>
<event>
 5   0  0.1034683E-06  0.2764706E+04  0.7818609E-02  0.8314310E-01
       -2   -1    0    0    0  501  0.00000000000E+00  0.00000000000E+00  0.13466509637E+04  0.13466509637E+04  0.25500000920E-02 0. -1.
        2   -1    0    0  501    0  0.00000000000E+00  0.00000000000E+00 -0.14190013011E+04  0.14190013011E+04  0.25500000920E-02 0.  1.
    10030    2    1    2    0    0  0.00000000000E+00  0.00000000000E+00 -0.72350337468E+02  0.27656522648E+04  0.27647057490E+04 0.  0.
        2    1    3    3  502    0  0.75676421361E+03 -0.18304239455E+02  0.11208851433E+04  0.13525570689E+04  0.25500000920E-02 0. -1.
       -2    1    3    3    0  502 -0.75676421361E+03  0.18304239455E+02 -0.11932354807E+04  0.14130951959E+04  0.25500000920E-02 0.  1.
</event>
<event>
 5   0  0.4627905E-07  0.3775071E+04  0.7818609E-02  0.8051526E-01
       -1   -1    0    0    0  501  0.00000000000E+00  0.00000000000E+00  0.18435807514E+04  0.18435807514E+04  0.50400001928E-02 0. -1.
        1   -1    0    0  501    0  0.00000000000E+00  0.00000000000E+00 -0.19325386643E+04  0.19325386643E+04  0.50400001928E-02 0.  1.
    10030    2    1    2    0    0  0.00000000000E+00  0.00000000000E+00 -0.88957912862E+02  0.37761194158E+04  0.37750714340E+04 0.  0.
        1    1    3    3  502    0  0.96695424116E+03 -0.10022493612E+03  0.15739150454E+04  0.18499335427E+04  0.50400001928E-02 0. -1.
       -1    1    3    3    0  502 -0.96695424116E+03  0.10022493612E+03 -0.16628729582E+04  0.19261858731E+04  0.50400001928E-02 0.  1.
</event>
<event>
 5   0  0.5533705E-07  0.3768947E+04  0.7818609E-02  0.8052852E-01
       -2   -1    0    0    0  501  0.00000000000E+00  0.00000000000E+00  0.17647556024E+04  0.17647556024E+04  0.25500000920E-02 0.  1.
        2   -1    0    0  501    0  0.00000000000E+00  0.00000000000E+00 -0.20123125513E+04  0.20123125513E+04  0.25500000920E-02 0. -1.
    10030    2    1    2    0    0  0.00000000000E+00  0.00000000000E+00 -0.24755694894E+03  0.37770681537E+04  0.37689467222E+04 0.  0.
        1    1    3    3  502    0 -0.15018186892E+04  0.98562021462E+03 -0.69450830262E+03  0.19259409038E+04  0.50400001928E-02 0.  1.
       -1    1    3    3    0  502  0.15018186892E+04 -0.98562021462E+03  0.44695135368E+03  0.18511272499E+04  0.50400001928E-02 0. -1.
</event>
<event>
 5   0  0.7268013E-07  0.2396787E+04  0.7818609E-02  0.8440708E-01
       -2   -1    0    0    0  501  0.00000000000E+00  0.00000000000E+00  0.12208160571E+04  0.12208160571E+04  0.25500000920E-02 0. -1.
        2   -1    0    0  501    0  0.00000000000E+00  0.00000000000E+00 -0.11763825485E+04  0.11763825485E+04  0.25500000920E-02 0.  1.
    10030    2    1    2    0    0  0.00000000000E+00  0.00000000000E+00  0.44433508544E+02  0.23971986056E+04  0.23967867694E+04 0.  0.
        4    1    3    3  502    0  0.11131606017E+04 -0.32909058660E+03 -0.27569001552E+03  0.11930774228E+04  0.12699999809E+01 0.  1.
       -4    1    3    3    0  502 -0.11131606017E+04  0.32909058660E+03  0.32012352407E+03  0.12041211828E+04  0.12699999809E+01 0. -1.
</event>
<event>
 5   0  0.3471602E-07  0.3766194E+04  0.7818609E-02  0.8053449E-01
       -1   -1    0    0    0  501  0.00000000000E+00  0.00000000000E+00  0.16096929842E+04  0.16096929842E+04  0.50400001928E-02 0. -1.
        1   -1    0    0  501    0  0.00000000000E+00  0.00000000000E+00 -0.22029385791E+04  0.22029385791E+04  0.50400001928E-02 0.  1.
    10030    2    1    2    0    0  0.00000000000E+00  0.00000000000E+00 -0.59324559495E+03  0.38126315633E+04  0.37661942464E+04 0.  0.
        5    1    3    3  502    0 -0.10133903628E+04  0.12031195578E+04 -0.13445560223E+04  0.20693742254E+04  0.46999998093E+01 0.  1.
       -5    1    3    3    0  502  0.10133903628E+04 -0.12031195578E+04  0.75131042732E+03  0.17432573379E+04  0.46999998093E+01 0. -1.
</event>
<event>
 5   0  0.9492403E-07  0.1974264E+04  0.7818609E-02  0.8618749E-01
       -2   -1    0    0    0  501  0.00000000000E+00  0.00000000000E+00  0.61198134678E+03  0.61198134678E+03  0.25500000920E-02 0. -1.
        2   -1    0    0  501    0  0.00000000000E+00  0.00000000000E+00 -0.15922536128E+04  0.15922536128E+04  0.25500000920E-02 0.  1.
    10030    2    1    2    0    0  0.00000000000E+00  0.00000000000E+00 -0.98027226601E+03  0.22042349596E+04  0.19742639240E+04 0.  0.
        1    1    3    3  502    0  0.28721071066E+03  0.29153919630E+03  0.51280279082E+03  0.65608825443E+03  0.50400001928E-02 0. -1.
       -1    1    3    3    0  502 -0.28721071066E+03 -0.29153919630E+03 -0.14930750568E+04  0.15481467051E+04  0.50400001928E-02 0.  1.
</event>
<event>
 5   0  0.5533705E-07  0.3448109E+04  0.7818609E-02  0.8126199E-01
        2   -1    0    0  501    0  0.00000000000E+00  0.00000000000E+00  0.10781766321E+04  0.10781766321E+04  0.25500000920E-02 0.  1.
       -2   -1    0    0    0  501  0.00000000000E+00  0.00000000000E+00 -0.27568429665E+04  0.27568429665E+04  0.25500000920E-02 0. -1.
    10030    2    1    2    0    0  0.00000000000E+00  0.00000000000E+00 -0.16786663345E+04  0.38350195986E+04  0.34481088526E+04 0.  0.
        1    1    3    3  502    0 -0.36809892323E+03 -0.11595385063E+04 -0.21980223483E+04  0.25122357788E+04  0.50400001928E-02 0. -1.
       -1    1    3    3    0  502  0.36809892323E+03  0.11595385063E+04  0.51935601381E+03  0.13227838198E+04  0.50400001928E-02 0.  1.
</event>
<event>
 5   0  0.1035864E-06  0.3714539E+04  0.7818609E-02  0.8064747E-01
        2   -1    0    0  501    0  0.00000000000E+00  0.00000000000E+00  0.19269937054E+04  0.19269937054E+04  0.25500000920E-02 0. -1.
       -2   -1    0    0    0  501  0.00000000000E+00  0.00000000000E+00 -0.17900682732E+04  0.17900682732E+04  0.25500000920E-02 0.  1.
    10030    2    1    2    0    0  0.00000000000E+00  0.00000000000E+00  0.13692543225E+03  0.37170619786E+04  0.37145391611E+04 0.  0.
        5    1    3    3  502    0  0.72970972706E+03 -0.93746380768E+02 -0.16380293505E+04  0.17956689318E+04  0.46999998093E+01 0.  1.
       -5    1    3    3    0  502 -0.72970972706E+03  0.93746380768E+02  0.17749547827E+04  0.19213930468E+04  0.46999998093E+01 0. -1.
</event>
<event>
 5   0  0.3471602E-07  0.3948553E+04  0.7818609E-02  0.8015006E-01
       -1   -1    0    0    0  501  0.00000000000E+00  0.00000000000E+00  0.19894528228E+04  0.19894528228E+04  0.50400001928E-02 0.  1.
        1   -1    0    0  501    0  0.00000000000E+00  0.00000000000E+00 -0.19592157064E+04  0.19592157064E+04  0.50400001928E-02 0. -1.
    10030    2    1    2    0    0  0.00000000000E+00  0.00000000000E+00  0.30237116401E+02  0.39486685293E+04  0.39485527565E+04 0.  0.
        5    1    3    3  502    0  0.26328975650E+03 -0.11029322182E+04 -0.16010860462E+04  0.19619581013E+04  0.46999998093E+01 0. -1.
       -5    1    3    3    0  502 -0.26328975650E+03  0.11029322182E+04  0.16313231626E+04  0.19867104280E+04  0.46999998093E+01 0.  1.
</event>
<event>
 5   0  0.3977376E-07  0.3970974E+04  0.7818609E-02  0.8010428E-01
        1   -1    0    0  501    0  0.00000000000E+00  0.00000000000E+00  0.19496727048E+04  0.19496727048E+04  0.50400001928E-02 0.  1.
       -1   -1    0    0    0  501  0.00000000000E+00  0.00000000000E+00 -0.20219592207E+04  0.20219592207E+04  0.50400001928E-02 0. -1.
    10030    2    1    2    0    0  0.00000000000E+00  0.00000000000E+00 -0.72286515886E+02  0.39716319255E+04  0.39709740381E+04 0.  0.
        4    1    3    3  502    0  0.60552814367E+03  0.17905062675E+04 -0.64417494526E+03  0.19968825704E+04  0.12699999809E+01 0. -1.
       -4    1    3    3    0  502 -0.60552814367E+03 -0.17905062675E+04  0.57188842937E+03  0.19747493551E+04  0.12699999809E+01 0.  1.
</event>
<event>
 5   0  0.1015219E-06  0.3984508E+04  0.7818609E-02  0.8007679E-01
        2   -1    0    0  501    0  0.00000000000E+00  0.00000000000E+00  0.24421337778E+04  0.24421337778E+04  0.25500000920E-02 0.  1.
       -2   -1    0    0    0  501  0.00000000000E+00  0.00000000000E+00 -0.16252488479E+04  0.16252488479E+04  0.25500000920E-02 0. -1.
    10030    2    1    2    0    0  0.00000000000E+00  0.00000000000E+00  0.81688492983E+03  0.40673826257E+04  0.39845075524E+04 0.  0.
        3    1    3    3  502    0  0.17268149085E+04 -0.22928966062E+03  0.13953034128E+04  0.22318904769E+04  0.10100000352E+00 0.  1.
       -3    1    3    3    0  502 -0.17268149085E+04  0.22928966062E+03 -0.57841848296E+03  0.18354921488E+04  0.10100000352E+00 0. -1.
</event>
<event>
 5   0  0.5533705E-07  0.3887519E+04  0.7818609E-02  0.8027630E-01
       -2   -1    0    0    0  501  0.00000000000E+00  0.00000000000E+00  0.17009005511E+04  0.17009005511E+04  0.25500000920E-02 0.  1.
        2   -1    0    0  501    0  0.00000000000E+00  0.00000000000E+00 -0.22212947913E+04  0.22212947913E+04  0.25500000920E-02 0. -1.
    10030    2    1    2    0    0  0.00000000000E+00  0.00000000000E+00 -0.52039424019E+03  0.39221953424E+04  0.38875192783E+04 0.  0.
        1    1    3    3  502    0  0.56200915582E+03  0.18566948260E+04 -0.13650022814E+03  0.19446856508E+04  0.50400001928E-02 0.  1.
       -1    1    3    3    0  502 -0.56200915582E+03 -0.18566948260E+04 -0.38389401206E+03  0.19775096916E+04  0.50400001928E-02 0. -1.
</event>
<event>
 5   0  0.7268013E-07  0.2628677E+04  0.7818609E-02  0.8358525E-01
       -2   -1    0    0    0  501  0.00000000000E+00  0.00000000000E+00  0.16035407335E+04  0.16035407335E+04  0.25500000920E-02 0.  1.
        2   -1    0    0  501    0  0.00000000000E+00  0.00000000000E+00 -0.10772944939E+04  0.10772944939E+04  0.25500000920E-02 0. -1.
    10030    2    1    2    0    0  0.00000000000E+00  0.00000000000E+00  0.52624623953E+03  0.26808352274E+04  0.26286769318E+04 0.  0.
        4    1    3    3  502    0 -0.10122591366E+04  0.21027118507E+03 -0.56452217813E+03  0.11779513714E+04  0.12699999809E+01 0. -1.
       -4    1    3    3    0  502  0.10122591366E+04 -0.21027118507E+03  0.10907684177E+04  0.15028838560E+04  0.12699999809E+01 0.  1.
</event>
<event>
 5   0  0.5533705E-07  0.3754305E+04  0.7818609E-02  0.8056033E-01
        2   -1    0    0  501    0  0.00000000000E+00  0.00000000000E+00  0.26528404931E+04  0.26528404931E+04  0.25500000920E-02 0.  1.
       -2   -1    0    0    0  501  0.00000000000E+00  0.00000000000E+00 -0.13282750513E+04  0.13282750513E+04  0.25500000920E-02 0. -1.
    10030    2    1    2    0    0  0.00000000000E+00  0.00000000000E+00  0.13245654419E+04  0.39811155444E+04  0.37543051778E+04 0.  0.
        1    1    3    3  502    0 -0.53536231719E+03 -0.17158155383E+04  0.12363436374E+04  0.21815548038E+04  0.50400001928E-02 0. -1.
       -1    1    3    3    0  502  0.53536231719E+03  0.17158155383E+04  0.88221804513E+02  0.17995607406E+04  0.50400001928E-02 0.  1.
</event>
<event>
 5   0  0.3471602E-07  0.3921255E+04  0.7818609E-02  0.8020623E-01
       -1   -1    0    0    0  501  0.00000000000E+00  0.00000000000E+00  0.13845214881E+04  0.13845214881E+04  0.50400001928E-02 0. -1.
        1   -1    0    0  501    0  0.00000000000E+00  0.00000000000E+00 -0.27764533763E+04  0.27764533763E+04  0.50400001928E-02 0.  1.
    10030    2    1    2    0    0  0.00000000000E+00  0.00000000000E+00 -0.13919318882E+04  0.41609748644E+04  0.39212545749E+04 0.  0.
        5    1    3    3  502    0  0.28954971495E+03 -0.18407970973E+03  0.13524102200E+04  0.13952633694E+04  0.46999998093E+01 0. -1.
       -5    1    3    3    0  502 -0.28954971495E+03  0.18407970973E+03 -0.27443421082E+04  0.27657114950E+04  0.46999998093E+01 0.  1.
</event>
<event>
 5   0  0.3977376E-07  0.3843971E+04  0.7818609E-02  0.8036784E-01
       -1   -1    0    0    0  501  0.00000000000E+00  0.00000000000E+00  0.17786902227E+04  0.17786902227E+04  0.50400001928E-02 0. -1.
        1   -1    0    0  501    0  0.00000000000E+00  0.00000000000E+00 -0.20768252421E+04  0.20768252421E+04  0.50400001928E-02 0.  1.
    10030    2    1    2    0    0  0.00000000000E+00  0.00000000000E+00 -0.29813501942E+03  0.38555154648E+04  0.38439712551E+04 0.  0.
        4    1    3    3  502    0 -0.41266784448E+03  0.18745718996E+04 -0.50219099239E+02  0.19201140923E+04  0.12699999809E+01 0. -1.
       -4    1    3    3    0  502  0.41266784448E+03 -0.18745718996E+04 -0.24791592018E+03  0.19354013726E+04  0.12699999809E+01 0.  1.
</event>
<event>
 5   0  0.3471602E-07  0.2046583E+04  0.7818609E-02  0.8585146E-01
       -1   -1    0    0    0  501  0.00000000000E+00  0.00000000000E+00  0.13693734146E+04  0.13693734146E+04  0.50400001928E-02 0. -1.
        1   -1    0    0  501    0  0.00000000000E+00  0.00000000000E+00 -0.76467524456E+03  0.76467524457E+03  0.50400001928E-02 0.  1.
    10030    2    1    2    0    0  0.00000000000E+00  0.00000000000E+00  0.60469817006E+03  0.21340486592E+04  0.20465834464E+04 0.  0.
        5    1    3    3  502    0 -0.15274365611E+03  0.68584764073E+03  0.10780406032E+04  0.12868221489E+04  0.46999998093E+01 0. -1.
       -5    1    3    3    0  502  0.15274365611E+03 -0.68584764073E+03 -0.47334243312E+03  0.84722651031E+03  0.46999998093E+01 0.  1.
</event>
<event>
 5   0  0.4316671E-07  0.3946292E+04  0.7818609E-02  0.8015470E-01
       -1   -1    0    0    0  501  0.00000000000E+00  0.00000000000E+00  0.18219651760E+04  0.18219651760E+04  0.50400001928E-02 0. -1.
        1   -1    0    0  501    0  0.00000000000E+00  0.00000000000E+00 -0.21368711058E+04  0.21368711058E+04  0.50400001928E-02 0.  1.
    10030    2    1    2    0    0  0.00000000000E+00  0.00000000000E+00 -0.31490592982E+03  0.39588362818E+04  0.39462917989E+04 0.  0.
        2    1    3    3  502    0 -0.41418026520E+03  0.15206060241E+04  0.10335517211E+04  0.18846795836E+04  0.25500000920E-02 0. -1.
       -2    1    3    3    0  502  0.41418026520E+03 -0.15206060241E+04 -0.13484576509E+04  0.20741566983E+04  0.25500000920E-02 0.  1.
</event>
<event>
 5   0  0.5533705E-07  0.3861302E+04  0.7818609E-02  0.8033126E-01
       -2   -1    0    0    0  501  0.00000000000E+00  0.00000000000E+00  0.12558469272E+04  0.12558469272E+04  0.25500000920E-02 0. -1.
        2   -1    0    0  501    0  0.00000000000E+00  0.00000000000E+00 -0.29680471096E+04  0.29680471096E+04  0.25500000920E-02 0.  1.
    10030    2    1    2    0    0  0.00000000000E+00  0.00000000000E+00 -0.17122001824E+04  0.42238940368E+04  0.38613017713E+04 0.  0.
        1    1    3    3  502    0  0.11281840074E+03 -0.12007017604E+04 -0.25053216413E+04  0.27804764404E+04  0.50400001928E-02 0.  1.
       -1    1    3    3    0  502 -0.11281840074E+03  0.12007017604E+04  0.79312145890E+03  0.14434175964E+04  0.50400001928E-02 0. -1.
</event>
<event>
 5   0  0.5385714E-07  0.3270028E+04  0.7818609E-02  0.8170564E-01
       -1   -1    0    0    0  501  0.00000000000E+00  0.00000000000E+00  0.11001046132E+04  0.11001046132E+04  0.50400001928E-02 0. -1.
        1   -1    0    0  501    0  0.00000000000E+00  0.00000000000E+00 -0.24300157798E+04  0.24300157798E+04  0.50400001928E-02 0.  1.
    10030    2    1    2    0    0  0.00000000000E+00  0.00000000000E+00 -0.13299111666E+04  0.35301203930E+04  0.32700284827E+04 0.  0.
        3    1    3    3  502    0  0.14654163454E+04 -0.15053368392E+03 -0.14307173344E+04  0.20535475540E+04  0.10100000352E+00 0.  1.
       -3    1    3    3    0  502 -0.14654163454E+04  0.15053368392E+03  0.10080616777E+03  0.14765728390E+04  0.10100000352E+00 0. -1.
</event>
<event>
 5   0  0.1015219E-06  0.3917397E+04  0.7818609E-02  0.8021421E-01
       -2   -1    0    0    0  501  0.00000000000E+00  0.00000000000E+00  0.30341919990E+04  0.30341919990E+04  0.25500000920E-02 0. -1.
        2   -1    0    0  501    0  0.00000000000E+00  0.00000000000E+00 -0.12644224136E+04  0.12644224136E+04  0.25500000920E-02 0.  1.
    10030    2    1    2    0    0  0.00000000000E+00  0.00000000000E+00  0.17697695854E+04  0.42986144126E+04  0.39173972842E+04 0.  0.
        3    1    3    3  502    0 -0.13614608969E+04  0.36481731845E+03  0.23773256281E+04  0.27637555250E+04  0.10100000352E+00 0. -1.
       -3    1    3    3    0  502  0.13614608969E+04 -0.36481731845E+03 -0.60755604269E+03  0.15348588876E+04  0.10100000352E+00 0.  1.
</event>
<event>
 5   0  0.5533705E-07  0.3503473E+04  0.7818609E-02  0.8112967E-01
        2   -1    0    0  501    0  0.00000000000E+00  0.00000000000E+00  0.14635920142E+04  0.14635920142E+04  0.25500000920E-02 0. -1.
       -2   -1    0    0    0  501  0.00000000000E+00  0.00000000000E+00 -0.20966088878E+04  0.20966088878E+04  0.25500000920E-02 0.  1.
    10030    2    1    2    0    0  0.00000000000E+00  0.00000000000E+00 -0.63301687365E+03  0.35602009020E+04  0.35034725774E+04 0.  0.
        1    1    3    3  502    0  0.53933262408E+03 -0.37756282348E+03 -0.19661066552E+04  0.20734051087E+04  0.50400001928E-02 0.  1.
       -1    1    3    3    0  502 -0.53933262408E+03  0.37756282348E+03  0.13330897816E+04  0.14867957933E+04  0.50400001928E-02 0. -1.
</event>
<event>
 5   0  0.5385714E-07  0.3903609E+04  0.7818609E-02  0.8024279E-01
        1   -1    0    0  501    0  0.00000000000E+00  0.00000000000E+00  0.18386127541E+04  0.18386127541E+04  0.50400001928E-02 0. -1.
       -1   -1    0    0    0  501  0.00000000000E+00  0.00000000000E+00 -0.20719643332E+04  0.20719643332E+04  0.50400001928E-02 0.  1.
    10030    2    1    2    0    0  0.00000000000E+00  0.00000000000E+00 -0.23335157906E+03  0.39105770873E+04  0.39036086121E+04 0.  0.
        3    1    3    3  502    0  0.17524756129E+04  0.16499596782E+03 -0.96147567477E+03  0.20056993610E+04  0.10100000352E+00 0.  1.
       -3    1    3    3    0  502 -0.17524756129E+04 -0.16499596782E+03  0.72812409571E+03  0.19048777263E+04  0.10100000352E+00 0. -1.
</event>
<event>
 5   0  0.7268013E-07  0.3907890E+04  0.7818609E-02  0.8023390E-01
        2   -1    0    0  501    0  0.00000000000E+00  0.00000000000E+00  0.22604207494E+04  0.22604207494E+04  0.25500000920E-02 0.  1.
       -2   -1    0    0    0  501  0.00000000000E+00  0.00000000000E+00 -0.16890222619E+04  0.16890222619E+04  0.25500000920E-02 0. -1.
    10030    2    1    2    0    0  0.00000000000E+00  0.00000000000E+00  0.57139848751E+03  0.39494430113E+04  0.39078899509E+04 0.  0.
        4    1    3    3  502    0  0.11114880719E+04  0.14400643538E+04 -0.43512258223E+03  0.18704342682E+04  0.12699999809E+01 0. -1.
       -4    1    3    3    0  502 -0.11114880719E+04 -0.14400643538E+04  0.10065210697E+04  0.20790087431E+04  0.12699999809E+01 0.  1.
</event>
<event>
 5   0  0.1035864E-06  0.3894781E+04  0.7818609E-02  0.8026116E-01
        2   -1    0    0  501    0  0.00000000000E+00  0.00000000000E+00  0.19376612572E+04  0.19376612572E+04  0.25500000920E-02 0. -1.
       -2   -1    0    0    0  501  0.00000000000E+00  0.00000000000E+00 -0.19571686670E+04  0.19571686670E+04  0.25500000920E-02 0.  1.
    10030    2    1    2    0    0  0.00000000000E+00  0.00000000000E+00 -0.19507409793E+02  0.38948299242E+04  0.38947810721E+04 0.  0.
        5    1    3    3  502    0  0.12871547304E+03 -0.19298164292E+04 -0.23679991108E+03  0.19485521320E+04  0.46999998093E+01 0. -1.
       -5    1    3    3    0  502 -0.12871547304E+03  0.19298164292E+04  0.21729250129E+03  0.19462777922E+04  0.46999998093E+01 0.  1.
</event>
<event>
 5   0  0.1035864E-06  0.3874364E+04  0.7818609E-02  0.8030382E-01
        2   -1    0    0  501    0  0.00000000000E+00  0.00000000000E+00  0.12908596934E+04  0.12908596934E+04  0.25500000920E-02 0.  1.
       -2   -1    0    0    0  501  0.00000000000E+00  0.00000000000E+00 -0.29071118626E+04  0.29071118626E+04  0.25500000920E-02 0. -1.
    10030    2    1    2    0    0  0.00000000000E+00  0.00000000000E+00 -0.16162521691E+04  0.41979715560E+04  0.38743637040E+04 0.  0.
        5    1    3    3  502    0  0.10620023894E+04  0.11683858293E+04 -0.20242244077E+04  0.25671932269E+04  0.46999998093E+01 0. -1.
       -5    1    3    3    0  502 -0.10620023894E+04 -0.11683858293E+04  0.40797223859E+03  0.16307783291E+04  0.46999998093E+01 0.  1.
</event>
<event>
 5   0  0.5704268E-07  0.1924606E+04  0.7818609E-02  0.8642704E-01
        1   -1    0    0  501    0  0.00000000000E+00  0.00000000000E+00  0.16437889178E+04  0.16437889178E+04  0.50400001928E-02 0. -1.
       -1   -1    0    0    0  501  0.00000000000E+00  0.00000000000E+00 -0.56334911892E+03  0.56334911894E+03  0.50400001928E-02 0.  1.
    10030    2    1    2    0    0  0.00000000000E+00  0.00000000000E+00  0.10804397989E+04  0.22071380367E+04  0.19246059738E+04 0.  0.
        2    1    3    3  502    0  0.73363004506E+03 -0.27733929333E+03  0.11796541130E+04  0.14165853144E+04  0.25500000920E-02 0. -1.
       -2    1    3    3    0  502 -0.73363004506E+03  0.27733929333E+03 -0.99214314148E+02  0.79055272233E+03  0.25500000920E-02 0.  1.
</event>
<event>
 5   0  0.5385714E-07  0.3761872E+04  0.7818609E-02  0.8054387E-01
        1   -1    0    0  501    0  0.00000000000E+00  0.00000000000E+00  0.24032618350E+04  0.24032618350E+04  0.50400001928E-02 0.  1.
       -1   -1    0    0    0  501  0.00000000000E+00  0.00000000000E+00 -0.14721327578E+04  0.14721327578E+04  0.50400001928E-02 0. -1.
    10030    2    1    2    0    0  0.00000000000E+00  0.00000000000E+00  0.93112907715E+03  0.38753945928E+04  0.37618721259E+04 0.  0.
        3    1    3    3  502    0  0.13230337701E+04  0.12540569196E+04 -0.11934889900E+02  0.18229699850E+04  0.10100000352E+00 0. -1.
       -3    1    3    3    0  502 -0.13230337701E+04 -0.12540569196E+04  0.94306396705E+03  0.20524246078E+04  0.10100000352E+00 0.  1.
</event>
<event>
 5   0  0.3471602E-07  0.4003173E+04  0.7818609E-02  0.8003907E-01
        1   -1    0    0  501    0  0.00000000000E+00  0.00000000000E+00  0.21603874017E+04  0.21603874017E+04  0.50400001928E-02 0. -1.
       -1   -1    0    0    0  501  0.00000000000E+00  0.00000000000E+00 -0.18544586208E+04  0.18544586208E+04  0.50400001928E-02 0.  1.
    10030    2    1    2    0    0  0.00000000000E+00  0.00000000000E+00  0.30592878089E+03  0.40148460225E+04  0.40031732620E+04 0.  0.
        5    1    3    3  502    0 -0.95605112029E+02  0.53274137423E+02 -0.18514498628E+04  0.18546878863E+04  0.46999998093E+01 0.  1.
       -5    1    3    3    0  502  0.95605112029E+02 -0.53274137423E+02  0.21573786437E+04  0.21601581362E+04  0.46999998093E+01 0. -1.
</event>
<event>
 5   0  0.5533705E-07  0.2347768E+04  0.7818609E-02  0.8459321E-01
        2   -1    0    0  501    0  0.00000000000E+00  0.00000000000E+00  0.81714185791E+03  0.81714185791E+03  0.25500000920E-02 0.  1.
       -2   -1    0    0    0  501  0.00000000000E+00  0.00000000000E+00 -0.16863702130E+04  0.16863702130E+04  0.25500000920E-02 0. -1.
    10030    2    1    2    0    0  0.00000000000E+00  0.00000000000E+00 -0.86922835508E+03  0.25035120709E+04  0.23477680371E+04 0.  0.
        1    1    3    3  502    0 -0.81266431835E+03  0.27554094624E+03 -0.12887878257E+04  0.15483281845E+04  0.50400001928E-02 0. -1.
       -1    1    3    3    0  502  0.81266431835E+03 -0.27554094624E+03  0.41955947060E+03  0.95518388637E+03  0.50400001928E-02 0.  1.
</event>
<event>
 5   0  0.3977376E-07  0.2233194E+04  0.7818609E-02  0.8504738E-01
        1   -1    0    0  501    0  0.00000000000E+00  0.00000000000E+00  0.15149668109E+04  0.15149668110E+04  0.50400001928E-02 0.  1.
       -1   -1    0    0    0  501  0.00000000000E+00  0.00000000000E+00 -0.82298128819E+03  0.82298128820E+03  0.50400001928E-02 0. -1.
    10030    2    1    2    0    0  0.00000000000E+00  0.00000000000E+00  0.69198552276E+03  0.23379480992E+04  0.22331944274E+04 0.  0.
        4    1    3    3  502    0  0.96076223917E+03  0.37721080951E+02 -0.24835276525E+03  0.99305975101E+03  0.12699999809E+01 0. -1.
       -4    1    3    3    0  502 -0.96076223917E+03 -0.37721080951E+02  0.94033828801E+03  0.13448883481E+04  0.12699999809E+01 0.  1.
</event>
<event>
 5   0  0.5533705E-07  0.2046368E+04  0.7818609E-02  0.8585244E-01
        2   -1    0    0  501    0  0.00000000000E+00  0.00000000000E+00  0.16835549132E+04  0.16835549132E+04  0.25500000920E-02 0.  1.
       -2   -1    0    0    0  501  0.00000000000E+00  0.00000000000E+00 -0.62184200034E+03  0.62184200035E+03  0.25500000920E-02 0. -1.
    10030    2    1    2    0    0  0.00000000000E+00  0.00000000000E+00  0.10617129129E+04  0.23053969136E+04  0.20463676648E+04 0.  0.
        1    1    3    3  502    0 -0.49860485260E+03 -0.77661230601E+03  0.10285596702E+04  0.13819075469E+04  0.50400001928E-02 0.  1.
       -1    1    3    3    0  502  0.49860485260E+03  0.77661230601E+03  0.33153242650E+02  0.92348936669E+03  0.50400001928E-02 0. -1.
</event>
<event>
 5   0  0.5385714E-07  0.3897165E+04  0.7818609E-02  0.8025619E-01
       -1   -1    0    0    0  501  0.00000000000E+00  0.00000000000E+00  0.13809106909E+04  0.13809106909E+04  0.50400001928E-02 0. -1.
        1   -1    0    0  501    0  0.00000000000E+00  0.00000000000E+00 -0.27496161688E+04  0.27496161688E+04  0.50400001928E-02 0.  1.
    10030    2    1    2    0    0  0.00000000000E+00  0.00000000000E+00 -0.13687054779E+04  0.41305268597E+04  0.38971653101E+04 0.  0.
        3    1    3    3  502    0  0.12205643029E+04  0.65610347583E+03  0.76761505832E+03  0.15841344250E+04  0.10100000352E+00 0. -1.
       -3    1    3    3    0  502 -0.12205643029E+04 -0.65610347583E+03 -0.21363205362E+04  0.25463924348E+04  0.10100000352E+00 0.  1.
</event>
<event>
 5   0  0.1035864E-06  0.2480469E+04  0.7818609E-02  0.8409977E-01
       -2   -1    0    0    0  501  0.00000000000E+00  0.00000000000E+00  0.88474531857E+03  0.88474531857E+03  0.25500000920E-02 0.  1.
        2   -1    0    0  501    0  0.00000000000E+00  0.00000000000E+00 -0.17385581065E+04  0.17385581065E+04  0.25500000920E-02 0. -1.
    10030    2    1    2    0    0  0.00000000000E+00  0.00000000000E+00 -0.85381278792E+03  0.26233034251E+04  0.24804686217E+04 0.  0.
        5    1    3    3  502    0 -0.15051751382E+03  0.15442354963E+03 -0.17185695139E+04  0.17320523719E+04  0.46999998093E+01 0. -1.
       -5    1    3    3    0  502  0.15051751382E+03 -0.15442354963E+03  0.86475672601E+03  0.89125105320E+03  0.46999998093E+01 0.  1.
</event>
<event>
 5   0  0.3471602E-07  0.4007130E+04  0.7818609E-02  0.8003110E-01
       -1   -1    0    0    0  501  0.00000000000E+00  0.00000000000E+00  0.12310765997E+04  0.12310765997E+04  0.50400001928E-02 0.  1.
        1   -1    0    0  501    0  0.00000000000E+00  0.00000000000E+00 -0.32607817396E+04  0.32607817396E+04  0.50400001928E-02 0. -1.
    10030    2    1    2    0    0  0.00000000000E+00  0.00000000000E+00 -0.20297051399E+04  0.44918583394E+04  0.40071296942E+04 0.  0.
        5    1    3    3  502    0 -0.17803287903E+04  0.91427539605E+03 -0.11198884211E+04  0.22933909975E+04  0.46999998093E+01 0. -1.
       -5    1    3    3    0  502  0.17803287903E+04 -0.91427539605E+03 -0.90981671876E+03  0.21984673419E+04  0.46999998093E+01 0.  1.
</event>
<event>
 5   0  0.1015219E-06  0.3981377E+04  0.7818609E-02  0.8008314E-01
       -2   -1    0    0    0  501  0.00000000000E+00  0.00000000000E+00  0.21100854947E+04  0.21100854947E+04  0.25500000920E-02 0. -1.
        2   -1    0    0  501    0  0.00000000000E+00  0.00000000000E+00 -0.18780477105E+04  0.18780477105E+04  0.25500000920E-02 0.  1.
    10030    2    1    2    0    0  0.00000000000E+00  0.00000000000E+00  0.23203778427E+03  0.39881332052E+04  0.39813772653E+04 0.  0.
        3    1    3    3  502    0  0.94606392326E+03 -0.12564504109E+04  0.13383914685E+04  0.20651867507E+04  0.10100000352E+00 0. -1.
       -3    1    3    3    0  502 -0.94606392326E+03  0.12564504109E+04 -0.11063536843E+04  0.19229464545E+04  0.10100000352E+00 0.  1.
</event>
<event>
 5   0  0.1015219E-06  0.3945251E+04  0.7818609E-02  0.8015683E-01
       -2   -1    0    0    0  501  0.00000000000E+00  0.00000000000E+00  0.14538809893E+04  0.14538809893E+04  0.25500000920E-02 0. -1.
        2   -1    0    0  501    0  0.00000000000E+00  0.00000000000E+00 -0.26764583145E+04  0.26764583145E+04  0.25500000920E-02 0.  1.
    10030    2    1    2    0    0  0.00000000000E+00  0.00000000000E+00 -0.12225773252E+04  0.41303393039E+04  0.39452512529E+04 0.  0.
        3    1    3    3  502    0  0.86345524470E+03  0.71066381488E+02 -0.24666161943E+04  0.26143452049E+04  0.10100000352E+00 0.  1.
       -3    1    3    3    0  502 -0.86345524470E+03 -0.71066381488E+02  0.12440388691E+04  0.15159940990E+04  0.10100000352E+00 0. -1.
</event>
<event>
 5   0  0.1015219E-06  0.2401927E+04  0.7818609E-02  0.8438782E-01
        2   -1    0    0  501    0  0.00000000000E+00  0.00000000000E+00  0.18869111234E+04  0.18869111234E+04  0.25500000920E-02 0. -1.
       -2   -1    0    0    0  501  0.00000000000E+00  0.00000000000E+00 -0.76437798103E+03  0.76437798104E+03  0.25500000920E-02 0.  1.
    10030    2    1    2    0    0  0.00000000000E+00  0.00000000000E+00  0.11225331424E+04  0.26512891045E+04  0.24019269888E+04 0.  0.
        3    1    3    3  502    0 -0.19106565843E+03 -0.11456586120E+04  0.22415274102E+03  0.11829134383E+04  0.10100000352E+00 0.  1.
       -3    1    3    3    0  502  0.19106565843E+03  0.11456586120E+04  0.89838040136E+03  0.14683756661E+04  0.10100000352E+00 0. -1.
</event>
<event>
 5   0  0.4316671E-07  0.2103749E+04  0.7818609E-02  0.8559594E-01
        1   -1    0    0  501    0  0.00000000000E+00  0.00000000000E+00  0.79166168037E+03  0.79166168038E+03  0.50400001928E-02 0.  1.
       -1   -1    0    0    0  501  0.00000000000E+00  0.00000000000E+00 -0.13976166193E+04  0.13976166193E+04  0.50400001928E-02 0. -1.
    10030    2    1    2    0    0  0.00000000000E+00  0.00000000000E+00 -0.60595493896E+03  0.21892782997E+04  0.21037485795E+04 0.  0.
        2    1    3    3  502    0 -0.77525598766E+03 -0.48367704215E+03 -0.84519232570E+03  0.12447149854E+04  0.25500000920E-02 0. -1.
       -2    1    3    3    0  502  0.77525598766E+03  0.48367704215E+03  0.23923738674E+03  0.94456331430E+03  0.25500000920E-02 0.  1.
</event>
<event>
 5   0  0.1034683E-06  0.3725027E+04  0.7818609E-02  0.8062438E-01
        2   -1    0    0  501    0  0.00000000000E+00  0.00000000000E+00  0.16325465588E+04  0.16325465588E+04  0.25500000920E-02 0. -1.
       -2   -1    0    0    0  501  0.00000000000E+00  0.00000000000E+00 -0.21248743507E+04  0.21248743508E+04  0.25500000920E-02 0.  1.
    10030    2    1    2    0    0  0.00000000000E+00  0.00000000000E+00 -0.49232779191E+03  0.37574209096E+04  0.37250268774E+04 0.  0.
        2    1    3    3  502    0 -0.36186031431E+03  0.60201210258E+03 -0.19861562360E+04  0.21066983772E+04  0.25500000920E-02 0.  1.
       -2    1    3    3    0  502  0.36186031431E+03 -0.60201210258E+03  0.14938284441E+04  0.16507225324E+04  0.25500000920E-02 0. -1.
</event>
<event>
 5   0  0.5533705E-07  0.3728173E+04  0.7818609E-02  0.8061747E-01
        2   -1    0    0  501    0  0.00000000000E+00  0.00000000000E+00  0.21476501286E+04  0.21476501286E+04  0.25500000920E-02 0.  1.
       -2   -1    0    0    0  501  0.00000000000E+00  0.00000000000E+00 -0.16179629025E+04  0.16179629025E+04  0.25500000920E-02 0. -1.
    10030    2    1    2    0    0  0.00000000000E+00  0.00000000000E+00  0.52968722603E+03  0.37656130311E+04  0.37281728692E+04 0.  0.
        1    1    3    3  502    0  0.18416657385E+04  0.27518846515E+03  0.35147707231E+03  0.18949927483E+04  0.50400001928E-02 0. -1.
       -1    1    3    3    0  502 -0.18416657385E+04 -0.27518846515E+03  0.17821015372E+03  0.18706202828E+04  0.50400001928E-02 0.  1.
</event>
<event>
 5   0  0.4627905E-07  0.2357036E+04  0.7818609E-02  0.8455766E-01
       -1   -1    0    0    0  501  0.00000000000E+00  0.00000000000E+00  0.10843063930E+04  0.10843063930E+04  0.50400001928E-02 0.  1.
        1   -1    0    0  501    0  0.00000000000E+00  0.00000000000E+00 -0.12809151708E+04  0.12809151708E+04  0.50400001928E-02 0. -1.
    10030    2    1    2    0    0  0.00000000000E+00  0.00000000000E+00 -0.19660877779E+03  0.23652215638E+04  0.23570358577E+04 0.  0.
        1    1    3    3  502    0  0.50014654157E+03  0.97721790135E+03 -0.52851595137E+03  0.12183720699E+04  0.50400001928E-02 0. -1.
       -1    1    3    3    0  502 -0.50014654157E+03 -0.97721790135E+03  0.33190717357E+03  0.11468494939E+04  0.50400001928E-02 0.  1.
</event>
<event>
 5   0  0.5533705E-07  0.3816463E+04  0.7818609E-02  0.8042631E-01
        2   -1    0    0  501    0  0.00000000000E+00  0.00000000000E+00  0.21613723204E+04  0.21613723204E+04  0.25500000920E-02 0. -1.
       -2   -1    0    0    0  501  0.00000000000E+00  0.00000000000E+00 -0.16847390593E+04  0.16847390593E+04  0.25500000920E-02 0.  1.
    10030    2    1    2    0    0  0.00000000000E+00  0.00000000000E+00  0.47663326109E+03  0.38461113797E+04  0.38164634780E+04 0.  0.
        1    1    3    3  502    0  0.25176382012E+03 -0.18701688454E+04 -0.47491608115E+02  0.18876366134E+04  0.50400001928E-02 0. -1.
       -1    1    3    3    0  502 -0.25176382012E+03  0.18701688454E+04  0.52412486921E+03  0.19584747662E+04  0.50400001928E-02 0.  1.
</event>
<event>
 5   0  0.3977376E-07  0.2219903E+04  0.7818609E-02  0.8510189E-01
        1   -1    0    0  501    0  0.00000000000E+00  0.00000000000E+00  0.10178523070E+04  0.10178523070E+04  0.50400001928E-02 0.  1.
       -1   -1    0    0    0  501  0.00000000000E+00  0.00000000000E+00 -0.12103840634E+04  0.12103840634E+04  0.50400001928E-02 0. -1.
    10030    2    1    2    0    0  0.00000000000E+00  0.00000000000E+00 -0.19253175645E+03  0.22282363704E+04  0.22199028909E+04 0.  0.
        4    1    3    3  502    0  0.75487484597E+03  0.47879619736E+03 -0.75669387008E+03  0.11711827601E+04  0.12699999809E+01 0. -1.
       -4    1    3    3    0  502 -0.75487484597E+03 -0.47879619736E+03  0.56416211363E+03  0.10570536103E+04  0.12699999809E+01 0.  1.
</event>
<event>
 5   0  0.1015219E-06  0.3662828E+04  0.7818609E-02  0.8076250E-01
       -2   -1    0    0    0  501  0.00000000000E+00  0.00000000000E+00  0.13487985278E+04  0.13487985278E+04  0.25500000920E-02 0. -1.
        2   -1    0    0  501    0  0.00000000000E+00  0.00000000000E+00 -0.24867149922E+04  0.24867149922E+04  0.25500000920E-02 0.  1.
    10030    2    1    2    0    0  0.00000000000E+00  0.00000000000E+00 -0.11379164644E+04  0.38355135200E+04  0.36628281535E+04 0.  0.
        3    1    3    3  502    0  0.17192815994E+03 -0.39989034674E+03  0.12938441859E+04  0.13651023292E+04  0.10100000352E+00 0. -1.
       -3    1    3    3    0  502 -0.17192815994E+03  0.39989034674E+03 -0.24317606503E+04  0.24704111909E+04  0.10100000352E+00 0.  1.
</event>
<event>
 5   0  0.5385714E-07  0.3852619E+04  0.7818609E-02  0.8034956E-01
       -1   -1    0    0    0  501  0.00000000000E+00  0.00000000000E+00  0.20751703453E+04  0.20751703453E+04  0.50400001928E-02 0. -1.
        1   -1    0    0  501    0  0.00000000000E+00  0.00000000000E+00 -0.17881275368E+04  0.17881275368E+04  0.50400001928E-02 0.  1.
    10030    2    1    2    0    0  0.00000000000E+00  0.00000000000E+00  0.28704280851E+03  0.38632978821E+04  0.38526194923E+04 0.  0.
        3    1    3    3  502    0  0.19303928429E+03 -0.51811254057E+03 -0.17068477064E+04  0.17941666235E+04  0.10100000352E+00 0.  1.
       -3    1    3    3    0  502 -0.19303928429E+03  0.51811254057E+03  0.19938905149E+04  0.20691312586E+04  0.10100000352E+00 0. -1.
</event>
<event>
 5   0  0.1034683E-06  0.3911418E+04  0.7818609E-02  0.8022659E-01
        2   -1    0    0  501    0  0.00000000000E+00  0.00000000000E+00  0.14657344706E+04  0.14657344706E+04  0.25500000920E-02 0. -1.
       -2   -1    0    0    0  501  0.00000000000E+00  0.00000000000E+00 -0.26094750279E+04  0.26094750279E+04  0.25500000920E-02 0.  1.
    10030    2    1    2    0    0  0.00000000000E+00  0.00000000000E+00 -0.11437405573E+04  0.40752094985E+04  0.39114179008E+04 0.  0.
        2    1    3    3  502    0 -0.19200096657E+04 -0.14425251305E+03 -0.21465503508E+03  0.19373493975E+04  0.25500000920E-02 0.  1.
       -2    1    3    3    0  502  0.19200096657E+04  0.14425251305E+03 -0.92908552218E+03  0.21378601010E+04  0.25500000920E-02 0. -1.
</event>
<event>
 5   0  0.3471602E-07  0.2859731E+04  0.7818609E-02  0.8284961E-01
        1   -1    0    0  501    0  0.00000000000E+00  0.00000000000E+00  0.14700875013E+04  0.14700875013E+04  0.50400001928E-02 0. -1.
       -1   -1    0    0    0  501  0.00000000000E+00  0.00000000000E+00 -0.13907438614E+04  0.13907438614E+04  0.50400001928E-02 0.  1.
    10030    2    1    2    0    0  0.00000000000E+00  0.00000000000E+00  0.79343639852E+02  0.28608313627E+04  0.28597308742E+04 0.  0.
        5    1    3    3  502    0  0.10394898319E+04  0.69705593788E+03  0.73136177910E+03  0.14495993354E+04  0.46999998093E+01 0. -1.
       -5    1    3    3    0  502 -0.10394898319E+04 -0.69705593788E+03 -0.65201813925E+03  0.14112320274E+04  0.46999998093E+01 0.  1.
</event>
<event>
 5   0  0.1035864E-06  0.2762671E+04  0.7818609E-02  0.8314952E-01
        2   -1    0    0  501    0  0.00000000000E+00  0.00000000000E+00  0.11895781644E+04  0.11895781644E+04  0.25500000920E-02 0. -1.
       -2   -1    0    0    0  501  0.00000000000E+00  0.00000000000E+00 -0.16040040433E+04  0.16040040433E+04  0.25500000920E-02 0.  1.
    10030    2    1    2    0    0  0.00000000000E+00  0.00000000000E+00 -0.41442587895E+03  0.27935822077E+04  0.27626713055E+04 0.  0.
        5    1    3    3  502    0  0.29238798562E+03  0.11115306769E+04  0.56756813084E+03  0.12818528983E+04  0.46999998093E+01 0. -1.
       -5    1    3    3    0  502 -0.29238798562E+03 -0.11115306769E+04 -0.98199400979E+03  0.15117293094E+04  0.46999998093E+01 0.  1.
</event>
<event>
 5   0  0.3191750E-07  0.3903298E+04  0.7818609E-02  0.8024344E-01
       -3   -1    0    0    0  501  0.00000000000E+00  0.00000000000E+00  0.19161329225E+04  0.19161329252E+04  0.10100000352E+00 0. -1.
        3   -1    0    0  501    0  0.00000000000E+00  0.00000000000E+00 -0.19878233941E+04  0.19878233967E+04  0.10100000352E+00 0.  1.
    10030    2    1    2    0    0  0.00000000000E+00  0.00000000000E+00 -0.71690471582E+02  0.39039563219E+04  0.39032980208E+04 0.  0.
        2    1    3    3  502    0  0.40563399387E+03  0.12000084312E+04 -0.15208093085E+04  0.19792473632E+04  0.25500000920E-02 0.  1.
       -2    1    3    3    0  502 -0.40563399387E+03 -0.12000084312E+04  0.14491188370E+04  0.19247089587E+04  0.25500000920E-02 0. -1.
</event>
<event>
 5   0  0.1015219E-06  0.2779520E+04  0.7818609E-02  0.8309655E-01
       -2   -1    0    0    0  501  0.00000000000E+00  0.00000000000E+00  0.16602765389E+04  0.16602765389E+04  0.25500000920E-02 0.  1.
        2   -1    0    0  501    0  0.00000000000E+00  0.00000000000E+00 -0.11633200448E+04  0.11633200448E+04  0.25500000920E-02 0. -1.
    10030    2    1    2    0    0  0.00000000000E+00  0.00000000000E+00  0.49695649414E+03  0.28235965837E+04  0.27795200863E+04 0.  0.
        3    1    3    3  502    0 -0.14231401673E+03 -0.54212111640E+03 -0.10434132130E+04  0.11844237956E+04  0.10100000352E+00 0. -1.
       -3    1    3    3    0  502  0.14231401673E+03  0.54212111640E+03  0.15403697072E+04  0.16391727881E+04  0.10100000352E+00 0.  1.
</event>
<event>
 5   0  0.3471602E-07  0.3728301E+04  0.7818609E-02  0.8061719E-01
        1   -1    0    0  501    0  0.00000000000E+00  0.00000000000E+00  0.18044291656E+04  0.18044291656E+04  0.50400001928E-02 0. -1.
       -1   -1    0    0    0  501  0.00000000000E+00  0.00000000000E+00 -0.19258480686E+04  0.19258480686E+04  0.50400001928E-02 0.  1.
    10030    2    1    2    0    0  0.00000000000E+00  0.00000000000E+00 -0.12141890304E+03  0.37302772342E+04  0.37283006443E+04 0.  0.
        5    1    3    3  502    0 -0.12289296102E+04 -0.42257659698E+03 -0.13979042022E+04  0.19086637252E+04  0.46999998093E+01 0.  1.
       -5    1    3    3    0  502  0.12289296102E+04  0.42257659698E+03  0.12764852992E+04  0.18216135090E+04  0.46999998093E+01 0. -1.
</event>
<event>
 5   0  0.5533705E-07  0.3979500E+04  0.7818609E-02  0.8008695E-01
       -2   -1    0    0    0  501  0.00000000000E+00  0.00000000000E+00  0.14103910462E+04  0.14103910462E+04  0.25500000920E-02 0.  1.
        2   -1    0    0  501    0  0.00000000000E+00  0.00000000000E+00 -0.28070968113E+04  0.28070968113E+04  0.25500000920E-02 0. -1.
    10030    2    1    2    0    0  0.00000000000E+00  0.00000000000E+00 -0.13967057650E+04  0.42174878575E+04  0.39794995708E+04 0.  0.
        1    1    3    3  502    0  0.16140077538E+04  0.63343728402E+03 -0.17328647021E+04  0.24513432844E+04  0.50400001928E-02 0. -1.
       -1    1    3    3    0  502 -0.16140077538E+04 -0.63343728402E+03  0.33615893707E+03  0.17661445731E+04  0.50400001928E-02 0.  1.
</event>
<event>
 5   0  0.1015219E-06  0.3732010E+04  0.7818609E-02  0.8060905E-01
        2   -1    0    0  501    0  0.00000000000E+00  0.00000000000E+00  0.21578955330E+04  0.21578955330E+04  0.25500000920E-02 0.  1.
       -2   -1    0    0    0  501  0.00000000000E+00  0.00000000000E+00 -0.16135976233E+04  0.16135976233E+04  0.25500000920E-02 0. -1.
    10030    2    1    2    0    0  0.00000000000E+00  0.00000000000E+00  0.54429790970E+03  0.37714931563E+04  0.37320102375E+04 0.  0.
        3    1    3    3  502    0 -0.91726302764E+03  0.13297925705E+04 -0.67167787484E+03  0.17495344867E+04  0.10100000352E+00 0. -1.
       -3    1    3    3    0  502  0.91726302764E+03 -0.13297925705E+04  0.12159757845E+04  0.20219586695E+04  0.10100000352E+00 0.  1.
</event>
<event>
 5   0  0.1015219E-06  0.2911571E+04  0.7818609E-02  0.8269443E-01
       -2   -1    0    0    0  501  0.00000000000E+00  0.00000000000E+00  0.88082679400E+03  0.88082679400E+03  0.25500000920E-02 0. -1.
        2   -1    0    0  501    0  0.00000000000E+00  0.00000000000E+00 -0.24060481182E+04  0.24060481182E+04  0.25500000920E-02 0.  1.
    10030    2    1    2    0    0  0.00000000000E+00  0.00000000000E+00 -0.15252213242E+04  0.32868749122E+04  0.29115711568E+04 0.  0.
        3    1    3    3  502    0 -0.33696347153E+03  0.13550420120E+03 -0.23540828458E+04  0.23819344712E+04  0.10100000352E+00 0.  1.
       -3    1    3    3    0  502  0.33696347153E+03 -0.13550420120E+03  0.82886152160E+03  0.90494044107E+03  0.10100000352E+00 0. -1.
</event>
<event>
 5   0  0.3471602E-07  0.3794829E+04  0.7818609E-02  0.8047266E-01
        1   -1    0    0  501    0  0.00000000000E+00  0.00000000000E+00  0.21955369999E+04  0.21955369999E+04  0.50400001928E-02 0. -1.
       -1   -1    0    0    0  501  0.00000000000E+00  0.00000000000E+00 -0.16397724457E+04  0.16397724457E+04  0.50400001928E-02 0.  1.
    10030    2    1    2    0    0  0.00000000000E+00  0.00000000000E+00  0.55576455425E+03  0.38353094456E+04  0.37948286264E+04 0.  0.
        5    1    3    3  502    0 -0.32844483814E+03  0.54918334439E+03  0.20831844705E+04  0.21792562918E+04  0.46999998093E+01 0. -1.
       -5    1    3    3    0  502  0.32844483814E+03 -0.54918334439E+03 -0.15274199162E+04  0.16560531537E+04  0.46999998093E+01 0.  1.
</event>
<event>
 5   0  0.3471602E-07  0.2151909E+04  0.7818609E-02  0.8538715E-01
        1   -1    0    0  501    0  0.00000000000E+00  0.00000000000E+00  0.14435290545E+04  0.14435290545E+04  0.50400001928E-02 0. -1.
       -1   -1    0    0    0  501  0.00000000000E+00  0.00000000000E+00 -0.80197796647E+03  0.80197796648E+03  0.50400001928E-02 0.  1.
    10030    2    1    2    0    0  0.00000000000E+00  0.00000000000E+00  0.64155108804E+03  0.22455070210E+04  0.21519093807E+04 0.  0.
        5    1    3    3  502    0  0.12114601675E+03  0.10399360766E+04  0.57958128745E+03  0.11966954331E+04  0.46999998093E+01 0. -1.
       -5    1    3    3    0  502 -0.12114601675E+03 -0.10399360766E+04  0.61969800592E+02  0.10488115879E+04  0.46999998093E+01 0.  1.
</event>
<event>
 5   0  0.1015219E-06  0.2592834E+04  0.7818609E-02  0.8370639E-01
        2   -1    0    0  501    0  0.00000000000E+00  0.00000000000E+00  0.13819859232E+04  0.13819859232E+04  0.25500000920E-02 0. -1.
       -2   -1    0    0    0  501  0.00000000000E+00  0.00000000000E+00 -0.12161464544E+04  0.12161464544E+04  0.25500000920E-02 0.  1.
    10030    2    1    2    0    0  0.00000000000E+00  0.00000000000E+00  0.16583946874E+03  0.25981323776E+04  0.25928341872E+04 0.  0.
        3    1    3    3  502    0 -0.76856228523E+03 -0.95338808285E+03  0.50930120725E+03  0.13262822297E+04  0.10100000352E+00 0. -1.
       -3    1    3    3    0  502  0.76856228523E+03  0.95338808285E+03 -0.34346173852E+03  0.12718501479E+04  0.10100000352E+00 0.  1.
</event>
<event>
 5   0  0.4316671E-07  0.2320776E+04  0.7818609E-02  0.8469774E-01
       -1   -1    0    0    0  501  0.00000000000E+00  0.00000000000E+00  0.11513184420E+04  0.11513184421E+04  0.50400001928E-02 0.  1.
        1   -1    0    0  501    0  0.00000000000E+00  0.00000000000E+00 -0.11695290850E+04  0.11695290850E+04  0.50400001928E-02 0. -1.
    10030    2    1    2    0    0  0.00000000000E+00  0.00000000000E+00 -0.18210642987E+02  0.23208475271E+04  0.23207760807E+04 0.  0.
        2    1    3    3  502    0 -0.38582014873E+03 -0.34402878557E+03  0.10298142450E+04  0.11522718306E+04  0.25500000920E-02 0.  1.
       -2    1    3    3    0  502  0.38582014873E+03  0.34402878557E+03 -0.10480248880E+04  0.11685756965E+04  0.25500000920E-02 0. -1.
</event>
<event>
 5   0  0.7268013E-07  0.3397226E+04  0.7818609E-02  0.8138587E-01
        2   -1    0    0  501    0  0.00000000000E+00  0.00000000000E+00  0.21223494716E+04  0.21223494716E+04  0.25500000920E-02 0. -1.
       -2   -1    0    0    0  501  0.00000000000E+00  0.00000000000E+00 -0.13594776950E+04  0.13594776950E+04  0.25500000920E-02 0.  1.
    10030    2    1    2    0    0  0.00000000000E+00  0.00000000000E+00  0.76287177659E+03  0.34818271666E+04  0.33972263790E+04 0.  0.
        4    1    3    3  502    0 -0.63364382502E+03  0.18931008699E+03  0.19849888734E+04  0.20922536286E+04  0.12699999809E+01 0. -1.
       -4    1    3    3    0  502  0.63364382502E+03 -0.18931008699E+03 -0.12221170968E+04  0.13895735379E+04  0.12699999809E+01 0.  1.
</event>
<event>
 5   0  0.3471602E-07  0.3236773E+04  0.7818609E-02  0.8179172E-01
        1   -1    0    0  501    0  0.00000000000E+00  0.00000000000E+00  0.21231051715E+04  0.21231051715E+04  0.50400001928E-02 0. -1.
       -1   -1    0    0    0  501  0.00000000000E+00  0.00000000000E+00 -0.12336529338E+04  0.12336529338E+04  0.50400001928E-02 0.  1.
    10030    2    1    2    0    0  0.00000000000E+00  0.00000000000E+00  0.88945223765E+03  0.33567581053E+04  0.32367730372E+04 0.  0.
        5    1    3    3  502    0 -0.60629978640E+03 -0.12942298763E+04  0.12321632734E+04  0.18870291005E+04  0.46999998093E+01 0. -1.
       -5    1    3    3    0  502  0.60629978640E+03  0.12942298763E+04 -0.34271103577E+03  0.14697290048E+04  0.46999998093E+01 0.  1.
</event>
<event>
 5   0  0.4627905E-07  0.3956971E+04  0.7818609E-02  0.8013284E-01
        1   -1    0    0  501    0  0.00000000000E+00  0.00000000000E+00  0.10801849276E+04  0.10801849276E+04  0.50400001928E-02 0. -1.
       -1   -1    0    0    0  501  0.00000000000E+00  0.00000000000E+00 -0.36238282736E+04  0.36238282736E+04  0.50400001928E-02 0.  1.
    10030    2    1    2    0    0  0.00000000000E+00  0.00000000000E+00 -0.25436433460E+04  0.47040132012E+04  0.39569709028E+04 0.  0.
        1    1    3    3  502    0  0.83624747783E+03  0.15936193500E+04 -0.22488550865E+04  0.28803266615E+04  0.50400001928E-02 0.  1.
       -1    1    3    3    0  502 -0.83624747783E+03 -0.15936193500E+04 -0.29478825948E+03  0.18236865397E+04  0.50400001928E-02 0. -1.
</event>
<event>
 5   0  0.4627905E-07  0.3216012E+04  0.7818609E-02  0.8184601E-01
        1   -1    0    0  501    0  0.00000000000E+00  0.00000000000E+00  0.17402255454E+04  0.17402255454E+04  0.50400001928E-02 0.  1.
       -1   -1    0    0    0  501  0.00000000000E+00  0.00000000000E+00 -0.14858321170E+04  0.14858321170E+04  0.50400001928E-02 0. -1.
    10030    2    1    2    0    0  0.00000000000E+00  0.00000000000E+00  0.25439342846E+03  0.32260576624E+04  0.32160118197E+04 0.  0.
        1    1    3    3  502    0  0.13398771974E+04 -0.42291089578E+03  0.91166155658E+03  0.16748884511E+04  0.50400001928E-02 0.  1.
       -1    1    3    3    0  502 -0.13398771974E+04  0.42291089578E+03 -0.65726812813E+03  0.15511692113E+04  0.50400001928E-02 0. -1.
</event>
<event>
 5   0  0.4316671E-07  0.3897521E+04  0.7818609E-02  0.8025545E-01
       -1   -1    0    0    0  501  0.00000000000E+00  0.00000000000E+00  0.20202824631E+04  0.20202824632E+04  0.50400001928E-02 0. -1.
        1   -1    0    0  501    0  0.00000000000E+00  0.00000000000E+00 -0.18797705768E+04  0.18797705768E+04  0.50400001928E-02 0.  1.
    10030    2    1    2    0    0  0.00000000000E+00  0.00000000000E+00  0.14051188633E+03  0.39000530400E+04  0.38975210230E+04 0.  0.
        2    1    3    3  502    0 -0.39125865248E+03 -0.19077460280E+04  0.14164155357E+03  0.19525984150E+04  0.25500000920E-02 0.  1.
       -2    1    3    3    0  502  0.39125865248E+03  0.19077460280E+04 -0.11296672390E+01  0.19474546250E+04  0.25500000920E-02 0. -1.
</event>
<event>
 5   0  0.7268013E-07  0.3201846E+04  0.7818609E-02  0.8188330E-01
        2   -1    0    0  501    0  0.00000000000E+00  0.00000000000E+00  0.14277930893E+04  0.14277930893E+04  0.25500000920E-02 0.  1.
       -2   -1    0    0    0  501  0.00000000000E+00  0.00000000000E+00 -0.17950463160E+04  0.17950463160E+04  0.25500000920E-02 0. -1.
    10030    2    1    2    0    0  0.00000000000E+00  0.00000000000E+00 -0.36725322672E+03  0.32228394053E+04  0.32018461705E+04 0.  0.
        4    1    3    3  502    0  0.15157845815E+04 -0.16124002701E+03  0.30881711770E+03  0.15553041081E+04  0.12699999809E+01 0.  1.
       -4    1    3    3    0  502 -0.15157845815E+04  0.16124002701E+03 -0.67607034442E+03  0.16675352971E+04  0.12699999809E+01 0. -1.
</event>
<event>
 5   0  0.5533705E-07  0.3918825E+04  0.7818609E-02  0.8021125E-01
       -2   -1    0    0    0  501  0.00000000000E+00  0.00000000000E+00  0.21527985406E+04  0.21527985406E+04  0.25500000920E-02 0.  1.
        2   -1    0    0  501    0  0.00000000000E+00  0.00000000000E+00 -0.17833982030E+04  0.17833982030E+04  0.25500000920E-02 0. -1.
    10030    2    1    2    0    0  0.00000000000E+00  0.00000000000E+00  0.36940033755E+03  0.39361967436E+04  0.39188248487E+04 0.  0.
        1    1    3    3  502    0 -0.62023406656E+03 -0.16586386273E+04  0.10271821200E+04  0.20471627930E+04  0.50400001928E-02 0.  1.
       -1    1    3    3    0  502  0.62023406656E+03  0.16586386273E+04 -0.65778178243E+03  0.18890339506E+04  0.50400001928E-02 0. -1.
</event>
<event>
 5   0  0.4848512E-07  0.2008772E+04  0.7818609E-02  0.8602530E-01
       -1   -1    0    0    0  501  0.00000000000E+00  0.00000000000E+00  0.64178096650E+03  0.64178096652E+03  0.50400001928E-02 0. -1.
        1   -1    0    0  501    0  0.00000000000E+00  0.00000000000E+00 -0.15718628867E+04  0.15718628867E+04  0.50400001928E-02 0.  1.
    10030    2    1    2    0    0  0.00000000000E+00  0.00000000000E+00 -0.93008192017E+03  0.22136438532E+04  0.20087724437E+04 0.  0.
        4    1    3    3  502    0 -0.84051361434E+03 -0.30272965002E+03 -0.97085444959E+03  0.13193439097E+04  0.12699999809E+01 0.  1.
       -4    1    3    3    0  502  0.84051361434E+03  0.30272965002E+03  0.40772529420E+02  0.89429994350E+03  0.12699999809E+01 0. -1.
</event>
<event>
 5   0  0.1015219E-06  0.4430395E+04  0.7818609E-02  0.7922937E-01
       -2   -1    0    0    0  501  0.00000000000E+00  0.00000000000E+00  0.27641320381E+04  0.27641320381E+04  0.25500000920E-02 0.  1.
        2   -1    0    0  501    0  0.00000000000E+00  0.00000000000E+00 -0.17752766148E+04  0.17752766148E+04  0.25500000920E-02 0. -1.
    10030    2    1    2    0    0  0.00000000000E+00  0.00000000000E+00  0.98885542328E+03  0.45394086529E+04  0.44303945501E+04 0.  0.
        3    1    3    3  502    0  0.18685801664E+04 -0.11876096323E+04  0.42132453465E+03  0.22537796811E+04  0.10100000352E+00 0. -1.
       -3    1    3    3    0  502 -0.18685801664E+04  0.11876096323E+04  0.56753088863E+03  0.22856289718E+04  0.10100000352E+00 0.  1.
</event>
<event>
 5   0  0.5533705E-07  0.3664189E+04  0.7818609E-02  0.8075945E-01
       -2   -1    0    0    0  501  0.00000000000E+00  0.00000000000E+00  0.22542320421E+04  0.22542320421E+04  0.25500000920E-02 0.  1.
        2   -1    0    0  501    0  0.00000000000E+00  0.00000000000E+00 -0.14890079367E+04  0.14890079367E+04  0.25500000920E-02 0. -1.
    10030    2    1    2    0    0  0.00000000000E+00  0.00000000000E+00  0.76522410539E+03  0.37432399788E+04  0.36641885333E+04 0.  0.
        1    1    3    3  502    0  0.68817286317E+03  0.13859794630E+04 -0.61938934942E+03  0.16667825676E+04  0.50400001928E-02 0. -1.
       -1    1    3    3    0  502 -0.68817286317E+03 -0.13859794630E+04  0.13846134548E+04  0.20764574112E+04  0.50400001928E-02 0.  1.
</event>
<event>
 5   0  0.7268013E-07  0.2937884E+04  0.7818609E-02  0.8261694E-01
        2   -1    0    0  501    0  0.00000000000E+00  0.00000000000E+00  0.15567931764E+04  0.15567931764E+04  0.25500000920E-02 0.  1.
       -2   -1    0    0    0  501  0.00000000000E+00  0.00000000000E+00 -0.13860480781E+04  0.13860480781E+04  0.25500000920E-02 0. -1.
    10030    2    1    2    0    0  0.00000000000E+00  0.00000000000E+00  0.17074509831E+03  0.29428412544E+04  0.29378837213E+04 0.  0.
        4    1    3    3  502    0  0.10538595306E+04  0.90718912413E+03  0.55964438253E+03  0.14989381125E+04  0.12699999809E+01 0.  1.
       -4    1    3    3    0  502 -0.10538595306E+04 -0.90718912413E+03 -0.38889928423E+03  0.14439031420E+04  0.12699999809E+01 0. -1.
</event>
<event>
 5   0  0.1034683E-06  0.3634059E+04  0.7818609E-02  0.8082734E-01
       -2   -1    0    0    0  501  0.00000000000E+00  0.00000000000E+00  0.15365773169E+04  0.15365773169E+04  0.25500000920E-02 0. -1.
        2   -1    0    0  501    0  0.00000000000E+00  0.00000000000E+00 -0.21486690071E+04  0.21486690071E+04  0.25500000920E-02 0.  1.
    10030    2    1    2    0    0  0.00000000000E+00  0.00000000000E+00 -0.61209169013E+03  0.36852463240E+04  0.36340589196E+04 0.  0.
        2    1    3    3  502    0 -0.31643146877E+03  0.14562649290E+04  0.74819324733E+03  0.16675219798E+04  0.25500000920E-02 0. -1.
       -2    1    3    3    0  502  0.31643146877E+03 -0.14562649290E+04 -0.13602849375E+04  0.20177243442E+04  0.25500000920E-02 0.  1.
</event>
<event>
 5   0  0.1034683E-06  0.3837711E+04  0.7818609E-02  0.8038110E-01
        2   -1    0    0  501    0  0.00000000000E+00  0.00000000000E+00  0.22726970412E+04  0.22726970412E+04  0.25500000920E-02 0. -1.
       -2   -1    0    0    0  501  0.00000000000E+00  0.00000000000E+00 -0.16201046418E+04  0.16201046418E+04  0.25500000920E-02 0.  1.
    10030    2    1    2    0    0  0.00000000000E+00  0.00000000000E+00  0.65259239945E+03  0.38928016830E+04  0.38377113106E+04 0.  0.
        2    1    3    3  502    0 -0.13192060652E+04  0.11895586309E+04 -0.40982972505E+03  0.18229961005E+04  0.25500000920E-02 0.  1.
       -2    1    3    3    0  502  0.13192060652E+04 -0.11895586309E+04  0.10624221245E+04  0.20698055825E+04  0.25500000920E-02 0. -1.
</event>
<event>
 5   0  0.1034683E-06  0.3904080E+04  0.7818609E-02  0.8024181E-01
        2   -1    0    0  501    0  0.00000000000E+00  0.00000000000E+00  0.24183315462E+04  0.24183315462E+04  0.25500000920E-02 0.  1.
       -2   -1    0    0    0  501  0.00000000000E+00  0.00000000000E+00 -0.15756570102E+04  0.15756570102E+04  0.25500000920E-02 0. -1.
    10030    2    1    2    0    0  0.00000000000E+00  0.00000000000E+00  0.84267453596E+03  0.39939885564E+04  0.39040804570E+04 0.  0.
        2    1    3    3  502    0  0.12864555367E+04  0.64461067598E+03  0.17707940254E+04  0.22817103786E+04  0.25500000920E-02 0.  1.
       -2    1    3    3    0  502 -0.12864555367E+04 -0.64461067598E+03 -0.92811948941E+03  0.17122781778E+04  0.25500000920E-02 0. -1.
</event>
<event>
 5   0  0.5533705E-07  0.3966242E+04  0.7818609E-02  0.8011391E-01
        2   -1    0    0  501    0  0.00000000000E+00  0.00000000000E+00  0.26335427535E+04  0.26335427535E+04  0.25500000920E-02 0.  1.
       -2   -1    0    0    0  501  0.00000000000E+00  0.00000000000E+00 -0.14933379327E+04  0.14933379327E+04  0.25500000920E-02 0. -1.
    10030    2    1    2    0    0  0.00000000000E+00  0.00000000000E+00  0.11402048208E+04  0.41268806862E+04  0.39662421969E+04 0.  0.
        1    1    3    3  502    0 -0.52725351598E+03  0.18218890727E+03 -0.14100186242E+04  0.15163580015E+04  0.50400001928E-02 0. -1.
       -1    1    3    3    0  502  0.52725351598E+03 -0.18218890727E+03  0.25502234450E+04  0.26105226847E+04  0.50400001928E-02 0.  1.
</event>
<event>
 5   0  0.7268013E-07  0.3928565E+04  0.7818609E-02  0.8019114E-01
       -2   -1    0    0    0  501  0.00000000000E+00  0.00000000000E+00  0.14242801825E+04  0.14242801825E+04  0.25500000920E-02 0. -1.
        2   -1    0    0  501    0  0.00000000000E+00  0.00000000000E+00 -0.27090214609E+04  0.27090214609E+04  0.25500000920E-02 0.  1.
    10030    2    1    2    0    0  0.00000000000E+00  0.00000000000E+00 -0.12847412784E+04  0.41333016434E+04  0.39285649190E+04 0.  0.
        4    1    3    3  502    0 -0.17108471485E+04 -0.42924144338E+03 -0.15518007506E+04  0.23493261512E+04  0.12699999809E+01 0. -1.
       -4    1    3    3    0  502  0.17108471485E+04  0.42924144338E+03  0.26705947223E+03  0.17839754922E+04  0.12699999809E+01 0.  1.
</event>
<event>
 5   0  0.7268013E-07  0.3468644E+04  0.7818609E-02  0.8121261E-01
       -2   -1    0    0    0  501  0.00000000000E+00  0.00000000000E+00  0.29465992313E+04  0.29465992313E+04  0.25500000920E-02 0.  1.
        2   -1    0    0  501    0  0.00000000000E+00  0.00000000000E+00 -0.10207948508E+04  0.10207948508E+04  0.25500000920E-02 0. -1.
    10030    2    1    2    0    0  0.00000000000E+00  0.00000000000E+00  0.19258043805E+04  0.39673940821E+04  0.34686443016E+04 0.  0.
        4    1    3    3  502    0 -0.12064926112E+03 -0.42624150711E+03  0.28807976906E+04  0.29146586445E+04  0.12699999809E+01 0.  1.
       -4    1    3    3    0  502  0.12064926112E+03  0.42624150711E+03 -0.95499331005E+03  0.10527354377E+04  0.12699999809E+01 0. -1.
</event>
<event>
 5   0  0.3977376E-07  0.3571500E+04  0.7818609E-02  0.8097051E-01
       -1   -1    0    0    0  501  0.00000000000E+00  0.00000000000E+00  0.31783651362E+04  0.31783651362E+04  0.50400001928E-02 0. -1.
        1   -1    0    0  501    0  0.00000000000E+00  0.00000000000E+00 -0.10033157746E+04  0.10033157747E+04  0.50400001928E-02 0.  1.
    10030    2    1    2    0    0  0.00000000000E+00  0.00000000000E+00  0.21750493615E+04  0.41816809109E+04  0.35715004571E+04 0.  0.
        4    1    3    3  502    0 -0.10437321757E+04 -0.13773404973E+04  0.16143519642E+04  0.23648631202E+04  0.12699999809E+01 0. -1.
       -4    1    3    3    0  502  0.10437321757E+04  0.13773404973E+04  0.56069739736E+03  0.18168177907E+04  0.12699999809E+01 0.  1.
</event>
<event>
 5   0  0.5385714E-07  0.1986837E+04  0.7818609E-02  0.8612800E-01
        1   -1    0    0  501    0  0.00000000000E+00  0.00000000000E+00  0.80010689874E+03  0.80010689875E+03  0.50400001928E-02 0. -1.
       -1   -1    0    0    0  501  0.00000000000E+00  0.00000000000E+00 -0.12334351885E+04  0.12334351885E+04  0.50400001928E-02 0.  1.
    10030    2    1    2    0    0  0.00000000000E+00  0.00000000000E+00 -0.43332828977E+03  0.20335420873E+04  0.19868366853E+04 0.  0.
        3    1    3    3  502    0  0.32513587216E+03  0.69066493367E+03  0.43400698591E+03  0.87811927435E+03  0.10100000352E+00 0. -1.
       -3    1    3    3    0  502 -0.32513587216E+03 -0.69066493367E+03 -0.86733527568E+03  0.11554228129E+04  0.10100000352E+00 0.  1.
</event>
<event>
 5   0  0.3977376E-07  0.2998602E+04  0.7818609E-02  0.8244130E-01
        1   -1    0    0  501    0  0.00000000000E+00  0.00000000000E+00  0.17290513822E+04  0.17290513822E+04  0.50400001928E-02 0.  1.
       -1   -1    0    0    0  501  0.00000000000E+00  0.00000000000E+00 -0.13000793995E+04  0.13000793995E+04  0.50400001928E-02 0. -1.
    10030    2    1    2    0    0  0.00000000000E+00  0.00000000000E+00  0.42897198271E+03  0.30291307817E+04  0.29986023963E+04 0.  0.
        4    1    3    3  502    0 -0.13308662938E+04  0.68650512376E+03  0.14019755647E+03  0.15040449943E+04  0.12699999809E+01 0.  1.
       -4    1    3    3    0  502  0.13308662938E+04 -0.68650512376E+03  0.28877442624E+03  0.15250857875E+04  0.12699999809E+01 0. -1.
</event>
<event>
 5   0  0.7268013E-07  0.3733101E+04  0.7818609E-02  0.8060666E-01
       -2   -1    0    0    0  501  0.00000000000E+00  0.00000000000E+00  0.10305988906E+04  0.10305988906E+04  0.25500000920E-02 0.  1.
        2   -1    0    0  501    0  0.00000000000E+00  0.00000000000E+00 -0.33805687367E+04  0.33805687367E+04  0.25500000920E-02 0. -1.
    10030    2    1    2    0    0  0.00000000000E+00  0.00000000000E+00 -0.23499698461E+04  0.44111676273E+04  0.37331007968E+04 0.  0.
        4    1    3    3  502    0  0.15072252667E+03  0.67802241568E+03  0.87220717663E+03  0.11149792142E+04  0.12699999809E+01 0.  1.
       -4    1    3    3    0  502 -0.15072252667E+03 -0.67802241568E+03 -0.32221770227E+04  0.32961884131E+04  0.12699999809E+01 0. -1.
</event>
<event>
 5   0  0.1034683E-06  0.3862270E+04  0.7818609E-02  0.8032922E-01
       -2   -1    0    0    0  501  0.00000000000E+00  0.00000000000E+00  0.16372167204E+04  0.16372167204E+04  0.25500000920E-02 0.  1.
        2   -1    0    0  501    0  0.00000000000E+00  0.00000000000E+00 -0.22778185542E+04  0.22778185542E+04  0.25500000920E-02 0. -1.
    10030    2    1    2    0    0  0.00000000000E+00  0.00000000000E+00 -0.64060183383E+03  0.39150352745E+04  0.38622701215E+04 0.  0.
        2    1    3    3  502    0 -0.12627578273E+04 -0.14604720396E+04 -0.36266559714E+03  0.19644496034E+04  0.25500000920E-02 0.  1.
       -2    1    3    3    0  502  0.12627578273E+04  0.14604720396E+04 -0.27793623668E+03  0.19505856712E+04  0.25500000920E-02 0. -1.
</event>
<event>
 5   0  0.1034683E-06  0.3899486E+04  0.7818609E-02  0.8025136E-01
        2   -1    0    0  501    0  0.00000000000E+00  0.00000000000E+00  0.21489286265E+04  0.21489286265E+04  0.25500000920E-02 0. -1.
       -2   -1    0    0    0  501  0.00000000000E+00  0.00000000000E+00 -0.17690201791E+04  0.17690201791E+04  0.25500000920E-02 0.  1.
    10030    2    1    2    0    0  0.00000000000E+00  0.00000000000E+00  0.37990844745E+03  0.39179488056E+04  0.38994861732E+04 0.  0.
        2    1    3    3  502    0  0.54385529450E+03 -0.10731081190E+04 -0.13516369700E+04  0.18094922258E+04  0.25500000920E-02 0. -1.
       -2    1    3    3    0  502 -0.54385529450E+03  0.10731081190E+04  0.17315454175E+04  0.21084565799E+04  0.25500000920E-02 0.  1.
</event>
<event>
 5   0  0.5533705E-07  0.3125132E+04  0.7818609E-02  0.8208874E-01
       -2   -1    0    0    0  501  0.00000000000E+00  0.00000000000E+00  0.10985472060E+04  0.10985472060E+04  0.25500000920E-02 0.  1.
        2   -1    0    0  501    0  0.00000000000E+00  0.00000000000E+00 -0.22225829575E+04  0.22225829575E+04  0.25500000920E-02 0. -1.
    10030    2    1    2    0    0  0.00000000000E+00  0.00000000000E+00 -0.11240357515E+04  0.33211301635E+04  0.31251318680E+04 0.  0.
        1    1    3    3  502    0  0.78014290385E+03  0.10264661106E+04  0.37616106084E+03  0.13430386332E+04  0.50400001928E-02 0.  1.
       -1    1    3    3    0  502 -0.78014290385E+03 -0.10264661106E+04 -0.15001968123E+04  0.19780915303E+04  0.50400001928E-02 0. -1.
</event>
<event>
 5   0  0.1448563E-06  0.2134214E+04  0.7818609E-02  0.8546320E-01
        2   -1    0    0  501    0  0.00000000000E+00  0.00000000000E+00  0.18018560441E+04  0.18018560441E+04  0.25500000920E-02 0.  1.
       -2   -1    0    0    0  501  0.00000000000E+00  0.00000000000E+00 -0.63196888906E+03  0.63196888907E+03  0.25500000920E-02 0. -1.
    10030    2    1    2    0    0  0.00000000000E+00  0.00000000000E+00  0.11698871551E+04  0.24338249332E+04  0.21342136374E+04 0.  0.
        3    1    3    3  502    0  0.26227420388E+03 -0.22159550947E+03 -0.56725414919E+03  0.66307586882E+03  0.10100000352E+00 0. -1.
       -3    1    3    3    0  502 -0.26227420388E+03  0.22159550947E+03  0.17371413043E+04  0.17707490644E+04  0.10100000352E+00 0.  1.
</event>
<event>
 5   0  0.1035864E-06  0.3911828E+04  0.7818609E-02  0.8022574E-01
        2   -1    0    0  501    0  0.00000000000E+00  0.00000000000E+00  0.30149398358E+04  0.30149398359E+04  0.25500000920E-02 0.  1.
       -2   -1    0    0    0  501  0.00000000000E+00  0.00000000000E+00 -0.12688807443E+04  0.12688807443E+04  0.25500000920E-02 0. -1.
    10030    2    1    2    0    0  0.00000000000E+00  0.00000000000E+00  0.17460590915E+04  0.42838205802E+04  0.39118277585E+04 0.  0.
        5    1    3    3  502    0  0.17596707590E+03  0.83965947627E+03  0.27979003804E+04  0.29264758801E+04  0.46999998093E+01 0.  1.
       -5    1    3    3    0  502 -0.17596707590E+03 -0.83965947627E+03 -0.10518412889E+04  0.13573447001E+04  0.46999998093E+01 0. -1.
</event>
<event>
 5   0  0.5385714E-07  0.2087388E+04  0.7818609E-02  0.8566820E-01
       -1   -1    0    0    0  501  0.00000000000E+00  0.00000000000E+00  0.12162014270E+04  0.12162014270E+04  0.50400001928E-02 0.  1.
        1   -1    0    0  501    0  0.00000000000E+00  0.00000000000E+00 -0.89565508353E+03  0.89565508354E+03  0.50400001928E-02 0. -1.
    10030    2    1    2    0    0  0.00000000000E+00  0.00000000000E+00  0.32054634346E+03  0.21118565105E+04  0.20873878324E+04 0.  0.
        3    1    3    3  502    0  0.63693677435E+03  0.75817517415E+03 -0.17340949921E+03  0.10052805150E+04  0.10100000352E+00 0. -1.
       -3    1    3    3    0  502 -0.63693677435E+03 -0.75817517415E+03  0.49395584267E+03  0.11065759955E+04  0.10100000352E+00 0.  1.
</event>
<event>
 5   0  0.4627905E-07  0.3991632E+04  0.7818609E-02  0.8006237E-01
        1   -1    0    0  501    0  0.00000000000E+00  0.00000000000E+00  0.14902444004E+04  0.14902444004E+04  0.50400001928E-02 0. -1.
       -1   -1    0    0    0  501  0.00000000000E+00  0.00000000000E+00 -0.26729053281E+04  0.26729053281E+04  0.50400001928E-02 0.  1.
    10030    2    1    2    0    0  0.00000000000E+00  0.00000000000E+00 -0.11826609277E+04  0.41631497286E+04  0.39916323469E+04 0.  0.
        1    1    3    3  502    0  0.17361915347E+03 -0.14525681562E+04  0.82464550626E+03  0.16793266716E+04  0.50400001928E-02 0. -1.
       -1    1    3    3    0  502 -0.17361915347E+03  0.14525681562E+04 -0.20073064340E+04  0.24838230570E+04  0.50400001928E-02 0.  1.
</event>
<event>
 5   0  0.1035864E-06  0.3890836E+04  0.7818609E-02  0.8026938E-01
       -2   -1    0    0    0  501  0.00000000000E+00  0.00000000000E+00  0.15863094956E+04  0.15863094956E+04  0.25500000920E-02 0. -1.
        2   -1    0    0  501    0  0.00000000000E+00  0.00000000000E+00 -0.23858214723E+04  0.23858214723E+04  0.25500000920E-02 0.  1.
    10030    2    1    2    0    0  0.00000000000E+00  0.00000000000E+00 -0.79951197669E+03  0.39721309679E+04  0.38908360317E+04 0.  0.
        5    1    3    3  502    0 -0.10038738353E+04  0.16559617445E+04 -0.20970186197E+03  0.19478113198E+04  0.46999998093E+01 0. -1.
       -5    1    3    3    0  502  0.10038738353E+04 -0.16559617445E+04 -0.58981011472E+03  0.20243196482E+04  0.46999998093E+01 0.  1.
</event>
<event>
 5   0  0.5533705E-07  0.3840332E+04  0.7818609E-02  0.8037555E-01
        2   -1    0    0  501    0  0.00000000000E+00  0.00000000000E+00  0.16189727130E+04  0.16189727130E+04  0.25500000920E-02 0. -1.
       -2   -1    0    0    0  501  0.00000000000E+00  0.00000000000E+00 -0.22773927285E+04  0.22773927285E+04  0.25500000920E-02 0.  1.
    10030    2    1    2    0    0  0.00000000000E+00  0.00000000000E+00 -0.65842001552E+03  0.38963654414E+04  0.38403315920E+04 0.  0.
        1    1    3    3  502    0 -0.15204125778E+04  0.26162655501E+03 -0.14891025513E+04  0.21441849895E+04  0.50400001928E-02 0.  1.
       -1    1    3    3    0  502  0.15204125778E+04 -0.26162655501E+03  0.83068253574E+03  0.17521804519E+04  0.50400001928E-02 0. -1.
</event>
<event>
 5   0  0.1035864E-06  0.3941765E+04  0.7818609E-02  0.8016399E-01
       -2   -1    0    0    0  501  0.00000000000E+00  0.00000000000E+00  0.17497889978E+04  0.17497889978E+04  0.25500000920E-02 0.  1.
        2   -1    0    0  501    0  0.00000000000E+00  0.00000000000E+00 -0.22199121248E+04  0.22199121248E+04  0.25500000920E-02 0. -1.
    10030    2    1    2    0    0  0.00000000000E+00  0.00000000000E+00 -0.47012312707E+03  0.39697011226E+04  0.39417649915E+04 0.  0.
        5    1    3    3  502    0  0.99975472054E+03 -0.16957403617E+04 -0.13788497179E+03  0.19733421475E+04  0.46999998093E+01 0. -1.
       -5    1    3    3    0  502 -0.99975472054E+03  0.16957403617E+04 -0.33223815527E+03  0.19963589751E+04  0.46999998093E+01 0.  1.
</event>
<event>
 5   0  0.1015219E-06  0.2687050E+04  0.7818609E-02  0.8339219E-01
        2   -1    0    0  501    0  0.00000000000E+00  0.00000000000E+00  0.20319254400E+04  0.20319254400E+04  0.25500000920E-02 0. -1.
       -2   -1    0    0    0  501  0.00000000000E+00  0.00000000000E+00 -0.88834924675E+03  0.88834924675E+03  0.25500000920E-02 0.  1.
    10030    2    1    2    0    0  0.00000000000E+00  0.00000000000E+00  0.11435761933E+04  0.29202746868E+04  0.26870500063E+04 0.  0.
        3    1    3    3  502    0 -0.10923149144E+03  0.82665954004E+03 -0.57309953190E+03  0.10118006708E+04  0.10100000352E+00 0.  1.
       -3    1    3    3    0  502  0.10923149144E+03 -0.82665954004E+03  0.17166757252E+04  0.19084740159E+04  0.10100000352E+00 0. -1.
</event>
<event>
 5   0  0.7268013E-07  0.3568329E+04  0.7818609E-02  0.8097785E-01
        2   -1    0    0  501    0  0.00000000000E+00  0.00000000000E+00  0.19946424121E+04  0.19946424121E+04  0.25500000920E-02 0.  1.
       -2   -1    0    0    0  501  0.00000000000E+00  0.00000000000E+00 -0.15958963920E+04  0.15958963920E+04  0.25500000920E-02 0. -1.
    10030    2    1    2    0    0  0.00000000000E+00  0.00000000000E+00  0.39874602010E+03  0.35905388042E+04  0.35683288127E+04 0.  0.
        4    1    3    3  502    0 -0.26856393723E+03  0.15140618116E+04  0.11098425978E+04  0.18963812809E+04  0.12699999809E+01 0.  1.
       -4    1    3    3    0  502  0.26856393723E+03 -0.15140618116E+04 -0.71109657772E+03  0.16941575232E+04  0.12699999809E+01 0. -1.
</event>
<event>
 5   0  0.3471602E-07  0.2971157E+04  0.7818609E-02  0.8252016E-01
       -1   -1    0    0    0  501  0.00000000000E+00  0.00000000000E+00  0.14542103075E+04  0.14542103075E+04  0.50400001928E-02 0. -1.
        1   -1    0    0  501    0  0.00000000000E+00  0.00000000000E+00 -0.15176230166E+04  0.15176230166E+04  0.50400001928E-02 0.  1.
    10030    2    1    2    0    0  0.00000000000E+00  0.00000000000E+00 -0.63412709115E+02  0.29718333242E+04  0.29711566998E+04 0.  0.
        5    1    3    3  502    0  0.91732721127E+02  0.90272145750E+03  0.11448268029E+04  0.14608119046E+04  0.46999998093E+01 0. -1.
       -5    1    3    3    0  502 -0.91732721127E+02 -0.90272145750E+03 -0.12082395120E+04  0.15110214196E+04  0.46999998093E+01 0.  1.
</event>
<event>
 5   0  0.5385714E-07  0.3939355E+04  0.7818609E-02  0.8016894E-01
       -1   -1    0    0    0  501  0.00000000000E+00  0.00000000000E+00  0.15978611435E+04  0.15978611435E+04  0.50400001928E-02 0. -1.
        1   -1    0    0  501    0  0.00000000000E+00  0.00000000000E+00 -0.24280142724E+04  0.24280142724E+04  0.50400001928E-02 0.  1.
    10030    2    1    2    0    0  0.00000000000E+00  0.00000000000E+00 -0.83015312885E+03  0.40258754159E+04  0.39393551055E+04 0.  0.
        3    1    3    3  502    0 -0.10968750321E+04  0.90771674068E+03  0.97589931406E+03  0.17261123946E+04  0.10100000352E+00 0. -1.
       -3    1    3    3    0  502  0.10968750321E+04 -0.90771674068E+03 -0.18060524429E+04  0.22997630213E+04  0.10100000352E+00 0.  1.
</event>
<event>
 5   0  0.3977376E-07  0.2367688E+04  0.7818609E-02  0.8451701E-01
       -1   -1    0    0    0  501  0.00000000000E+00  0.00000000000E+00  0.11586098761E+04  0.11586098761E+04  0.50400001928E-02 0. -1.
        1   -1    0    0  501    0  0.00000000000E+00  0.00000000000E+00 -0.12096279474E+04  0.12096279474E+04  0.50400001928E-02 0.  1.
    10030    2    1    2    0    0  0.00000000000E+00  0.00000000000E+00 -0.51018071301E+02  0.23682378235E+04  0.23676882281E+04 0.  0.
        4    1    3    3  502    0  0.88954201240E+03 -0.29045256745E+03 -0.75082395639E+03  0.11997441028E+04  0.12699999809E+01 0.  1.
       -4    1    3    3    0  502 -0.88954201240E+03  0.29045256745E+03  0.69980588509E+03  0.11684937208E+04  0.12699999809E+01 0. -1.
</event>
<event>
 5   0  0.3471602E-07  0.2046261E+04  0.7818609E-02  0.8585292E-01
        1   -1    0    0  501    0  0.00000000000E+00  0.00000000000E+00  0.89688284917E+03  0.89688284919E+03  0.50400001928E-02 0.  1.
       -1   -1    0    0    0  501  0.00000000000E+00  0.00000000000E+00 -0.11671494246E+04  0.11671494246E+04  0.50400001928E-02 0. -1.
    10030    2    1    2    0    0  0.00000000000E+00  0.00000000000E+00 -0.27026657544E+03  0.20640322738E+04  0.20462612750E+04 0.  0.
        5    1    3    3  502    0 -0.20630557536E+03 -0.26141830816E+03  0.84067338877E+03  0.90424297556E+03  0.46999998093E+01 0.  1.
       -5    1    3    3    0  502  0.20630557536E+03  0.26141830816E+03 -0.11109399642E+04  0.11597892983E+04  0.46999998093E+01 0. -1.
</event>
<event>
 5   0  0.1034683E-06  0.3841973E+04  0.7818609E-02  0.8037207E-01
        2   -1    0    0  501    0  0.00000000000E+00  0.00000000000E+00  0.19877688278E+04  0.19877688278E+04  0.25500000920E-02 0.  1.
       -2   -1    0    0    0  501  0.00000000000E+00  0.00000000000E+00 -0.18564476706E+04  0.18564476706E+04  0.25500000920E-02 0. -1.
    10030    2    1    2    0    0  0.00000000000E+00  0.00000000000E+00  0.13132115722E+03  0.38442164985E+04  0.38419728319E+04 0.  0.
        2    1    3    3  502    0 -0.18590635889E+04  0.48002328242E+03  0.52180910415E+01  0.19200434911E+04  0.25500000920E-02 0. -1.
       -2    1    3    3    0  502  0.18590635889E+04 -0.48002328242E+03  0.12610306618E+03  0.19241730074E+04  0.25500000920E-02 0.  1.
</event>
<event>
 5   0  0.1035864E-06  0.3486804E+04  0.7818609E-02  0.8116924E-01
       -2   -1    0    0    0  501  0.00000000000E+00  0.00000000000E+00  0.14559652828E+04  0.14559652828E+04  0.25500000920E-02 0. -1.
        2   -1    0    0  501    0  0.00000000000E+00  0.00000000000E+00 -0.20875844699E+04  0.20875844699E+04  0.25500000920E-02 0.  1.
    10030    2    1    2    0    0  0.00000000000E+00  0.00000000000E+00 -0.63161918716E+03  0.35435497527E+04  0.34868039882E+04 0.  0.
        5    1    3    3  502    0  0.17420293761E+04 -0.53474840483E+02 -0.27148188284E+03  0.17638736940E+04  0.46999998093E+01 0. -1.
       -5    1    3    3    0  502 -0.17420293761E+04  0.53474840483E+02 -0.36013730431E+03  0.17796760587E+04  0.46999998093E+01 0.  1.
</event>
<event>
 5   0  0.1015219E-06  0.2262748E+04  0.7818609E-02  0.8492756E-01
        2   -1    0    0  501    0  0.00000000000E+00  0.00000000000E+00  0.18416118191E+04  0.18416118191E+04  0.25500000920E-02 0. -1.
       -2   -1    0    0    0  501  0.00000000000E+00  0.00000000000E+00 -0.69504693160E+03  0.69504693161E+03  0.25500000920E-02 0.  1.
    10030    2    1    2    0    0  0.00000000000E+00  0.00000000000E+00  0.11465648875E+04  0.25366587507E+04  0.22627475724E+04 0.  0.
        3    1    3    3  502    0 -0.22947263796E+03  0.79184293130E+03 -0.29532251840E+03  0.87572159931E+03  0.10100000352E+00 0.  1.
       -3    1    3    3    0  502  0.22947263796E+03 -0.79184293130E+03  0.14418874059E+04  0.16609371514E+04  0.10100000352E+00 0. -1.
</event>
<event>
 5   0  0.4627906E-07  0.2082857E+04  0.7818609E-02  0.8568833E-01
        1   -1    0    0  501    0  0.00000000000E+00  0.00000000000E+00  0.11235576573E+04  0.11235576573E+04  0.50400001928E-02 0. -1.
       -1   -1    0    0    0  501  0.00000000000E+00  0.00000000000E+00 -0.96530316123E+03  0.96530316124E+03  0.50400001928E-02 0.  1.
    10030    2    1    2    0    0  0.00000000000E+00  0.00000000000E+00  0.15825449605E+03  0.20888608185E+04  0.20828574204E+04 0.  0.
        1    1    3    3  502    0 -0.62720398180E+03  0.42378865131E+03 -0.63819099784E+03  0.99008555464E+03  0.50400001928E-02 0.  1.
       -1    1    3    3    0  502  0.62720398180E+03 -0.42378865131E+03  0.79644549389E+03  0.10987752639E+04  0.50400001928E-02 0. -1.
</event>
<event>
 5   0  0.6434025E-07  0.1986700E+04  0.7818609E-02  0.8612864E-01
        2   -1    0    0  501    0  0.00000000000E+00  0.00000000000E+00  0.18639888024E+04  0.18639888024E+04  0.25500000920E-02 0. -1.
       -2   -1    0    0    0  501  0.00000000000E+00  0.00000000000E+00 -0.52937252924E+03  0.52937252924E+03  0.25500000920E-02 0.  1.
    10030    2    1    2    0    0  0.00000000000E+00  0.00000000000E+00  0.13346162731E+04  0.23933613316E+04  0.19867002459E+04 0.  0.
        1    1    3    3  502    0 -0.66302670055E+03 -0.45453137266E+03  0.13703170225E+04  0.15887013302E+04  0.50400001928E-02 0. -1.
       -1    1    3    3    0  502  0.66302670055E+03  0.45453137266E+03 -0.35700749346E+02  0.80466000144E+03  0.50400001928E-02 0.  1.
</event>
<event>
 5   0  0.1015219E-06  0.3881096E+04  0.7818609E-02  0.8028972E-01
       -2   -1    0    0    0  501  0.00000000000E+00  0.00000000000E+00  0.16781849480E+04  0.16781849480E+04  0.25500000920E-02 0.  1.
        2   -1    0    0  501    0  0.00000000000E+00  0.00000000000E+00 -0.22439286796E+04  0.22439286796E+04  0.25500000920E-02 0. -1.
    10030    2    1    2    0    0  0.00000000000E+00  0.00000000000E+00 -0.56574373160E+03  0.39221136275E+04  0.38810964092E+04 0.  0.
        3    1    3    3  502    0  0.38767042033E+03  0.13039538964E+04  0.11156406823E+04  0.17593289235E+04  0.10100000352E+00 0.  1.
       -3    1    3    3    0  502 -0.38767042033E+03 -0.13039538964E+04 -0.16813844139E+04  0.21627847041E+04  0.10100000352E+00 0. -1.
</event>
<event>
 5   0  0.1015219E-06  0.3854551E+04  0.7818609E-02  0.8034549E-01
       -2   -1    0    0    0  501  0.00000000000E+00  0.00000000000E+00  0.21076020809E+04  0.21076020809E+04  0.25500000920E-02 0. -1.
        2   -1    0    0  501    0  0.00000000000E+00  0.00000000000E+00 -0.17623777680E+04  0.17623777680E+04  0.25500000920E-02 0.  1.
    10030    2    1    2    0    0  0.00000000000E+00  0.00000000000E+00  0.34522431286E+03  0.38699798489E+04  0.38545511029E+04 0.  0.
        3    1    3    3  502    0  0.69242394324E+03 -0.12943689930E+04  0.14264299037E+04  0.20468376309E+04  0.10100000352E+00 0. -1.
       -3    1    3    3    0  502 -0.69242394324E+03  0.12943689930E+04 -0.10812055908E+04  0.18231422180E+04  0.10100000352E+00 0.  1.
</event>
<event>
 5   0  0.5533705E-07  0.2556248E+04  0.7818609E-02  0.8383217E-01
       -2   -1    0    0    0  501  0.00000000000E+00  0.00000000000E+00  0.68602495203E+03  0.68602495203E+03  0.25500000920E-02 0. -1.
        2   -1    0    0  501    0  0.00000000000E+00  0.00000000000E+00 -0.23812556482E+04  0.23812556482E+04  0.25500000920E-02 0.  1.
    10030    2    1    2    0    0  0.00000000000E+00  0.00000000000E+00 -0.16952306962E+04  0.30672806002E+04  0.25562478689E+04 0.  0.
        1    1    3    3  502    0  0.36488891710E+03  0.10285064859E+04 -0.49305302098E+02  0.10924287282E+04  0.50400001928E-02 0.  1.
       -1    1    3    3    0  502 -0.36488891710E+03 -0.10285064859E+04 -0.16459253941E+04  0.19748518720E+04  0.50400001928E-02 0. -1.
</event>
<event>
 5   0  0.4627905E-07  0.4017567E+04  0.7818609E-02  0.8001012E-01
        1   -1    0    0  501    0  0.00000000000E+00  0.00000000000E+00  0.16997701501E+04  0.16997701501E+04  0.50400001928E-02 0. -1.
       -1   -1    0    0    0  501  0.00000000000E+00  0.00000000000E+00 -0.23739740402E+04  0.23739740402E+04  0.50400001928E-02 0.  1.
    10030    2    1    2    0    0  0.00000000000E+00  0.00000000000E+00 -0.67420389016E+03  0.40737441903E+04  0.40175665324E+04 0.  0.
        1    1    3    3  502    0  0.10986252785E+04  0.12139293421E+04  0.84304893972E+03  0.18415573477E+04  0.50400001928E-02 0. -1.
       -1    1    3    3    0  502 -0.10986252785E+04 -0.12139293421E+04 -0.15172528299E+04  0.22321868425E+04  0.50400001928E-02 0.  1.
</event>
<event>
 5   0  0.4316671E-07  0.3875949E+04  0.7818609E-02  0.8030050E-01
        1   -1    0    0  501    0  0.00000000000E+00  0.00000000000E+00  0.15615888494E+04  0.15615888494E+04  0.50400001928E-02 0.  1.
       -1   -1    0    0    0  501  0.00000000000E+00  0.00000000000E+00 -0.24050797494E+04  0.24050797494E+04  0.50400001928E-02 0. -1.
    10030    2    1    2    0    0  0.00000000000E+00  0.00000000000E+00 -0.84349089998E+03  0.39666685988E+04  0.38759492869E+04 0.  0.
        2    1    3    3  502    0  0.22695437399E+03  0.28633770111E+03 -0.23695121286E+04  0.23975164847E+04  0.25500000920E-02 0. -1.
       -2    1    3    3    0  502 -0.22695437399E+03 -0.28633770111E+03  0.15260212286E+04  0.15691521141E+04  0.25500000920E-02 0.  1.
</event>
<event>
 5   0  0.3471602E-07  0.3187789E+04  0.7818609E-02  0.8192050E-01
        1   -1    0    0  501    0  0.00000000000E+00  0.00000000000E+00  0.12773741823E+04  0.12773741823E+04  0.50400001928E-02 0. -1.
       -1   -1    0    0    0  501  0.00000000000E+00  0.00000000000E+00 -0.19888448150E+04  0.19888448150E+04  0.50400001928E-02 0.  1.
    10030    2    1    2    0    0  0.00000000000E+00  0.00000000000E+00 -0.71147063268E+03  0.32662189973E+04  0.31877885873E+04 0.  0.
        5    1    3    3  502    0 -0.61497465893E+02 -0.12779644061E+04  0.61817808155E+03  0.14209648807E+04  0.46999998093E+01 0. -1.
       -5    1    3    3    0  502  0.61497465893E+02  0.12779644061E+04 -0.13296487142E+04  0.18452541166E+04  0.46999998093E+01 0.  1.
</event>
<event>
 5   0  0.1034683E-06  0.3701108E+04  0.7818609E-02  0.8067716E-01
       -2   -1    0    0    0  501  0.00000000000E+00  0.00000000000E+00  0.16100404839E+04  0.16100404839E+04  0.25500000920E-02 0. -1.
        2   -1    0    0  501    0  0.00000000000E+00  0.00000000000E+00 -0.21269967143E+04  0.21269967143E+04  0.25500000920E-02 0.  1.
    10030    2    1    2    0    0  0.00000000000E+00  0.00000000000E+00 -0.51695623040E+03  0.37370371982E+04  0.37011083849E+04 0.  0.
        2    1    3    3  502    0 -0.59319030123E+03 -0.76310397268E+03  0.13349250413E+04  0.16480980773E+04  0.25500000920E-02 0. -1.
       -2    1    3    3    0  502  0.59319030123E+03  0.76310397268E+03 -0.18518812717E+04  0.20889391209E+04  0.25500000920E-02 0.  1.
</event>
<event>
 5   0  0.5385714E-07  0.2526549E+04  0.7818609E-02  0.8393588E-01
       -1   -1    0    0    0  501  0.00000000000E+00  0.00000000000E+00  0.14868015963E+04  0.14868015963E+04  0.50400001928E-02 0.  1.
        1   -1    0    0  501    0  0.00000000000E+00  0.00000000000E+00 -0.10733530850E+04  0.10733530850E+04  0.50400001928E-02 0. -1.
    10030    2    1    2    0    0  0.00000000000E+00  0.00000000000E+00  0.41344851132E+03  0.25601546813E+04  0.25265494890E+04 0.  0.
        3    1    3    3  502    0 -0.45055991051E+03  0.64268823046E+03 -0.79629548291E+03  0.11180961054E+04  0.10100000352E+00 0. -1.
       -3    1    3    3    0  502  0.45055991051E+03 -0.64268823046E+03  0.12097439942E+04  0.14420585759E+04  0.10100000352E+00 0.  1.
</event>
<event>
 5   0  0.3977376E-07  0.3925820E+04  0.7818609E-02  0.8019681E-01
        1   -1    0    0  501    0  0.00000000000E+00  0.00000000000E+00  0.29764337432E+04  0.29764337432E+04  0.50400001928E-02 0. -1.
       -1   -1    0    0    0  501  0.00000000000E+00  0.00000000000E+00 -0.12945072597E+04  0.12945072597E+04  0.50400001928E-02 0.  1.
    10030    2    1    2    0    0  0.00000000000E+00  0.00000000000E+00  0.16819264835E+04  0.42709410029E+04  0.39258197047E+04 0.  0.
        4    1    3    3  502    0  0.14511511953E+03  0.11044722247E+04 -0.91731581847E+03  0.14430478913E+04  0.12699999809E+01 0.  1.
       -4    1    3    3    0  502 -0.14511511953E+03 -0.11044722247E+04  0.25992423020E+04  0.28278931115E+04  0.12699999809E+01 0. -1.
</event>
<event>
 5   0  0.7268013E-07  0.2575634E+04  0.7818609E-02  0.8376525E-01
        2   -1    0    0  501    0  0.00000000000E+00  0.00000000000E+00  0.22178967168E+04  0.22178967168E+04  0.25500000920E-02 0. -1.
       -2   -1    0    0    0  501  0.00000000000E+00  0.00000000000E+00 -0.74776804851E+03  0.74776804852E+03  0.25500000920E-02 0.  1.
    10030    2    1    2    0    0  0.00000000000E+00  0.00000000000E+00  0.14701286682E+04  0.29656647653E+04  0.25756337470E+04 0.  0.
        4    1    3    3  502    0  0.11362822998E+04 -0.22380122683E+03  0.13836034685E+04  0.18043238692E+04  0.12699999809E+01 0. -1.
       -4    1    3    3    0  502 -0.11362822998E+04  0.22380122683E+03  0.86525199757E+02  0.11613408961E+04  0.12699999809E+01 0.  1.
</event>
<event>
 5   0  0.4316671E-07  0.2696300E+04  0.7818609E-02  0.8336206E-01
        1   -1    0    0  501    0  0.00000000000E+00  0.00000000000E+00  0.12038752387E+04  0.12038752387E+04  0.50400001928E-02 0. -1.
       -1   -1    0    0    0  501  0.00000000000E+00  0.00000000000E+00 -0.15097151934E+04  0.15097151934E+04  0.50400001928E-02 0.  1.
    10030    2    1    2    0    0  0.00000000000E+00  0.00000000000E+00 -0.30583995474E+03  0.27135904321E+04  0.26963002346E+04 0.  0.
        2    1    3    3  502    0 -0.97394296130E+03 -0.89710148552E+03  0.10198819655E+03  0.13280653446E+04  0.25500000920E-02 0. -1.
       -2    1    3    3    0  502  0.97394296130E+03  0.89710148552E+03 -0.40782815128E+03  0.13855250875E+04  0.25500000920E-02 0.  1.
</event>
<event>
 5   0  0.3977376E-07  0.3770423E+04  0.7818609E-02  0.8052532E-01
       -1   -1    0    0    0  501  0.00000000000E+00  0.00000000000E+00  0.31070578103E+04  0.31070578103E+04  0.50400001928E-02 0. -1.
        1   -1    0    0  501    0  0.00000000000E+00  0.00000000000E+00 -0.11438543809E+04  0.11438543809E+04  0.50400001928E-02 0.  1.
    10030    2    1    2    0    0  0.00000000000E+00  0.00000000000E+00  0.19632034295E+04  0.42509121912E+04  0.37704226224E+04 0.  0.
        4    1    3    3  502    0  0.10520867188E+04  0.43455581667E+03  0.26758709462E+04  0.29079223090E+04  0.12699999809E+01 0. -1.
       -4    1    3    3    0  502 -0.10520867188E+04 -0.43455581667E+03 -0.71266751667E+03  0.13429898822E+04  0.12699999809E+01 0.  1.
</event>
<event>
 5   0  0.4627905E-07  0.2173416E+04  0.7818609E-02  0.8529575E-01
        1   -1    0    0  501    0  0.00000000000E+00  0.00000000000E+00  0.85675294610E+03  0.85675294612E+03  0.50400001928E-02 0.  1.
       -1   -1    0    0    0  501  0.00000000000E+00  0.00000000000E+00 -0.13783833422E+04  0.13783833423E+04  0.50400001928E-02 0. -1.
    10030    2    1    2    0    0  0.00000000000E+00  0.00000000000E+00 -0.52163039614E+03  0.22351362884E+04  0.21734157351E+04 0.  0.
        1    1    3    3  502    0  0.69523115253E+03  0.37756424844E+03  0.50534670871E+03  0.93876323595E+03  0.50400001928E-02 0.  1.
       -1    1    3    3    0  502 -0.69523115253E+03 -0.37756424844E+03 -0.10269771048E+04  0.12963730524E+04  0.50400001928E-02 0. -1.
</event>
<event>
 5   0  0.5533705E-07  0.3492248E+04  0.7818609E-02  0.8115630E-01
        2   -1    0    0  501    0  0.00000000000E+00  0.00000000000E+00  0.19446633484E+04  0.19446633485E+04  0.25500000920E-02 0.  1.
       -2   -1    0    0    0  501  0.00000000000E+00  0.00000000000E+00 -0.15678542266E+04  0.15678542266E+04  0.25500000920E-02 0. -1.
    10030    2    1    2    0    0  0.00000000000E+00  0.00000000000E+00  0.37680912186E+03  0.35125175750E+04  0.34922477863E+04 0.  0.
        1    1    3    3  502    0  0.78941890305E+03  0.11490146221E+04  0.12459501142E+04  0.18697081305E+04  0.50400001928E-02 0.  1.
       -1    1    3    3    0  502 -0.78941890305E+03 -0.11490146221E+04 -0.86914099235E+03  0.16428094445E+04  0.50400001928E-02 0. -1.
</event>
<event>
 5   0  0.5385714E-07  0.2229551E+04  0.7818609E-02  0.8506228E-01
        1   -1    0    0  501    0  0.00000000000E+00  0.00000000000E+00  0.14660302715E+04  0.14660302715E+04  0.50400001928E-02 0. -1.
       -1   -1    0    0    0  501  0.00000000000E+00  0.00000000000E+00 -0.84768015652E+03  0.84768015654E+03  0.50400001928E-02 0.  1.
    10030    2    1    2    0    0  0.00000000000E+00  0.00000000000E+00  0.61835011500E+03  0.23137104281E+04  0.22295513181E+04 0.  0.
        3    1    3    3  502    0  0.73328777907E+02  0.86032160865E+03  0.10409114186E+04  0.13524152364E+04  0.10100000352E+00 0. -1.
       -3    1    3    3    0  502 -0.73328777907E+02 -0.86032160865E+03 -0.42256130365E+03  0.96129519167E+03  0.10100000352E+00 0.  1.
</event>
<event>
 5   0  0.1034683E-06  0.3958469E+04  0.7818609E-02  0.8012977E-01
        2   -1    0    0  501    0  0.00000000000E+00  0.00000000000E+00  0.26241458177E+04  0.26241458177E+04  0.25500000920E-02 0.  1.
       -2   -1    0    0    0  501  0.00000000000E+00  0.00000000000E+00 -0.14928169606E+04  0.14928169606E+04  0.25500000920E-02 0. -1.
    10030    2    1    2    0    0  0.00000000000E+00  0.00000000000E+00  0.11313288571E+04  0.41169627783E+04  0.39584690898E+04 0.  0.
        2    1    3    3  502    0 -0.11038961299E+04 -0.14258835376E+04 -0.28286911479E+03  0.18253069507E+04  0.25500000920E-02 0. -1.
       -2    1    3    3    0  502  0.11038961299E+04  0.14258835376E+04  0.14141979719E+04  0.22916558276E+04  0.25500000920E-02 0.  1.
</event>
<event>
 5   0  0.5533705E-07  0.2341185E+04  0.7818609E-02  0.8461857E-01
        2   -1    0    0  501    0  0.00000000000E+00  0.00000000000E+00  0.16724619336E+04  0.16724619336E+04  0.25500000920E-02 0.  1.
       -2   -1    0    0    0  501  0.00000000000E+00  0.00000000000E+00 -0.81932350062E+03  0.81932350062E+03  0.25500000920E-02 0. -1.
    10030    2    1    2    0    0  0.00000000000E+00  0.00000000000E+00  0.85313843302E+03  0.24917854343E+04  0.23411854827E+04 0.  0.
        1    1    3    3  502    0  0.58591038718E+03  0.92531324664E+03 -0.13284537220E+02  0.10952954237E+04  0.50400001928E-02 0. -1.
       -1    1    3    3    0  502 -0.58591038718E+03 -0.92531324664E+03  0.86642297024E+03  0.13964900106E+04  0.50400001928E-02 0.  1.
</event>
<event>
 5   0  0.3471602E-07  0.2195623E+04  0.7818609E-02  0.8520252E-01
        1   -1    0    0  501    0  0.00000000000E+00  0.00000000000E+00  0.34901992317E+04  0.34901992317E+04  0.50400001928E-02 0.  1.
       -1   -1    0    0    0  501  0.00000000000E+00  0.00000000000E+00 -0.34530693369E+03  0.34530693373E+03  0.50400001928E-02 0. -1.
    10030    2    1    2    0    0  0.00000000000E+00  0.00000000000E+00  0.31448922980E+04  0.38355061654E+04  0.21956229137E+04 0.  0.
        5    1    3    3  502    0  0.75193345004E+03  0.63994227541E+03  0.73423522701E+03  0.12304688081E+04  0.46999998093E+01 0. -1.
       -5    1    3    3    0  502 -0.75193345004E+03 -0.63994227541E+03  0.24106570710E+04  0.26050373573E+04  0.46999998093E+01 0.  1.
</event>
<event>
 5   0  0.7268013E-07  0.2358165E+04  0.7818609E-02  0.8455334E-01
        2   -1    0    0  501    0  0.00000000000E+00  0.00000000000E+00  0.11857614693E+04  0.11857614693E+04  0.25500000920E-02 0. -1.
       -2   -1    0    0    0  501  0.00000000000E+00  0.00000000000E+00 -0.11724414033E+04  0.11724414033E+04  0.25500000920E-02 0.  1.
    10030    2    1    2    0    0  0.00000000000E+00  0.00000000000E+00  0.13320066046E+02  0.23582028726E+04  0.23581652538E+04 0.  0.
        4    1    3    3  502    0  0.40586714022E+03 -0.70232410881E+03 -0.84906790358E+03  0.11742679452E+04  0.12699999809E+01 0.  1.
       -4    1    3    3    0  502 -0.40586714022E+03  0.70232410881E+03  0.86238796962E+03  0.11839349274E+04  0.12699999809E+01 0. -1.
</event>
<event>
 5   0  0.7268013E-07  0.2316559E+04  0.7818609E-02  0.8471421E-01
       -2   -1    0    0    0  501  0.00000000000E+00  0.00000000000E+00  0.66216716982E+03  0.66216716982E+03  0.25500000920E-02 0. -1.
        2   -1    0    0  501    0  0.00000000000E+00  0.00000000000E+00 -0.20260908177E+04  0.20260908177E+04  0.25500000920E-02 0.  1.
    10030    2    1    2    0    0  0.00000000000E+00  0.00000000000E+00 -0.13639236479E+04  0.26882579875E+04  0.23165585014E+04 0.  0.
        4    1    3    3  502    0  0.63544174376E+03 -0.55152333740E+03 -0.16057038057E+04  0.18128018441E+04  0.12699999809E+01 0.  1.
       -4    1    3    3    0  502 -0.63544174376E+03  0.55152333740E+03  0.24178015784E+03  0.87545614341E+03  0.12699999809E+01 0. -1.
</event>
<event>
 5   0  0.1034683E-06  0.3823540E+04  0.7818609E-02  0.8041122E-01
       -2   -1    0    0    0  501  0.00000000000E+00  0.00000000000E+00  0.16370713202E+04  0.16370713202E+04  0.25500000920E-02 0.  1.
        2   -1    0    0  501    0  0.00000000000E+00  0.00000000000E+00 -0.22325631385E+04  0.22325631386E+04  0.25500000920E-02 0. -1.
    10030    2    1    2    0    0  0.00000000000E+00  0.00000000000E+00 -0.59549181839E+03  0.38696344587E+04  0.38235402886E+04 0.  0.
        2    1    3    3  502    0  0.70843542475E+02  0.11772195056E+04  0.12250529104E+04  0.17004761701E+04  0.25500000920E-02 0. -1.
       -2    1    3    3    0  502 -0.70843542475E+02 -0.11772195056E+04 -0.18205447288E+04  0.21691582886E+04  0.25500000920E-02 0.  1.
</event>
<event>
 5   0  0.3471602E-07  0.3822025E+04  0.7818609E-02  0.8041445E-01
        1   -1    0    0  501    0  0.00000000000E+00  0.00000000000E+00  0.27943852112E+04  0.27943852112E+04  0.50400001928E-02 0.  1.
       -1   -1    0    0    0  501  0.00000000000E+00  0.00000000000E+00 -0.13068951295E+04  0.13068951295E+04  0.50400001928E-02 0. -1.
    10030    2    1    2    0    0  0.00000000000E+00  0.00000000000E+00  0.14874900816E+04  0.41012803407E+04  0.38220248155E+04 0.  0.
        5    1    3    3  502    0  0.14971570490E+04  0.11859635760E+04  0.81125011024E+03  0.20751235299E+04  0.46999998093E+01 0. -1.
       -5    1    3    3    0  502 -0.14971570490E+04 -0.11859635760E+04  0.67623997138E+03  0.20261568108E+04  0.46999998093E+01 0.  1.
</event>
<event>
 5   0  0.5533705E-07  0.4092043E+04  0.7818609E-02  0.7986232E-01
        2   -1    0    0  501    0  0.00000000000E+00  0.00000000000E+00  0.22427210767E+04  0.22427210767E+04  0.25500000920E-02 0.  1.
       -2   -1    0    0    0  501  0.00000000000E+00  0.00000000000E+00 -0.18665738007E+04  0.18665738007E+04  0.25500000920E-02 0. -1.
    10030    2    1    2    0    0  0.00000000000E+00  0.00000000000E+00  0.37614727593E+03  0.41092948774E+04  0.40920432080E+04 0.  0.
        1    1    3    3  502    0 -0.31313204500E+03 -0.20055450819E+04  0.44594730964E+03  0.20782520916E+04  0.50400001928E-02 0.  1.
       -1    1    3    3    0  502  0.31313204500E+03  0.20055450819E+04 -0.69800033717E+02  0.20310427858E+04  0.50400001928E-02 0. -1.
</event>
<event>
 5   0  0.5385714E-07  0.4023150E+04  0.7818609E-02  0.7999893E-01
        1   -1    0    0  501    0  0.00000000000E+00  0.00000000000E+00  0.15752965803E+04  0.15752965803E+04  0.50400001928E-02 0. -1.
       -1   -1    0    0    0  501  0.00000000000E+00  0.00000000000E+00 -0.25686810466E+04  0.25686810466E+04  0.50400001928E-02 0.  1.
    10030    2    1    2    0    0  0.00000000000E+00  0.00000000000E+00 -0.99338446633E+03  0.41439776268E+04  0.40231502425E+04 0.  0.
        3    1    3    3  502    0  0.17253299464E+04  0.43544506196E+03  0.46959658562E+03  0.18403523547E+04  0.10100000352E+00 0. -1.
       -3    1    3    3    0  502 -0.17253299464E+04 -0.43544506196E+03 -0.14629810519E+04  0.23036252722E+04  0.10100000352E+00 0.  1.
</event>
<event>
 5   0  0.7268013E-07  0.2367827E+04  0.7818609E-02  0.8451648E-01
        2   -1    0    0  501    0  0.00000000000E+00  0.00000000000E+00  0.16677417259E+04  0.16677417259E+04  0.25500000920E-02 0.  1.
       -2   -1    0    0    0  501  0.00000000000E+00  0.00000000000E+00 -0.84044857995E+03  0.84044857996E+03  0.25500000920E-02 0. -1.
    10030    2    1    2    0    0  0.00000000000E+00  0.00000000000E+00  0.82729314593E+03  0.25081903058E+04  0.23678269914E+04 0.  0.
        4    1    3    3  502    0 -0.25987410832E+03  0.10590390817E+04  0.90200908940E+03  0.14151750206E+04  0.12699999809E+01 0. -1.
       -4    1    3    3    0  502  0.25987410832E+03 -0.10590390817E+04 -0.74715943475E+02  0.10930152852E+04  0.12699999809E+01 0.  1.
</event>
<event>
 5   0  0.4316671E-07  0.2138774E+04  0.7818609E-02  0.8544353E-01
       -1   -1    0    0    0  501  0.00000000000E+00  0.00000000000E+00  0.67833108025E+03  0.67833108027E+03  0.50400001928E-02 0. -1.
        1   -1    0    0  501    0  0.00000000000E+00  0.00000000000E+00 -0.16858859499E+04  0.16858859499E+04  0.50400001928E-02 0.  1.
    10030    2    1    2    0    0  0.00000000000E+00  0.00000000000E+00 -0.10075548696E+04  0.23642170301E+04  0.21387742635E+04 0.  0.
        2    1    3    3  502    0 -0.46411887678E+02 -0.47981544266E+03  0.55141601568E+03  0.73241828533E+03  0.25500000920E-02 0. -1.
       -2    1    3    3    0  502  0.46411887678E+02  0.47981544266E+03 -0.15589708853E+04  0.16317987448E+04  0.25500000920E-02 0.  1.
</event>
<event>
 5   0  0.5385714E-07  0.2053685E+04  0.7818609E-02  0.8581925E-01
       -1   -1    0    0    0  501  0.00000000000E+00  0.00000000000E+00  0.10689498127E+04  0.10689498127E+04  0.50400001928E-02 0. -1.
        1   -1    0    0  501    0  0.00000000000E+00  0.00000000000E+00 -0.98639343847E+03  0.98639343849E+03  0.50400001928E-02 0.  1.
    10030    2    1    2    0    0  0.00000000000E+00  0.00000000000E+00  0.82556374183E+02  0.20553432512E+04  0.20536845729E+04 0.  0.
        3    1    3    3  502    0 -0.51921578179E+03  0.82501806657E+03 -0.28172887309E+03  0.10146974950E+04  0.10100000352E+00 0.  1.
       -3    1    3    3    0  502  0.51921578179E+03 -0.82501806657E+03  0.36428524727E+03  0.10406457562E+04  0.10100000352E+00 0. -1.
</event>
<event>
 5   0  0.1034683E-06  0.3203115E+04  0.7818609E-02  0.8187995E-01
        2   -1    0    0  501    0  0.00000000000E+00  0.00000000000E+00  0.26387046470E+04  0.26387046470E+04  0.25500000920E-02 0. -1.
       -2   -1    0    0    0  501  0.00000000000E+00  0.00000000000E+00 -0.97206258117E+03  0.97206258117E+03  0.25500000920E-02 0.  1.
    10030    2    1    2    0    0  0.00000000000E+00  0.00000000000E+00  0.16666420659E+04  0.36107672282E+04  0.32031147654E+04 0.  0.
        2    1    3    3  502    0  0.81209384288E+03 -0.75049702468E+03 -0.47267754814E+03  0.12025665296E+04  0.25500000920E-02 0.  1.
       -2    1    3    3    0  502 -0.81209384288E+03  0.75049702468E+03  0.21393196140E+04  0.24082006985E+04  0.25500000920E-02 0. -1.
</event>
<event>
 5   0  0.5385714E-07  0.3259888E+04  0.7818609E-02  0.8173177E-01
        1   -1    0    0  501    0  0.00000000000E+00  0.00000000000E+00  0.26777226526E+04  0.26777226526E+04  0.50400001928E-02 0.  1.
       -1   -1    0    0    0  501  0.00000000000E+00  0.00000000000E+00 -0.99215569679E+03  0.99215569680E+03  0.50400001928E-02 0. -1.
    10030    2    1    2    0    0  0.00000000000E+00  0.00000000000E+00  0.16855669558E+04  0.36698783494E+04  0.32598882092E+04 0.  0.
        3    1    3    3  502    0  0.58034643099E+03 -0.14207996766E+04  0.14606692809E+04  0.21187327485E+04  0.10100000352E+00 0. -1.
       -3    1    3    3    0  502 -0.58034643099E+03  0.14207996766E+04  0.22489767484E+03  0.15511456009E+04  0.10100000352E+00 0.  1.
</event>
<event>
 5   0  0.7268013E-07  0.2209316E+04  0.7818609E-02  0.8514561E-01
       -2   -1    0    0    0  501  0.00000000000E+00  0.00000000000E+00  0.53716818439E+03  0.53716818440E+03  0.25500000920E-02 0.  1.
        2   -1    0    0  501    0  0.00000000000E+00  0.00000000000E+00 -0.22716707019E+04  0.22716707019E+04  0.25500000920E-02 0. -1.
    10030    2    1    2    0    0  0.00000000000E+00  0.00000000000E+00 -0.17345025175E+04  0.28088388863E+04  0.22093159362E+04 0.  0.
        4    1    3    3  502    0  0.40951811851E+03 -0.33741957759E+03 -0.20990360962E+04  0.21650660975E+04  0.12699999809E+01 0. -1.
       -4    1    3    3    0  502 -0.40951811851E+03  0.33741957759E+03  0.36453357865E+03  0.64377278879E+03  0.12699999809E+01 0.  1.
</event>
<event>
 5   0  0.5533705E-07  0.3901635E+04  0.7818609E-02  0.8024689E-01
        2   -1    0    0  501    0  0.00000000000E+00  0.00000000000E+00  0.27393311525E+04  0.27393311525E+04  0.25500000920E-02 0.  1.
       -2   -1    0    0    0  501  0.00000000000E+00  0.00000000000E+00 -0.13892769525E+04  0.13892769525E+04  0.25500000920E-02 0. -1.
    10030    2    1    2    0    0  0.00000000000E+00  0.00000000000E+00  0.13500542001E+04  0.41286081050E+04  0.39016353676E+04 0.  0.
        1    1    3    3  502    0 -0.17688353946E+04 -0.48243300491E+03  0.13802579278E+04  0.22949144221E+04  0.50400001928E-02 0.  1.
       -1    1    3    3    0  502  0.17688353946E+04  0.48243300491E+03 -0.30203727780E+02  0.18336936829E+04  0.50400001928E-02 0. -1.
</event>
<event>
 5   0  0.5533705E-07  0.2844006E+04  0.7818609E-02  0.8289735E-01
       -2   -1    0    0    0  501  0.00000000000E+00  0.00000000000E+00  0.20615775548E+04  0.20615775548E+04  0.25500000920E-02 0.  1.
        2   -1    0    0  501    0  0.00000000000E+00  0.00000000000E+00 -0.98084711556E+03  0.98084711556E+03  0.25500000920E-02 0. -1.
    10030    2    1    2    0    0  0.00000000000E+00  0.00000000000E+00  0.10807304392E+04  0.30424246703E+04  0.28440059058E+04 0.  0.
        1    1    3    3  502    0 -0.98667608015E+02  0.11744226307E+04  0.13915455553E+04  0.18235687113E+04  0.50400001928E-02 0.  1.
       -1    1    3    3    0  502  0.98667608015E+02 -0.11744226307E+04 -0.31081511607E+03  0.12188559590E+04  0.50400001928E-02 0. -1.
</event>
<event>
 5   0  0.5533705E-07  0.3849843E+04  0.7818609E-02  0.8035543E-01
        2   -1    0    0  501    0  0.00000000000E+00  0.00000000000E+00  0.20472925730E+04  0.20472925730E+04  0.25500000920E-02 0.  1.
       -2   -1    0    0    0  501  0.00000000000E+00  0.00000000000E+00 -0.18098646848E+04  0.18098646848E+04  0.25500000920E-02 0. -1.
    10030    2    1    2    0    0  0.00000000000E+00  0.00000000000E+00  0.23742788818E+03  0.38571572578E+04  0.38498428681E+04 0.  0.
        1    1    3    3  502    0 -0.72058276949E+03  0.17844496500E+04  0.16148517025E+03  0.19312114181E+04  0.50400001928E-02 0.  1.
       -1    1    3    3    0  502  0.72058276949E+03 -0.17844496500E+04  0.75942717926E+02  0.19259458397E+04  0.50400001928E-02 0. -1.
</event>
<event>
 5   0  0.1015219E-06  0.3844909E+04  0.7818609E-02  0.8036586E-01
       -2   -1    0    0    0  501  0.00000000000E+00  0.00000000000E+00  0.21256602762E+04  0.21256602762E+04  0.25500000920E-02 0.  1.
        2   -1    0    0  501    0  0.00000000000E+00  0.00000000000E+00 -0.17386742530E+04  0.17386742530E+04  0.25500000920E-02 0. -1.
    10030    2    1    2    0    0  0.00000000000E+00  0.00000000000E+00  0.38698602324E+03  0.38643345292E+04  0.38449087338E+04 0.  0.
        3    1    3    3  502    0 -0.99380818936E+03  0.13201685303E+04 -0.79398363364E+03  0.18332783985E+04  0.10100000352E+00 0. -1.
       -3    1    3    3    0  502  0.99380818936E+03 -0.13201685303E+04  0.11809696569E+04  0.20310561307E+04  0.10100000352E+00 0.  1.
</event>
<event>
 5   0  0.5385714E-07  0.2445715E+04  0.7818609E-02  0.8422584E-01
        1   -1    0    0  501    0  0.00000000000E+00  0.00000000000E+00  0.96948413684E+03  0.96948413685E+03  0.50400001928E-02 0. -1.
       -1   -1    0    0    0  501  0.00000000000E+00  0.00000000000E+00 -0.15424498210E+04  0.15424498210E+04  0.50400001928E-02 0.  1.
    10030    2    1    2    0    0  0.00000000000E+00  0.00000000000E+00 -0.57296568420E+03  0.25119339579E+04  0.24457151375E+04 0.  0.
        3    1    3    3  502    0 -0.86167976048E+03  0.65062208571E+03  0.30315106622E+03  0.11214729989E+04  0.10100000352E+00 0. -1.
       -3    1    3    3    0  502  0.86167976048E+03 -0.65062208571E+03 -0.87611675042E+03  0.13904609590E+04  0.10100000352E+00 0.  1.
</event>
<event>
 5   0  0.3977376E-07  0.2320609E+04  0.7818609E-02  0.8469840E-01
        1   -1    0    0  501    0  0.00000000000E+00  0.00000000000E+00  0.13000322686E+04  0.13000322686E+04  0.50400001928E-02 0. -1.
       -1   -1    0    0    0  501  0.00000000000E+00  0.00000000000E+00 -0.10355942891E+04  0.10355942891E+04  0.50400001928E-02 0.  1.
    10030    2    1    2    0    0  0.00000000000E+00  0.00000000000E+00  0.26443797952E+03  0.23356265578E+04  0.23206085349E+04 0.  0.
        4    1    3    3  502    0 -0.36649323454E+03  0.10265548551E+04 -0.26806352801E+03  0.11224935766E+04  0.12699999809E+01 0. -1.
       -4    1    3    3    0  502  0.36649323454E+03 -0.10265548551E+04  0.53250150753E+03  0.12131329812E+04  0.12699999809E+01 0.  1.
</event>
<event>
 5   0  0.7895203E-07  0.2153105E+04  0.7818609E-02  0.8538204E-01
        2   -1    0    0  501    0  0.00000000000E+00  0.00000000000E+00  0.14971721961E+04  0.14971721961E+04  0.25500000920E-02 0.  1.
       -2   -1    0    0    0  501  0.00000000000E+00  0.00000000000E+00 -0.77410308243E+03  0.77410308244E+03  0.25500000920E-02 0. -1.
    10030    2    1    2    0    0  0.00000000000E+00  0.00000000000E+00  0.72306911362E+03  0.22712752785E+04  0.21531053034E+04 0.  0.
        4    1    3    3  502    0 -0.48137653641E+03  0.12963793356E+02 -0.65415589256E+03  0.81228872602E+03  0.12699999809E+01 0. -1.
       -4    1    3    3    0  502  0.48137653641E+03 -0.12963793356E+02  0.13772250062E+04  0.14589865525E+04  0.12699999809E+01 0.  1.
</event>
<event>
 5   0  0.5385714E-07  0.2077776E+04  0.7818609E-02  0.8571097E-01
        1   -1    0    0  501    0  0.00000000000E+00  0.00000000000E+00  0.15730164265E+04  0.15730164265E+04  0.50400001928E-02 0.  1.
       -1   -1    0    0    0  501  0.00000000000E+00  0.00000000000E+00 -0.68612681465E+03  0.68612681467E+03  0.50400001928E-02 0. -1.
    10030    2    1    2    0    0  0.00000000000E+00  0.00000000000E+00  0.88688961185E+03  0.22591432412E+04  0.20777764559E+04 0.  0.
        3    1    3    3  502    0  0.36708710941E+03  0.18943066899E+03  0.14798836872E+04  0.15364545753E+04  0.10100000352E+00 0.  1.
       -3    1    3    3    0  502 -0.36708710941E+03 -0.18943066899E+03 -0.59299407531E+03  0.72268866588E+03  0.10100000352E+00 0. -1.
</event>
<event>
 5   0  0.4316671E-07  0.3783901E+04  0.7818609E-02  0.8049618E-01
        1   -1    0    0  501    0  0.00000000000E+00  0.00000000000E+00  0.23504971787E+04  0.23504971787E+04  0.50400001928E-02 0. -1.
       -1   -1    0    0    0  501  0.00000000000E+00  0.00000000000E+00 -0.15228596416E+04  0.15228596416E+04  0.50400001928E-02 0.  1.
    10030    2    1    2    0    0  0.00000000000E+00  0.00000000000E+00  0.82763753716E+03  0.38733568203E+04  0.37839013154E+04 0.  0.
        2    1    3    3  502    0  0.12075092042E+03  0.22098380558E+03 -0.15056277179E+04  0.15265416640E+04  0.25500000920E-02 0.  1.
       -2    1    3    3    0  502 -0.12075092042E+03 -0.22098380558E+03  0.23332652551E+04  0.23468151563E+04  0.25500000920E-02 0. -1.
</event>
<event>
 5   0  0.3471602E-07  0.3758652E+04  0.7818609E-02  0.8055087E-01
       -1   -1    0    0    0  501  0.00000000000E+00  0.00000000000E+00  0.29109849188E+04  0.29109849188E+04  0.50400001928E-02 0. -1.
        1   -1    0    0  501    0  0.00000000000E+00  0.00000000000E+00 -0.12132893771E+04  0.12132893772E+04  0.50400001928E-02 0.  1.
    10030    2    1    2    0    0  0.00000000000E+00  0.00000000000E+00  0.16976955416E+04  0.41242742959E+04  0.37586524601E+04 0.  0.
        5    1    3    3  502    0  0.73122532701E+03 -0.12429007331E+03  0.27435798830E+04  0.28420751513E+04  0.46999998093E+01 0. -1.
       -5    1    3    3    0  502 -0.73122532701E+03  0.12429007331E+03 -0.10458843413E+04  0.12821991447E+04  0.46999998093E+01 0.  1.
</event>
<event>
 5   0  0.4627905E-07  0.3907595E+04  0.7818609E-02  0.8023451E-01
        1   -1    0    0  501    0  0.00000000000E+00  0.00000000000E+00  0.15739320475E+04  0.15739320475E+04  0.50400001928E-02 0.  1.
       -1   -1    0    0    0  501  0.00000000000E+00  0.00000000000E+00 -0.24253426758E+04  0.24253426758E+04  0.50400001928E-02 0. -1.
    10030    2    1    2    0    0  0.00000000000E+00  0.00000000000E+00 -0.85141062826E+03  0.39992747233E+04  0.39075949451E+04 0.  0.
        1    1    3    3  502    0 -0.13067954302E+04 -0.10484911471E+04 -0.14544126627E+04  0.22186401635E+04  0.50400001928E-02 0. -1.
       -1    1    3    3    0  502  0.13067954302E+04  0.10484911471E+04  0.60300203442E+03  0.17806345598E+04  0.50400001928E-02 0.  1.
</event>
<event>
 5   0  0.3471602E-07  0.3054451E+04  0.7818609E-02  0.8228351E-01
        1   -1    0    0  501    0  0.00000000000E+00  0.00000000000E+00  0.13616750918E+04  0.13616750918E+04  0.50400001928E-02 0. -1.
       -1   -1    0    0    0  501  0.00000000000E+00  0.00000000000E+00 -0.17129035232E+04  0.17129035232E+04  0.50400001928E-02 0.  1.
    10030    2    1    2    0    0  0.00000000000E+00  0.00000000000E+00 -0.35122843143E+03  0.30745786150E+04  0.30544512189E+04 0.  0.
        5    1    3    3  502    0 -0.96496930187E+03 -0.11039144822E+04  0.25452239016E+03  0.14881521006E+04  0.46999998093E+01 0. -1.
       -5    1    3    3    0  502  0.96496930187E+03  0.11039144822E+04 -0.60575082159E+03  0.15864265143E+04  0.46999998093E+01 0.  1.
</event>
<event>
 5   0  0.1035864E-06  0.2486513E+04  0.7818609E-02  0.8407806E-01
        2   -1    0    0  501    0  0.00000000000E+00  0.00000000000E+00  0.24018141696E+04  0.24018141696E+04  0.25500000920E-02 0.  1.
       -2   -1    0    0    0  501  0.00000000000E+00  0.00000000000E+00 -0.64354958178E+03  0.64354958178E+03  0.25500000920E-02 0. -1.
    10030    2    1    2    0    0  0.00000000000E+00  0.00000000000E+00  0.17582645878E+04  0.30453637513E+04  0.24865128227E+04 0.  0.
        5    1    3    3  502    0  0.97141245447E+03  0.68005157511E+03  0.13366592420E+04  0.17868386387E+04  0.46999998093E+01 0.  1.
       -5    1    3    3    0  502 -0.97141245447E+03 -0.68005157511E+03  0.42160534573E+03  0.12585251126E+04  0.46999998093E+01 0. -1.
</event>
<event>
 5   0  0.1035864E-06  0.3922747E+04  0.7818609E-02  0.8020315E-01
       -2   -1    0    0    0  501  0.00000000000E+00  0.00000000000E+00  0.23873637711E+04  0.23873637711E+04  0.25500000920E-02 0.  1.
        2   -1    0    0  501    0  0.00000000000E+00  0.00000000000E+00 -0.16113953667E+04  0.16113953667E+04  0.25500000920E-02 0. -1.
    10030    2    1    2    0    0  0.00000000000E+00  0.00000000000E+00  0.77596840434E+03  0.39987591378E+04  0.39227474655E+04 0.  0.
        5    1    3    3  502    0 -0.17411651940E+04  0.14291868558E+03 -0.52085375622E+03  0.18230174735E+04  0.46999998093E+01 0. -1.
       -5    1    3    3    0  502  0.17411651940E+04 -0.14291868558E+03  0.12968221606E+04  0.21757416643E+04  0.46999998093E+01 0.  1.
</event>
<event>
 5   0  0.1015219E-06  0.3750835E+04  0.7818609E-02  0.8056789E-01
       -2   -1    0    0    0  501  0.00000000000E+00  0.00000000000E+00  0.11584251946E+04  0.11584251946E+04  0.25500000920E-02 0.  1.
        2   -1    0    0  501    0  0.00000000000E+00  0.00000000000E+00 -0.30361835695E+04  0.30361835695E+04  0.25500000920E-02 0. -1.
    10030    2    1    2    0    0  0.00000000000E+00  0.00000000000E+00 -0.18777583749E+04  0.41946087641E+04  0.37508353962E+04 0.  0.
        3    1    3    3  502    0 -0.70443761996E+03 -0.33454037833E+03 -0.28462645390E+04  0.29511644247E+04  0.10100000352E+00 0. -1.
       -3    1    3    3    0  502  0.70443761996E+03  0.33454037833E+03  0.96850616409E+03  0.12434443394E+04  0.10100000352E+00 0.  1.
</event>
<event>
 5   0  0.4627905E-07  0.2112104E+04  0.7818609E-02  0.8555930E-01
       -1   -1    0    0    0  501  0.00000000000E+00  0.00000000000E+00  0.29829945190E+04  0.29829945190E+04  0.50400001928E-02 0. -1.
        1   -1    0    0  501    0  0.00000000000E+00  0.00000000000E+00 -0.37386772773E+03  0.37386772776E+03  0.50400001928E-02 0.  1.
    10030    2    1    2    0    0  0.00000000000E+00  0.00000000000E+00  0.26091267913E+04  0.33568622468E+04  0.21121035796E+04 0.  0.
        1    1    3    3  502    0 -0.18924012141E+03  0.41730074037E+03  0.28167766648E+04  0.28538014140E+04  0.50400001928E-02 0. -1.
       -1    1    3    3    0  502  0.18924012141E+03 -0.41730074037E+03 -0.20764987349E+03  0.50306083275E+03  0.50400001928E-02 0.  1.
</event>
<event>
 5   0  0.1015219E-06  0.2376079E+04  0.7818609E-02  0.8448514E-01
        2   -1    0    0  501    0  0.00000000000E+00  0.00000000000E+00  0.91455077816E+03  0.91455077816E+03  0.25500000920E-02 0. -1.
       -2   -1    0    0    0  501  0.00000000000E+00  0.00000000000E+00 -0.15433123708E+04  0.15433123708E+04  0.25500000920E-02 0.  1.
    10030    2    1    2    0    0  0.00000000000E+00  0.00000000000E+00 -0.62876159261E+03  0.24578631489E+04  0.23760787273E+04 0.  0.
        3    1    3    3  502    0 -0.58161749509E+03 -0.46038169159E+03  0.64557387211E+03  0.98335946993E+03  0.10100000352E+00 0. -1.
       -3    1    3    3    0  502  0.58161749509E+03  0.46038169159E+03 -0.12743354647E+04  0.14745036790E+04  0.10100000352E+00 0.  1.
</event>
<event>
 5   0  0.5385714E-07  0.4286900E+04  0.7818609E-02  0.7949045E-01
       -1   -1    0    0    0  501  0.00000000000E+00  0.00000000000E+00  0.19254472722E+04  0.19254472722E+04  0.50400001928E-02 0.  1.
        1   -1    0    0  501    0  0.00000000000E+00  0.00000000000E+00 -0.23861353349E+04  0.23861353349E+04  0.50400001928E-02 0. -1.
    10030    2    1    2    0    0  0.00000000000E+00  0.00000000000E+00 -0.46068806273E+03  0.43115826071E+04  0.42868999390E+04 0.  0.
        3    1    3    3  502    0  0.62388005572E+03 -0.19508616505E+04 -0.86587646889E+03  0.22236972755E+04  0.10100000352E+00 0. -1.
       -3    1    3    3    0  502 -0.62388005572E+03  0.19508616505E+04  0.40518840616E+03  0.20878853316E+04  0.10100000352E+00 0.  1.
</event>
<event>
 5   0  0.7268013E-07  0.3935510E+04  0.7818609E-02  0.8017684E-01
        2   -1    0    0  501    0  0.00000000000E+00  0.00000000000E+00  0.16587379672E+04  0.16587379672E+04  0.25500000920E-02 0. -1.
       -2   -1    0    0    0  501  0.00000000000E+00  0.00000000000E+00 -0.23343408048E+04  0.23343408048E+04  0.25500000920E-02 0.  1.
    10030    2    1    2    0    0  0.00000000000E+00  0.00000000000E+00 -0.67560283760E+03  0.39930787719E+04  0.39355099904E+04 0.  0.
        4    1    3    3  502    0 -0.15796067211E+04  0.34927747243E+03  0.79881113839E+03  0.18042319679E+04  0.12699999809E+01 0. -1.
       -4    1    3    3    0  502  0.15796067211E+04 -0.34927747243E+03 -0.14744139760E+04  0.21888468041E+04  0.12699999809E+01 0.  1.
</event>
<event>
 5   0  0.4316671E-07  0.3833023E+04  0.7818609E-02  0.8039105E-01
       -1   -1    0    0    0  501  0.00000000000E+00  0.00000000000E+00  0.15802844403E+04  0.15802844403E+04  0.50400001928E-02 0.  1.
        1   -1    0    0  501    0  0.00000000000E+00  0.00000000000E+00 -0.23242753763E+04  0.23242753763E+04  0.50400001928E-02 0. -1.
    10030    2    1    2    0    0  0.00000000000E+00  0.00000000000E+00 -0.74399093605E+03  0.39045598166E+04  0.38330229387E+04 0.  0.
        2    1    3    3  502    0 -0.12188367156E+04 -0.35433094811E+03  0.10907365299E+04  0.16735649188E+04  0.25500000920E-02 0.  1.
       -2    1    3    3    0  502  0.12188367156E+04  0.35433094811E+03 -0.18347274659E+04  0.22309948978E+04  0.25500000920E-02 0. -1.
</event>
<event>
 5   0  0.7268013E-07  0.3902595E+04  0.7818609E-02  0.8024490E-01
        2   -1    0    0  501    0  0.00000000000E+00  0.00000000000E+00  0.35074611822E+04  0.35074611822E+04  0.25500000920E-02 0. -1.
       -2   -1    0    0    0  501  0.00000000000E+00  0.00000000000E+00 -0.10855607894E+04  0.10855607894E+04  0.25500000920E-02 0.  1.
    10030    2    1    2    0    0  0.00000000000E+00  0.00000000000E+00  0.24219003928E+04  0.45930219716E+04  0.39025952030E+04 0.  0.
        4    1    3    3  502    0  0.16750061054E+04 -0.67648068859E+02  0.35602343918E+02  0.16767500869E+04  0.12699999809E+01 0.  1.
       -4    1    3    3    0  502 -0.16750061054E+04  0.67648068859E+02  0.23862980489E+04  0.29162718846E+04  0.12699999809E+01 0. -1.
</event>
<event>
 5   0  0.1034683E-06  0.3322497E+04  0.7818609E-02  0.8157194E-01
        2   -1    0    0  501    0  0.00000000000E+00  0.00000000000E+00  0.21022007822E+04  0.21022007822E+04  0.25500000920E-02 0. -1.
       -2   -1    0    0    0  501  0.00000000000E+00  0.00000000000E+00 -0.13127896047E+04  0.13127896047E+04  0.25500000920E-02 0.  1.
    10030    2    1    2    0    0  0.00000000000E+00  0.00000000000E+00  0.78941117748E+03  0.34149903869E+04  0.33224974545E+04 0.  0.
        2    1    3    3  502    0 -0.30667138840E+03 -0.14073765935E+04 -0.45597651916E+03  0.15108510193E+04  0.25500000920E-02 0.  1.
       -2    1    3    3    0  502  0.30667138840E+03  0.14073765935E+04  0.12453876966E+04  0.19041393676E+04  0.25500000920E-02 0. -1.
</event>
<event>
 5   0  0.3977376E-07  0.2396146E+04  0.7818609E-02  0.8440948E-01
        1   -1    0    0  501    0  0.00000000000E+00  0.00000000000E+00  0.18772682186E+04  0.18772682186E+04  0.50400001928E-02 0.  1.
       -1   -1    0    0    0  501  0.00000000000E+00  0.00000000000E+00 -0.76461030448E+03  0.76461030450E+03  0.50400001928E-02 0. -1.
    10030    2    1    2    0    0  0.00000000000E+00  0.00000000000E+00  0.11126579141E+04  0.26418785231E+04  0.23961457587E+04 0.  0.
        4    1    3    3  502    0 -0.36989895806E+03 -0.11316397774E+04  0.70401838052E+03  0.13831403826E+04  0.12699999809E+01 0. -1.
       -4    1    3    3    0  502  0.36989895806E+03  0.11316397774E+04  0.40863953362E+03  0.12587381405E+04  0.12699999809E+01 0.  1.
</event>
<event>
 5   0  0.4627905E-07  0.2548819E+04  0.7818609E-02  0.8385797E-01
       -1   -1    0    0    0  501  0.00000000000E+00  0.00000000000E+00  0.10126948292E+04  0.10126948292E+04  0.50400001928E-02 0.  1.
        1   -1    0    0  501    0  0.00000000000E+00  0.00000000000E+00 -0.16037601249E+04  0.16037601249E+04  0.50400001928E-02 0. -1.
    10030    2    1    2    0    0  0.00000000000E+00  0.00000000000E+00 -0.59106529567E+03  0.26164549541E+04  0.25488190095E+04 0.  0.
        1    1    3    3  502    0  0.40310921536E+03 -0.20839822098E+03 -0.15180130109E+04  0.15843895857E+04  0.50400001928E-02 0. -1.
       -1    1    3    3    0  502 -0.40310921536E+03  0.20839822098E+03  0.92694771519E+03  0.10320653684E+04  0.50400001928E-02 0.  1.
</event>
<event>
 5   0  0.1015219E-06  0.3325350E+04  0.7818609E-02  0.8156475E-01
       -2   -1    0    0    0  501  0.00000000000E+00  0.00000000000E+00  0.33166581846E+04  0.33166581846E+04  0.25500000920E-02 0. -1.
        2   -1    0    0  501    0  0.00000000000E+00  0.00000000000E+00 -0.83351616853E+03  0.83351616853E+03  0.25500000920E-02 0.  1.
    10030    2    1    2    0    0  0.00000000000E+00  0.00000000000E+00  0.24831420161E+04  0.41501743531E+04  0.33253500401E+04 0.  0.
        3    1    3    3  502    0  0.93762390821E+03 -0.17158152188E+03 -0.45865776044E+03  0.10578023271E+04  0.10100000352E+00 0.  1.
       -3    1    3    3    0  502 -0.93762390821E+03  0.17158152188E+03  0.29417997765E+04  0.30923720260E+04  0.10100000352E+00 0. -1.
</event>
<event>
 5   0  0.5533705E-07  0.4008467E+04  0.7818609E-02  0.8002841E-01
        2   -1    0    0  501    0  0.00000000000E+00  0.00000000000E+00  0.27045911706E+04  0.27045911706E+04  0.25500000920E-02 0.  1.
       -2   -1    0    0    0  501  0.00000000000E+00  0.00000000000E+00 -0.14852342481E+04  0.14852342481E+04  0.25500000920E-02 0. -1.
    10030    2    1    2    0    0  0.00000000000E+00  0.00000000000E+00  0.12193569226E+04  0.41898254187E+04  0.40084667561E+04 0.  0.
        1    1    3    3  502    0 -0.14756132406E+04 -0.11776785121E+04  0.13128645519E+04  0.22995596198E+04  0.50400001928E-02 0.  1.
       -1    1    3    3    0  502  0.14756132406E+04  0.11776785121E+04 -0.93507629319E+02  0.18902657989E+04  0.50400001928E-02 0. -1.
</event>
<event>
 5   0  0.1015219E-06  0.2055850E+04  0.7818609E-02  0.8580945E-01
       -2   -1    0    0    0  501  0.00000000000E+00  0.00000000000E+00  0.96333939952E+03  0.96333939952E+03  0.25500000920E-02 0.  1.
        2   -1    0    0  501    0  0.00000000000E+00  0.00000000000E+00 -0.10968406942E+04  0.10968406942E+04  0.25500000920E-02 0. -1.
    10030    2    1    2    0    0  0.00000000000E+00  0.00000000000E+00 -0.13350129473E+03  0.20601800938E+04  0.20558500488E+04 0.  0.
        3    1    3    3  502    0  0.22563494602E+03 -0.95127992582E+03  0.25138488275E+03  0.10094746137E+04  0.10100000352E+00 0. -1.
       -3    1    3    3    0  502 -0.22563494602E+03  0.95127992582E+03 -0.38488617748E+03  0.10507054801E+04  0.10100000352E+00 0.  1.
</event>
<event>
 5   0  0.1035864E-06  0.3892237E+04  0.7818609E-02  0.8026646E-01
       -2   -1    0    0    0  501  0.00000000000E+00  0.00000000000E+00  0.16469624567E+04  0.16469624567E+04  0.25500000920E-02 0.  1.
        2   -1    0    0  501    0  0.00000000000E+00  0.00000000000E+00 -0.22996133611E+04  0.22996133611E+04  0.25500000920E-02 0. -1.
    10030    2    1    2    0    0  0.00000000000E+00  0.00000000000E+00 -0.65265090435E+03  0.39465758178E+04  0.38922368225E+04 0.  0.
        5    1    3    3  502    0 -0.11359839891E+04 -0.94132266457E+03 -0.16132198800E+04  0.21861034865E+04  0.46999998093E+01 0. -1.
       -5    1    3    3    0  502  0.11359839891E+04  0.94132266457E+03  0.96056897565E+03  0.17604723313E+04  0.46999998093E+01 0.  1.
</event>
<event>
 5   0  0.7268013E-07  0.3626024E+04  0.7818609E-02  0.8084556E-01
        2   -1    0    0  501    0  0.00000000000E+00  0.00000000000E+00  0.15732893714E+04  0.15732893714E+04  0.25500000920E-02 0. -1.
       -2   -1    0    0    0  501  0.00000000000E+00  0.00000000000E+00 -0.20892615411E+04  0.20892615411E+04  0.25500000920E-02 0.  1.
    10030    2    1    2    0    0  0.00000000000E+00  0.00000000000E+00 -0.51597216977E+03  0.36625509125E+04  0.36260242562E+04 0.  0.
        4    1    3    3  502    0 -0.13205699334E+04  0.51486566858E+03  0.88389728889E+03  0.16704094216E+04  0.12699999809E+01 0. -1.
       -4    1    3    3    0  502  0.13205699334E+04 -0.51486566858E+03 -0.13998694587E+04  0.19921414909E+04  0.12699999809E+01 0.  1.
</event>
<event>
 5   0  0.4627905E-07  0.1945932E+04  0.7818609E-02  0.8632325E-01
       -1   -1    0    0    0  501  0.00000000000E+00  0.00000000000E+00  0.98035392745E+03  0.98035392747E+03  0.50400001928E-02 0.  1.
        1   -1    0    0  501    0  0.00000000000E+00  0.00000000000E+00 -0.96563398577E+03  0.96563398579E+03  0.50400001928E-02 0. -1.
    10030    2    1    2    0    0  0.00000000000E+00  0.00000000000E+00  0.14719941681E+02  0.19459879133E+04  0.19459322398E+04 0.  0.
        1    1    3    3  502    0  0.11958328273E+03 -0.40639188223E+03  0.88328944720E+03  0.97961970734E+03  0.50400001928E-02 0.  1.
       -1    1    3    3    0  502 -0.11958328273E+03  0.40639188223E+03 -0.86856950552E+03  0.96636820591E+03  0.50400001928E-02 0. -1.
</event>
<event>
 5   0  0.5533705E-07  0.3879256E+04  0.7818609E-02  0.8029357E-01
       -2   -1    0    0    0  501  0.00000000000E+00  0.00000000000E+00  0.32327803570E+04  0.32327803570E+04  0.25500000920E-02 0.  1.
        2   -1    0    0  501    0  0.00000000000E+00  0.00000000000E+00 -0.11637527568E+04  0.11637527568E+04  0.25500000920E-02 0. -1.
    10030    2    1    2    0    0  0.00000000000E+00  0.00000000000E+00  0.20690276002E+04  0.43965331137E+04  0.38792561413E+04 0.  0.
        1    1    3    3  502    0 -0.91148143002E+03 -0.13211286436E+04 -0.19972775709E+03  0.16174271134E+04  0.50400001928E-02 0. -1.
       -1    1    3    3    0  502  0.91148143002E+03  0.13211286436E+04  0.22687553573E+04  0.27791060004E+04  0.50400001928E-02 0.  1.
</event>
<event>
 5   0  0.4627905E-07  0.3933562E+04  0.7818609E-02  0.8018085E-01
        1   -1    0    0  501    0  0.00000000000E+00  0.00000000000E+00  0.14139598698E+04  0.14139598698E+04  0.50400001928E-02 0. -1.
       -1   -1    0    0    0  501  0.00000000000E+00  0.00000000000E+00 -0.27357400538E+04  0.27357400538E+04  0.50400001928E-02 0.  1.
    10030    2    1    2    0    0  0.00000000000E+00  0.00000000000E+00 -0.13217801840E+04  0.41496999236E+04  0.39335615670E+04 0.  0.
        1    1    3    3  502    0  0.55841018441E+03  0.18857681452E+04 -0.64313627860E+03  0.20691949412E+04  0.50400001928E-02 0.  1.
       -1    1    3    3    0  502 -0.55841018441E+03 -0.18857681452E+04 -0.67864390537E+03  0.20805049824E+04  0.50400001928E-02 0. -1.
</event>
<event>
 5   0  0.1015219E-06  0.4080719E+04  0.7818609E-02  0.7988458E-01
        2   -1    0    0  501    0  0.00000000000E+00  0.00000000000E+00  0.15123121679E+04  0.15123121679E+04  0.25500000920E-02 0. -1.
       -2   -1    0    0    0  501  0.00000000000E+00  0.00000000000E+00 -0.27527829906E+04  0.27527829906E+04  0.25500000920E-02 0.  1.
    10030    2    1    2    0    0  0.00000000000E+00  0.00000000000E+00 -0.12404708227E+04  0.42650951584E+04  0.40807191583E+04 0.  0.
        3    1    3    3  502    0  0.49703560945E+03  0.49425482880E+03  0.13825189264E+04  0.15500615552E+04  0.10100000352E+00 0. -1.
       -3    1    3    3    0  502 -0.49703560945E+03 -0.49425482880E+03 -0.26229897491E+04  0.27150336033E+04  0.10100000352E+00 0.  1.
</event>
<event>
 5   0  0.4316671E-07  0.3896743E+04  0.7818609E-02  0.8025707E-01
       -1   -1    0    0    0  501  0.00000000000E+00  0.00000000000E+00  0.20725041164E+04  0.20725041164E+04  0.50400001928E-02 0. -1.
        1   -1    0    0  501    0  0.00000000000E+00  0.00000000000E+00 -0.18316741803E+04  0.18316741803E+04  0.50400001928E-02 0.  1.
    10030    2    1    2    0    0  0.00000000000E+00  0.00000000000E+00  0.24082993609E+03  0.39041782967E+04  0.38967433985E+04 0.  0.
        2    1    3    3  502    0 -0.11283212987E+04 -0.13332421535E+04 -0.74466088224E+03  0.18987267899E+04  0.25500000920E-02 0.  1.
       -2    1    3    3    0  502  0.11283212987E+04  0.13332421535E+04  0.98549081833E+03  0.20054515068E+04  0.25500000920E-02 0. -1.
</event>
<event>
 5   0  0.1034683E-06  0.3713291E+04  0.7818609E-02  0.8065023E-01
       -2   -1    0    0    0  501  0.00000000000E+00  0.00000000000E+00  0.12210291058E+04  0.12210291058E+04  0.25500000920E-02 0.  1.
        2   -1    0    0  501    0  0.00000000000E+00  0.00000000000E+00 -0.28231368042E+04  0.28231368042E+04  0.25500000920E-02 0. -1.
    10030    2    1    2    0    0  0.00000000000E+00  0.00000000000E+00 -0.16021076984E+04  0.40441659100E+04  0.37132908356E+04 0.  0.
        2    1    3    3  502    0 -0.84677581295E+03 -0.85327328006E+03 -0.23420623439E+04  0.26325578038E+04  0.25500000920E-02 0. -1.
       -2    1    3    3    0  502  0.84677581295E+03  0.85327328006E+03  0.73995464551E+03  0.14116081061E+04  0.25500000920E-02 0.  1.
</event>
<event>
 5   0  0.5533705E-07  0.3677887E+04  0.7818609E-02  0.8072880E-01
       -2   -1    0    0    0  501  0.00000000000E+00  0.00000000000E+00  0.26164844568E+04  0.26164844568E+04  0.25500000920E-02 0.  1.
        2   -1    0    0  501    0  0.00000000000E+00  0.00000000000E+00 -0.12924645305E+04  0.12924645305E+04  0.25500000920E-02 0. -1.
    10030    2    1    2    0    0  0.00000000000E+00  0.00000000000E+00  0.13240199263E+04  0.39089489873E+04  0.36778870864E+04 0.  0.
        1    1    3    3  502    0  0.61181926024E+03 -0.13268123597E+04 -0.52481804493E+03  0.15524779629E+04  0.50400001928E-02 0.  1.
       -1    1    3    3    0  502 -0.61181926024E+03  0.13268123597E+04  0.18488379712E+04  0.23564710244E+04  0.50400001928E-02 0. -1.
</event>
<event>
 5   0  0.3471602E-07  0.2344284E+04  0.7818609E-02  0.8460662E-01
       -1   -1    0    0    0  501  0.00000000000E+00  0.00000000000E+00  0.13053230050E+04  0.13053230050E+04  0.50400001928E-02 0.  1.
        1   -1    0    0  501    0  0.00000000000E+00  0.00000000000E+00 -0.10525492107E+04  0.10525492107E+04  0.50400001928E-02 0. -1.
    10030    2    1    2    0    0  0.00000000000E+00  0.00000000000E+00  0.25277379432E+03  0.23578722157E+04  0.23442838553E+04 0.  0.
        5    1    3    3  502    0 -0.46499762192E+03 -0.85618225190E+03 -0.52902183013E+03  0.11086735424E+04  0.46999998093E+01 0. -1.
       -5    1    3    3    0  502  0.46499762192E+03  0.85618225190E+03  0.78179562445E+03  0.12491986733E+04  0.46999998093E+01 0.  1.
</event>
<event>
 5   0  0.1035864E-06  0.3894882E+04  0.7818609E-02  0.8026094E-01
        2   -1    0    0  501    0  0.00000000000E+00  0.00000000000E+00  0.21886607799E+04  0.21886607799E+04  0.25500000920E-02 0. -1.
       -2   -1    0    0    0  501  0.00000000000E+00  0.00000000000E+00 -0.17328071168E+04  0.17328071169E+04  0.25500000920E-02 0.  1.
    10030    2    1    2    0    0  0.00000000000E+00  0.00000000000E+00  0.45585366305E+03  0.39214678967E+04  0.38948822708E+04 0.  0.
        5    1    3    3  502    0 -0.66366194968E+03 -0.74094691024E+03 -0.14577338932E+04  0.17647831880E+04  0.46999998093E+01 0.  1.
       -5    1    3    3    0  502  0.66366194968E+03  0.74094691024E+03  0.19135875563E+04  0.21566847087E+04  0.46999998093E+01 0. -1.
</event>
<event>
 5   0  0.7268013E-07  0.3384478E+04  0.7818609E-02  0.8141726E-01
       -2   -1    0    0    0  501  0.00000000000E+00  0.00000000000E+00  0.12222642778E+04  0.12222642778E+04  0.25500000920E-02 0. -1.
        2   -1    0    0  501    0  0.00000000000E+00  0.00000000000E+00 -0.23429242458E+04  0.23429242458E+04  0.25500000920E-02 0.  1.
    10030    2    1    2    0    0  0.00000000000E+00  0.00000000000E+00 -0.11206599681E+04  0.35651885236E+04  0.33844778689E+04 0.  0.
        4    1    3    3  502    0 -0.19356099095E+02 -0.69988971806E+02  0.12206218007E+04  0.12227805641E+04  0.12699999809E+01 0. -1.
       -4    1    3    3    0  502  0.19356099095E+02  0.69988971806E+02 -0.23412817688E+04  0.23424079595E+04  0.12699999809E+01 0.  1.
</event>
<event>
 5   0  0.1034683E-06  0.3790141E+04  0.7818609E-02  0.8048274E-01
        2   -1    0    0  501    0  0.00000000000E+00  0.00000000000E+00  0.18859438628E+04  0.18859438628E+04  0.25500000920E-02 0.  1.
       -2   -1    0    0    0  501  0.00000000000E+00  0.00000000000E+00 -0.19042417340E+04  0.19042417340E+04  0.25500000920E-02 0. -1.
    10030    2    1    2    0    0  0.00000000000E+00  0.00000000000E+00 -0.18297871254E+02  0.37901855968E+04  0.37901414283E+04 0.  0.
        2    1    3    3  502    0 -0.18352072860E+04 -0.21926575067E+03  0.40946048117E+03  0.18930718786E+04  0.25500000920E-02 0. -1.
       -2    1    3    3    0  502  0.18352072860E+04  0.21926575067E+03 -0.42775835243E+03  0.18971137182E+04  0.25500000920E-02 0.  1.
</event>
<event>
 5   0  0.1199043E-06  0.1946140E+04  0.7818609E-02  0.8632224E-01
        2   -1    0    0  501    0  0.00000000000E+00  0.00000000000E+00  0.20183994148E+04  0.20183994148E+04  0.25500000920E-02 0. -1.
       -2   -1    0    0    0  501  0.00000000000E+00  0.00000000000E+00 -0.46911680113E+03  0.46911680113E+03  0.25500000920E-02 0.  1.
    10030    2    1    2    0    0  0.00000000000E+00  0.00000000000E+00  0.15492826137E+04  0.24875162159E+04  0.19461398479E+04 0.  0.
        5    1    3    3  502    0  0.47969137193E+03 -0.79943494189E+03  0.11307994549E+04  0.14655816374E+04  0.46999998093E+01 0. -1.
       -5    1    3    3    0  502 -0.47969137193E+03  0.79943494189E+03  0.41848315871E+03  0.10219345785E+04  0.46999998093E+01 0.  1.
</event>
<event>
 5   0  0.7268013E-07  0.3514491E+04  0.7818609E-02  0.8110364E-01
       -2   -1    0    0    0  501  0.00000000000E+00  0.00000000000E+00  0.22105316319E+04  0.22105316319E+04  0.25500000920E-02 0. -1.
        2   -1    0    0  501    0  0.00000000000E+00  0.00000000000E+00 -0.13969092665E+04  0.13969092665E+04  0.25500000920E-02 0.  1.
    10030    2    1    2    0    0  0.00000000000E+00  0.00000000000E+00  0.81362236536E+03  0.36074408984E+04  0.35144912124E+04 0.  0.
        4    1    3    3  502    0  0.15026589457E+04  0.90839362551E+03  0.47753648473E+03  0.18196718367E+04  0.12699999809E+01 0. -1.
       -4    1    3    3    0  502 -0.15026589457E+04 -0.90839362551E+03  0.33608588063E+03  0.17877690617E+04  0.12699999809E+01 0.  1.
</event>
<event>
 5   0  0.1015219E-06  0.2675033E+04  0.7818609E-02  0.8343152E-01
        2   -1    0    0  501    0  0.00000000000E+00  0.00000000000E+00  0.13338546135E+04  0.13338546135E+04  0.25500000920E-02 0.  1.
       -2   -1    0    0    0  501  0.00000000000E+00  0.00000000000E+00 -0.13411883646E+04  0.13411883646E+04  0.25500000920E-02 0. -1.
    10030    2    1    2    0    0  0.00000000000E+00  0.00000000000E+00 -0.73337510136E+01  0.26750429781E+04  0.26750329252E+04 0.  0.
        3    1    3    3  502    0  0.57109094827E+01  0.11886838992E+04 -0.61681537010E+03  0.13392024633E+04  0.10100000352E+00 0. -1.
       -3    1    3    3    0  502 -0.57109094827E+01 -0.11886838992E+04  0.60948161908E+03  0.13358405148E+04  0.10100000352E+00 0.  1.
</event>
<event>
 5   0  0.7268013E-07  0.3914304E+04  0.7818609E-02  0.8022061E-01
        2   -1    0    0  501    0  0.00000000000E+00  0.00000000000E+00  0.21584556877E+04  0.21584556877E+04  0.25500000920E-02 0. -1.
       -2   -1    0    0    0  501  0.00000000000E+00  0.00000000000E+00 -0.17746224320E+04  0.17746224320E+04  0.25500000920E-02 0.  1.
    10030    2    1    2    0    0  0.00000000000E+00  0.00000000000E+00  0.38383325571E+03  0.39330781198E+04  0.39143039647E+04 0.  0.
        4    1    3    3  502    0  0.18337897061E+04 -0.68384695472E+03  0.18859541544E+03  0.19662149392E+04  0.12699999809E+01 0. -1.
       -4    1    3    3    0  502 -0.18337897061E+04  0.68384695472E+03  0.19523784027E+03  0.19668631805E+04  0.12699999809E+01 0.  1.
</event>
<event>
 5   0  0.1034683E-06  0.3912746E+04  0.7818609E-02  0.8022383E-01
        2   -1    0    0  501    0  0.00000000000E+00  0.00000000000E+00  0.20291201605E+04  0.20291201605E+04  0.25500000920E-02 0.  1.
       -2   -1    0    0    0  501  0.00000000000E+00  0.00000000000E+00 -0.18862339335E+04  0.18862339335E+04  0.25500000920E-02 0. -1.
    10030    2    1    2    0    0  0.00000000000E+00  0.00000000000E+00  0.14288622696E+03  0.39153540940E+04  0.39127459932E+04 0.  0.
        2    1    3    3  502    0  0.33221964866E+02  0.13681822756E+03 -0.18811577312E+04  0.18864191835E+04  0.25500000920E-02 0. -1.
       -2    1    3    3    0  502 -0.33221964866E+02 -0.13681822756E+03  0.20240439582E+04  0.20289349105E+04  0.25500000920E-02 0.  1.
</event>
<event>
 5   0  0.1015219E-06  0.2973752E+04  0.7818609E-02  0.8251266E-01
        2   -1    0    0  501    0  0.00000000000E+00  0.00000000000E+00  0.19793315704E+04  0.19793315704E+04  0.25500000920E-02 0. -1.
       -2   -1    0    0    0  501  0.00000000000E+00  0.00000000000E+00 -0.11169427390E+04  0.11169427390E+04  0.25500000920E-02 0.  1.
    10030    2    1    2    0    0  0.00000000000E+00  0.00000000000E+00  0.86238883143E+03  0.30962743093E+04  0.29737518562E+04 0.  0.
        3    1    3    3  502    0  0.12767854602E+04  0.68569865027E+03  0.77720593576E+03  0.16445099048E+04  0.10100000352E+00 0.  1.
       -3    1    3    3    0  502 -0.12767854602E+04 -0.68569865027E+03  0.85182895674E+02  0.14517644045E+04  0.10100000352E+00 0. -1.
</event>
<event>
 5   0  0.3977376E-07  0.3875559E+04  0.7818609E-02  0.8030132E-01
        1   -1    0    0  501    0  0.00000000000E+00  0.00000000000E+00  0.22260706200E+04  0.22260706200E+04  0.50400001928E-02 0.  1.
       -1   -1    0    0    0  501  0.00000000000E+00  0.00000000000E+00 -0.16868244495E+04  0.16868244495E+04  0.50400001928E-02 0. -1.
    10030    2    1    2    0    0  0.00000000000E+00  0.00000000000E+00  0.53924617053E+03  0.39128950694E+04  0.38755594941E+04 0.  0.
        4    1    3    3  502    0  0.29641764765E+02  0.17649630179E+04 -0.53746240492E+03  0.18452209999E+04  0.12699999809E+01 0.  1.
       -4    1    3    3    0  502 -0.29641764765E+02 -0.17649630179E+04  0.10767085754E+04  0.20676740696E+04  0.12699999809E+01 0. -1.
</event>
<event>
 5   0  0.5533705E-07  0.2233421E+04  0.7818609E-02  0.8504645E-01
        2   -1    0    0  501    0  0.00000000000E+00  0.00000000000E+00  0.11755028262E+04  0.11755028262E+04  0.25500000920E-02 0. -1.
       -2   -1    0    0    0  501  0.00000000000E+00  0.00000000000E+00 -0.10608587571E+04  0.10608587571E+04  0.25500000920E-02 0.  1.
    10030    2    1    2    0    0  0.00000000000E+00  0.00000000000E+00  0.11464406909E+03  0.22363615833E+04  0.22334211131E+04 0.  0.
        1    1    3    3  502    0  0.44114712149E+03  0.77701646237E+03  0.72803755909E+03  0.11525641210E+04  0.50400001928E-02 0. -1.
       -1    1    3    3    0  502 -0.44114712149E+03 -0.77701646237E+03 -0.61339348999E+03  0.10837974622E+04  0.50400001928E-02 0.  1.
</event>
<event>
 5   0  0.3977376E-07  0.3792493E+04  0.7818609E-02  0.8047768E-01
       -1   -1    0    0    0  501  0.00000000000E+00  0.00000000000E+00  0.14252485794E+04  0.14252485794E+04  0.50400001928E-02 0.  1.
        1   -1    0    0  501    0  0.00000000000E+00  0.00000000000E+00 -0.25228934384E+04  0.25228934384E+04  0.50400001928E-02 0. -1.
    10030    2    1    2    0    0  0.00000000000E+00  0.00000000000E+00 -0.10976448591E+04  0.39481420178E+04  0.37924927365E+04 0.  0.
        4    1    3    3  502    0  0.40261482387E+03 -0.18527801551E+04 -0.51836993782E+03  0.19656047428E+04  0.12699999809E+01 0. -1.
       -4    1    3    3    0  502 -0.40261482387E+03  0.18527801551E+04 -0.57927492123E+03  0.19825372750E+04  0.12699999809E+01 0.  1.
</event>
<event>
 5   0  0.1034683E-06  0.2688778E+04  0.7818609E-02  0.8338655E-01
        2   -1    0    0  501    0  0.00000000000E+00  0.00000000000E+00  0.10938152408E+04  0.10938152408E+04  0.25500000920E-02 0. -1.
       -2   -1    0    0    0  501  0.00000000000E+00  0.00000000000E+00 -0.16523648900E+04  0.16523648900E+04  0.25500000920E-02 0.  1.
    10030    2    1    2    0    0  0.00000000000E+00  0.00000000000E+00 -0.55854964921E+03  0.27461801309E+04  0.26887780869E+04 0.  0.
        2    1    3    3  502    0 -0.10534293788E+03  0.16893190202E+03 -0.16372257887E+04  0.16492857258E+04  0.25500000920E-02 0.  1.
       -2    1    3    3    0  502  0.10534293788E+03 -0.16893190202E+03  0.10786761395E+04  0.10968944051E+04  0.25500000920E-02 0. -1.
</event>
<event>
 5   0  0.1015219E-06  0.3804662E+04  0.7818609E-02  0.8045155E-01
        2   -1    0    0  501    0  0.00000000000E+00  0.00000000000E+00  0.20300802712E+04  0.20300802712E+04  0.25500000920E-02 0. -1.
       -2   -1    0    0    0  501  0.00000000000E+00  0.00000000000E+00 -0.17826205862E+04  0.17826205862E+04  0.25500000920E-02 0.  1.
    10030    2    1    2    0    0  0.00000000000E+00  0.00000000000E+00  0.24745968509E+03  0.38127008574E+04  0.38046618158E+04 0.  0.
        3    1    3    3  502    0 -0.28116914554E+03 -0.17772703125E+04 -0.49492133621E+03  0.18661974685E+04  0.10100000352E+00 0.  1.
       -3    1    3    3    0  502  0.28116914554E+03  0.17772703125E+04  0.74238102130E+03  0.19465033889E+04  0.10100000352E+00 0. -1.
</event>
<event>
 5   0  0.4627905E-07  0.3614260E+04  0.7818609E-02  0.8087233E-01
       -1   -1    0    0    0  501  0.00000000000E+00  0.00000000000E+00  0.15542633958E+04  0.15542633958E+04  0.50400001928E-02 0. -1.
        1   -1    0    0  501    0  0.00000000000E+00  0.00000000000E+00 -0.21011363295E+04  0.21011363295E+04  0.50400001928E-02 0.  1.
    10030    2    1    2    0    0  0.00000000000E+00  0.00000000000E+00 -0.54687293374E+03  0.36553997253E+04  0.36142602488E+04 0.  0.
        1    1    3    3  502    0 -0.17028234154E+04 -0.52786745083E+03  0.25679226662E+02  0.17829500982E+04  0.50400001928E-02 0. -1.
       -1    1    3    3    0  502  0.17028234154E+04  0.52786745083E+03 -0.57255216040E+03  0.18724496271E+04  0.50400001928E-02 0.  1.
</event>
<event>
 5   0  0.3977376E-07  0.3323374E+04  0.7818609E-02  0.8156973E-01
        1   -1    0    0  501    0  0.00000000000E+00  0.00000000000E+00  0.32905084211E+04  0.32905084211E+04  0.50400001928E-02 0. -1.
       -1   -1    0    0    0  501  0.00000000000E+00  0.00000000000E+00 -0.83914191751E+03  0.83914191752E+03  0.50400001928E-02 0.  1.
    10030    2    1    2    0    0  0.00000000000E+00  0.00000000000E+00  0.24513665036E+04  0.41296503386E+04  0.33233739158E+04 0.  0.
        4    1    3    3  502    0 -0.54475182350E+03  0.87153620016E+03  0.28481655523E+04  0.30279330448E+04  0.12699999809E+01 0. -1.
       -4    1    3    3    0  502  0.54475182350E+03 -0.87153620016E+03 -0.39679904878E+03  0.11017172938E+04  0.12699999809E+01 0.  1.
</event>
<event>
 5   0  0.3471602E-07  0.2047241E+04  0.7818609E-02  0.8584847E-01
       -1   -1    0    0    0  501  0.00000000000E+00  0.00000000000E+00  0.95666985141E+03  0.95666985142E+03  0.50400001928E-02 0.  1.
        1   -1    0    0  501    0  0.00000000000E+00  0.00000000000E+00 -0.10952570756E+04  0.10952570756E+04  0.50400001928E-02 0. -1.
    10030    2    1    2    0    0  0.00000000000E+00  0.00000000000E+00 -0.13858722419E+03  0.20519269270E+04  0.20472414843E+04 0.  0.
        5    1    3    3  502    0  0.43349775349E+02  0.38878354775E+03 -0.10173683504E+04  0.10899964681E+04  0.46999998093E+01 0. -1.
       -5    1    3    3    0  502 -0.43349775349E+02 -0.38878354775E+03  0.87878112623E+03  0.96193045894E+03  0.46999998093E+01 0.  1.
</event>
<event>
 5   0  0.5385714E-07  0.3959317E+04  0.7818609E-02  0.8012804E-01
        1   -1    0    0  501    0  0.00000000000E+00  0.00000000000E+00  0.22570477513E+04  0.22570477513E+04  0.50400001928E-02 0. -1.
       -1   -1    0    0    0  501  0.00000000000E+00  0.00000000000E+00 -0.17363597468E+04  0.17363597468E+04  0.50400001928E-02 0.  1.
    10030    2    1    2    0    0  0.00000000000E+00  0.00000000000E+00  0.52068800452E+03  0.39934074981E+04  0.39593165380E+04 0.  0.
        3    1    3    3  502    0 -0.61510199351E+03 -0.12536603450E+04  0.16756482378E+04  0.21812408739E+04  0.10100000352E+00 0. -1.
       -3    1    3    3    0  502  0.61510199351E+03  0.12536603450E+04 -0.11549602333E+04  0.18121666242E+04  0.10100000352E+00 0.  1.
</event>
<event>
 5   0  0.1015219E-06  0.3915370E+04  0.7818609E-02  0.8021840E-01
       -2   -1    0    0    0  501  0.00000000000E+00  0.00000000000E+00  0.26784997606E+04  0.26784997606E+04  0.25500000920E-02 0. -1.
        2   -1    0    0  501    0  0.00000000000E+00  0.00000000000E+00 -0.14308495791E+04  0.14308495791E+04  0.25500000920E-02 0.  1.
    10030    2    1    2    0    0  0.00000000000E+00  0.00000000000E+00  0.12476501815E+04  0.41093493397E+04  0.39153698447E+04 0.  0.
        3    1    3    3  502    0 -0.66721744266E+03 -0.78017528849E+03 -0.11256966947E+04  0.15234978356E+04  0.10100000352E+00 0.  1.
       -3    1    3    3    0  502  0.66721744266E+03  0.78017528849E+03  0.23733468762E+04  0.25858515041E+04  0.10100000352E+00 0. -1.
</event>
<event>
 5   0  0.1015219E-06  0.3871465E+04  0.7818609E-02  0.8030990E-01
        2   -1    0    0  501    0  0.00000000000E+00  0.00000000000E+00  0.30648429627E+04  0.30648429627E+04  0.25500000920E-02 0. -1.
       -2   -1    0    0    0  501  0.00000000000E+00  0.00000000000E+00 -0.12225947900E+04  0.12225947900E+04  0.25500000920E-02 0.  1.
    10030    2    1    2    0    0  0.00000000000E+00  0.00000000000E+00  0.18422481727E+04  0.42874377528E+04  0.38714653755E+04 0.  0.
        3    1    3    3  502    0  0.72779757429E+03  0.17013425982E+04  0.29191841227E+03  0.18733585656E+04  0.10100000352E+00 0.  1.
       -3    1    3    3    0  502 -0.72779757429E+03 -0.17013425982E+04  0.15503297605E+04  0.24140791872E+04  0.10100000352E+00 0. -1.
</event>
<event>
 5   0  0.3977376E-07  0.1948262E+04  0.7818609E-02  0.8631199E-01
       -1   -1    0    0    0  501  0.00000000000E+00  0.00000000000E+00  0.10059939954E+04  0.10059939954E+04  0.50400001928E-02 0.  1.
        1   -1    0    0  501    0  0.00000000000E+00  0.00000000000E+00 -0.94327768491E+03  0.94327768493E+03  0.50400001928E-02 0. -1.
    10030    2    1    2    0    0  0.00000000000E+00  0.00000000000E+00  0.62716310474E+02  0.19492716803E+04  0.19482624947E+04 0.  0.
        4    1    3    3  502    0 -0.91173735739E+03  0.34265105254E+03  0.47345213774E+02  0.97515021142E+03  0.12699999809E+01 0.  1.
       -4    1    3    3    0  502  0.91173735739E+03 -0.34265105254E+03  0.15371096700E+02  0.97412146891E+03  0.12699999809E+01 0. -1.
</event>
<event>
 5   0  0.3191750E-07  0.3660078E+04  0.7818609E-02  0.8076867E-01
       -3   -1    0    0    0  501  0.00000000000E+00  0.00000000000E+00  0.20476139917E+04  0.20476139942E+04  0.10100000352E+00 0. -1.
        3   -1    0    0  501    0  0.00000000000E+00  0.00000000000E+00 -0.16355826341E+04  0.16355826373E+04  0.10100000352E+00 0.  1.
    10030    2    1    2    0    0  0.00000000000E+00  0.00000000000E+00  0.41203135753E+03  0.36831966314E+04  0.36600775383E+04 0.  0.
        2    1    3    3  502    0 -0.17571588354E+04 -0.28331366206E+03  0.63434270175E+03  0.18895143469E+04  0.25500000920E-02 0. -1.
       -2    1    3    3    0  502  0.17571588354E+04  0.28331366206E+03 -0.22231134422E+03  0.17936822845E+04  0.25500000920E-02 0.  1.
</event>
<event>
 5   0  0.5533705E-07  0.3834730E+04  0.7818609E-02  0.8038743E-01
       -2   -1    0    0    0  501  0.00000000000E+00  0.00000000000E+00  0.23618938659E+04  0.23618938659E+04  0.25500000920E-02 0.  1.
        2   -1    0    0  501    0  0.00000000000E+00  0.00000000000E+00 -0.15565004874E+04  0.15565004874E+04  0.25500000920E-02 0. -1.
    10030    2    1    2    0    0  0.00000000000E+00  0.00000000000E+00  0.80539337855E+03  0.39183943533E+04  0.38347302139E+04 0.  0.
        1    1    3    3  502    0  0.78016677355E+03  0.79854741982E+03 -0.11901429860E+04  0.16318022256E+04  0.50400001928E-02 0. -1.
       -1    1    3    3    0  502 -0.78016677355E+03 -0.79854741982E+03  0.19955363646E+04  0.22865921277E+04  0.50400001928E-02 0.  1.
</event>
<event>
 5   0  0.1015219E-06  0.3414056E+04  0.7818609E-02  0.8134465E-01
        2   -1    0    0  501    0  0.00000000000E+00  0.00000000000E+00  0.12378439112E+04  0.12378439112E+04  0.25500000920E-02 0. -1.
       -2   -1    0    0    0  501  0.00000000000E+00  0.00000000000E+00 -0.23540491718E+04  0.23540491718E+04  0.25500000920E-02 0.  1.
    10030    2    1    2    0    0  0.00000000000E+00  0.00000000000E+00 -0.11162052606E+04  0.35918930831E+04  0.34140564928E+04 0.  0.
        3    1    3    3  502    0 -0.19762364443E+03 -0.10240833254E+04  0.86363732250E+03  0.13541311595E+04  0.10100000352E+00 0. -1.
       -3    1    3    3    0  502  0.19762364443E+03  0.10240833254E+04 -0.19798425831E+04  0.22377619235E+04  0.10100000352E+00 0.  1.
</event>
<event>
 5   0  0.7268013E-07  0.2047379E+04  0.7818609E-02  0.8584784E-01
       -2   -1    0    0    0  501  0.00000000000E+00  0.00000000000E+00  0.62786274325E+03  0.62786274326E+03  0.25500000920E-02 0. -1.
        2   -1    0    0  501    0  0.00000000000E+00  0.00000000000E+00 -0.16690586917E+04  0.16690586917E+04  0.25500000920E-02 0.  1.
    10030    2    1    2    0    0  0.00000000000E+00  0.00000000000E+00 -0.10411959485E+04  0.22969214350E+04  0.20473785862E+04 0.  0.
        4    1    3    3  502    0 -0.90461895514E+03  0.16542648589E+03 -0.10251175880E+04  0.13771597795E+04  0.12699999809E+01 0.  1.
       -4    1    3    3    0  502  0.90461895514E+03 -0.16542648589E+03 -0.16078360453E+02  0.91976165544E+03  0.12699999809E+01 0. -1.
</event>
<event>
 5   0  0.4627905E-07  0.3040186E+04  0.7818609E-02  0.8232348E-01
       -1   -1    0    0    0  501  0.00000000000E+00  0.00000000000E+00  0.11598668516E+04  0.11598668516E+04  0.50400001928E-02 0.  1.
        1   -1    0    0  501    0  0.00000000000E+00  0.00000000000E+00 -0.19921968226E+04  0.19921968226E+04  0.50400001928E-02 0. -1.
    10030    2    1    2    0    0  0.00000000000E+00  0.00000000000E+00 -0.83232997104E+03  0.31520636743E+04  0.30401862157E+04 0.  0.
        1    1    3    3  502    0  0.96996789411E+03 -0.70075261486E+03  0.55577091669E+03  0.13193836647E+04  0.50400001928E-02 0.  1.
       -1    1    3    3    0  502 -0.96996789411E+03  0.70075261486E+03 -0.13881008877E+04  0.18326800095E+04  0.50400001928E-02 0. -1.
</event>
<event>
 5   0  0.4316671E-07  0.2631719E+04  0.7818609E-02  0.8357506E-01
       -1   -1    0    0    0  501  0.00000000000E+00  0.00000000000E+00  0.12910083024E+04  0.12910083024E+04  0.50400001928E-02 0.  1.
        1   -1    0    0  501    0  0.00000000000E+00  0.00000000000E+00 -0.13411887039E+04  0.13411887039E+04  0.50400001928E-02 0. -1.
    10030    2    1    2    0    0  0.00000000000E+00  0.00000000000E+00 -0.50180401437E+02  0.26321970063E+04  0.26317186414E+04 0.  0.
        2    1    3    3  502    0  0.26684098021E+00 -0.61197728125E+03 -0.11901922747E+04  0.13383100966E+04  0.25500000920E-02 0. -1.
       -2    1    3    3    0  502 -0.26684098021E+00  0.61197728125E+03  0.11400118732E+04  0.12938869097E+04  0.25500000920E-02 0.  1.
</event>
<event>
 5   0  0.4316671E-07  0.2651059E+04  0.7818609E-02  0.8351062E-01
        1   -1    0    0  501    0  0.00000000000E+00  0.00000000000E+00  0.13086843814E+04  0.13086843814E+04  0.50400001928E-02 0. -1.
       -1   -1    0    0    0  501  0.00000000000E+00  0.00000000000E+00 -0.13425910242E+04  0.13425910242E+04  0.50400001928E-02 0.  1.
    10030    2    1    2    0    0  0.00000000000E+00  0.00000000000E+00 -0.33906642828E+02  0.26512754057E+04  0.26510585841E+04 0.  0.
        2    1    3    3  502    0 -0.97433086746E+03  0.56356085433E+03  0.68317995161E+03  0.13166838353E+04  0.25500000920E-02 0. -1.
       -2    1    3    3    0  502  0.97433086746E+03 -0.56356085433E+03 -0.71708659443E+03  0.13345915704E+04  0.25500000920E-02 0.  1.
</event>
<event>
 5   0  0.3977376E-07  0.3791058E+04  0.7818609E-02  0.8048077E-01
        1   -1    0    0  501    0  0.00000000000E+00  0.00000000000E+00  0.21658434295E+04  0.21658434295E+04  0.50400001928E-02 0.  1.
       -1   -1    0    0    0  501  0.00000000000E+00  0.00000000000E+00 -0.16589517800E+04  0.16589517800E+04  0.50400001928E-02 0. -1.
    10030    2    1    2    0    0  0.00000000000E+00  0.00000000000E+00  0.50689164952E+03  0.38247952095E+04  0.37910578010E+04 0.  0.
        4    1    3    3  502    0  0.15342261511E+03  0.12635126396E+04 -0.11636986602E+04  0.17245865806E+04  0.12699999809E+01 0. -1.
       -4    1    3    3    0  502 -0.15342261511E+03 -0.12635126396E+04  0.16705903097E+04  0.21002086289E+04  0.12699999809E+01 0.  1.
</event>
<event>
 5   0  0.3977376E-07  0.3876042E+04  0.7818609E-02  0.8030031E-01
       -1   -1    0    0    0  501  0.00000000000E+00  0.00000000000E+00  0.19159889838E+04  0.19159889838E+04  0.50400001928E-02 0. -1.
        1   -1    0    0  501    0  0.00000000000E+00  0.00000000000E+00 -0.19603060110E+04  0.19603060110E+04  0.50400001928E-02 0.  1.
    10030    2    1    2    0    0  0.00000000000E+00  0.00000000000E+00 -0.44317027178E+02  0.38762949948E+04  0.38760416519E+04 0.  0.
        4    1    3    3  502    0  0.37132333546E+03 -0.48293721818E+03  0.18177480651E+04  0.19171121557E+04  0.12699999809E+01 0. -1.
       -4    1    3    3    0  502 -0.37132333546E+03  0.48293721818E+03 -0.18620650923E+04  0.19591828391E+04  0.12699999809E+01 0.  1.
</event>
<event>
 5   0  0.3471602E-07  0.3848039E+04  0.7818609E-02  0.8035924E-01
       -1   -1    0    0    0  501  0.00000000000E+00  0.00000000000E+00  0.25232278678E+04  0.25232278678E+04  0.50400001928E-02 0.  1.
        1   -1    0    0  501    0  0.00000000000E+00  0.00000000000E+00 -0.14671096549E+04  0.14671096550E+04  0.50400001928E-02 0. -1.
    10030    2    1    2    0    0  0.00000000000E+00  0.00000000000E+00  0.10561182128E+04  0.39903375228E+04  0.38480394834E+04 0.  0.
        5    1    3    3  502    0 -0.11877144148E+04 -0.86330106652E+03 -0.76125099608E+03  0.16539284845E+04  0.46999998093E+01 0. -1.
       -5    1    3    3    0  502  0.11877144148E+04  0.86330106652E+03  0.18173692089E+04  0.23364090383E+04  0.46999998093E+01 0.  1.
</event>
<event>
 5   0  0.7268013E-07  0.3869103E+04  0.7818609E-02  0.8031486E-01
       -2   -1    0    0    0  501  0.00000000000E+00  0.00000000000E+00  0.17001769099E+04  0.17001769099E+04  0.25500000920E-02 0.  1.
        2   -1    0    0  501    0  0.00000000000E+00  0.00000000000E+00 -0.22012348881E+04  0.22012348881E+04  0.25500000920E-02 0. -1.
    10030    2    1    2    0    0  0.00000000000E+00  0.00000000000E+00 -0.50105797815E+03  0.39014117980E+04  0.38691025988E+04 0.  0.
        4    1    3    3  502    0 -0.16394468129E+04 -0.10019325874E+03 -0.12811513598E+04  0.20830686405E+04  0.12699999809E+01 0. -1.
       -4    1    3    3    0  502  0.16394468129E+04  0.10019325874E+03  0.78009338165E+03  0.18183431575E+04  0.12699999809E+01 0.  1.
</event>
<event>
 5   0  0.3191750E-07  0.2590670E+04  0.7818609E-02  0.8371377E-01
       -3   -1    0    0    0  501  0.00000000000E+00  0.00000000000E+00  0.12689847610E+04  0.12689847650E+04  0.10100000352E+00 0. -1.
        3   -1    0    0  501    0  0.00000000000E+00  0.00000000000E+00 -0.13222319910E+04  0.13222319948E+04  0.10100000352E+00 0.  1.
    10030    2    1    2    0    0  0.00000000000E+00  0.00000000000E+00 -0.53247229960E+02  0.25912167598E+04  0.25906696101E+04 0.  0.
        2    1    3    3  502    0 -0.12319160827E+04  0.38498930751E+03 -0.13645689522E+03  0.12978653574E+04  0.25500000920E-02 0. -1.
       -2    1    3    3    0  502  0.12319160827E+04 -0.38498930751E+03  0.83209665259E+02  0.12933514024E+04  0.25500000920E-02 0.  1.
</event>
<event>
 5   0  0.7268013E-07  0.3844650E+04  0.7818609E-02  0.8036640E-01
        2   -1    0    0  501    0  0.00000000000E+00  0.00000000000E+00  0.22515221599E+04  0.22515221599E+04  0.25500000920E-02 0.  1.
       -2   -1    0    0    0  501  0.00000000000E+00  0.00000000000E+00 -0.16412603620E+04  0.16412603620E+04  0.25500000920E-02 0. -1.
    10030    2    1    2    0    0  0.00000000000E+00  0.00000000000E+00  0.61026179794E+03  0.38927825219E+04  0.38446503483E+04 0.  0.
        4    1    3    3  502    0 -0.99854439022E+03  0.15629929285E+04  0.81672339464E+03  0.20265923394E+04  0.12699999809E+01 0.  1.
       -4    1    3    3    0  502  0.99854439022E+03 -0.15629929285E+04 -0.20646159670E+03  0.18661901826E+04  0.12699999809E+01 0. -1.
</event>
<event>
 5   0  0.4627905E-07  0.3374265E+04  0.7818609E-02  0.8144252E-01
        1   -1    0    0  501    0  0.00000000000E+00  0.00000000000E+00  0.14124260211E+04  0.14124260211E+04  0.50400001928E-02 0.  1.
       -1   -1    0    0    0  501  0.00000000000E+00  0.00000000000E+00 -0.20152671045E+04  0.20152671046E+04  0.50400001928E-02 0. -1.
    10030    2    1    2    0    0  0.00000000000E+00  0.00000000000E+00 -0.60284108350E+03  0.34276931256E+04  0.33742647779E+04 0.  0.
        1    1    3    3  502    0 -0.74922463151E+03  0.76774062499E+03  0.10213703622E+04  0.14812024279E+04  0.50400001928E-02 0.  1.
       -1    1    3    3    0  502  0.74922463151E+03 -0.76774062499E+03 -0.16242114457E+04  0.19464906977E+04  0.50400001928E-02 0. -1.
</event>
<event>
 5   0  0.5533705E-07  0.4187027E+04  0.7818609E-02  0.7967845E-01
        2   -1    0    0  501    0  0.00000000000E+00  0.00000000000E+00  0.19162669859E+04  0.19162669859E+04  0.25500000920E-02 0. -1.
       -2   -1    0    0    0  501  0.00000000000E+00  0.00000000000E+00 -0.22871543578E+04  0.22871543578E+04  0.25500000920E-02 0.  1.
    10030    2    1    2    0    0  0.00000000000E+00  0.00000000000E+00 -0.37088737196E+03  0.42034213437E+04  0.41870268151E+04 0.  0.
        1    1    3    3  502    0 -0.15435310246E+04  0.16361844950E+03 -0.15957715284E+04  0.22261504423E+04  0.50400001928E-02 0.  1.
       -1    1    3    3    0  502  0.15435310246E+04 -0.16361844950E+03  0.12248841564E+04  0.19772709014E+04  0.50400001928E-02 0. -1.
</event>
<event>
 5   0  0.4627905E-07  0.3896085E+04  0.7818609E-02  0.8025844E-01
       -1   -1    0    0    0  501  0.00000000000E+00  0.00000000000E+00  0.17868356120E+04  0.17868356120E+04  0.50400001928E-02 0. -1.
        1   -1    0    0  501    0  0.00000000000E+00  0.00000000000E+00 -0.21237928226E+04  0.21237928226E+04  0.50400001928E-02 0.  1.
    10030    2    1    2    0    0  0.00000000000E+00  0.00000000000E+00 -0.33695721060E+03  0.39106284345E+04  0.38960845206E+04 0.  0.
        1    1    3    3  502    0 -0.10520936182E+04 -0.64710140497E+03  0.13435402154E+04  0.18250319231E+04  0.50400001928E-02 0. -1.
       -1    1    3    3    0  502  0.10520936182E+04  0.64710140497E+03 -0.16804974260E+04  0.20855965115E+04  0.50400001928E-02 0.  1.
</event>
<event>
 5   0  0.1034683E-06  0.3855212E+04  0.7818609E-02  0.8034409E-01
       -2   -1    0    0    0  501  0.00000000000E+00  0.00000000000E+00  0.14074141280E+04  0.14074141280E+04  0.25500000920E-02 0.  1.
        2   -1    0    0  501    0  0.00000000000E+00  0.00000000000E+00 -0.26400655726E+04  0.26400655726E+04  0.25500000920E-02 0. -1.
    10030    2    1    2    0    0  0.00000000000E+00  0.00000000000E+00 -0.12326514445E+04  0.40474797006E+04  0.38552123603E+04 0.  0.
        2    1    3    3  502    0  0.31829080955E+03  0.44464632366E+03 -0.25569272893E+04  0.26147459830E+04  0.25500000920E-02 0. -1.
       -2    1    3    3    0  502 -0.31829080955E+03 -0.44464632366E+03  0.13242758448E+04  0.14327337176E+04  0.25500000920E-02 0.  1.
</event>
<event>
 5   0  0.4627905E-07  0.2760575E+04  0.7818609E-02  0.8315614E-01
       -1   -1    0    0    0  501  0.00000000000E+00  0.00000000000E+00  0.15403299948E+04  0.15403299948E+04  0.50400001928E-02 0. -1.
        1   -1    0    0  501    0  0.00000000000E+00  0.00000000000E+00 -0.12368733982E+04  0.12368733982E+04  0.50400001928E-02 0.  1.
    10030    2    1    2    0    0  0.00000000000E+00  0.00000000000E+00  0.30345659660E+03  0.27772033929E+04  0.27605747191E+04 0.  0.
        1    1    3    3  502    0 -0.39904970980E+02  0.13777432413E+04  0.77634476072E+02  0.13805056891E+04  0.50400001928E-02 0. -1.
       -1    1    3    3    0  502  0.39904970980E+02 -0.13777432413E+04  0.22582212053E+03  0.13966977038E+04  0.50400001928E-02 0.  1.
</event>
<event>
 5   0  0.5385714E-07  0.2112400E+04  0.7818609E-02  0.8555801E-01
       -1   -1    0    0    0  501  0.00000000000E+00  0.00000000000E+00  0.74525590805E+03  0.74525590806E+03  0.50400001928E-02 0. -1.
        1   -1    0    0  501    0  0.00000000000E+00  0.00000000000E+00 -0.14968801264E+04  0.14968801264E+04  0.50400001928E-02 0.  1.
    10030    2    1    2    0    0  0.00000000000E+00  0.00000000000E+00 -0.75162421837E+03  0.22421360345E+04  0.21124003010E+04 0.  0.
        3    1    3    3  502    0  0.39554754876E+03 -0.51941534176E+03  0.50542460441E+03  0.82565380247E+03  0.10100000352E+00 0. -1.
       -3    1    3    3    0  502 -0.39554754876E+03  0.51941534176E+03 -0.12570488228E+04  0.14164822320E+04  0.10100000352E+00 0.  1.
</event>
<event>
 5   0  0.3977376E-07  0.3892312E+04  0.7818609E-02  0.8026630E-01
       -1   -1    0    0    0  501  0.00000000000E+00  0.00000000000E+00  0.13286975609E+04  0.13286975609E+04  0.50400001928E-02 0. -1.
        1   -1    0    0  501    0  0.00000000000E+00  0.00000000000E+00 -0.28505537826E+04  0.28505537826E+04  0.50400001928E-02 0.  1.
    10030    2    1    2    0    0  0.00000000000E+00  0.00000000000E+00 -0.15218562217E+04  0.41792513435E+04  0.38923123503E+04 0.  0.
        4    1    3    3  502    0 -0.16604692256E+04  0.11854088331E+03 -0.18433694945E+04  0.24837919994E+04  0.12699999809E+01 0.  1.
       -4    1    3    3    0  502  0.16604692256E+04 -0.11854088331E+03  0.32151327279E+03  0.16954593441E+04  0.12699999809E+01 0. -1.
</event>
<event>
 5   0  0.1015219E-06  0.3810501E+04  0.7818609E-02  0.8043905E-01
       -2   -1    0    0    0  501  0.00000000000E+00  0.00000000000E+00  0.15541844136E+04  0.15541844136E+04  0.25500000920E-02 0. -1.
        2   -1    0    0  501    0  0.00000000000E+00  0.00000000000E+00 -0.23356166690E+04  0.23356166690E+04  0.25500000920E-02 0.  1.
    10030    2    1    2    0    0  0.00000000000E+00  0.00000000000E+00 -0.78143225541E+03  0.38898010826E+04  0.38105007666E+04 0.  0.
        3    1    3    3  502    0 -0.17858190757E+04 -0.50516600908E+03  0.49106002761E+02  0.18565435297E+04  0.10100000352E+00 0. -1.
       -3    1    3    3    0  502  0.17858190757E+04  0.50516600908E+03 -0.83053825817E+03  0.20332575529E+04  0.10100000352E+00 0.  1.
</event>
<event>
 5   0  0.5533705E-07  0.3126721E+04  0.7818609E-02  0.8208443E-01
       -2   -1    0    0    0  501  0.00000000000E+00  0.00000000000E+00  0.13732958539E+04  0.13732958539E+04  0.25500000920E-02 0. -1.
        2   -1    0    0  501    0  0.00000000000E+00  0.00000000000E+00 -0.17797304084E+04  0.17797304084E+04  0.25500000920E-02 0.  1.
    10030    2    1    2    0    0  0.00000000000E+00  0.00000000000E+00 -0.40643455449E+03  0.31530262623E+04  0.31267212161E+04 0.  0.
        1    1    3    3  502    0 -0.32730150724E+03  0.10844827701E+04  0.88328265724E+03  0.14364600266E+04  0.50400001928E-02 0. -1.
       -1    1    3    3    0  502  0.32730150724E+03 -0.10844827701E+04 -0.12897172117E+04  0.17165662357E+04  0.50400001928E-02 0.  1.
</event>
<event>
 5   0  0.5533705E-07  0.3635010E+04  0.7818609E-02  0.8082519E-01
       -2   -1    0    0    0  501  0.00000000000E+00  0.00000000000E+00  0.14594430523E+04  0.14594430523E+04  0.25500000920E-02 0.  1.
        2   -1    0    0  501    0  0.00000000000E+00  0.00000000000E+00 -0.22634140791E+04  0.22634140791E+04  0.25500000920E-02 0. -1.
    10030    2    1    2    0    0  0.00000000000E+00  0.00000000000E+00 -0.80397102681E+03  0.37228571314E+04  0.36350097398E+04 0.  0.
        1    1    3    3  502    0 -0.13492358915E+03  0.29225096322E+03 -0.22339878756E+04  0.22570593321E+04  0.50400001928E-02 0. -1.
       -1    1    3    3    0  502  0.13492358915E+03 -0.29225096322E+03  0.14300168488E+04  0.14657977992E+04  0.50400001928E-02 0.  1.
</event>
<event>
 5   0  0.1035864E-06  0.3823550E+04  0.7818609E-02  0.8041120E-01
        2   -1    0    0  501    0  0.00000000000E+00  0.00000000000E+00  0.22347657115E+04  0.22347657115E+04  0.25500000920E-02 0. -1.
       -2   -1    0    0    0  501  0.00000000000E+00  0.00000000000E+00 -0.16354664644E+04  0.16354664644E+04  0.25500000920E-02 0.  1.
    10030    2    1    2    0    0  0.00000000000E+00  0.00000000000E+00  0.59929924711E+03  0.38702321759E+04  0.38235503799E+04 0.  0.
        5    1    3    3  502    0  0.72416516090E+02 -0.14910193320E+04 -0.90928542257E+03  0.17479144344E+04  0.46999998093E+01 0.  1.
       -5    1    3    3    0  502 -0.72416516090E+02  0.14910193320E+04  0.15085846697E+04  0.21223177415E+04  0.46999998093E+01 0. -1.
</event>
<event>
 5   0  0.4627905E-07  0.3854366E+04  0.7818609E-02  0.8034588E-01
       -1   -1    0    0    0  501  0.00000000000E+00  0.00000000000E+00  0.16695169400E+04  0.16695169400E+04  0.50400001928E-02 0. -1.
        1   -1    0    0  501    0  0.00000000000E+00  0.00000000000E+00 -0.22246162379E+04  0.22246162379E+04  0.50400001928E-02 0.  1.
    10030    2    1    2    0    0  0.00000000000E+00  0.00000000000E+00 -0.55509929792E+03  0.38941331779E+04  0.38543660928E+04 0.  0.
        1    1    3    3  502    0  0.28232871195E+03 -0.12595538658E+04  0.11682456513E+04  0.17409719539E+04  0.50400001928E-02 0. -1.
       -1    1    3    3    0  502 -0.28232871195E+03  0.12595538658E+04 -0.17233449493E+04  0.21531612240E+04  0.50400001928E-02 0.  1.
</event>
<event>
 5   0  0.1015219E-06  0.2544053E+04  0.7818609E-02  0.8387457E-01
        2   -1    0    0  501    0  0.00000000000E+00  0.00000000000E+00  0.15781564296E+04  0.15781564296E+04  0.25500000920E-02 0. -1.
       -2   -1    0    0    0  501  0.00000000000E+00  0.00000000000E+00 -0.10252795886E+04  0.10252795886E+04  0.25500000920E-02 0.  1.
    10030    2    1    2    0    0  0.00000000000E+00  0.00000000000E+00  0.55287684097E+03  0.26034360182E+04  0.25440531243E+04 0.  0.
        3    1    3    3  502    0 -0.32282140678E+03 -0.11750571013E+04 -0.96876225300E+02  0.12224393095E+04  0.10100000352E+00 0.  1.
       -3    1    3    3    0  502  0.32282140678E+03  0.11750571013E+04  0.64975306627E+03  0.13809967087E+04  0.10100000352E+00 0. -1.
</event>
<event>
 5   0  0.3471602E-07  0.3779742E+04  0.7818609E-02  0.8050516E-01
       -1   -1    0    0    0  501  0.00000000000E+00  0.00000000000E+00  0.25279531521E+04  0.25279531521E+04  0.50400001928E-02 0.  1.
        1   -1    0    0  501    0  0.00000000000E+00  0.00000000000E+00 -0.14128477828E+04  0.14128477828E+04  0.50400001928E-02 0. -1.
    10030    2    1    2    0    0  0.00000000000E+00  0.00000000000E+00  0.11151053692E+04  0.39408009349E+04  0.37797423225E+04 0.  0.
        5    1    3    3  502    0 -0.14421040833E+04  0.55148451607E+03 -0.57874578310E+03  0.16488687425E+04  0.46999998093E+01 0. -1.
       -5    1    3    3    0  502  0.14421040833E+04 -0.55148451607E+03  0.16938511523E+04  0.22919321924E+04  0.46999998093E+01 0.  1.
</event>
<event>
 5   0  0.3977376E-07  0.3693037E+04  0.7818609E-02  0.8069507E-01
        1   -1    0    0  501    0  0.00000000000E+00  0.00000000000E+00  0.21131473729E+04  0.21131473729E+04  0.50400001928E-02 0.  1.
       -1   -1    0    0    0  501  0.00000000000E+00  0.00000000000E+00 -0.16135321483E+04  0.16135321483E+04  0.50400001928E-02 0. -1.
    10030    2    1    2    0    0  0.00000000000E+00  0.00000000000E+00  0.49961522461E+03  0.37266795211E+04  0.36930373516E+04 0.  0.
        4    1    3    3  502    0 -0.35195261593E+03  0.17600531311E+04  0.68731446258E+03  0.19219938740E+04  0.12699999809E+01 0.  1.
       -4    1    3    3    0  502  0.35195261593E+03 -0.17600531311E+04 -0.18769923797E+03  0.18046856472E+04  0.12699999809E+01 0. -1.
</event>
<event>
 5   0  0.1015219E-06  0.2419106E+04  0.7818609E-02  0.8432385E-01
       -2   -1    0    0    0  501  0.00000000000E+00  0.00000000000E+00  0.63567964236E+03  0.63567964237E+03  0.25500000920E-02 0. -1.
        2   -1    0    0  501    0  0.00000000000E+00  0.00000000000E+00 -0.23015026667E+04  0.23015026667E+04  0.25500000920E-02 0.  1.
    10030    2    1    2    0    0  0.00000000000E+00  0.00000000000E+00 -0.16658230244E+04  0.29371823091E+04  0.24191059440E+04 0.  0.
        3    1    3    3  502    0  0.13872107346E+02 -0.13530081918E+03  0.62636549583E+03  0.64096216082E+03  0.10100000352E+00 0. -1.
       -3    1    3    3    0  502 -0.13872107346E+02  0.13530081918E+03 -0.22921885202E+04  0.22962201483E+04  0.10100000352E+00 0.  1.
</event>
<event>
 5   0  0.3191750E-07  0.3961665E+04  0.7818609E-02  0.8012325E-01
        3   -1    0    0  501    0  0.00000000000E+00  0.00000000000E+00  0.21516462025E+04  0.21516462049E+04  0.10100000352E+00 0. -1.
       -3   -1    0    0    0  501  0.00000000000E+00  0.00000000000E+00 -0.18235791895E+04  0.18235791923E+04  0.10100000352E+00 0.  1.
    10030    2    1    2    0    0  0.00000000000E+00  0.00000000000E+00  0.32806701303E+03  0.39752253972E+04  0.39616649270E+04 0.  0.
        5    1    3    3  502    0 -0.13934090674E+04  0.25930343210E+02 -0.12484117535E+04  0.18710465543E+04  0.46999998093E+01 0.  1.
       -5    1    3    3    0  502  0.13934090674E+04 -0.25930343210E+02  0.15764787666E+04  0.21041788430E+04  0.46999998093E+01 0. -1.
</event>
<event>
 5   0  0.1015219E-06  0.3154682E+04  0.7818609E-02  0.8200889E-01
        2   -1    0    0  501    0  0.00000000000E+00  0.00000000000E+00  0.19005660071E+04  0.19005660071E+04  0.25500000920E-02 0. -1.
       -2   -1    0    0    0  501  0.00000000000E+00  0.00000000000E+00 -0.13090858642E+04  0.13090858642E+04  0.25500000920E-02 0.  1.
    10030    2    1    2    0    0  0.00000000000E+00  0.00000000000E+00  0.59148014284E+03  0.32096518713E+04  0.31546816600E+04 0.  0.
        3    1    3    3  502    0  0.40932555637E+03 -0.82400861473E+03  0.15992621688E+04  0.18450412198E+04  0.10100000352E+00 0. -1.
       -3    1    3    3    0  502 -0.40932555637E+03  0.82400861473E+03 -0.10077820259E+04  0.13646106515E+04  0.10100000352E+00 0.  1.
</event>
<event>
 5   0  0.7268013E-07  0.3767786E+04  0.7818609E-02  0.8053103E-01
       -2   -1    0    0    0  501  0.00000000000E+00  0.00000000000E+00  0.12965118913E+04  0.12965118913E+04  0.25500000920E-02 0.  1.
        2   -1    0    0  501    0  0.00000000000E+00  0.00000000000E+00 -0.27373856609E+04  0.27373856609E+04  0.25500000920E-02 0. -1.
    10030    2    1    2    0    0  0.00000000000E+00  0.00000000000E+00 -0.14408737696E+04  0.40338975522E+04  0.37677861195E+04 0.  0.
        4    1    3    3  502    0  0.18053441746E+04 -0.52309236662E+03 -0.85652981996E+03  0.20655600108E+04  0.12699999809E+01 0.  1.
       -4    1    3    3    0  502 -0.18053441746E+04  0.52309236662E+03 -0.58434394961E+03  0.19683375415E+04  0.12699999809E+01 0. -1.
</event>
<event>
 5   0  0.5533705E-07  0.3973895E+04  0.7818609E-02  0.8009833E-01
        2   -1    0    0  501    0  0.00000000000E+00  0.00000000000E+00  0.19461161446E+04  0.19461161446E+04  0.25500000920E-02 0.  1.
       -2   -1    0    0    0  501  0.00000000000E+00  0.00000000000E+00 -0.20286360334E+04  0.20286360334E+04  0.25500000920E-02 0. -1.
    10030    2    1    2    0    0  0.00000000000E+00  0.00000000000E+00 -0.82519888787E+02  0.39747521779E+04  0.39738954873E+04 0.  0.
        1    1    3    3  502    0  0.12992448683E+04 -0.32489592325E+03  0.14268326011E+04  0.19568969979E+04  0.50400001928E-02 0.  1.
       -1    1    3    3    0  502 -0.12992448683E+04  0.32489592325E+03 -0.15093524899E+04  0.20178551800E+04  0.50400001928E-02 0. -1.
</event>
<event>
 5   0  0.5533705E-07  0.3824372E+04  0.7818609E-02  0.8040945E-01
        2   -1    0    0  501    0  0.00000000000E+00  0.00000000000E+00  0.14362630379E+04  0.14362630379E+04  0.25500000920E-02 0.  1.
       -2   -1    0    0    0  501  0.00000000000E+00  0.00000000000E+00 -0.25458121831E+04  0.25458121831E+04  0.25500000920E-02 0. -1.
    10030    2    1    2    0    0  0.00000000000E+00  0.00000000000E+00 -0.11095491453E+04  0.39820752210E+04  0.38243723354E+04 0.  0.
        1    1    3    3  502    0  0.22162855633E+03 -0.18972503947E+04 -0.46294684410E+03  0.19654511080E+04  0.50400001928E-02 0.  1.
       -1    1    3    3    0  502 -0.22162855633E+03  0.18972503947E+04 -0.64660230118E+03  0.20166241130E+04  0.50400001928E-02 0. -1.
</event>
<event>
 5   0  0.1035864E-06  0.3829412E+04  0.7818609E-02  0.8039872E-01
        2   -1    0    0  501    0  0.00000000000E+00  0.00000000000E+00  0.21901087041E+04  0.21901087041E+04  0.25500000920E-02 0. -1.
       -2   -1    0    0    0  501  0.00000000000E+00  0.00000000000E+00 -0.16739350954E+04  0.16739350954E+04  0.25500000920E-02 0.  1.
    10030    2    1    2    0    0  0.00000000000E+00  0.00000000000E+00  0.51617360870E+03  0.38640437994E+04  0.38294123948E+04 0.  0.
        5    1    3    3  502    0 -0.47311140981E+03  0.13333012960E+04 -0.10437557164E+04  0.17581168441E+04  0.46999998093E+01 0.  1.
       -5    1    3    3    0  502  0.47311140981E+03 -0.13333012960E+04  0.15599293251E+04  0.21059269553E+04  0.46999998093E+01 0. -1.
</event>
<event>
 5   0  0.7268013E-07  0.3903600E+04  0.7818609E-02  0.8024281E-01
       -2   -1    0    0    0  501  0.00000000000E+00  0.00000000000E+00  0.24568286707E+04  0.24568286707E+04  0.25500000920E-02 0. -1.
        2   -1    0    0  501    0  0.00000000000E+00  0.00000000000E+00 -0.15505855646E+04  0.15505855646E+04  0.25500000920E-02 0.  1.
    10030    2    1    2    0    0  0.00000000000E+00  0.00000000000E+00  0.90624310607E+03  0.40074142353E+04  0.39035999136E+04 0.  0.
        4    1    3    3  502    0  0.13677715590E+04 -0.13568663981E+04  0.13234403491E+03  0.19311659733E+04  0.12699999809E+01 0.  1.
       -4    1    3    3    0  502 -0.13677715590E+04  0.13568663981E+04  0.77389907116E+03  0.20762482620E+04  0.12699999809E+01 0. -1.
</event>
<event>
 5   0  0.3471602E-07  0.4029327E+04  0.7818609E-02  0.7998656E-01
       -1   -1    0    0    0  501  0.00000000000E+00  0.00000000000E+00  0.19480118995E+04  0.19480118995E+04  0.50400001928E-02 0. -1.
        1   -1    0    0  501    0  0.00000000000E+00  0.00000000000E+00 -0.20835959102E+04  0.20835959102E+04  0.50400001928E-02 0.  1.
    10030    2    1    2    0    0  0.00000000000E+00  0.00000000000E+00 -0.13558401070E+03  0.40316078096E+04  0.40293273020E+04 0.  0.
        5    1    3    3  502    0  0.52445907555E+03  0.79130228955E+03  0.17101861181E+04  0.19560100419E+04  0.46999998093E+01 0. -1.
       -5    1    3    3    0  502 -0.52445907555E+03 -0.79130228955E+03 -0.18457701288E+04  0.20755977678E+04  0.46999998093E+01 0.  1.
</event>
<event>
 5   0  0.7896740E-07  0.1962544E+04  0.7818609E-02  0.8624335E-01
       -1   -1    0    0    0  501  0.00000000000E+00  0.00000000000E+00  0.58338976421E+03  0.58338976423E+03  0.50400001928E-02 0. -1.
        1   -1    0    0  501    0  0.00000000000E+00  0.00000000000E+00 -0.16505176615E+04  0.16505176615E+04  0.50400001928E-02 0.  1.
    10030    2    1    2    0    0  0.00000000000E+00  0.00000000000E+00 -0.10671278973E+04  0.22339074257E+04  0.19625443785E+04 0.  0.
        3    1    3    3  502    0 -0.72347244827E+03  0.18355963177E+03 -0.12586600909E+04  0.14633289980E+04  0.10100000352E+00 0.  1.
       -3    1    3    3    0  502  0.72347244827E+03 -0.18355963177E+03  0.19153219364E+03  0.77057842769E+03  0.10100000352E+00 0. -1.
</event>
<event>
 5   0  0.7268013E-07  0.3856405E+04  0.7818609E-02  0.8034158E-01
       -2   -1    0    0    0  501  0.00000000000E+00  0.00000000000E+00  0.19530514926E+04  0.19530514926E+04  0.25500000920E-02 0. -1.
        2   -1    0    0  501    0  0.00000000000E+00  0.00000000000E+00 -0.19036699771E+04  0.19036699771E+04  0.25500000920E-02 0.  1.
    10030    2    1    2    0    0  0.00000000000E+00  0.00000000000E+00  0.49381515464E+02  0.38567214697E+04  0.38564053159E+04 0.  0.
        4    1    3    3  502    0  0.82924017879E+03 -0.12671120567E+04 -0.11690367048E+04  0.19130762318E+04  0.12699999809E+01 0.  1.
       -4    1    3    3    0  502 -0.82924017879E+03  0.12671120567E+04  0.12184182203E+04  0.19436452379E+04  0.12699999809E+01 0. -1.
</event>
<event>
 5   0  0.4037642E-07  0.1932256E+04  0.7818609E-02  0.8638965E-01
        1   -1    0    0  501    0  0.00000000000E+00  0.00000000000E+00  0.11367776656E+04  0.11367776656E+04  0.50400001928E-02 0.  1.
       -1   -1    0    0    0  501  0.00000000000E+00  0.00000000000E+00 -0.82109539259E+03  0.82109539261E+03  0.50400001928E-02 0. -1.
    10030    2    1    2    0    0  0.00000000000E+00  0.00000000000E+00  0.31568227303E+03  0.19578730582E+04  0.19322555770E+04 0.  0.
        4    1    3    3  502    0  0.89786627502E+03  0.34991163064E+03  0.22803653186E+03  0.99025464899E+03  0.12699999809E+01 0. -1.
       -4    1    3    3    0  502 -0.89786627502E+03 -0.34991163064E+03  0.87645741171E+02  0.96761840925E+03  0.12699999809E+01 0.  1.
</event>
<event>
 5   0  0.5533705E-07  0.4044076E+04  0.7818609E-02  0.7995713E-01
       -2   -1    0    0    0  501  0.00000000000E+00  0.00000000000E+00  0.24630443487E+04  0.24630443487E+04  0.25500000920E-02 0.  1.
        2   -1    0    0  501    0  0.00000000000E+00  0.00000000000E+00 -0.16599939194E+04  0.16599939194E+04  0.25500000920E-02 0. -1.
    10030    2    1    2    0    0  0.00000000000E+00  0.00000000000E+00  0.80305042929E+03  0.41230382682E+04  0.40440764791E+04 0.  0.
        1    1    3    3  502    0  0.79749497685E+03  0.68880087866E+03 -0.13579148608E+04  0.17188303168E+04  0.50400001928E-02 0. -1.
       -1    1    3    3    0  502 -0.79749497685E+03 -0.68880087866E+03  0.21609652901E+04  0.24042079514E+04  0.50400001928E-02 0.  1.
</event>
<event>
 5   0  0.5533705E-07  0.2098507E+04  0.7818609E-02  0.8561901E-01
        2   -1    0    0  501    0  0.00000000000E+00  0.00000000000E+00  0.12273233930E+04  0.12273233930E+04  0.25500000920E-02 0.  1.
       -2   -1    0    0    0  501  0.00000000000E+00  0.00000000000E+00 -0.89701966116E+03  0.89701966117E+03  0.25500000920E-02 0. -1.
    10030    2    1    2    0    0  0.00000000000E+00  0.00000000000E+00  0.33030373184E+03  0.21243430542E+04  0.20985072925E+04 0.  0.
        1    1    3    3  502    0 -0.95515330720E+03 -0.42712743965E+03  0.85586989150E+02  0.10498003728E+04  0.50400001928E-02 0. -1.
       -1    1    3    3    0  502  0.95515330720E+03  0.42712743965E+03  0.24471674269E+03  0.10745426814E+04  0.50400001928E-02 0.  1.
</event>
<event>
 5   0  0.5533705E-07  0.2692780E+04  0.7818609E-02  0.8337351E-01
       -2   -1    0    0    0  501  0.00000000000E+00  0.00000000000E+00  0.13863488062E+04  0.13863488062E+04  0.25500000920E-02 0.  1.
        2   -1    0    0  501    0  0.00000000000E+00  0.00000000000E+00 -0.13075831802E+04  0.13075831802E+04  0.25500000920E-02 0. -1.
    10030    2    1    2    0    0  0.00000000000E+00  0.00000000000E+00  0.78765625970E+02  0.26939319864E+04  0.26927802591E+04 0.  0.
        1    1    3    3  502    0 -0.11314366916E+04 -0.72636522442E+03  0.11020118538E+03  0.13490365924E+04  0.50400001928E-02 0. -1.
       -1    1    3    3    0  502  0.11314366916E+04  0.72636522442E+03 -0.31435559413E+02  0.13448953940E+04  0.50400001928E-02 0.  1.
</event>
<event>
 5   0  0.1035864E-06  0.3547916E+04  0.7818609E-02  0.8102527E-01
        2   -1    0    0  501    0  0.00000000000E+00  0.00000000000E+00  0.19454757920E+04  0.19454757920E+04  0.25500000920E-02 0. -1.
       -2   -1    0    0    0  501  0.00000000000E+00  0.00000000000E+00 -0.16175619437E+04  0.16175619437E+04  0.25500000920E-02 0.  1.
    10030    2    1    2    0    0  0.00000000000E+00  0.00000000000E+00  0.32791384829E+03  0.35630377357E+04  0.35479163483E+04 0.  0.
        5    1    3    3  502    0 -0.12957909016E+04  0.35307582743E+03 -0.99993422662E+03  0.16744035201E+04  0.46999998093E+01 0.  1.
       -5    1    3    3    0  502  0.12957909016E+04 -0.35307582743E+03  0.13278480749E+04  0.18886342157E+04  0.46999998093E+01 0. -1.
</event>
<event>
 5   0  0.1015219E-06  0.3691332E+04  0.7818609E-02  0.8069886E-01
        2   -1    0    0  501    0  0.00000000000E+00  0.00000000000E+00  0.20314200003E+04  0.20314200003E+04  0.25500000920E-02 0. -1.
       -2   -1    0    0    0  501  0.00000000000E+00  0.00000000000E+00 -0.16768973191E+04  0.16768973191E+04  0.25500000920E-02 0.  1.
    10030    2    1    2    0    0  0.00000000000E+00  0.00000000000E+00  0.35452268125E+03  0.37083173194E+04  0.36913318748E+04 0.  0.
        3    1    3    3  502    0  0.55991853481E+03 -0.15638327160E+04  0.98557617843E+03  0.19314352029E+04  0.10100000352E+00 0. -1.
       -3    1    3    3    0  502 -0.55991853481E+03  0.15638327160E+04 -0.63105349718E+03  0.17768821165E+04  0.10100000352E+00 0.  1.
</event>
<event>
 5   0  0.1015219E-06  0.3887041E+04  0.7818609E-02  0.8027730E-01
       -2   -1    0    0    0  501  0.00000000000E+00  0.00000000000E+00  0.18347714924E+04  0.18347714924E+04  0.25500000920E-02 0. -1.
        2   -1    0    0  501    0  0.00000000000E+00  0.00000000000E+00 -0.20587151670E+04  0.20587151670E+04  0.25500000920E-02 0.  1.
    10030    2    1    2    0    0  0.00000000000E+00  0.00000000000E+00 -0.22394367461E+03  0.38934866594E+04  0.38870409822E+04 0.  0.
        3    1    3    3  502    0  0.52797307346E+03  0.11836325013E+04  0.13387151182E+04  0.18633034220E+04  0.10100000352E+00 0. -1.
       -3    1    3    3    0  502 -0.52797307346E+03 -0.11836325013E+04 -0.15626587928E+04  0.20301832374E+04  0.10100000352E+00 0.  1.
</event>
<event>
 5   0  0.7268013E-07  0.3821846E+04  0.7818609E-02  0.8041483E-01
       -2   -1    0    0    0  501  0.00000000000E+00  0.00000000000E+00  0.13733389014E+04  0.13733389014E+04  0.25500000920E-02 0.  1.
        2   -1    0    0  501    0  0.00000000000E+00  0.00000000000E+00 -0.26589408552E+04  0.26589408552E+04  0.25500000920E-02 0. -1.
    10030    2    1    2    0    0  0.00000000000E+00  0.00000000000E+00 -0.12856019538E+04  0.40322797565E+04  0.38218461051E+04 0.  0.
        4    1    3    3  502    0 -0.15198997568E+04 -0.10941066169E+04 -0.10438083684E+04  0.21439920902E+04  0.12699999809E+01 0.  1.
       -4    1    3    3    0  502  0.15198997568E+04  0.10941066169E+04 -0.24179358542E+03  0.18882876663E+04  0.12699999809E+01 0. -1.
</event>
<event>
 5   0  0.7268013E-07  0.3936602E+04  0.7818609E-02  0.8017459E-01
        2   -1    0    0  501    0  0.00000000000E+00  0.00000000000E+00  0.17397082622E+04  0.17397082622E+04  0.25500000920E-02 0. -1.
       -2   -1    0    0    0  501  0.00000000000E+00  0.00000000000E+00 -0.22269300204E+04  0.22269300204E+04  0.25500000920E-02 0.  1.
    10030    2    1    2    0    0  0.00000000000E+00  0.00000000000E+00 -0.48722175824E+03  0.39666382826E+04  0.39366018624E+04 0.  0.
        4    1    3    3  502    0 -0.13809679416E+04  0.63381768745E+02  0.11681925218E+04  0.18099074797E+04  0.12699999809E+01 0. -1.
       -4    1    3    3    0  502  0.13809679416E+04 -0.63381768745E+02 -0.16554142801E+04  0.21567308028E+04  0.12699999809E+01 0.  1.
</event>
<event>
 5   0  0.4316671E-07  0.3974039E+04  0.7818609E-02  0.8009804E-01
       -1   -1    0    0    0  501  0.00000000000E+00  0.00000000000E+00  0.18035557424E+04  0.18035557424E+04  0.50400001928E-02 0.  1.
        1   -1    0    0  501    0  0.00000000000E+00  0.00000000000E+00 -0.21891459667E+04  0.21891459667E+04  0.50400001928E-02 0. -1.
    10030    2    1    2    0    0  0.00000000000E+00  0.00000000000E+00 -0.38559022425E+03  0.39927017091E+04  0.39740391438E+04 0.  0.
        2    1    3    3  502    0 -0.22990557010E+02 -0.11739348696E+04  0.14177284236E+04  0.18408165380E+04  0.25500000920E-02 0. -1.
       -2    1    3    3    0  502  0.22990557010E+02  0.11739348696E+04 -0.18033186478E+04  0.21518851710E+04  0.25500000920E-02 0.  1.
</event>
<event>
 5   0  0.5533705E-07  0.2233135E+04  0.7818609E-02  0.8504762E-01
        2   -1    0    0  501    0  0.00000000000E+00  0.00000000000E+00  0.82537844413E+03  0.82537844413E+03  0.25500000920E-02 0. -1.
       -2   -1    0    0    0  501  0.00000000000E+00  0.00000000000E+00 -0.15104858275E+04  0.15104858275E+04  0.25500000920E-02 0.  1.
    10030    2    1    2    0    0  0.00000000000E+00  0.00000000000E+00 -0.68510738334E+03  0.23358642716E+04  0.22331345165E+04 0.  0.
        1    1    3    3  502    0  0.47760200429E+03  0.40592462388E+03 -0.13090984653E+04  0.14514190527E+04  0.50400001928E-02 0.  1.
       -1    1    3    3    0  502 -0.47760200429E+03 -0.40592462388E+03  0.62399108197E+03  0.88444521886E+03  0.50400001928E-02 0. -1.
</event>
<event>
 5   0  0.4316671E-07  0.3896361E+04  0.7818609E-02  0.8025786E-01
       -1   -1    0    0    0  501  0.00000000000E+00  0.00000000000E+00  0.18179947072E+04  0.18179947072E+04  0.50400001928E-02 0. -1.
        1   -1    0    0  501    0  0.00000000000E+00  0.00000000000E+00 -0.20876890029E+04  0.20876890029E+04  0.50400001928E-02 0.  1.
    10030    2    1    2    0    0  0.00000000000E+00  0.00000000000E+00 -0.26969429571E+03  0.39056837101E+04  0.38963611524E+04 0.  0.
        2    1    3    3  502    0  0.74079278673E+03  0.15539888421E+04 -0.10490337801E+04  0.20159680420E+04  0.25500000920E-02 0. -1.
       -2    1    3    3    0  502 -0.74079278673E+03 -0.15539888421E+04  0.77933948444E+03  0.18897156681E+04  0.25500000920E-02 0.  1.
</event>
<event>
 5   0  0.7268013E-07  0.3644188E+04  0.7818609E-02  0.8080444E-01
       -2   -1    0    0    0  501  0.00000000000E+00  0.00000000000E+00  0.11599193715E+04  0.11599193715E+04  0.25500000920E-02 0. -1.
        2   -1    0    0  501    0  0.00000000000E+00  0.00000000000E+00 -0.28622914752E+04  0.28622914752E+04  0.25500000920E-02 0.  1.
    10030    2    1    2    0    0  0.00000000000E+00  0.00000000000E+00 -0.17023721036E+04  0.40222108467E+04  0.36441884304E+04 0.  0.
        4    1    3    3  502    0 -0.16320153129E+04 -0.28630000337E+03 -0.14541883740E+02  0.16570017359E+04  0.12699999809E+01 0. -1.
       -4    1    3    3    0  502  0.16320153129E+04  0.28630000337E+03 -0.16878302199E+04  0.23652091108E+04  0.12699999809E+01 0.  1.
</event>
<event>
 5   0  0.1034683E-06  0.3908189E+04  0.7818609E-02  0.8023328E-01
        2   -1    0    0  501    0  0.00000000000E+00  0.00000000000E+00  0.25669384369E+04  0.25669384369E+04  0.25500000920E-02 0.  1.
       -2   -1    0    0    0  501  0.00000000000E+00  0.00000000000E+00 -0.14875637199E+04  0.14875637199E+04  0.25500000920E-02 0. -1.
    10030    2    1    2    0    0  0.00000000000E+00  0.00000000000E+00  0.10793747170E+04  0.40545021568E+04  0.39081885778E+04 0.  0.
        2    1    3    3  502    0  0.11592501242E+03  0.18156707027E+04  0.12793926445E+04  0.22241727109E+04  0.25500000920E-02 0.  1.
       -2    1    3    3    0  502 -0.11592501242E+03 -0.18156707027E+04 -0.20001792757E+03  0.18303294459E+04  0.25500000920E-02 0. -1.
</event>
<event>
 5   0  0.4393048E-07  0.1922274E+04  0.7818609E-02  0.8643848E-01
        1   -1    0    0  501    0  0.00000000000E+00  0.00000000000E+00  0.65704546482E+03  0.65704546484E+03  0.50400001928E-02 0.  1.
       -1   -1    0    0    0  501  0.00000000000E+00  0.00000000000E+00 -0.14059674280E+04  0.14059674280E+04  0.50400001928E-02 0. -1.
    10030    2    1    2    0    0  0.00000000000E+00  0.00000000000E+00 -0.74892196320E+03  0.20630128929E+04  0.19222741972E+04 0.  0.
        4    1    3    3  502    0 -0.34988812100E+03  0.43609194504E+02  0.58512705751E+03  0.68315352989E+03  0.12699999809E+01 0.  1.
       -4    1    3    3    0  502  0.34988812100E+03 -0.43609194504E+02 -0.13340490207E+04  0.13798593630E+04  0.12699999809E+01 0. -1.
</event>
<event>
 5   0  0.1091360E-06  0.1984564E+04  0.7818609E-02  0.8613872E-01
       -2   -1    0    0    0  501  0.00000000000E+00  0.00000000000E+00  0.77205744290E+03  0.77205744290E+03  0.25500000920E-02 0. -1.
        2   -1    0    0  501    0  0.00000000000E+00  0.00000000000E+00 -0.12753239075E+04  0.12753239075E+04  0.25500000920E-02 0.  1.
    10030    2    1    2    0    0  0.00000000000E+00  0.00000000000E+00 -0.50326646463E+03  0.20473813504E+04  0.19845637454E+04 0.  0.
        5    1    3    3  502    0  0.31580933280E+03  0.53531556075E+03  0.54635090513E+03  0.82753832890E+03  0.46999998093E+01 0. -1.
       -5    1    3    3    0  502 -0.31580933280E+03 -0.53531556075E+03 -0.10496173698E+04  0.12198430215E+04  0.46999998093E+01 0.  1.
</event>
<event>
 5   0  0.7268013E-07  0.3841447E+04  0.7818609E-02  0.8037319E-01
       -2   -1    0    0    0  501  0.00000000000E+00  0.00000000000E+00  0.16779495883E+04  0.16779495883E+04  0.25500000920E-02 0.  1.
        2   -1    0    0  501    0  0.00000000000E+00  0.00000000000E+00 -0.21986228612E+04  0.21986228612E+04  0.25500000920E-02 0. -1.
    10030    2    1    2    0    0  0.00000000000E+00  0.00000000000E+00 -0.52067327294E+03  0.38765724495E+04  0.38414467716E+04 0.  0.
        4    1    3    3  502    0  0.99333416281E+03  0.64055326976E+03  0.12674936676E+04  0.17330790694E+04  0.12699999809E+01 0.  1.
       -4    1    3    3    0  502 -0.99333416281E+03 -0.64055326976E+03 -0.17881669406E+04  0.21434933801E+04  0.12699999809E+01 0. -1.
</event>
<event>
 5   0  0.7268013E-07  0.2254919E+04  0.7818609E-02  0.8495911E-01
       -2   -1    0    0    0  501  0.00000000000E+00  0.00000000000E+00  0.13081947361E+04  0.13081947361E+04  0.25500000920E-02 0.  1.
        2   -1    0    0  501    0  0.00000000000E+00  0.00000000000E+00 -0.97169360078E+03  0.97169360078E+03  0.25500000920E-02 0. -1.
    10030    2    1    2    0    0  0.00000000000E+00  0.00000000000E+00  0.33650113532E+03  0.22798883369E+04  0.22549185827E+04 0.  0.
        4    1    3    3  502    0  0.31842958674E+03  0.10624903070E+04 -0.36175851160E+02  0.11097717600E+04  0.12699999809E+01 0. -1.
       -4    1    3    3    0  502 -0.31842958674E+03 -0.10624903070E+04  0.37267698648E+03  0.11701165768E+04  0.12699999809E+01 0.  1.
</event>
<event>
 5   0  0.4316671E-07  0.2133909E+04  0.7818609E-02  0.8546451E-01
       -1   -1    0    0    0  501  0.00000000000E+00  0.00000000000E+00  0.18615034772E+04  0.18615034772E+04  0.50400001928E-02 0.  1.
        1   -1    0    0  501    0  0.00000000000E+00  0.00000000000E+00 -0.61154454644E+03  0.61154454646E+03  0.50400001928E-02 0. -1.
    10030    2    1    2    0    0  0.00000000000E+00  0.00000000000E+00  0.12499589307E+04  0.24730480236E+04  0.21339093698E+04 0.  0.
        2    1    3    3  502    0  0.10547483903E+04  0.76864059498E+02  0.78883590363E+03  0.13193423867E+04  0.25500000920E-02 0.  1.
       -2    1    3    3    0  502 -0.10547483903E+04 -0.76864059498E+02  0.46112302708E+03  0.11537056369E+04  0.25500000920E-02 0. -1.
</event>
<event>
 5   0  0.1035864E-06  0.3883357E+04  0.7818609E-02  0.8028500E-01
       -2   -1    0    0    0  501  0.00000000000E+00  0.00000000000E+00  0.22198215463E+04  0.22198215463E+04  0.25500000920E-02 0.  1.
        2   -1    0    0  501    0  0.00000000000E+00  0.00000000000E+00 -0.16983865773E+04  0.16983865773E+04  0.25500000920E-02 0. -1.
    10030    2    1    2    0    0  0.00000000000E+00  0.00000000000E+00  0.52143496896E+03  0.39182081236E+04  0.38833568563E+04 0.  0.
        5    1    3    3  502    0  0.16375535124E+04  0.18718555757E+02 -0.79179390762E+03  0.18190358909E+04  0.46999998093E+01 0. -1.
       -5    1    3    3    0  502 -0.16375535124E+04 -0.18718555757E+02  0.13132288766E+04  0.20991722327E+04  0.46999998093E+01 0.  1.
</event>
<event>
 5   0  0.1015219E-06  0.2192685E+04  0.7818609E-02  0.8521479E-01
       -2   -1    0    0    0  501  0.00000000000E+00  0.00000000000E+00  0.12048312394E+04  0.12048312394E+04  0.25500000920E-02 0. -1.
        2   -1    0    0  501    0  0.00000000000E+00  0.00000000000E+00 -0.99762233545E+03  0.99762233545E+03  0.25500000920E-02 0.  1.
    10030    2    1    2    0    0  0.00000000000E+00  0.00000000000E+00  0.20720890396E+03  0.22024535749E+04  0.21926847059E+04 0.  0.
        3    1    3    3  502    0 -0.56654198690E+03 -0.14170259553E+03 -0.82838552429E+03  0.10135442938E+04  0.10100000352E+00 0.  1.
       -3    1    3    3    0  502  0.56654198690E+03  0.14170259553E+03  0.10355944283E+04  0.11889092810E+04  0.10100000352E+00 0. -1.
</event>
<event>
 5   0  0.1015219E-06  0.3955474E+04  0.7818609E-02  0.8013590E-01
       -2   -1    0    0    0  501  0.00000000000E+00  0.00000000000E+00  0.17751070356E+04  0.17751070356E+04  0.25500000920E-02 0.  1.
        2   -1    0    0  501    0  0.00000000000E+00  0.00000000000E+00 -0.22034972369E+04  0.22034972370E+04  0.25500000920E-02 0. -1.
    10030    2    1    2    0    0  0.00000000000E+00  0.00000000000E+00 -0.42839020132E+03  0.39786042726E+04  0.39554739025E+04 0.  0.
        3    1    3    3  502    0  0.16832153643E+04  0.13835789309E+03 -0.12493323847E+04  0.21007589787E+04  0.10100000352E+00 0. -1.
       -3    1    3    3    0  502 -0.16832153643E+04 -0.13835789309E+03  0.82094218335E+03  0.18778452939E+04  0.10100000352E+00 0.  1.
</event>
<event>
 5   0  0.3471602E-07  0.3272674E+04  0.7818609E-02  0.8169883E-01
        1   -1    0    0  501    0  0.00000000000E+00  0.00000000000E+00  0.18020421264E+04  0.18020421264E+04  0.50400001928E-02 0. -1.
       -1   -1    0    0    0  501  0.00000000000E+00  0.00000000000E+00 -0.14858695095E+04  0.14858695095E+04  0.50400001928E-02 0.  1.
    10030    2    1    2    0    0  0.00000000000E+00  0.00000000000E+00  0.31617261686E+03  0.32879116359E+04  0.32726744112E+04 0.  0.
        5    1    3    3  502    0 -0.18473346114E+02 -0.11913450962E+04 -0.96871173519E+03  0.15356005075E+04  0.46999998093E+01 0.  1.
       -5    1    3    3    0  502  0.18473346114E+02  0.11913450962E+04  0.12848843521E+04  0.17523111284E+04  0.46999998093E+01 0. -1.
</event>
<event>
 5   0  0.1034683E-06  0.3891298E+04  0.7818609E-02  0.8026841E-01
        2   -1    0    0  501    0  0.00000000000E+00  0.00000000000E+00  0.29225297078E+04  0.29225297078E+04  0.25500000920E-02 0.  1.
       -2   -1    0    0    0  501  0.00000000000E+00  0.00000000000E+00 -0.12952992029E+04  0.12952992029E+04  0.25500000920E-02 0. -1.
    10030    2    1    2    0    0  0.00000000000E+00  0.00000000000E+00  0.16272305049E+04  0.42178289108E+04  0.38912981901E+04 0.  0.
        2    1    3    3  502    0  0.82634119328E+03  0.78541721111E+03 -0.89533805907E+03  0.14496034641E+04  0.25500000920E-02 0. -1.
       -2    1    3    3    0  502 -0.82634119328E+03 -0.78541721111E+03  0.25225685640E+04  0.27682254466E+04  0.25500000920E-02 0.  1.
</event>
<event>
 5   0  0.3977376E-07  0.3992598E+04  0.7818609E-02  0.8006041E-01
        1   -1    0    0  501    0  0.00000000000E+00  0.00000000000E+00  0.18292325577E+04  0.18292325577E+04  0.50400001928E-02 0. -1.
       -1   -1    0    0    0  501  0.00000000000E+00  0.00000000000E+00 -0.21786241981E+04  0.21786241981E+04  0.50400001928E-02 0.  1.
    10030    2    1    2    0    0  0.00000000000E+00  0.00000000000E+00 -0.34939164038E+03  0.40078567558E+04  0.39925983089E+04 0.  0.
        4    1    3    3  502    0 -0.15790611521E+04  0.18500643772E+03  0.10372072505E+04  0.18982786934E+04  0.12699999809E+01 0. -1.
       -4    1    3    3    0  502  0.15790611521E+04 -0.18500643772E+03 -0.13865988909E+04  0.21095780624E+04  0.12699999809E+01 0.  1.
</event>
<event>
 5   0  0.5533705E-07  0.3380803E+04  0.7818609E-02  0.8142634E-01
        2   -1    0    0  501    0  0.00000000000E+00  0.00000000000E+00  0.15759222760E+04  0.15759222760E+04  0.25500000920E-02 0.  1.
       -2   -1    0    0    0  501  0.00000000000E+00  0.00000000000E+00 -0.18131970255E+04  0.18131970255E+04  0.25500000920E-02 0. -1.
    10030    2    1    2    0    0  0.00000000000E+00  0.00000000000E+00 -0.23727474952E+03  0.33891193016E+04  0.33808032083E+04 0.  0.
        1    1    3    3  502    0  0.13743042245E+03 -0.88028521174E+02  0.15680057613E+04  0.15764765171E+04  0.50400001928E-02 0.  1.
       -1    1    3    3    0  502 -0.13743042245E+03  0.88028521174E+02 -0.18052805108E+04  0.18126427845E+04  0.50400001928E-02 0. -1.
</event>
<event>
 5   0  0.1035864E-06  0.3930864E+04  0.7818609E-02  0.8018640E-01
        2   -1    0    0  501    0  0.00000000000E+00  0.00000000000E+00  0.24094503969E+04  0.24094503969E+04  0.25500000920E-02 0. -1.
       -2   -1    0    0    0  501  0.00000000000E+00  0.00000000000E+00 -0.16032384889E+04  0.16032384889E+04  0.25500000920E-02 0.  1.
    10030    2    1    2    0    0  0.00000000000E+00  0.00000000000E+00  0.80621190797E+03  0.40126888858E+04  0.39308643392E+04 0.  0.
        5    1    3    3  502    0  0.18960834036E+04  0.50281200680E+03  0.52791853965E+03  0.20314212419E+04  0.46999998093E+01 0.  1.
       -5    1    3    3    0  502 -0.18960834036E+04 -0.50281200680E+03  0.27829336832E+03  0.19812676438E+04  0.46999998093E+01 0. -1.
</event>
<event>
 5   0  0.1034683E-06  0.4239129E+04  0.7818609E-02  0.7957971E-01
        2   -1    0    0  501    0  0.00000000000E+00  0.00000000000E+00  0.19812944973E+04  0.19812944973E+04  0.25500000920E-02 0. -1.
       -2   -1    0    0    0  501  0.00000000000E+00  0.00000000000E+00 -0.22674835201E+04  0.22674835201E+04  0.25500000920E-02 0.  1.
    10030    2    1    2    0    0  0.00000000000E+00  0.00000000000E+00 -0.28618902284E+03  0.42487780174E+04  0.42391285053E+04 0.  0.
        2    1    3    3  502    0 -0.93916075781E+03 -0.11966821717E+04 -0.16224222297E+04  0.22240335071E+04  0.25500000920E-02 0.  1.
       -2    1    3    3    0  502  0.93916075781E+03  0.11966821717E+04  0.13362332068E+04  0.20247445104E+04  0.25500000920E-02 0. -1.
</event>
<event>
 5   0  0.4627905E-07  0.3903072E+04  0.7818609E-02  0.8024391E-01
        1   -1    0    0  501    0  0.00000000000E+00  0.00000000000E+00  0.18726278718E+04  0.18726278718E+04  0.50400001928E-02 0. -1.
       -1   -1    0    0    0  501  0.00000000000E+00  0.00000000000E+00 -0.20337695534E+04  0.20337695534E+04  0.50400001928E-02 0.  1.
    10030    2    1    2    0    0  0.00000000000E+00  0.00000000000E+00 -0.16114168166E+03  0.39063974252E+04  0.39030724054E+04 0.  0.
        1    1    3    3  502    0 -0.12501279088E+03 -0.19433289076E+04 -0.20850034493E+03  0.19584758959E+04  0.50400001928E-02 0. -1.
       -1    1    3    3    0  502  0.12501279088E+03  0.19433289076E+04  0.47358663273E+02  0.19479215293E+04  0.50400001928E-02 0.  1.
</event>
<event>
 5   0  0.1034683E-06  0.2480821E+04  0.7818609E-02  0.8409850E-01
       -2   -1    0    0    0  501  0.00000000000E+00  0.00000000000E+00  0.31744280730E+04  0.31744280730E+04  0.25500000920E-02 0. -1.
        2   -1    0    0  501    0  0.00000000000E+00  0.00000000000E+00 -0.48469154642E+03  0.48469154643E+03  0.25500000920E-02 0.  1.
    10030    2    1    2    0    0  0.00000000000E+00  0.00000000000E+00  0.26897365265E+04  0.36591196194E+04  0.24808211961E+04 0.  0.
        2    1    3    3  502    0 -0.11004695733E+04  0.32623423940E+03  0.65123343694E+03  0.13196844510E+04  0.25500000920E-02 0.  1.
       -2    1    3    3    0  502  0.11004695733E+04 -0.32623423940E+03  0.20385030896E+04  0.23394351684E+04  0.25500000920E-02 0. -1.
</event>
<event>
 5   0  0.3471602E-07  0.3375046E+04  0.7818609E-02  0.8144058E-01
        1   -1    0    0  501    0  0.00000000000E+00  0.00000000000E+00  0.24251661038E+04  0.24251661038E+04  0.50400001928E-02 0.  1.
       -1   -1    0    0    0  501  0.00000000000E+00  0.00000000000E+00 -0.11742424748E+04  0.11742424748E+04  0.50400001928E-02 0. -1.
    10030    2    1    2    0    0  0.00000000000E+00  0.00000000000E+00  0.12509236290E+04  0.35994085786E+04  0.33750455093E+04 0.  0.
        5    1    3    3  502    0  0.37485651487E+03  0.16438404498E+04  0.55018540731E+03  0.17735430369E+04  0.46999998093E+01 0. -1.
       -5    1    3    3    0  502 -0.37485651487E+03 -0.16438404498E+04  0.70073822168E+03  0.18258655417E+04  0.46999998093E+01 0.  1.
</event>
<event>
 5   0  0.4316671E-07  0.1940141E+04  0.7818609E-02  0.8635130E-01
       -1   -1    0    0    0  501  0.00000000000E+00  0.00000000000E+00  0.40550604641E+03  0.40550604644E+03  0.50400001928E-02 0. -1.
        1   -1    0    0  501    0  0.00000000000E+00  0.00000000000E+00 -0.23206468455E+04  0.23206468455E+04  0.50400001928E-02 0.  1.
    10030    2    1    2    0    0  0.00000000000E+00  0.00000000000E+00 -0.19151407991E+04  0.27261528920E+04  0.19401405387E+04 0.  0.
        2    1    3    3  502    0 -0.35408154567E+03 -0.76145722506E+03 -0.16399574838E+04  0.18424579765E+04  0.25500000920E-02 0.  1.
       -2    1    3    3    0  502  0.35408154567E+03  0.76145722506E+03 -0.27518331535E+03  0.88369491547E+03  0.25500000920E-02 0. -1.
</event>
<event>
 5   0  0.5533705E-07  0.3824635E+04  0.7818609E-02  0.8040889E-01
       -2   -1    0    0    0  501  0.00000000000E+00  0.00000000000E+00  0.25723786447E+04  0.25723786447E+04  0.25500000920E-02 0. -1.
        2   -1    0    0  501    0  0.00000000000E+00  0.00000000000E+00 -0.14216249206E+04  0.14216249206E+04  0.25500000920E-02 0.  1.
    10030    2    1    2    0    0  0.00000000000E+00  0.00000000000E+00  0.11507537241E+04  0.39940035653E+04  0.38246346683E+04 0.  0.
        1    1    3    3  502    0 -0.29387644561E+03  0.67953572239E+03 -0.12658896658E+04  0.14664954174E+04  0.50400001928E-02 0.  1.
       -1    1    3    3    0  502  0.29387644561E+03 -0.67953572239E+03  0.24166433899E+04  0.25275081478E+04  0.50400001928E-02 0. -1.
</event>
<event>
 5   0  0.4627905E-07  0.3961263E+04  0.7818609E-02  0.8012407E-01
        1   -1    0    0  501    0  0.00000000000E+00  0.00000000000E+00  0.17437954852E+04  0.17437954852E+04  0.50400001928E-02 0.  1.
       -1   -1    0    0    0  501  0.00000000000E+00  0.00000000000E+00 -0.22496338342E+04  0.22496338342E+04  0.50400001928E-02 0. -1.
    10030    2    1    2    0    0  0.00000000000E+00  0.00000000000E+00 -0.50583834898E+03  0.39934293194E+04  0.39612630932E+04 0.  0.
        1    1    3    3  502    0  0.12070215861E+04 -0.14435668895E+04  0.37025474892E+03  0.19177786768E+04  0.50400001928E-02 0.  1.
       -1    1    3    3    0  502 -0.12070215861E+04  0.14435668895E+04 -0.87609309790E+03  0.20756506426E+04  0.50400001928E-02 0. -1.
</event>
<event>
 5   0  0.1035864E-06  0.3916042E+04  0.7818609E-02  0.8021701E-01
        2   -1    0    0  501    0  0.00000000000E+00  0.00000000000E+00  0.22981917865E+04  0.22981917865E+04  0.25500000920E-02 0. -1.
       -2   -1    0    0    0  501  0.00000000000E+00  0.00000000000E+00 -0.16682008804E+04  0.16682008804E+04  0.25500000920E-02 0.  1.
    10030    2    1    2    0    0  0.00000000000E+00  0.00000000000E+00  0.62999090612E+03  0.39663926669E+04  0.39160416553E+04 0.  0.
        5    1    3    3  502    0 -0.25299880743E+03 -0.31775679285E+03  0.22550463646E+04  0.22913389039E+04  0.46999998093E+01 0. -1.
       -5    1    3    3    0  502  0.25299880743E+03  0.31775679285E+03 -0.16250554585E+04  0.16750537630E+04  0.46999998093E+01 0.  1.
</event>
<event>
 5   0  0.1035864E-06  0.3836490E+04  0.7818609E-02  0.8038369E-01
        2   -1    0    0  501    0  0.00000000000E+00  0.00000000000E+00  0.24356651489E+04  0.24356651489E+04  0.25500000920E-02 0.  1.
       -2   -1    0    0    0  501  0.00000000000E+00  0.00000000000E+00 -0.15107429095E+04  0.15107429095E+04  0.25500000920E-02 0. -1.
    10030    2    1    2    0    0  0.00000000000E+00  0.00000000000E+00  0.92492223938E+03  0.39464080584E+04  0.38364899862E+04 0.  0.
        5    1    3    3  502    0 -0.47040828037E+03  0.17141343492E+04  0.12043038883E+04  0.21470702044E+04  0.46999998093E+01 0.  1.
       -5    1    3    3    0  502  0.47040828037E+03 -0.17141343492E+04 -0.27938164887E+03  0.17993378540E+04  0.46999998093E+01 0. -1.
</event>
<event>
 5   0  0.7268013E-07  0.3925912E+04  0.7818609E-02  0.8019661E-01
        2   -1    0    0  501    0  0.00000000000E+00  0.00000000000E+00  0.13660547120E+04  0.13660547120E+04  0.25500000920E-02 0.  1.
       -2   -1    0    0    0  501  0.00000000000E+00  0.00000000000E+00 -0.28206751476E+04  0.28206751476E+04  0.25500000920E-02 0. -1.
    10030    2    1    2    0    0  0.00000000000E+00  0.00000000000E+00 -0.14546204356E+04  0.41867298596E+04  0.39259121622E+04 0.  0.
        4    1    3    3  502    0  0.83081613754E+03  0.16565758023E+04 -0.14173654126E+04  0.23331149069E+04  0.12699999809E+01 0. -1.
       -4    1    3    3    0  502 -0.83081613754E+03 -0.16565758023E+04 -0.37255022997E+02  0.18536149527E+04  0.12699999809E+01 0.  1.
</event>
<event>
 5   0  0.3977376E-07  0.3883231E+04  0.7818609E-02  0.8028526E-01
        1   -1    0    0  501    0  0.00000000000E+00  0.00000000000E+00  0.24486664504E+04  0.24486664504E+04  0.50400001928E-02 0.  1.
       -1   -1    0    0    0  501  0.00000000000E+00  0.00000000000E+00 -0.15395607784E+04  0.15395607784E+04  0.50400001928E-02 0. -1.
    10030    2    1    2    0    0  0.00000000000E+00  0.00000000000E+00  0.90910567207E+03  0.39882272288E+04  0.38832310394E+04 0.  0.
        4    1    3    3  502    0 -0.29215336927E+03 -0.67588630423E+03 -0.13906019156E+04  0.15735155506E+04  0.12699999809E+01 0. -1.
       -4    1    3    3    0  502  0.29215336927E+03  0.67588630423E+03  0.22997075876E+04  0.24147116782E+04  0.12699999809E+01 0.  1.
</event>
<event>
 5   0  0.3977376E-07  0.3252968E+04  0.7818609E-02  0.8174967E-01
       -1   -1    0    0    0  501  0.00000000000E+00  0.00000000000E+00  0.31165256808E+04  0.31165256808E+04  0.50400001928E-02 0.  1.
        1   -1    0    0  501    0  0.00000000000E+00  0.00000000000E+00 -0.84884590475E+03  0.84884590476E+03  0.50400001928E-02 0. -1.
    10030    2    1    2    0    0  0.00000000000E+00  0.00000000000E+00  0.22676797760E+04  0.39653715855E+04  0.32529679133E+04 0.  0.
        4    1    3    3  502    0  0.57204783939E+03  0.11725320833E+04 -0.50147390485E+02  0.13055981735E+04  0.12699999809E+01 0. -1.
       -4    1    3    3    0  502 -0.57204783939E+03 -0.11725320833E+04  0.23178271665E+04  0.26597734121E+04  0.12699999809E+01 0.  1.
</event>
<event>
 5   0  0.1015219E-06  0.3903518E+04  0.7818609E-02  0.8024298E-01
        2   -1    0    0  501    0  0.00000000000E+00  0.00000000000E+00  0.14447791230E+04  0.14447791230E+04  0.25500000920E-02 0. -1.
       -2   -1    0    0    0  501  0.00000000000E+00  0.00000000000E+00 -0.26366401263E+04  0.26366401263E+04  0.25500000920E-02 0.  1.
    10030    2    1    2    0    0  0.00000000000E+00  0.00000000000E+00 -0.11918610034E+04  0.40814192493E+04  0.39035177004E+04 0.  0.
        3    1    3    3  502    0 -0.10281028268E+04 -0.15536347994E+04  0.12470064337E+02  0.18630437529E+04  0.10100000352E+00 0. -1.
       -3    1    3    3    0  502  0.10281028268E+04  0.15536347994E+04 -0.12043310677E+04  0.22183754965E+04  0.10100000352E+00 0.  1.
</event>
<event>
 5   0  0.5533705E-07  0.3913250E+04  0.7818609E-02  0.8022279E-01
        2   -1    0    0  501    0  0.00000000000E+00  0.00000000000E+00  0.15420020758E+04  0.15420020758E+04  0.25500000920E-02 0. -1.
       -2   -1    0    0    0  501  0.00000000000E+00  0.00000000000E+00 -0.24827342277E+04  0.24827342277E+04  0.25500000920E-02 0.  1.
    10030    2    1    2    0    0  0.00000000000E+00  0.00000000000E+00 -0.94073215187E+03  0.40247363035E+04  0.39132499704E+04 0.  0.
        1    1    3    3  502    0  0.73782176393E+03 -0.14482765378E+04 -0.15906623165E+04  0.22742234917E+04  0.50400001928E-02 0.  1.
       -1    1    3    3    0  502 -0.73782176393E+03  0.14482765378E+04  0.64993016459E+03  0.17505128118E+04  0.50400001928E-02 0. -1.
</event>
<event>
 5   0  0.5533705E-07  0.2576750E+04  0.7818609E-02  0.8376142E-01
       -2   -1    0    0    0  501  0.00000000000E+00  0.00000000000E+00  0.11649279322E+04  0.11649279322E+04  0.25500000920E-02 0.  1.
        2   -1    0    0  501    0  0.00000000000E+00  0.00000000000E+00 -0.14249042254E+04  0.14249042254E+04  0.25500000920E-02 0. -1.
    10030    2    1    2    0    0  0.00000000000E+00  0.00000000000E+00 -0.25997629326E+03  0.25898321576E+04  0.25767504597E+04 0.  0.
        1    1    3    3  502    0 -0.73381099035E+03  0.44773392646E+03 -0.10945302108E+04  0.13917401413E+04  0.50400001928E-02 0. -1.
       -1    1    3    3    0  502  0.73381099035E+03 -0.44773392646E+03  0.83455391751E+03  0.11980920164E+04  0.50400001928E-02 0.  1.
</event>
<event>
 5   0  0.4627905E-07  0.3889991E+04  0.7818609E-02  0.8027114E-01
        1   -1    0    0  501    0  0.00000000000E+00  0.00000000000E+00  0.16909457530E+04  0.16909457530E+04  0.50400001928E-02 0.  1.
       -1   -1    0    0    0  501  0.00000000000E+00  0.00000000000E+00 -0.22372138115E+04  0.22372138115E+04  0.50400001928E-02 0. -1.
    10030    2    1    2    0    0  0.00000000000E+00  0.00000000000E+00 -0.54626805851E+03  0.39281595645E+04  0.38899908448E+04 0.  0.
        1    1    3    3  502    0  0.53639973654E+03 -0.16635999959E+04 -0.11345679555E+04  0.20838747730E+04  0.50400001928E-02 0. -1.
       -1    1    3    3    0  502 -0.53639973654E+03  0.16635999959E+04  0.58829989698E+03  0.18442847916E+04  0.50400001928E-02 0.  1.
</event>
<event>
 5   0  0.1015219E-06  0.2759685E+04  0.7818609E-02  0.8315895E-01
       -2   -1    0    0    0  501  0.00000000000E+00  0.00000000000E+00  0.10521699766E+04  0.10521699766E+04  0.25500000920E-02 0. -1.
        2   -1    0    0  501    0  0.00000000000E+00  0.00000000000E+00 -0.18095600724E+04  0.18095600725E+04  0.25500000920E-02 0.  1.
    10030    2    1    2    0    0  0.00000000000E+00  0.00000000000E+00 -0.75739009588E+03  0.28617300490E+04  0.27596846045E+04 0.  0.
        3    1    3    3  502    0 -0.11927396333E+04 -0.34769891955E+03 -0.10012635548E+04  0.15956350109E+04  0.10100000352E+00 0.  1.
       -3    1    3    3    0  502  0.11927396333E+04  0.34769891955E+03  0.24387345893E+03  0.12660950382E+04  0.10100000352E+00 0. -1.
</event>
<event>
 5   0  0.1034683E-06  0.2842935E+04  0.7818609E-02  0.8290062E-01
        2   -1    0    0  501    0  0.00000000000E+00  0.00000000000E+00  0.26610613560E+04  0.26610613560E+04  0.25500000920E-02 0.  1.
       -2   -1    0    0    0  501  0.00000000000E+00  0.00000000000E+00 -0.75930950158E+03  0.75930950159E+03  0.25500000920E-02 0. -1.
    10030    2    1    2    0    0  0.00000000000E+00  0.00000000000E+00  0.19017518544E+04  0.34203708576E+04  0.28429345205E+04 0.  0.
        2    1    3    3  502    0  0.65560903006E+02 -0.34811427988E+03 -0.70535527122E+03  0.78930845840E+03  0.25500000920E-02 0. -1.
       -2    1    3    3    0  502 -0.65560903006E+02  0.34811427988E+03  0.26071071257E+04  0.26310623992E+04  0.25500000920E-02 0.  1.
</event>
<event>
 5   0  0.3471602E-07  0.2100645E+04  0.7818609E-02  0.8560959E-01
       -1   -1    0    0    0  501  0.00000000000E+00  0.00000000000E+00  0.60072122335E+03  0.60072122337E+03  0.50400001928E-02 0.  1.
        1   -1    0    0  501    0  0.00000000000E+00  0.00000000000E+00 -0.18364218671E+04  0.18364218671E+04  0.50400001928E-02 0. -1.
    10030    2    1    2    0    0  0.00000000000E+00  0.00000000000E+00 -0.12357006437E+04  0.24371430905E+04  0.21006452253E+04 0.  0.
        5    1    3    3  502    0  0.45242184152E+03  0.37614700714E+03  0.39156872924E+03  0.70676746769E+03  0.46999998093E+01 0.  1.
       -5    1    3    3    0  502 -0.45242184152E+03 -0.37614700714E+03 -0.16272693730E+04  0.17303756228E+04  0.46999998093E+01 0. -1.
</event>
<event>
 5   0  0.5533705E-07  0.1991431E+04  0.7818609E-02  0.8610638E-01
       -2   -1    0    0    0  501  0.00000000000E+00  0.00000000000E+00  0.73316530192E+03  0.73316530192E+03  0.25500000920E-02 0. -1.
        2   -1    0    0  501    0  0.00000000000E+00  0.00000000000E+00 -0.13522857697E+04  0.13522857697E+04  0.25500000920E-02 0.  1.
    10030    2    1    2    0    0  0.00000000000E+00  0.00000000000E+00 -0.61912046776E+03  0.20854510716E+04  0.19914306462E+04 0.  0.
        1    1    3    3  502    0 -0.85919826416E+03  0.42838823304E+03 -0.58605382413E+03  0.11248098596E+04  0.50400001928E-02 0. -1.
       -1    1    3    3    0  502  0.85919826416E+03 -0.42838823304E+03 -0.33066643636E+02  0.96064121205E+03  0.50400001928E-02 0.  1.
</event>
<event>
 5   0  0.7268013E-07  0.3408211E+04  0.7818609E-02  0.8135894E-01
       -2   -1    0    0    0  501  0.00000000000E+00  0.00000000000E+00  0.16894687125E+04  0.16894687125E+04  0.25500000920E-02 0.  1.
        2   -1    0    0  501    0  0.00000000000E+00  0.00000000000E+00 -0.17188693006E+04  0.17188693006E+04  0.25500000920E-02 0. -1.
    10030    2    1    2    0    0  0.00000000000E+00  0.00000000000E+00 -0.29400588156E+02  0.34083380131E+04  0.34082112049E+04 0.  0.
        4    1    3    3  502    0  0.19453554637E+03 -0.26542206121E+03  0.16573910258E+04  0.16897454171E+04  0.12699999809E+01 0.  1.
       -4    1    3    3    0  502 -0.19453554637E+03  0.26542206121E+03 -0.16867916139E+04  0.17185925960E+04  0.12699999809E+01 0. -1.
</event>
<event>
 5   0  0.5533705E-07  0.3624042E+04  0.7818609E-02  0.8085007E-01
       -2   -1    0    0    0  501  0.00000000000E+00  0.00000000000E+00  0.17269556329E+04  0.17269556329E+04  0.25500000920E-02 0.  1.
        2   -1    0    0  501    0  0.00000000000E+00  0.00000000000E+00 -0.19012767672E+04  0.19012767672E+04  0.25500000920E-02 0. -1.
    10030    2    1    2    0    0  0.00000000000E+00  0.00000000000E+00 -0.17432113430E+03  0.36282324001E+04  0.36240422861E+04 0.  0.
        1    1    3    3  502    0 -0.19221354372E+03  0.33391013813E+01 -0.18910383019E+04  0.19007848525E+04  0.50400001928E-02 0. -1.
       -1    1    3    3    0  502  0.19221354372E+03 -0.33391013813E+01  0.17167171676E+04  0.17274475476E+04  0.50400001928E-02 0.  1.
</event>
<event>
 5   0  0.1034683E-06  0.3783361E+04  0.7818609E-02  0.8049735E-01
       -2   -1    0    0    0  501  0.00000000000E+00  0.00000000000E+00  0.12519021302E+04  0.12519021302E+04  0.25500000920E-02 0. -1.
        2   -1    0    0  501    0  0.00000000000E+00  0.00000000000E+00 -0.28584146239E+04  0.28584146239E+04  0.25500000920E-02 0.  1.
    10030    2    1    2    0    0  0.00000000000E+00  0.00000000000E+00 -0.16065124937E+04  0.41103167541E+04  0.37833611283E+04 0.  0.
        2    1    3    3  502    0 -0.14067620850E+03  0.13152436285E+04  0.66594257617E+03  0.14809237363E+04  0.25500000920E-02 0. -1.
       -2    1    3    3    0  502  0.14067620850E+03 -0.13152436285E+04 -0.22724550698E+04  0.26293930179E+04  0.25500000920E-02 0.  1.
</event>
<event>
 5   0  0.1035864E-06  0.3883171E+04  0.7818609E-02  0.8028539E-01
       -2   -1    0    0    0  501  0.00000000000E+00  0.00000000000E+00  0.16449182466E+04  0.16449182466E+04  0.25500000920E-02 0. -1.
        2   -1    0    0  501    0  0.00000000000E+00  0.00000000000E+00 -0.22917572899E+04  0.22917572899E+04  0.25500000920E-02 0.  1.
    10030    2    1    2    0    0  0.00000000000E+00  0.00000000000E+00 -0.64683904336E+03  0.39366755365E+04  0.38831705514E+04 0.  0.
        5    1    3    3  502    0  0.20829086891E+03  0.92406954394E+03  0.13947609008E+04  0.16860218470E+04  0.46999998093E+01 0. -1.
       -5    1    3    3    0  502 -0.20829086891E+03 -0.92406954394E+03 -0.20415999442E+04  0.22506536895E+04  0.46999998093E+01 0.  1.
</event>
<event>
 5   0  0.1035864E-06  0.3114033E+04  0.7818609E-02  0.8211897E-01
        2   -1    0    0  501    0  0.00000000000E+00  0.00000000000E+00  0.15283520456E+04  0.15283520456E+04  0.25500000920E-02 0.  1.
       -2   -1    0    0    0  501  0.00000000000E+00  0.00000000000E+00 -0.15862185989E+04  0.15862185989E+04  0.25500000920E-02 0. -1.
    10030    2    1    2    0    0  0.00000000000E+00  0.00000000000E+00 -0.57866553213E+02  0.31145706445E+04  0.31140330380E+04 0.  0.
        5    1    3    3  502    0 -0.30400583706E+03 -0.71814238280E+03 -0.13768047270E+04  0.15823278350E+04  0.46999998093E+01 0. -1.
       -5    1    3    3    0  502  0.30400583706E+03  0.71814238280E+03  0.13189381738E+04  0.15322428095E+04  0.46999998093E+01 0.  1.
</event>
<event>
 5   0  0.5533705E-07  0.3914804E+04  0.7818609E-02  0.8021957E-01
        2   -1    0    0  501    0  0.00000000000E+00  0.00000000000E+00  0.21576434257E+04  0.21576434257E+04  0.25500000920E-02 0. -1.
       -2   -1    0    0    0  501  0.00000000000E+00  0.00000000000E+00 -0.17757441776E+04  0.17757441776E+04  0.25500000920E-02 0.  1.
    10030    2    1    2    0    0  0.00000000000E+00  0.00000000000E+00  0.38189924807E+03  0.39333876033E+04  0.39148040822E+04 0.  0.
        1    1    3    3  502    0 -0.11645080546E+04  0.14049638777E+04 -0.52052209886E+03  0.18976158100E+04  0.50400001928E-02 0.  1.
       -1    1    3    3    0  502  0.11645080546E+04 -0.14049638777E+04  0.90242134693E+03  0.20357717933E+04  0.50400001928E-02 0. -1.
</event>
<event>
 5   0  0.4627905E-07  0.2193990E+04  0.7818609E-02  0.8520934E-01
        1   -1    0    0  501    0  0.00000000000E+00  0.00000000000E+00  0.16989884810E+04  0.16989884810E+04  0.50400001928E-02 0. -1.
       -1   -1    0    0    0  501  0.00000000000E+00  0.00000000000E+00 -0.70830283035E+03  0.70830283036E+03  0.50400001928E-02 0.  1.
    10030    2    1    2    0    0  0.00000000000E+00  0.00000000000E+00  0.99068565065E+03  0.24072913114E+04  0.21939902915E+04 0.  0.
        1    1    3    3  502    0  0.59690861298E+03  0.23433227518E+03  0.14719226756E+04  0.16055428585E+04  0.50400001928E-02 0. -1.
       -1    1    3    3    0  502 -0.59690861298E+03 -0.23433227518E+03 -0.48123702497E+03  0.80174845287E+03  0.50400001928E-02 0.  1.
</event>
<event>
 5   0  0.3471602E-07  0.4057361E+04  0.7818609E-02  0.7993074E-01
       -1   -1    0    0    0  501  0.00000000000E+00  0.00000000000E+00  0.18372991943E+04  0.18372991943E+04  0.50400001928E-02 0. -1.
        1   -1    0    0  501    0  0.00000000000E+00  0.00000000000E+00 -0.22399966785E+04  0.22399966785E+04  0.50400001928E-02 0.  1.
    10030    2    1    2    0    0  0.00000000000E+00  0.00000000000E+00 -0.40269748418E+03  0.40772958729E+04  0.40573607642E+04 0.  0.
        5    1    3    3  502    0 -0.14796873346E+04  0.60620696462E+03 -0.14559058536E+04  0.21625553026E+04  0.46999998093E+01 0.  1.
       -5    1    3    3    0  502  0.14796873346E+04 -0.60620696462E+03  0.10532083694E+04  0.19147405703E+04  0.46999998093E+01 0. -1.
</event>
<event>
 5   0  0.5533705E-07  0.2499020E+04  0.7818609E-02  0.8403335E-01
       -2   -1    0    0    0  501  0.00000000000E+00  0.00000000000E+00  0.19983194342E+04  0.19983194342E+04  0.25500000920E-02 0. -1.
        2   -1    0    0  501    0  0.00000000000E+00  0.00000000000E+00 -0.78129391816E+03  0.78129391817E+03  0.25500000920E-02 0.  1.
    10030    2    1    2    0    0  0.00000000000E+00  0.00000000000E+00  0.12170255160E+04  0.27796133523E+04  0.24990196642E+04 0.  0.
        1    1    3    3  502    0  0.92788422985E+03  0.83214703538E+03  0.70697944032E+03  0.14329193144E+04  0.50400001928E-02 0.  1.
       -1    1    3    3    0  502 -0.92788422985E+03 -0.83214703538E+03  0.51004607569E+03  0.13466940380E+04  0.50400001928E-02 0. -1.
</event>
<event>
 5   0  0.4316671E-07  0.3904884E+04  0.7818609E-02  0.8024014E-01
        1   -1    0    0  501    0  0.00000000000E+00  0.00000000000E+00  0.27955209420E+04  0.27955209420E+04  0.50400001928E-02 0.  1.
       -1   -1    0    0    0  501  0.00000000000E+00  0.00000000000E+00 -0.13636203731E+04  0.13636203731E+04  0.50400001928E-02 0. -1.
    10030    2    1    2    0    0  0.00000000000E+00  0.00000000000E+00  0.14319005689E+04  0.41591413151E+04  0.39048837677E+04 0.  0.
        2    1    3    3  502    0 -0.10576965083E+04 -0.57307076768E+03  0.23539043120E+04  0.26434820821E+04  0.25500000920E-02 0.  1.
       -2    1    3    3    0  502  0.10576965083E+04  0.57307076768E+03 -0.92200374305E+03  0.15156592330E+04  0.25500000920E-02 0. -1.
</event>
<event>
 5   0  0.1034683E-06  0.3871677E+04  0.7818609E-02  0.8030946E-01
       -2   -1    0    0    0  501  0.00000000000E+00  0.00000000000E+00  0.22134580214E+04  0.22134580214E+04  0.25500000920E-02 0.  1.
        2   -1    0    0  501    0  0.00000000000E+00  0.00000000000E+00 -0.16930390489E+04  0.16930390489E+04  0.25500000920E-02 0. -1.
    10030    2    1    2    0    0  0.00000000000E+00  0.00000000000E+00  0.52041897246E+03  0.39064970703E+04  0.38716770853E+04 0.  0.
        2    1    3    3  502    0 -0.12132221814E+04  0.11549959464E+04 -0.71885075590E+03  0.18228192743E+04  0.25500000920E-02 0. -1.
       -2    1    3    3    0  502  0.12132221814E+04 -0.11549959464E+04  0.12392697284E+04  0.20836777959E+04  0.25500000920E-02 0.  1.
</event>
<event>
 5   0  0.3977376E-07  0.2030810E+04  0.7818609E-02  0.8592350E-01
        1   -1    0    0  501    0  0.00000000000E+00  0.00000000000E+00  0.21083682130E+04  0.21083682130E+04  0.50400001928E-02 0.  1.
       -1   -1    0    0    0  501  0.00000000000E+00  0.00000000000E+00 -0.48902602570E+03  0.48902602573E+03  0.50400001928E-02 0. -1.
    10030    2    1    2    0    0  0.00000000000E+00  0.00000000000E+00  0.16193421873E+04  0.25973942387E+04  0.20308096198E+04 0.  0.
        4    1    3    3  502    0 -0.36122313882E+03 -0.60836778041E+02  0.20209146610E+04  0.20538454055E+04  0.12699999809E+01 0.  1.
       -4    1    3    3    0  502  0.36122313882E+03  0.60836778041E+02 -0.40157247372E+03  0.54354883325E+03  0.12699999809E+01 0. -1.
</event>
<event>
 5   0  0.3977376E-07  0.3785312E+04  0.7818609E-02  0.8049314E-01
       -1   -1    0    0    0  501  0.00000000000E+00  0.00000000000E+00  0.25314250508E+04  0.25314250508E+04  0.50400001928E-02 0. -1.
        1   -1    0    0  501    0  0.00000000000E+00  0.00000000000E+00 -0.14150709946E+04  0.14150709946E+04  0.50400001928E-02 0.  1.
    10030    2    1    2    0    0  0.00000000000E+00  0.00000000000E+00  0.11163540562E+04  0.39464960454E+04  0.37853116988E+04 0.  0.
        4    1    3    3  502    0 -0.18493928563E+04 -0.24617583090E+03  0.22636724755E+03  0.18793882569E+04  0.12699999809E+01 0. -1.
       -4    1    3    3    0  502  0.18493928563E+04  0.24617583090E+03  0.88998680865E+03  0.20671077884E+04  0.12699999809E+01 0.  1.
</event>
<event>
 5   0  0.1573204E-06  0.2126752E+04  0.7818609E-02  0.8549550E-01
        2   -1    0    0  501    0  0.00000000000E+00  0.00000000000E+00  0.15473402141E+04  0.15473402141E+04  0.25500000920E-02 0. -1.
       -2   -1    0    0    0  501  0.00000000000E+00  0.00000000000E+00 -0.73078199962E+03  0.73078199962E+03  0.25500000920E-02 0.  1.
    10030    2    1    2    0    0  0.00000000000E+00  0.00000000000E+00  0.81655821450E+03  0.22781222137E+04  0.21267518668E+04 0.  0.
        3    1    3    3  502    0  0.64737143855E+03 -0.13954638436E+03  0.12994842528E+04  0.14585000193E+04  0.10100000352E+00 0. -1.
       -3    1    3    3    0  502 -0.64737143855E+03  0.13954638436E+03 -0.48292603835E+03  0.81962219440E+03  0.10100000352E+00 0.  1.
</event>
<event>
 5   0  0.5385714E-07  0.3632928E+04  0.7818609E-02  0.8082991E-01
       -1   -1    0    0    0  501  0.00000000000E+00  0.00000000000E+00  0.14418949249E+04  0.14418949250E+04  0.50400001928E-02 0. -1.
        1   -1    0    0  501    0  0.00000000000E+00  0.00000000000E+00 -0.22883364680E+04  0.22883364680E+04  0.50400001928E-02 0.  1.
    10030    2    1    2    0    0  0.00000000000E+00  0.00000000000E+00 -0.84644154308E+03  0.37302313930E+04  0.36329276017E+04 0.  0.
        3    1    3    3  502    0  0.85985344460E+03  0.43437829067E+03  0.11579957831E+04  0.15063156009E+04  0.10100000352E+00 0. -1.
       -3    1    3    3    0  502 -0.85985344460E+03 -0.43437829067E+03 -0.20044373262E+04  0.22239157921E+04  0.10100000352E+00 0.  1.
</event>
<event>
 5   0  0.3471602E-07  0.3818686E+04  0.7818609E-02  0.8042157E-01
       -1   -1    0    0    0  501  0.00000000000E+00  0.00000000000E+00  0.16400605289E+04  0.16400605289E+04  0.50400001928E-02 0. -1.
        1   -1    0    0  501    0  0.00000000000E+00  0.00000000000E+00 -0.22228395722E+04  0.22228395723E+04  0.50400001928E-02 0.  1.
    10030    2    1    2    0    0  0.00000000000E+00  0.00000000000E+00 -0.58277904335E+03  0.38629001012E+04  0.38186863943E+04 0.  0.
        5    1    3    3  502    0 -0.39704589115E+03 -0.12370064924E+04 -0.17067819336E+04  0.21449841866E+04  0.46999998093E+01 0.  1.
       -5    1    3    3    0  502  0.39704589115E+03  0.12370064924E+04  0.11240028903E+04  0.17179159145E+04  0.46999998093E+01 0. -1.
</event>
<event>
 5   0  0.1034683E-06  0.3842994E+04  0.7818609E-02  0.8036991E-01
       -2   -1    0    0    0  501  0.00000000000E+00  0.00000000000E+00  0.16784219004E+04  0.16784219004E+04  0.25500000920E-02 0. -1.
        2   -1    0    0  501    0  0.00000000000E+00  0.00000000000E+00 -0.21997751014E+04  0.21997751014E+04  0.25500000920E-02 0.  1.
    10030    2    1    2    0    0  0.00000000000E+00  0.00000000000E+00 -0.52135320098E+03  0.38781970019E+04  0.38429939923E+04 0.  0.
        2    1    3    3  502    0  0.79326888954E+03 -0.17998099880E+03  0.14960978886E+04  0.17029320548E+04  0.25500000920E-02 0. -1.
       -2    1    3    3    0  502 -0.79326888954E+03  0.17998099880E+03 -0.20174510896E+04  0.21752649471E+04  0.25500000920E-02 0.  1.
</event>
<event>
 5   0  0.7268013E-07  0.2808975E+04  0.7818609E-02  0.8300487E-01
        2   -1    0    0  501    0  0.00000000000E+00  0.00000000000E+00  0.14574551596E+04  0.14574551596E+04  0.25500000920E-02 0.  1.
       -2   -1    0    0    0  501  0.00000000000E+00  0.00000000000E+00 -0.13534448884E+04  0.13534448884E+04  0.25500000920E-02 0. -1.
    10030    2    1    2    0    0  0.00000000000E+00  0.00000000000E+00  0.10401027119E+03  0.28109000480E+04  0.28089750699E+04 0.  0.
        4    1    3    3  502    0 -0.69583437306E+03  0.55759451250E+03 -0.10338589965E+04  0.13652703588E+04  0.12699999809E+01 0. -1.
       -4    1    3    3    0  502  0.69583437306E+03 -0.55759451250E+03  0.11378692677E+04  0.14456296892E+04  0.12699999809E+01 0.  1.
</event>
<event>
 5   0  0.5385714E-07  0.2733332E+04  0.7818609E-02  0.8324270E-01
       -1   -1    0    0    0  501  0.00000000000E+00  0.00000000000E+00  0.79341314318E+03  0.79341314319E+03  0.50400001928E-02 0. -1.
        1   -1    0    0  501    0  0.00000000000E+00  0.00000000000E+00 -0.23541020365E+04  0.23541020365E+04  0.50400001928E-02 0.  1.
    10030    2    1    2    0    0  0.00000000000E+00  0.00000000000E+00 -0.15606888934E+04  0.31475151797E+04  0.27333316639E+04 0.  0.
        3    1    3    3  502    0 -0.92644594327E+03 -0.96587638872E+03 -0.10989590597E+04  0.17317419869E+04  0.10100000352E+00 0. -1.
       -3    1    3    3    0  502  0.92644594327E+03  0.96587638872E+03 -0.46172983369E+03  0.14157731929E+04  0.10100000352E+00 0.  1.
</event>
<event>
 5   0  0.1034683E-06  0.3925885E+04  0.7818609E-02  0.8019667E-01
        2   -1    0    0  501    0  0.00000000000E+00  0.00000000000E+00  0.12488576321E+04  0.12488576321E+04  0.25500000920E-02 0.  1.
       -2   -1    0    0    0  501  0.00000000000E+00  0.00000000000E+00 -0.30853338735E+04  0.30853338735E+04  0.25500000920E-02 0. -1.
    10030    2    1    2    0    0  0.00000000000E+00  0.00000000000E+00 -0.18364762415E+04  0.43341915056E+04  0.39258847438E+04 0.  0.
        2    1    3    3  502    0 -0.13891370988E+04  0.11272579404E+04 -0.26294353424E+02  0.17891628591E+04  0.25500000920E-02 0.  1.
       -2    1    3    3    0  502  0.13891370988E+04 -0.11272579404E+04 -0.18101818880E+04  0.25450286465E+04  0.25500000920E-02 0. -1.
</event>
<event>
 5   0  0.7268013E-07  0.3263778E+04  0.7818609E-02  0.8172174E-01
       -2   -1    0    0    0  501  0.00000000000E+00  0.00000000000E+00  0.13861941326E+04  0.13861941326E+04  0.25500000920E-02 0.  1.
        2   -1    0    0  501    0  0.00000000000E+00  0.00000000000E+00 -0.19211323294E+04  0.19211323294E+04  0.25500000920E-02 0. -1.
    10030    2    1    2    0    0  0.00000000000E+00  0.00000000000E+00 -0.53493819674E+03  0.33073264620E+04  0.32637784011E+04 0.  0.
        4    1    3    3  502    0 -0.14520120689E+04 -0.53923176483E+03 -0.78808556159E+03  0.17378695031E+04  0.12699999809E+01 0. -1.
       -4    1    3    3    0  502  0.14520120689E+04  0.53923176483E+03  0.25314736485E+03  0.15694569589E+04  0.12699999809E+01 0.  1.
</event>
<event>
 5   0  0.5533705E-07  0.3688747E+04  0.7818609E-02  0.8070460E-01
       -2   -1    0    0    0  501  0.00000000000E+00  0.00000000000E+00  0.17120749781E+04  0.17120749781E+04  0.25500000920E-02 0.  1.
        2   -1    0    0  501    0  0.00000000000E+00  0.00000000000E+00 -0.19868948917E+04  0.19868948917E+04  0.25500000920E-02 0. -1.
    10030    2    1    2    0    0  0.00000000000E+00  0.00000000000E+00 -0.27481991358E+03  0.36989698697E+04  0.36887466858E+04 0.  0.
        1    1    3    3  502    0  0.12622445722E+04  0.11925963908E+04 -0.76055437103E+03  0.18957822825E+04  0.50400001928E-02 0.  1.
       -1    1    3    3    0  502 -0.12622445722E+04 -0.11925963908E+04  0.48573445745E+03  0.18031875872E+04  0.50400001928E-02 0. -1.
</event>
<event>
 5   0  0.3471602E-07  0.2238302E+04  0.7818609E-02  0.8502653E-01
        1   -1    0    0  501    0  0.00000000000E+00  0.00000000000E+00  0.91221280980E+03  0.91221280981E+03  0.50400001928E-02 0.  1.
       -1   -1    0    0    0  501  0.00000000000E+00  0.00000000000E+00 -0.13730331629E+04  0.13730331629E+04  0.50400001928E-02 0. -1.
    10030    2    1    2    0    0  0.00000000000E+00  0.00000000000E+00 -0.46082035307E+03  0.22852459727E+04  0.22383015342E+04 0.  0.
        5    1    3    3  502    0  0.36001712713E+03  0.10497857418E+04 -0.37770627269E+03  0.11723252765E+04  0.46999998093E+01 0.  1.
       -5    1    3    3    0  502 -0.36001712713E+03 -0.10497857418E+04 -0.83114080380E+02  0.11129206962E+04  0.46999998093E+01 0. -1.
</event>
<event>
 5   0  0.1034683E-06  0.3632312E+04  0.7818609E-02  0.8083130E-01
       -2   -1    0    0    0  501  0.00000000000E+00  0.00000000000E+00  0.17067902995E+04  0.17067902995E+04  0.25500000920E-02 0. -1.
        2   -1    0    0  501    0  0.00000000000E+00  0.00000000000E+00 -0.19325292095E+04  0.19325292095E+04  0.25500000920E-02 0.  1.
    10030    2    1    2    0    0  0.00000000000E+00  0.00000000000E+00 -0.22573890997E+03  0.36393195090E+04  0.36323117203E+04 0.  0.
        2    1    3    3  502    0  0.54114497625E+03  0.17068004025E+04 -0.41745696331E+03  0.18385526415E+04  0.25500000920E-02 0.  1.
       -2    1    3    3    0  502 -0.54114497625E+03 -0.17068004025E+04  0.19171805334E+03  0.18007668675E+04  0.25500000920E-02 0. -1.
</event>
<event>
 5   0  0.3191750E-07  0.3410058E+04  0.7818609E-02  0.8135442E-01
        3   -1    0    0  501    0  0.00000000000E+00  0.00000000000E+00  0.18515941957E+04  0.18515941984E+04  0.10100000352E+00 0.  1.
       -3   -1    0    0    0  501  0.00000000000E+00  0.00000000000E+00 -0.15700652768E+04  0.15700652801E+04  0.10100000352E+00 0. -1.
    10030    2    1    2    0    0  0.00000000000E+00  0.00000000000E+00  0.28152891887E+03  0.34216594785E+04  0.34100579254E+04 0.  0.
        5    1    3    3  502    0 -0.21193113688E+03 -0.20304235411E+03 -0.15445212802E+04  0.15721670011E+04  0.46999998093E+01 0. -1.
       -5    1    3    3    0  502  0.21193113688E+03  0.20304235411E+03  0.18260501991E+04  0.18494924774E+04  0.46999998093E+01 0.  1.
</event>
<event>
 5   0  0.4316671E-07  0.1961137E+04  0.7818609E-02  0.8625009E-01
        1   -1    0    0  501    0  0.00000000000E+00  0.00000000000E+00  0.73713799282E+03  0.73713799284E+03  0.50400001928E-02 0.  1.
       -1   -1    0    0    0  501  0.00000000000E+00  0.00000000000E+00 -0.13043889984E+04  0.13043889985E+04  0.50400001928E-02 0. -1.
    10030    2    1    2    0    0  0.00000000000E+00  0.00000000000E+00 -0.56725100562E+03  0.20415269913E+04  0.19611371071E+04 0.  0.
        2    1    3    3  502    0  0.27855000038E+03  0.53407478290E+03 -0.10890924133E+04  0.12445674997E+04  0.25500000920E-02 0. -1.
       -2    1    3    3    0  502 -0.27855000038E+03 -0.53407478290E+03  0.52184140772E+03  0.79695949161E+03  0.25500000920E-02 0.  1.
</event>
<event>
 5   0  0.1066276E-06  0.2070752E+04  0.7818609E-02  0.8574238E-01
        2   -1    0    0  501    0  0.00000000000E+00  0.00000000000E+00  0.19789425432E+04  0.19789425433E+04  0.25500000920E-02 0.  1.
       -2   -1    0    0    0  501  0.00000000000E+00  0.00000000000E+00 -0.54170506962E+03  0.54170506962E+03  0.25500000920E-02 0. -1.
    10030    2    1    2    0    0  0.00000000000E+00  0.00000000000E+00  0.14372374736E+04  0.25206476129E+04  0.20707517554E+04 0.  0.
        2    1    3    3  502    0 -0.36961081845E+02 -0.33328794029E+03  0.19110114496E+04  0.19402091983E+04  0.25500000920E-02 0.  1.
       -2    1    3    3    0  502  0.36961081845E+02  0.33328794029E+03 -0.47377397600E+03  0.58043841453E+03  0.25500000920E-02 0. -1.
</event>
<event>
 5   0  0.3471602E-07  0.2878193E+04  0.7818609E-02  0.8279395E-01
        1   -1    0    0  501    0  0.00000000000E+00  0.00000000000E+00  0.17682351074E+04  0.17682351074E+04  0.50400001928E-02 0. -1.
       -1   -1    0    0    0  501  0.00000000000E+00  0.00000000000E+00 -0.11712235964E+04  0.11712235964E+04  0.50400001928E-02 0.  1.
    10030    2    1    2    0    0  0.00000000000E+00  0.00000000000E+00  0.59701151101E+03  0.29394587039E+04  0.28781929622E+04 0.  0.
        5    1    3    3  502    0 -0.44049744997E+03  0.56917962567E+03 -0.97420416327E+03  0.12112387425E+04  0.46999998093E+01 0.  1.
       -5    1    3    3    0  502  0.44049744997E+03 -0.56917962567E+03  0.15712156743E+04  0.17282199613E+04  0.46999998093E+01 0. -1.
</event>
<event>
 5   0  0.3471602E-07  0.2041438E+04  0.7818609E-02  0.8587488E-01
       -1   -1    0    0    0  501  0.00000000000E+00  0.00000000000E+00  0.77852774326E+03  0.77852774327E+03  0.50400001928E-02 0. -1.
        1   -1    0    0  501    0  0.00000000000E+00  0.00000000000E+00 -0.13382535947E+04  0.13382535947E+04  0.50400001928E-02 0.  1.
    10030    2    1    2    0    0  0.00000000000E+00  0.00000000000E+00 -0.55972585144E+03  0.21167813380E+04  0.20414382685E+04 0.  0.
        5    1    3    3  502    0  0.71686500956E+03 -0.67226692997E+03 -0.56573194781E+03  0.11339810377E+04  0.46999998093E+01 0.  1.
       -5    1    3    3    0  502 -0.71686500956E+03  0.67226692997E+03  0.60060963680E+01  0.98280030029E+03  0.46999998093E+01 0. -1.
</event>
<event>
 5   0  0.5385714E-07  0.3486443E+04  0.7818609E-02  0.8117010E-01
        1   -1    0    0  501    0  0.00000000000E+00  0.00000000000E+00  0.17190378595E+04  0.17190378595E+04  0.50400001928E-02 0.  1.
       -1   -1    0    0    0  501  0.00000000000E+00  0.00000000000E+00 -0.17677456949E+04  0.17677456949E+04  0.50400001928E-02 0. -1.
    10030    2    1    2    0    0  0.00000000000E+00  0.00000000000E+00 -0.48707835337E+02  0.34867835544E+04  0.34864433313E+04 0.  0.
        3    1    3    3  502    0 -0.97350251474E+03 -0.12003320379E+04  0.78214750579E+03  0.17321255377E+04  0.10100000352E+00 0.  1.
       -3    1    3    3    0  502  0.97350251474E+03  0.12003320379E+04 -0.83085534112E+03  0.17546580167E+04  0.10100000352E+00 0. -1.
</event>
<event>
 5   0  0.1035864E-06  0.3895854E+04  0.7818609E-02  0.8025892E-01
       -2   -1    0    0    0  501  0.00000000000E+00  0.00000000000E+00  0.15910802539E+04  0.15910802539E+04  0.25500000920E-02 0. -1.
        2   -1    0    0  501    0  0.00000000000E+00  0.00000000000E+00 -0.23848070417E+04  0.23848070417E+04  0.25500000920E-02 0.  1.
    10030    2    1    2    0    0  0.00000000000E+00  0.00000000000E+00 -0.79372678779E+03  0.39758872956E+04  0.38958538954E+04 0.  0.
        5    1    3    3  502    0  0.10670249558E+04  0.15991163129E+04 -0.76272990162E+02  0.19239425400E+04  0.46999998093E+01 0. -1.
       -5    1    3    3    0  502 -0.10670249558E+04 -0.15991163129E+04 -0.71745379762E+03  0.20519447556E+04  0.46999998093E+01 0.  1.
</event>
<event>
 5   0  0.1015219E-06  0.3918491E+04  0.7818609E-02  0.8021194E-01
       -2   -1    0    0    0  501  0.00000000000E+00  0.00000000000E+00  0.19767902569E+04  0.19767902569E+04  0.25500000920E-02 0. -1.
        2   -1    0    0  501    0  0.00000000000E+00  0.00000000000E+00 -0.19418562609E+04  0.19418562609E+04  0.25500000920E-02 0.  1.
    10030    2    1    2    0    0  0.00000000000E+00  0.00000000000E+00  0.34933996061E+02  0.39186465178E+04  0.39184907997E+04 0.  0.
        3    1    3    3  502    0 -0.38292236184E+03  0.44411403477E+03  0.18869732112E+04  0.19759895549E+04  0.10100000352E+00 0. -1.
       -3    1    3    3    0  502  0.38292236184E+03 -0.44411403477E+03 -0.18520392151E+04  0.19426569629E+04  0.10100000352E+00 0.  1.
</event>
<event>
 5   0  0.3977376E-07  0.3986661E+04  0.7818609E-02  0.8007243E-01
       -1   -1    0    0    0  501  0.00000000000E+00  0.00000000000E+00  0.20975040217E+04  0.20975040218E+04  0.50400001928E-02 0.  1.
        1   -1    0    0  501    0  0.00000000000E+00  0.00000000000E+00 -0.18943305180E+04  0.18943305180E+04  0.50400001928E-02 0. -1.
    10030    2    1    2    0    0  0.00000000000E+00  0.00000000000E+00  0.20317350375E+03  0.39918345398E+04  0.39866606979E+04 0.  0.
        4    1    3    3  502    0 -0.46988178004E+03 -0.15858704249E+04  0.12155008961E+04  0.20526124654E+04  0.12699999809E+01 0.  1.
       -4    1    3    3    0  502  0.46988178004E+03  0.15858704249E+04 -0.10123273923E+04  0.19392220744E+04  0.12699999809E+01 0. -1.
</event>
<event>
 5   0  0.3471602E-07  0.3859090E+04  0.7818609E-02  0.8033592E-01
       -1   -1    0    0    0  501  0.00000000000E+00  0.00000000000E+00  0.14243810447E+04  0.14243810447E+04  0.50400001928E-02 0. -1.
        1   -1    0    0  501    0  0.00000000000E+00  0.00000000000E+00 -0.26138672667E+04  0.26138672667E+04  0.50400001928E-02 0.  1.
    10030    2    1    2    0    0  0.00000000000E+00  0.00000000000E+00 -0.11894862220E+04  0.40382483115E+04  0.38590895238E+04 0.  0.
        5    1    3    3  502    0 -0.50521216896E+03  0.13246665707E+04  0.77489111252E+03  0.16156915502E+04  0.46999998093E+01 0. -1.
       -5    1    3    3    0  502  0.50521216896E+03 -0.13246665707E+04 -0.19643773345E+04  0.24225567613E+04  0.46999998093E+01 0.  1.
</event>
<event>
 5   0  0.1034683E-06  0.4006565E+04  0.7818609E-02  0.8003224E-01
        2   -1    0    0  501    0  0.00000000000E+00  0.00000000000E+00  0.19975365852E+04  0.19975365852E+04  0.25500000920E-02 0. -1.
       -2   -1    0    0    0  501  0.00000000000E+00  0.00000000000E+00 -0.20090445859E+04  0.20090445859E+04  0.25500000920E-02 0.  1.
    10030    2    1    2    0    0  0.00000000000E+00  0.00000000000E+00 -0.11508000634E+02  0.40065811711E+04  0.40065646440E+04 0.  0.
        2    1    3    3  502    0  0.12623535376E+04  0.10591886453E+04 -0.11449351658E+04  0.20065626265E+04  0.25500000920E-02 0.  1.
       -2    1    3    3    0  502 -0.12623535376E+04 -0.10591886453E+04  0.11334271651E+04  0.20000185446E+04  0.25500000920E-02 0. -1.
</event>
<event>
 5   0  0.1035864E-06  0.3861097E+04  0.7818609E-02  0.8033169E-01
        2   -1    0    0  501    0  0.00000000000E+00  0.00000000000E+00  0.20241312639E+04  0.20241312639E+04  0.25500000920E-02 0. -1.
       -2   -1    0    0    0  501  0.00000000000E+00  0.00000000000E+00 -0.18412923830E+04  0.18412923830E+04  0.25500000920E-02 0.  1.
    10030    2    1    2    0    0  0.00000000000E+00  0.00000000000E+00  0.18283888098E+03  0.38654236469E+04  0.38610969832E+04 0.  0.
        5    1    3    3  502    0 -0.16849453002E+04  0.58127054928E+03 -0.65108495497E+03  0.18975905314E+04  0.46999998093E+01 0.  1.
       -5    1    3    3    0  502  0.16849453002E+04 -0.58127054928E+03  0.83392383595E+03  0.19678331155E+04  0.46999998093E+01 0. -1.
</event>
<event>
 5   0  0.1015219E-06  0.1925615E+04  0.7818609E-02  0.8642210E-01
        2   -1    0    0  501    0  0.00000000000E+00  0.00000000000E+00  0.15280595269E+04  0.15280595269E+04  0.25500000920E-02 0.  1.
       -2   -1    0    0    0  501  0.00000000000E+00  0.00000000000E+00 -0.60665039581E+03  0.60665039582E+03  0.25500000920E-02 0. -1.
    10030    2    1    2    0    0  0.00000000000E+00  0.00000000000E+00  0.92140913109E+03  0.21347099227E+04  0.19256146207E+04 0.  0.
        3    1    3    3  502    0  0.37961577005E+03  0.65888581892E+03 -0.19398039203E+03  0.78477197831E+03  0.10100000352E+00 0. -1.
       -3    1    3    3    0  502 -0.37961577005E+03 -0.65888581892E+03  0.11153895231E+04  0.13499379444E+04  0.10100000352E+00 0.  1.
</event>
<event>
 5   0  0.3977376E-07  0.2844510E+04  0.7818609E-02  0.8289582E-01
       -1   -1    0    0    0  501  0.00000000000E+00  0.00000000000E+00  0.10736221333E+04  0.10736221333E+04  0.50400001928E-02 0. -1.
        1   -1    0    0  501    0  0.00000000000E+00  0.00000000000E+00 -0.18840978528E+04  0.18840978528E+04  0.50400001928E-02 0.  1.
    10030    2    1    2    0    0  0.00000000000E+00  0.00000000000E+00 -0.81047571953E+03  0.29577199861E+04  0.28445099093E+04 0.  0.
        4    1    3    3  502    0 -0.12765337487E+03  0.81230019723E+02  0.10652290238E+04  0.10759220168E+04  0.12699999809E+01 0. -1.
       -4    1    3    3    0  502  0.12765337487E+03 -0.81230019723E+02 -0.18757047433E+04  0.18817979693E+04  0.12699999809E+01 0.  1.
</event>
<event>
 5   0  0.5533705E-07  0.3689102E+04  0.7818609E-02  0.8070381E-01
        2   -1    0    0  501    0  0.00000000000E+00  0.00000000000E+00  0.30717879089E+04  0.30717879089E+04  0.25500000920E-02 0. -1.
       -2   -1    0    0    0  501  0.00000000000E+00  0.00000000000E+00 -0.11076182671E+04  0.11076182671E+04  0.25500000920E-02 0.  1.
    10030    2    1    2    0    0  0.00000000000E+00  0.00000000000E+00  0.19641696418E+04  0.41794061760E+04  0.36891020049E+04 0.  0.
        1    1    3    3  502    0 -0.34148100378E+03  0.16768106418E+04  0.20205186338E+03  0.17231158289E+04  0.50400001928E-02 0. -1.
       -1    1    3    3    0  502  0.34148100378E+03 -0.16768106418E+04  0.17621177784E+04  0.24562903471E+04  0.50400001928E-02 0.  1.
</event>
<event>
 5   0  0.1015219E-06  0.3991591E+04  0.7818609E-02  0.8006245E-01
        2   -1    0    0  501    0  0.00000000000E+00  0.00000000000E+00  0.24881502814E+04  0.24881502814E+04  0.25500000920E-02 0. -1.
       -2   -1    0    0    0  501  0.00000000000E+00  0.00000000000E+00 -0.16008679720E+04  0.16008679720E+04  0.25500000920E-02 0.  1.
    10030    2    1    2    0    0  0.00000000000E+00  0.00000000000E+00  0.88728230939E+03  0.40890182533E+04  0.39915912090E+04 0.  0.
        3    1    3    3  502    0  0.47812183984E+02 -0.44362601783E+03 -0.15491182619E+04  0.16120972205E+04  0.10100000352E+00 0.  1.
       -3    1    3    3    0  502 -0.47812183984E+02  0.44362601783E+03  0.24364005713E+04  0.24769210328E+04  0.10100000352E+00 0. -1.
</event>
<event>
 5   0  0.4627905E-07  0.3803682E+04  0.7818609E-02  0.8045365E-01
       -1   -1    0    0    0  501  0.00000000000E+00  0.00000000000E+00  0.13275246074E+04  0.13275246074E+04  0.50400001928E-02 0. -1.
        1   -1    0    0  501    0  0.00000000000E+00  0.00000000000E+00 -0.27246186217E+04  0.27246186217E+04  0.50400001928E-02 0.  1.
    10030    2    1    2    0    0  0.00000000000E+00  0.00000000000E+00 -0.13970940143E+04  0.40521432291E+04  0.38036815145E+04 0.  0.
        1    1    3    3  502    0 -0.82217706822E+03  0.97353594139E+03 -0.22025947658E+04  0.25446357427E+04  0.50400001928E-02 0.  1.
       -1    1    3    3    0  502  0.82217706822E+03 -0.97353594139E+03  0.80550075151E+03  0.15075074863E+04  0.50400001928E-02 0. -1.
</event>
<event>
 5   0  0.1034683E-06  0.3937437E+04  0.7818609E-02  0.8017288E-01
       -2   -1    0    0    0  501  0.00000000000E+00  0.00000000000E+00  0.27252664206E+04  0.27252664206E+04  0.25500000920E-02 0.  1.
        2   -1    0    0  501    0  0.00000000000E+00  0.00000000000E+00 -0.14221922539E+04  0.14221922539E+04  0.25500000920E-02 0. -1.
    10030    2    1    2    0    0  0.00000000000E+00  0.00000000000E+00  0.13030741666E+04  0.41474586745E+04  0.39374371326E+04 0.  0.
        2    1    3    3  502    0 -0.13054255242E+04  0.91088227537E+03  0.18717802590E+04  0.24571128702E+04  0.25500000920E-02 0.  1.
       -2    1    3    3    0  502  0.13054255242E+04 -0.91088227537E+03 -0.56870609235E+03  0.16903458044E+04  0.25500000920E-02 0. -1.
</event>
<event>
 5   0  0.1015219E-06  0.3043608E+04  0.7818609E-02  0.8231387E-01
        2   -1    0    0  501    0  0.00000000000E+00  0.00000000000E+00  0.16277091151E+04  0.16277091151E+04  0.25500000920E-02 0.  1.
       -2   -1    0    0    0  501  0.00000000000E+00  0.00000000000E+00 -0.14227899034E+04  0.14227899034E+04  0.25500000920E-02 0. -1.
    10030    2    1    2    0    0  0.00000000000E+00  0.00000000000E+00  0.20491921169E+03  0.30504990185E+04  0.30436084470E+04 0.  0.
        3    1    3    3  502    0  0.48037181212E+03 -0.72090459107E+03  0.13564626737E+04  0.16094879629E+04  0.10100000352E+00 0.  1.
       -3    1    3    3    0  502 -0.48037181212E+03  0.72090459107E+03 -0.11515434620E+04  0.14410110556E+04  0.10100000352E+00 0. -1.
</event>
<event>
 5   0  0.4316671E-07  0.2248866E+04  0.7818609E-02  0.8498360E-01
       -1   -1    0    0    0  501  0.00000000000E+00  0.00000000000E+00  0.19497050600E+04  0.19497050600E+04  0.50400001928E-02 0.  1.
        1   -1    0    0  501    0  0.00000000000E+00  0.00000000000E+00 -0.64848261505E+03  0.64848261507E+03  0.50400001928E-02 0. -1.
    10030    2    1    2    0    0  0.00000000000E+00  0.00000000000E+00  0.13012224450E+04  0.25981876751E+04  0.22488662352E+04 0.  0.
        2    1    3    3  502    0  0.45720751228E+03 -0.60585523393E+03  0.16090848809E+04  0.17791159119E+04  0.25500000920E-02 0.  1.
       -2    1    3    3    0  502 -0.45720751228E+03  0.60585523393E+03 -0.30786243600E+03  0.81907176320E+03  0.25500000920E-02 0. -1.
</event>
<event>
 5   0  0.1015219E-06  0.3891284E+04  0.7818609E-02  0.8026844E-01
        2   -1    0    0  501    0  0.00000000000E+00  0.00000000000E+00  0.26657831020E+04  0.26657831020E+04  0.25500000920E-02 0. -1.
       -2   -1    0    0    0  501  0.00000000000E+00  0.00000000000E+00 -0.14200413083E+04  0.14200413083E+04  0.25500000920E-02 0.  1.
    10030    2    1    2    0    0  0.00000000000E+00  0.00000000000E+00  0.12457417936E+04  0.40858244103E+04  0.38912836565E+04 0.  0.
        3    1    3    3  502    0 -0.12056880312E+04 -0.18074237511E+03 -0.96923670104E+03  0.15574887568E+04  0.10100000352E+00 0.  1.
       -3    1    3    3    0  502  0.12056880312E+04  0.18074237511E+03  0.22149784947E+04  0.25283356535E+04  0.10100000352E+00 0. -1.
</event>
<event>
 5   0  0.4316671E-07  0.2315172E+04  0.7818609E-02  0.8471963E-01
        1   -1    0    0  501    0  0.00000000000E+00  0.00000000000E+00  0.15234847506E+04  0.15234847506E+04  0.50400001928E-02 0.  1.
       -1   -1    0    0    0  501  0.00000000000E+00  0.00000000000E+00 -0.87956597294E+03  0.87956597296E+03  0.50400001928E-02 0. -1.
    10030    2    1    2    0    0  0.00000000000E+00  0.00000000000E+00  0.64391877767E+03  0.24030507236E+04  0.23151719996E+04 0.  0.
        2    1    3    3  502    0  0.36856027934E+03  0.16592006795E+03 -0.80394453544E+03  0.89982940857E+03  0.25500000920E-02 0. -1.
       -2    1    3    3    0  502 -0.36856027934E+03 -0.16592006795E+03  0.14478633131E+04  0.15032213150E+04  0.25500000920E-02 0.  1.
</event>
<event>
 5   0  0.3471602E-07  0.3835383E+04  0.7818609E-02  0.8038604E-01
       -1   -1    0    0    0  501  0.00000000000E+00  0.00000000000E+00  0.12541532092E+04  0.12541532092E+04  0.50400001928E-02 0.  1.
        1   -1    0    0  501    0  0.00000000000E+00  0.00000000000E+00 -0.29322894250E+04  0.29322894250E+04  0.50400001928E-02 0. -1.
    10030    2    1    2    0    0  0.00000000000E+00  0.00000000000E+00 -0.16781362158E+04  0.41864426342E+04  0.38353827411E+04 0.  0.
        5    1    3    3  502    0  0.22683964973E+03 -0.83305476791E+03  0.10299971435E+04  0.13440062049E+04  0.46999998093E+01 0.  1.
       -5    1    3    3    0  502 -0.22683964973E+03  0.83305476791E+03 -0.27081333593E+04  0.28424364294E+04  0.46999998093E+01 0. -1.
</event>
<event>
 5   0  0.3471602E-07  0.3649335E+04  0.7818609E-02  0.8079283E-01
       -1   -1    0    0    0  501  0.00000000000E+00  0.00000000000E+00  0.13491203093E+04  0.13491203093E+04  0.50400001928E-02 0.  1.
        1   -1    0    0  501    0  0.00000000000E+00  0.00000000000E+00 -0.24678389830E+04  0.24678389830E+04  0.50400001928E-02 0. -1.
    10030    2    1    2    0    0  0.00000000000E+00  0.00000000000E+00 -0.11187186737E+04  0.38169592923E+04  0.36493351131E+04 0.  0.
        5    1    3    3  502    0  0.15143931578E+04  0.74385478216E+03 -0.12860252640E+04  0.21214593192E+04  0.46999998093E+01 0. -1.
       -5    1    3    3    0  502 -0.15143931578E+04 -0.74385478216E+03  0.16730659031E+03  0.16954999730E+04  0.46999998093E+01 0.  1.
</event>
<event>
 5   0  0.5533705E-07  0.4113494E+04  0.7818609E-02  0.7982035E-01
       -2   -1    0    0    0  501  0.00000000000E+00  0.00000000000E+00  0.30195991521E+04  0.30195991521E+04  0.25500000920E-02 0. -1.
        2   -1    0    0  501    0  0.00000000000E+00  0.00000000000E+00 -0.14009171308E+04  0.14009171308E+04  0.25500000920E-02 0.  1.
    10030    2    1    2    0    0  0.00000000000E+00  0.00000000000E+00  0.16186820213E+04  0.44205162829E+04  0.41134939797E+04 0.  0.
        1    1    3    3  502    0 -0.98943612958E+03  0.19947751186E+03 -0.11164606849E+04  0.15050779359E+04  0.50400001928E-02 0.  1.
       -1    1    3    3    0  502  0.98943612958E+03 -0.19947751186E+03  0.27351427061E+04  0.29154383470E+04  0.50400001928E-02 0. -1.
</event>
<event>
 5   0  0.3471602E-07  0.3774990E+04  0.7818609E-02  0.8051543E-01
       -1   -1    0    0    0  501  0.00000000000E+00  0.00000000000E+00  0.25347802838E+04  0.25347802838E+04  0.50400001928E-02 0.  1.
        1   -1    0    0  501    0  0.00000000000E+00  0.00000000000E+00 -0.14055017055E+04  0.14055017055E+04  0.50400001928E-02 0. -1.
    10030    2    1    2    0    0  0.00000000000E+00  0.00000000000E+00  0.11292785783E+04  0.39402819893E+04  0.37749903374E+04 0.  0.
        5    1    3    3  502    0 -0.56744981638E+03  0.28086604268E+03 -0.12913433548E+04  0.14382193080E+04  0.46999998093E+01 0. -1.
       -5    1    3    3    0  502  0.56744981638E+03 -0.28086604268E+03  0.24206219331E+04  0.25020626812E+04  0.46999998093E+01 0.  1.
</event>
<event>
 5   0  0.3471602E-07  0.1976820E+04  0.7818609E-02  0.8617535E-01
        1   -1    0    0  501    0  0.00000000000E+00  0.00000000000E+00  0.78834971856E+03  0.78834971858E+03  0.50400001928E-02 0.  1.
       -1   -1    0    0    0  501  0.00000000000E+00  0.00000000000E+00 -0.12392400380E+04  0.12392400380E+04  0.50400001928E-02 0. -1.
    10030    2    1    2    0    0  0.00000000000E+00  0.00000000000E+00 -0.45089031944E+03  0.20275897566E+04  0.19768202095E+04 0.  0.
        5    1    3    3  502    0 -0.14683445800E+03 -0.67505516095E+03  0.49958436293E+03  0.85256463336E+03  0.46999998093E+01 0.  1.
       -5    1    3    3    0  502  0.14683445800E+03  0.67505516095E+03 -0.95047468237E+03  0.11750251232E+04  0.46999998093E+01 0. -1.
</event>
<event>
 5   0  0.5533705E-07  0.3822321E+04  0.7818609E-02  0.8041382E-01
        2   -1    0    0  501    0  0.00000000000E+00  0.00000000000E+00  0.27143277381E+04  0.27143277381E+04  0.25500000920E-02 0.  1.
       -2   -1    0    0    0  501  0.00000000000E+00  0.00000000000E+00 -0.13456497276E+04  0.13456497276E+04  0.25500000920E-02 0. -1.
    10030    2    1    2    0    0  0.00000000000E+00  0.00000000000E+00  0.13686780105E+04  0.40599774657E+04  0.38223209606E+04 0.  0.
        1    1    3    3  502    0 -0.17314512896E+04 -0.32424762371E+02 -0.17435616415E+03  0.17405099843E+04  0.50400001928E-02 0.  1.
       -1    1    3    3    0  502  0.17314512896E+04  0.32424762371E+02  0.15430341747E+04  0.23194674815E+04  0.50400001928E-02 0. -1.
</event>
<event>
 5   0  0.5533705E-07  0.3309007E+04  0.7818609E-02  0.8160607E-01
        2   -1    0    0  501    0  0.00000000000E+00  0.00000000000E+00  0.18679655212E+04  0.18679655212E+04  0.25500000920E-02 0.  1.
       -2   -1    0    0    0  501  0.00000000000E+00  0.00000000000E+00 -0.14654350595E+04  0.14654350595E+04  0.25500000920E-02 0. -1.
    10030    2    1    2    0    0  0.00000000000E+00  0.00000000000E+00  0.40253046174E+03  0.33334005807E+04  0.33090072014E+04 0.  0.
        1    1    3    3  502    0  0.14993647642E+04  0.69395785613E+03  0.28971891602E+03  0.16773816657E+04  0.50400001928E-02 0. -1.
       -1    1    3    3    0  502 -0.14993647642E+04 -0.69395785613E+03  0.11281154572E+03  0.16560189150E+04  0.50400001928E-02 0.  1.
</event>
<event>
 5   0  0.7268013E-07  0.3186577E+04  0.7818609E-02  0.8192371E-01
       -2   -1    0    0    0  501  0.00000000000E+00  0.00000000000E+00  0.16969404946E+04  0.16969404946E+04  0.25500000920E-02 0.  1.
        2   -1    0    0  501    0  0.00000000000E+00  0.00000000000E+00 -0.14959681881E+04  0.14959681881E+04  0.25500000920E-02 0. -1.
    10030    2    1    2    0    0  0.00000000000E+00  0.00000000000E+00  0.20097230646E+03  0.31929086827E+04  0.31865774725E+04 0.  0.
        4    1    3    3  502    0 -0.35432169842E+02  0.95574256519E+03 -0.11763565260E+04  0.15160856106E+04  0.12699999809E+01 0. -1.
       -4    1    3    3    0  502  0.35432169842E+02 -0.95574256519E+03  0.13773288324E+04  0.16768230721E+04  0.12699999809E+01 0.  1.
</event>
<event>
 5   0  0.3191750E-07  0.1953409E+04  0.7818609E-02  0.8628719E-01
        4   -1    0    0  501    0  0.00000000000E+00  0.00000000000E+00  0.10052457062E+04  0.10052465085E+04  0.12699999809E+01 0.  1.
       -4   -1    0    0    0  501  0.00000000000E+00  0.00000000000E+00 -0.94897226187E+03  0.94897311168E+03  0.12699999809E+01 0. -1.
    10030    2    1    2    0    0  0.00000000000E+00  0.00000000000E+00  0.56273444345E+02  0.19542196201E+04  0.19534092309E+04 0.  0.
        2    1    3    3  502    0  0.51486420565E+01 -0.94811199516E+03  0.26277408781E+03  0.98386639597E+03  0.25500000920E-02 0.  1.
       -2    1    3    3    0  502 -0.51486420565E+01  0.94811199516E+03 -0.20650064346E+03  0.97035322417E+03  0.25500000920E-02 0. -1.
</event>
<event>
 5   0  0.1015219E-06  0.3864597E+04  0.7818609E-02  0.8032433E-01
        2   -1    0    0  501    0  0.00000000000E+00  0.00000000000E+00  0.19927666371E+04  0.19927666371E+04  0.25500000920E-02 0. -1.
       -2   -1    0    0    0  501  0.00000000000E+00  0.00000000000E+00 -0.18736649148E+04  0.18736649148E+04  0.25500000920E-02 0.  1.
    10030    2    1    2    0    0  0.00000000000E+00  0.00000000000E+00  0.11910172227E+03  0.38664315518E+04  0.38645967092E+04 0.  0.
        3    1    3    3  502    0 -0.47255155714E+03 -0.18695935451E+04  0.18245837555E+03  0.19370018242E+04  0.10100000352E+00 0.  1.
       -3    1    3    3    0  502  0.47255155714E+03  0.18695935451E+04 -0.63356653282E+02  0.19294297276E+04  0.10100000352E+00 0. -1.
</event>
<event>
 5   0  0.4316671E-07  0.2193569E+04  0.7818609E-02  0.8521110E-01
        1   -1    0    0  501    0  0.00000000000E+00  0.00000000000E+00  0.17680334071E+04  0.17680334071E+04  0.50400001928E-02 0. -1.
       -1   -1    0    0    0  501  0.00000000000E+00  0.00000000000E+00 -0.68038081287E+03  0.68038081289E+03  0.50400001928E-02 0.  1.
    10030    2    1    2    0    0  0.00000000000E+00  0.00000000000E+00  0.10876525942E+04  0.24484142200E+04  0.21935687878E+04 0.  0.
        2    1    3    3  502    0 -0.62708582472E+03 -0.59222101452E+03 -0.21235774729E+03  0.88828946546E+03  0.25500000920E-02 0.  1.
       -2    1    3    3    0  502  0.62708582472E+03  0.59222101452E+03  0.13000103415E+04  0.15601247545E+04  0.25500000920E-02 0. -1.
</event>
<event>
 5   0  0.7268013E-07  0.2824279E+04  0.7818609E-02  0.8295770E-01
        2   -1    0    0  501    0  0.00000000000E+00  0.00000000000E+00  0.18749262208E+04  0.18749262208E+04  0.25500000920E-02 0. -1.
       -2   -1    0    0    0  501  0.00000000000E+00  0.00000000000E+00 -0.10635820093E+04  0.10635820093E+04  0.25500000920E-02 0.  1.
    10030    2    1    2    0    0  0.00000000000E+00  0.00000000000E+00  0.81134421151E+03  0.29385082301E+04  0.28242788795E+04 0.  0.
        4    1    3    3  502    0  0.74348040160E+03 -0.42622291158E+03  0.15734335249E+04  0.17916818211E+04  0.12699999809E+01 0. -1.
       -4    1    3    3    0  502 -0.74348040160E+03  0.42622291158E+03 -0.76208931340E+03  0.11468264090E+04  0.12699999809E+01 0.  1.
</event>
<event>
 5   0  0.1015219E-06  0.3846285E+04  0.7818609E-02  0.8036294E-01
       -2   -1    0    0    0  501  0.00000000000E+00  0.00000000000E+00  0.28150608946E+04  0.28150608946E+04  0.25500000920E-02 0. -1.
        2   -1    0    0  501    0  0.00000000000E+00  0.00000000000E+00 -0.13138180283E+04  0.13138180283E+04  0.25500000920E-02 0.  1.
    10030    2    1    2    0    0  0.00000000000E+00  0.00000000000E+00  0.15012428663E+04  0.41288789230E+04  0.38462853530E+04 0.  0.
        3    1    3    3  502    0  0.15204256988E+04  0.78540975528E+01 -0.51348985784E+03  0.16048139570E+04  0.10100000352E+00 0.  1.
       -3    1    3    3    0  502 -0.15204256988E+04 -0.78540975528E+01  0.20147327241E+04  0.25240649659E+04  0.10100000352E+00 0. -1.
</event>
<event>
 5   0  0.1034683E-06  0.3615142E+04  0.7818609E-02  0.8087032E-01
        2   -1    0    0  501    0  0.00000000000E+00  0.00000000000E+00  0.15755029874E+04  0.15755029874E+04  0.25500000920E-02 0. -1.
       -2   -1    0    0    0  501  0.00000000000E+00  0.00000000000E+00 -0.20738225467E+04  0.20738225467E+04  0.25500000920E-02 0.  1.
    10030    2    1    2    0    0  0.00000000000E+00  0.00000000000E+00 -0.49831955928E+03  0.36493255340E+04  0.36151423859E+04 0.  0.
        2    1    3    3  502    0  0.12221772921E+04  0.14212436894E+03 -0.15858393854E+04  0.20071878900E+04  0.25500000920E-02 0.  1.
       -2    1    3    3    0  502 -0.12221772921E+04 -0.14212436894E+03  0.10875198261E+04  0.16421376440E+04  0.25500000920E-02 0. -1.
</event>
<event>
 5   0  0.4627905E-07  0.3765584E+04  0.7818609E-02  0.8053581E-01
       -1   -1    0    0    0  501  0.00000000000E+00  0.00000000000E+00  0.18075468570E+04  0.18075468570E+04  0.50400001928E-02 0.  1.
        1   -1    0    0  501    0  0.00000000000E+00  0.00000000000E+00 -0.19611689918E+04  0.19611689918E+04  0.50400001928E-02 0. -1.
    10030    2    1    2    0    0  0.00000000000E+00  0.00000000000E+00 -0.15362213472E+03  0.37687158488E+04  0.37655835389E+04 0.  0.
        1    1    3    3  502    0 -0.16021003801E+04  0.89994150455E+03 -0.48737725055E+03  0.19010936126E+04  0.50400001928E-02 0. -1.
       -1    1    3    3    0  502  0.16021003801E+04 -0.89994150455E+03  0.33375511583E+03  0.18676222362E+04  0.50400001928E-02 0.  1.
</event>
<event>
 5   0  0.4316671E-07  0.1990814E+04  0.7818609E-02  0.8610928E-01
       -1   -1    0    0    0  501  0.00000000000E+00  0.00000000000E+00  0.15275630274E+04  0.15275630274E+04  0.50400001928E-02 0.  1.
        1   -1    0    0  501    0  0.00000000000E+00  0.00000000000E+00 -0.64863746637E+03  0.64863746639E+03  0.50400001928E-02 0. -1.
    10030    2    1    2    0    0  0.00000000000E+00  0.00000000000E+00  0.87892556107E+03  0.21762004938E+04  0.19908135140E+04 0.  0.
        2    1    3    3  502    0 -0.84550088922E+03 -0.49305183911E+03  0.63762471074E+03  0.11681340426E+04  0.25500000920E-02 0.  1.
       -2    1    3    3    0  502  0.84550088922E+03  0.49305183911E+03  0.24130085033E+03  0.10080664512E+04  0.25500000920E-02 0. -1.
</event>
<event>
 5   0  0.1034683E-06  0.2091856E+04  0.7818609E-02  0.8564839E-01
       -2   -1    0    0    0  501  0.00000000000E+00  0.00000000000E+00  0.12835513814E+04  0.12835513814E+04  0.25500000920E-02 0. -1.
        2   -1    0    0  501    0  0.00000000000E+00  0.00000000000E+00 -0.85229587150E+03  0.85229587150E+03  0.25500000920E-02 0.  1.
    10030    2    1    2    0    0  0.00000000000E+00  0.00000000000E+00  0.43125550990E+03  0.21358472529E+04  0.20918561549E+04 0.  0.
        2    1    3    3  502    0 -0.54638248254E+03 -0.26190413773E+03 -0.65484898386E+03  0.89216298189E+03  0.25500000920E-02 0.  1.
       -2    1    3    3    0  502  0.54638248254E+03  0.26190413773E+03  0.10861044938E+04  0.12436842710E+04  0.25500000920E-02 0. -1.
</event>
<event>
 5   0  0.1015219E-06  0.3748354E+04  0.7818609E-02  0.8057330E-01
       -2   -1    0    0    0  501  0.00000000000E+00  0.00000000000E+00  0.13698330123E+04  0.13698330123E+04  0.25500000920E-02 0.  1.
        2   -1    0    0  501    0  0.00000000000E+00  0.00000000000E+00 -0.25642097743E+04  0.25642097743E+04  0.25500000920E-02 0. -1.
    10030    2    1    2    0    0  0.00000000000E+00  0.00000000000E+00 -0.11943767620E+04  0.39340427865E+04  0.37483538783E+04 0.  0.
        3    1    3    3  502    0 -0.46481230462E+03  0.11102913093E+04  0.91055068047E+03  0.15092712884E+04  0.10100000352E+00 0.  1.
       -3    1    3    3    0  502  0.46481230462E+03 -0.11102913093E+04 -0.21049274425E+04  0.24247714982E+04  0.10100000352E+00 0. -1.
</event>
<event>
 5   0  0.3977376E-07  0.2539315E+04  0.7818609E-02  0.8389112E-01
        1   -1    0    0  501    0  0.00000000000E+00  0.00000000000E+00  0.18635076148E+04  0.18635076148E+04  0.50400001928E-02 0. -1.
       -1   -1    0    0    0  501  0.00000000000E+00  0.00000000000E+00 -0.86505184351E+03  0.86505184353E+03  0.50400001928E-02 0.  1.
    10030    2    1    2    0    0  0.00000000000E+00  0.00000000000E+00  0.99845577125E+03  0.27285594583E+04  0.25393154177E+04 0.  0.
        4    1    3    3  502    0 -0.96710373262E+03  0.81891469200E+03  0.58327600074E+03  0.13950352714E+04  0.12699999809E+01 0. -1.
       -4    1    3    3    0  502  0.96710373262E+03 -0.81891469200E+03  0.41517977051E+03  0.13335241869E+04  0.12699999809E+01 0.  1.
</event>
<event>
 5   0  0.1035864E-06  0.3869943E+04  0.7818609E-02  0.8031310E-01
        2   -1    0    0  501    0  0.00000000000E+00  0.00000000000E+00  0.26306299828E+04  0.26306299828E+04  0.25500000920E-02 0.  1.
       -2   -1    0    0    0  501  0.00000000000E+00  0.00000000000E+00 -0.14232765970E+04  0.14232765970E+04  0.25500000920E-02 0. -1.
    10030    2    1    2    0    0  0.00000000000E+00  0.00000000000E+00  0.12073533857E+04  0.40539065798E+04  0.38699426817E+04 0.  0.
        5    1    3    3  502    0  0.17449882538E+04  0.20885118537E+03 -0.24443288191E+03  0.17743653364E+04  0.46999998093E+01 0. -1.
       -5    1    3    3    0  502 -0.17449882538E+04 -0.20885118537E+03  0.14517862677E+04  0.22795412434E+04  0.46999998093E+01 0.  1.
</event>
<event>
 5   0  0.7268013E-07  0.3888597E+04  0.7818609E-02  0.8027405E-01
       -2   -1    0    0    0  501  0.00000000000E+00  0.00000000000E+00  0.18688068081E+04  0.18688068081E+04  0.25500000920E-02 0.  1.
        2   -1    0    0  501    0  0.00000000000E+00  0.00000000000E+00 -0.20228395015E+04  0.20228395015E+04  0.25500000920E-02 0. -1.
    10030    2    1    2    0    0  0.00000000000E+00  0.00000000000E+00 -0.15403269337E+03  0.38916463096E+04  0.38885967814E+04 0.  0.
        4    1    3    3  502    0  0.13959549172E+04  0.51650014190E+03 -0.13289298460E+04  0.19953743197E+04  0.12699999809E+01 0. -1.
       -4    1    3    3    0  502 -0.13959549172E+04 -0.51650014190E+03  0.11748971526E+04  0.18962719899E+04  0.12699999809E+01 0.  1.
</event>
<event>
 5   0  0.3191750E-07  0.2092021E+04  0.7818609E-02  0.8564766E-01
       -3   -1    0    0    0  501  0.00000000000E+00  0.00000000000E+00  0.85603666843E+03  0.85603667439E+03  0.10100000352E+00 0.  1.
        3   -1    0    0  501    0  0.00000000000E+00  0.00000000000E+00 -0.12781443644E+04  0.12781443684E+04  0.10100000352E+00 0. -1.
    10030    2    1    2    0    0  0.00000000000E+00  0.00000000000E+00 -0.42210769594E+03  0.21341810427E+04  0.20920214665E+04 0.  0.
        3    1    3    3  502    0  0.22034273339E+03 -0.23280549705E+03  0.80469700680E+03  0.86619085805E+03  0.10100000352E+00 0.  1.
       -3    1    3    3    0  502 -0.22034273339E+03  0.23280549705E+03 -0.12268047027E+04  0.12679901847E+04  0.10100000352E+00 0. -1.
</event>
<event>
 5   0  0.7268013E-07  0.3761354E+04  0.7818609E-02  0.8054499E-01
        2   -1    0    0  501    0  0.00000000000E+00  0.00000000000E+00  0.27764482273E+04  0.27764482273E+04  0.25500000920E-02 0. -1.
       -2   -1    0    0    0  501  0.00000000000E+00  0.00000000000E+00 -0.12739104408E+04  0.12739104408E+04  0.25500000920E-02 0.  1.
    10030    2    1    2    0    0  0.00000000000E+00  0.00000000000E+00  0.15025377864E+04  0.40503586681E+04  0.37613542163E+04 0.  0.
        4    1    3    3  502    0  0.28957456076E+03  0.62235748889E+03 -0.11341962269E+04  0.13257394029E+04  0.12699999809E+01 0.  1.
       -4    1    3    3    0  502 -0.28957456076E+03 -0.62235748889E+03  0.26367340134E+04  0.27246192652E+04  0.12699999809E+01 0. -1.
</event>
<event>
 5   0  0.7268013E-07  0.2058428E+04  0.7818609E-02  0.8579781E-01
       -2   -1    0    0    0  501  0.00000000000E+00  0.00000000000E+00  0.49876450083E+03  0.49876450084E+03  0.25500000920E-02 0. -1.
        2   -1    0    0  501    0  0.00000000000E+00  0.00000000000E+00 -0.21238100851E+04  0.21238100851E+04  0.25500000920E-02 0.  1.
    10030    2    1    2    0    0  0.00000000000E+00  0.00000000000E+00 -0.16250455843E+04  0.26225745860E+04  0.20584276300E+04 0.  0.
        4    1    3    3  502    0 -0.44756775292E+02 -0.57388094573E+03 -0.18995467840E+04  0.19848481318E+04  0.12699999809E+01 0.  1.
       -4    1    3    3    0  502  0.44756775292E+02  0.57388094573E+03  0.27450119970E+03  0.63772645417E+03  0.12699999809E+01 0. -1.
</event>
<event>
 5   0  0.5533705E-07  0.3881454E+04  0.7818609E-02  0.8028898E-01
       -2   -1    0    0    0  501  0.00000000000E+00  0.00000000000E+00  0.16972720746E+04  0.16972720746E+04  0.25500000920E-02 0.  1.
        2   -1    0    0  501    0  0.00000000000E+00  0.00000000000E+00 -0.22191024400E+04  0.22191024400E+04  0.25500000920E-02 0. -1.
    10030    2    1    2    0    0  0.00000000000E+00  0.00000000000E+00 -0.52183036537E+03  0.39163745147E+04  0.38814536464E+04 0.  0.
        1    1    3    3  502    0 -0.12678744217E+04  0.54392364483E+03  0.11163053213E+04  0.17746819577E+04  0.50400001928E-02 0.  1.
       -1    1    3    3    0  502  0.12678744217E+04 -0.54392364483E+03 -0.16381356867E+04  0.21416925570E+04  0.50400001928E-02 0. -1.
</event>
<event>
 5   0  0.1035864E-06  0.3854956E+04  0.7818609E-02  0.8034463E-01
       -2   -1    0    0    0  501  0.00000000000E+00  0.00000000000E+00  0.15174171015E+04  0.15174171015E+04  0.25500000920E-02 0.  1.
        2   -1    0    0  501    0  0.00000000000E+00  0.00000000000E+00 -0.24483527255E+04  0.24483527255E+04  0.25500000920E-02 0. -1.
    10030    2    1    2    0    0  0.00000000000E+00  0.00000000000E+00 -0.93093562403E+03  0.39657698271E+04  0.38549564440E+04 0.  0.
        5    1    3    3  502    0 -0.87069786178E+03  0.14085042951E+04  0.54937356418E+03  0.17446582814E+04  0.46999998093E+01 0.  1.
       -5    1    3    3    0  502  0.87069786178E+03 -0.14085042951E+04 -0.14803091882E+04  0.22211115457E+04  0.46999998093E+01 0. -1.
</event>
<event>
 5   0  0.3977376E-07  0.2882735E+04  0.7818609E-02  0.8278033E-01
        1   -1    0    0  501    0  0.00000000000E+00  0.00000000000E+00  0.18837977637E+04  0.18837977637E+04  0.50400001928E-02 0. -1.
       -1   -1    0    0    0  501  0.00000000000E+00  0.00000000000E+00 -0.11028465472E+04  0.11028465472E+04  0.50400001928E-02 0.  1.
    10030    2    1    2    0    0  0.00000000000E+00  0.00000000000E+00  0.78095121646E+03  0.29866443109E+04  0.28827347151E+04 0.  0.
        4    1    3    3  502    0  0.24744824629E+03  0.14189589256E+04  0.33503817758E+03  0.14788263118E+04  0.12699999809E+01 0.  1.
       -4    1    3    3    0  502 -0.24744824629E+03 -0.14189589256E+04  0.44591303889E+03  0.15078179991E+04  0.12699999809E+01 0. -1.
</event>
<event>
 5   0  0.3191750E-07  0.3966766E+04  0.7818609E-02  0.8011285E-01
       -3   -1    0    0    0  501  0.00000000000E+00  0.00000000000E+00  0.16321989922E+04  0.16321989954E+04  0.10100000352E+00 0.  1.
        3   -1    0    0  501    0  0.00000000000E+00  0.00000000000E+00 -0.24101280308E+04  0.24101280329E+04  0.10100000352E+00 0. -1.
    10030    2    1    2    0    0  0.00000000000E+00  0.00000000000E+00 -0.77792903852E+03  0.40423270282E+04  0.39667662162E+04 0.  0.
        4    1    3    3  502    0  0.99301609666E+03 -0.11793959054E+04  0.88250061062E+03  0.17764753335E+04  0.12699999809E+01 0.  1.
       -4    1    3    3    0  502 -0.99301609666E+03  0.11793959054E+04 -0.16604296491E+04  0.22658516947E+04  0.12699999809E+01 0. -1.
</event>
<event>
 5   0  0.5533705E-07  0.3839653E+04  0.7818609E-02  0.8037699E-01
       -2   -1    0    0    0  501  0.00000000000E+00  0.00000000000E+00  0.19104177816E+04  0.19104177816E+04  0.25500000920E-02 0.  1.
        2   -1    0    0  501    0  0.00000000000E+00  0.00000000000E+00 -0.19292813061E+04  0.19292813061E+04  0.25500000920E-02 0. -1.
    10030    2    1    2    0    0  0.00000000000E+00  0.00000000000E+00 -0.18863524530E+02  0.38396990877E+04  0.38396527515E+04 0.  0.
        1    1    3    3  502    0  0.72453948773E+03  0.28112283782E+03  0.17460796089E+04  0.19112251358E+04  0.50400001928E-02 0.  1.
       -1    1    3    3    0  502 -0.72453948773E+03 -0.28112283782E+03 -0.17649431334E+04  0.19284739519E+04  0.50400001928E-02 0. -1.
</event>
<event>
 5   0  0.1015219E-06  0.3236540E+04  0.7818609E-02  0.8179233E-01
       -2   -1    0    0    0  501  0.00000000000E+00  0.00000000000E+00  0.10268811008E+04  0.10268811008E+04  0.25500000920E-02 0.  1.
        2   -1    0    0  501    0  0.00000000000E+00  0.00000000000E+00 -0.25502436973E+04  0.25502436973E+04  0.25500000920E-02 0. -1.
    10030    2    1    2    0    0  0.00000000000E+00  0.00000000000E+00 -0.15233625965E+04  0.35771247980E+04  0.32365395441E+04 0.  0.
        3    1    3    3  502    0  0.14161068132E+04  0.68058268840E+02  0.10068714135E+03  0.14213121913E+04  0.10100000352E+00 0.  1.
       -3    1    3    3    0  502 -0.14161068132E+04 -0.68058268840E+02 -0.16240497378E+04  0.21558126068E+04  0.10100000352E+00 0. -1.
</event>
<event>
 5   0  0.7268013E-07  0.2030674E+04  0.7818609E-02  0.8592412E-01
        2   -1    0    0  501    0  0.00000000000E+00  0.00000000000E+00  0.12137405901E+04  0.12137405901E+04  0.25500000920E-02 0. -1.
       -2   -1    0    0    0  501  0.00000000000E+00  0.00000000000E+00 -0.84936575652E+03  0.84936575653E+03  0.25500000920E-02 0.  1.
    10030    2    1    2    0    0  0.00000000000E+00  0.00000000000E+00  0.36437483357E+03  0.20631063466E+04  0.20306744638E+04 0.  0.
        4    1    3    3  502    0  0.48115712828E+03 -0.86828358623E+03  0.39885264186E+03  0.10698194292E+04  0.12699999809E+01 0. -1.
       -4    1    3    3    0  502 -0.48115712828E+03  0.86828358623E+03 -0.34477808284E+02  0.99328691745E+03  0.12699999809E+01 0.  1.
</event>
<event>
 5   0  0.3471602E-07  0.2324324E+04  0.7818609E-02  0.8468392E-01
        1   -1    0    0  501    0  0.00000000000E+00  0.00000000000E+00  0.86774292007E+03  0.86774292009E+03  0.50400001928E-02 0. -1.
       -1   -1    0    0    0  501  0.00000000000E+00  0.00000000000E+00 -0.15564758238E+04  0.15564758239E+04  0.50400001928E-02 0.  1.
    10030    2    1    2    0    0  0.00000000000E+00  0.00000000000E+00 -0.68873290377E+03  0.24242187439E+04  0.23243243117E+04 0.  0.
        5    1    3    3  502    0 -0.77525529088E+03 -0.26675536150E+03 -0.12034279845E+04  0.14561731329E+04  0.46999998093E+01 0.  1.
       -5    1    3    3    0  502  0.77525529088E+03  0.26675536150E+03  0.51469508078E+03  0.96804561106E+03  0.46999998093E+01 0. -1.
</event>
<event>
 5   0  0.4627905E-07  0.3846631E+04  0.7818609E-02  0.8036221E-01
        1   -1    0    0  501    0  0.00000000000E+00  0.00000000000E+00  0.25064579560E+04  0.25064579560E+04  0.50400001928E-02 0. -1.
       -1   -1    0    0    0  501  0.00000000000E+00  0.00000000000E+00 -0.14758444274E+04  0.14758444275E+04  0.50400001928E-02 0.  1.
    10030    2    1    2    0    0  0.00000000000E+00  0.00000000000E+00  0.10306135286E+04  0.39823023835E+04  0.38466307372E+04 0.  0.
        1    1    3    3  502    0  0.34145395356E+01 -0.18447873884E+04 -0.47836329304E+02  0.18454106540E+04  0.50400001928E-02 0.  1.
       -1    1    3    3    0  502 -0.34145395356E+01  0.18447873884E+04  0.10784498579E+04  0.21368917295E+04  0.50400001928E-02 0. -1.
</event>
<event>
 5   0  0.1035864E-06  0.3293885E+04  0.7818609E-02  0.8164453E-01
       -2   -1    0    0    0  501  0.00000000000E+00  0.00000000000E+00  0.88045351390E+03  0.88045351391E+03  0.25500000920E-02 0.  1.
        2   -1    0    0  501    0  0.00000000000E+00  0.00000000000E+00 -0.30807076961E+04  0.30807076961E+04  0.25500000920E-02 0. -1.
    10030    2    1    2    0    0  0.00000000000E+00  0.00000000000E+00 -0.22002541822E+04  0.39611612100E+04  0.32938851931E+04 0.  0.
        5    1    3    3  502    0 -0.50767289989E+03 -0.84746784140E+03  0.48457266276E+03  0.11003482499E+04  0.46999998093E+01 0.  1.
       -5    1    3    3    0  502  0.50767289989E+03  0.84746784140E+03 -0.26848268449E+04  0.28608129601E+04  0.46999998093E+01 0. -1.
</event>
<event>
 5   0  0.1035864E-06  0.2767439E+04  0.7818609E-02  0.8313449E-01
        2   -1    0    0  501    0  0.00000000000E+00  0.00000000000E+00  0.12580991379E+04  0.12580991379E+04  0.25500000920E-02 0.  1.
       -2   -1    0    0    0  501  0.00000000000E+00  0.00000000000E+00 -0.15218827609E+04  0.15218827609E+04  0.25500000920E-02 0. -1.
    10030    2    1    2    0    0  0.00000000000E+00  0.00000000000E+00 -0.26378362301E+03  0.27799818988E+04  0.27674388084E+04 0.  0.
        5    1    3    3  502    0  0.92118858895E+03  0.87891276594E+03  0.41239534486E+03  0.13383452757E+04  0.46999998093E+01 0.  1.
       -5    1    3    3    0  502 -0.92118858895E+03 -0.87891276594E+03 -0.67617896788E+03  0.14416366231E+04  0.46999998093E+01 0. -1.
</event>
<event>
 5   0  0.3471602E-07  0.2979990E+04  0.7818609E-02  0.8249468E-01
        1   -1    0    0  501    0  0.00000000000E+00  0.00000000000E+00  0.21769465649E+04  0.21769465650E+04  0.50400001928E-02 0. -1.
       -1   -1    0    0    0  501  0.00000000000E+00  0.00000000000E+00 -0.10198162231E+04  0.10198162231E+04  0.50400001928E-02 0.  1.
    10030    2    1    2    0    0  0.00000000000E+00  0.00000000000E+00  0.11571303418E+04  0.31967627881E+04  0.29799902173E+04 0.  0.
        5    1    3    3  502    0  0.69779700550E+03 -0.78703138788E+03  0.17106641902E+04  0.20081666087E+04  0.46999998093E+01 0. -1.
       -5    1    3    3    0  502 -0.69779700550E+03  0.78703138788E+03 -0.55353384843E+03  0.11885961794E+04  0.46999998093E+01 0.  1.
</event>
<event>
 5   0  0.5533705E-07  0.4013085E+04  0.7818609E-02  0.8001912E-01
       -2   -1    0    0    0  501  0.00000000000E+00  0.00000000000E+00  0.12601403515E+04  0.12601403515E+04  0.25500000920E-02 0.  1.
        2   -1    0    0  501    0  0.00000000000E+00  0.00000000000E+00 -0.31950506810E+04  0.31950506810E+04  0.25500000920E-02 0. -1.
    10030    2    1    2    0    0  0.00000000000E+00  0.00000000000E+00 -0.19349103295E+04  0.44551910325E+04  0.40130847427E+04 0.  0.
        1    1    3    3  502    0  0.13674589382E+04 -0.26871530598E+03 -0.25701216436E+04  0.29236410734E+04  0.50400001928E-02 0. -1.
       -1    1    3    3    0  502 -0.13674589382E+04  0.26871530598E+03  0.63521131407E+03  0.15315499590E+04  0.50400001928E-02 0.  1.
</event>
<event>
 5   0  0.4316671E-07  0.2021022E+04  0.7818609E-02  0.8596855E-01
       -1   -1    0    0    0  501  0.00000000000E+00  0.00000000000E+00  0.31435900617E+03  0.31435900621E+03  0.50400001928E-02 0.  1.
        1   -1    0    0  501    0  0.00000000000E+00  0.00000000000E+00 -0.32483002506E+04  0.32483002506E+04  0.50400001928E-02 0. -1.
    10030    2    1    2    0    0  0.00000000000E+00  0.00000000000E+00 -0.29339412444E+04  0.35626592568E+04  0.20210219579E+04 0.  0.
        2    1    3    3  502    0  0.49040293470E+03 -0.68024739699E+03 -0.47305590919E+03  0.96281537830E+03  0.25500000920E-02 0.  1.
       -2    1    3    3    0  502 -0.49040293470E+03  0.68024739699E+03 -0.24608853352E+04  0.25998438785E+04  0.25500000920E-02 0. -1.
</event>
<event>
 5   0  0.3977376E-07  0.3942981E+04  0.7818609E-02  0.8016149E-01
        1   -1    0    0  501    0  0.00000000000E+00  0.00000000000E+00  0.23472539083E+04  0.23472539083E+04  0.50400001928E-02 0. -1.
       -1   -1    0    0    0  501  0.00000000000E+00  0.00000000000E+00 -0.16558814676E+04  0.16558814676E+04  0.50400001928E-02 0.  1.
    10030    2    1    2    0    0  0.00000000000E+00  0.00000000000E+00  0.69137244073E+03  0.40031353759E+04  0.39429807235E+04 0.  0.
        4    1    3    3  502    0  0.16050410322E+04 -0.80817013053E+03  0.11689061804E+04  0.21437441420E+04  0.12699999809E+01 0. -1.
       -4    1    3    3    0  502 -0.16050410322E+04  0.80817013053E+03 -0.47753373967E+03  0.18593912338E+04  0.12699999809E+01 0.  1.
</event>
<event>
 5   0  0.7268013E-07  0.2086668E+04  0.7818609E-02  0.8567139E-01
        2   -1    0    0  501    0  0.00000000000E+00  0.00000000000E+00  0.97222321095E+03  0.97222321095E+03  0.25500000920E-02 0. -1.
       -2   -1    0    0    0  501  0.00000000000E+00  0.00000000000E+00 -0.11196455497E+04  0.11196455497E+04  0.25500000920E-02 0.  1.
    10030    2    1    2    0    0  0.00000000000E+00  0.00000000000E+00 -0.14742233872E+03  0.20918687606E+04  0.20866675743E+04 0.  0.
        4    1    3    3  502    0  0.93919268505E+03  0.79600481769E+02 -0.52217916040E+03  0.10775397092E+04  0.12699999809E+01 0.  1.
       -4    1    3    3    0  502 -0.93919268505E+03 -0.79600481769E+02  0.37475682168E+03  0.10143290515E+04  0.12699999809E+01 0. -1.
</event>
<event>
 5   0  0.3471602E-07  0.3406828E+04  0.7818609E-02  0.8136233E-01
       -1   -1    0    0    0  501  0.00000000000E+00  0.00000000000E+00  0.31561808156E+04  0.31561808156E+04  0.50400001928E-02 0.  1.
        1   -1    0    0  501    0  0.00000000000E+00  0.00000000000E+00 -0.91934482709E+03  0.91934482710E+03  0.50400001928E-02 0. -1.
    10030    2    1    2    0    0  0.00000000000E+00  0.00000000000E+00  0.22368359885E+04  0.40755256427E+04  0.34068275602E+04 0.  0.
        5    1    3    3  502    0 -0.10401900933E+04 -0.31203691482E+02  0.27316815872E+04  0.29231961077E+04  0.46999998093E+01 0.  1.
       -5    1    3    3    0  502  0.10401900933E+04  0.31203691482E+02 -0.49484559868E+03  0.11523295350E+04  0.46999998093E+01 0. -1.
</event>
<event>
 5   0  0.3191750E-07  0.3957869E+04  0.7818609E-02  0.8013100E-01
       -3   -1    0    0    0  501  0.00000000000E+00  0.00000000000E+00  0.16231241178E+04  0.16231241210E+04  0.10100000352E+00 0. -1.
        3   -1    0    0  501    0  0.00000000000E+00  0.00000000000E+00 -0.24127437753E+04  0.24127437774E+04  0.10100000352E+00 0.  1.
    10030    2    1    2    0    0  0.00000000000E+00  0.00000000000E+00 -0.78961965747E+03  0.40358678983E+04  0.39578694382E+04 0.  0.
        2    1    3    3  502    0  0.84124407316E+03  0.61056074037E+03 -0.21119514969E+04  0.23538936114E+04  0.25500000920E-02 0.  1.
       -2    1    3    3    0  502 -0.84124407316E+03 -0.61056074037E+03  0.13223318395E+04  0.16819742870E+04  0.25500000920E-02 0. -1.
</event>
<event>
 5   0  0.4316671E-07  0.2878120E+04  0.7818609E-02  0.8279417E-01
        1   -1    0    0  501    0  0.00000000000E+00  0.00000000000E+00  0.15266302865E+04  0.15266302865E+04  0.50400001928E-02 0.  1.
       -1   -1    0    0    0  501  0.00000000000E+00  0.00000000000E+00 -0.13565124839E+04  0.13565124839E+04  0.50400001928E-02 0. -1.
    10030    2    1    2    0    0  0.00000000000E+00  0.00000000000E+00  0.17011780258E+03  0.28831427704E+04  0.28781195541E+04 0.  0.
        2    1    3    3  502    0 -0.64026483674E+03  0.31270716359E+03  0.13375082633E+04  0.15154712751E+04  0.25500000920E-02 0.  1.
       -2    1    3    3    0  502  0.64026483674E+03 -0.31270716359E+03 -0.11673904607E+04  0.13676714953E+04  0.25500000920E-02 0. -1.
</event>
<event>
 5   0  0.7268013E-07  0.3932880E+04  0.7818609E-02  0.8018225E-01
       -2   -1    0    0    0  501  0.00000000000E+00  0.00000000000E+00  0.14339598507E+04  0.14339598507E+04  0.25500000920E-02 0. -1.
        2   -1    0    0  501    0  0.00000000000E+00  0.00000000000E+00 -0.26966487141E+04  0.26966487141E+04  0.25500000920E-02 0.  1.
    10030    2    1    2    0    0  0.00000000000E+00  0.00000000000E+00 -0.12626888634E+04  0.41306085648E+04  0.39328798545E+04 0.  0.
        4    1    3    3  502    0 -0.17779945722E+04  0.20241833429E+03  0.22490189398E+03  0.18035576941E+04  0.12699999809E+01 0.  1.
       -4    1    3    3    0  502  0.17779945722E+04 -0.20241833429E+03 -0.14875907573E+04  0.23270508708E+04  0.12699999809E+01 0. -1.
</event>
<event>
 5   0  0.4316671E-07  0.3797372E+04  0.7818609E-02  0.8046719E-01
        1   -1    0    0  501    0  0.00000000000E+00  0.00000000000E+00  0.29492584703E+04  0.29492584703E+04  0.50400001928E-02 0. -1.
       -1   -1    0    0    0  501  0.00000000000E+00  0.00000000000E+00 -0.12223439830E+04  0.12223439831E+04  0.50400001928E-02 0.  1.
    10030    2    1    2    0    0  0.00000000000E+00  0.00000000000E+00  0.17269144872E+04  0.41716024533E+04  0.37973719047E+04 0.  0.
        2    1    3    3  502    0 -0.13969831285E+04 -0.10101643463E+04  0.17374877733E+04  0.24476228530E+04  0.25500000920E-02 0. -1.
       -2    1    3    3    0  502  0.13969831285E+04  0.10101643463E+04 -0.10573286103E+02  0.17239796003E+04  0.25500000920E-02 0.  1.
</event>
<event>
 5   0  0.5533705E-07  0.3018830E+04  0.7818609E-02  0.8238374E-01
        2   -1    0    0  501    0  0.00000000000E+00  0.00000000000E+00  0.15833360984E+04  0.15833360984E+04  0.25500000920E-02 0. -1.
       -2   -1    0    0    0  501  0.00000000000E+00  0.00000000000E+00 -0.14389452217E+04  0.14389452217E+04  0.25500000920E-02 0.  1.
    10030    2    1    2    0    0  0.00000000000E+00  0.00000000000E+00  0.14439087673E+03  0.30222813201E+04  0.30188301795E+04 0.  0.
        1    1    3    3  502    0  0.25224306099E+03  0.28203922741E+03 -0.13906941229E+04  0.14412504401E+04  0.50400001928E-02 0.  1.
       -1    1    3    3    0  502 -0.25224306099E+03 -0.28203922741E+03  0.15350849996E+04  0.15810308800E+04  0.50400001928E-02 0. -1.
</event>
<event>
 5   0  0.5533705E-07  0.3573595E+04  0.7818609E-02  0.8096567E-01
        2   -1    0    0  501    0  0.00000000000E+00  0.00000000000E+00  0.25952558142E+04  0.25952558142E+04  0.25500000920E-02 0. -1.
       -2   -1    0    0    0  501  0.00000000000E+00  0.00000000000E+00 -0.12301852575E+04  0.12301852575E+04  0.25500000920E-02 0.  1.
    10030    2    1    2    0    0  0.00000000000E+00  0.00000000000E+00  0.13650705567E+04  0.38254410717E+04  0.35735950762E+04 0.  0.
        1    1    3    3  502    0  0.92361649888E+03  0.75316457023E+03  0.21076419838E+04  0.24212556740E+04  0.50400001928E-02 0. -1.
       -1    1    3    3    0  502 -0.92361649888E+03 -0.75316457023E+03 -0.74257142713E+03  0.14041853978E+04  0.50400001928E-02 0.  1.
</event>
<event>
 5   0  0.5533705E-07  0.3061082E+04  0.7818609E-02  0.8226500E-01
        2   -1    0    0  501    0  0.00000000000E+00  0.00000000000E+00  0.17153937848E+04  0.17153937848E+04  0.25500000920E-02 0.  1.
       -2   -1    0    0    0  501  0.00000000000E+00  0.00000000000E+00 -0.13656083402E+04  0.13656083402E+04  0.25500000920E-02 0. -1.
    10030    2    1    2    0    0  0.00000000000E+00  0.00000000000E+00  0.34978544461E+03  0.30810021250E+04  0.30610822003E+04 0.  0.
        1    1    3    3  502    0  0.12512529332E+04 -0.22489257250E+03  0.10326978285E+04  0.16378874739E+04  0.50400001928E-02 0.  1.
       -1    1    3    3    0  502 -0.12512529332E+04  0.22489257250E+03 -0.68291238394E+03  0.14431146511E+04  0.50400001928E-02 0. -1.
</event>
<event>
 5   0  0.3977376E-07  0.3955354E+04  0.7818609E-02  0.8013614E-01
        1   -1    0    0  501    0  0.00000000000E+00  0.00000000000E+00  0.19343195468E+04  0.19343195468E+04  0.50400001928E-02 0. -1.
       -1   -1    0    0    0  501  0.00000000000E+00  0.00000000000E+00 -0.20220063035E+04  0.20220063035E+04  0.50400001928E-02 0.  1.
    10030    2    1    2    0    0  0.00000000000E+00  0.00000000000E+00 -0.87686756702E+02  0.39563258504E+04  0.39553540002E+04 0.  0.
        4    1    3    3  502    0  0.17723342791E+04 -0.80403061479E+03 -0.39545596173E+03  0.19859559554E+04  0.12699999809E+01 0. -1.
       -4    1    3    3    0  502 -0.17723342791E+04  0.80403061479E+03  0.30776920503E+03  0.19703698949E+04  0.12699999809E+01 0.  1.
</event>
<event>
 5   0  0.3471602E-07  0.3854020E+04  0.7818609E-02  0.8034661E-01
        1   -1    0    0  501    0  0.00000000000E+00  0.00000000000E+00  0.19925268444E+04  0.19925268444E+04  0.50400001928E-02 0.  1.
       -1   -1    0    0    0  501  0.00000000000E+00  0.00000000000E+00 -0.18636473651E+04  0.18636473651E+04  0.50400001928E-02 0. -1.
    10030    2    1    2    0    0  0.00000000000E+00  0.00000000000E+00  0.12887947928E+03  0.38561742095E+04  0.38540199291E+04 0.  0.
        5    1    3    3  502    0 -0.64441435098E+03 -0.55822211118E+03  0.17935444649E+04  0.19858765366E+04  0.46999998093E+01 0.  1.
       -5    1    3    3    0  502  0.64441435098E+03  0.55822211118E+03 -0.16646649856E+04  0.18702976729E+04  0.46999998093E+01 0. -1.
</event>
<event>
 5   0  0.5533705E-07  0.3020144E+04  0.7818609E-02  0.8238002E-01
       -2   -1    0    0    0  501  0.00000000000E+00  0.00000000000E+00  0.10291839774E+04  0.10291839774E+04  0.25500000920E-02 0.  1.
        2   -1    0    0  501    0  0.00000000000E+00  0.00000000000E+00 -0.22156553831E+04  0.22156553831E+04  0.25500000920E-02 0. -1.
    10030    2    1    2    0    0  0.00000000000E+00  0.00000000000E+00 -0.11864714057E+04  0.32448393605E+04  0.30201437183E+04 0.  0.
        1    1    3    3  502    0  0.44217704517E+03 -0.11803175359E+04  0.30029162289E+03  0.12957025444E+04  0.50400001928E-02 0.  1.
       -1    1    3    3    0  502 -0.44217704517E+03  0.11803175359E+04 -0.14867630285E+04  0.19491368161E+04  0.50400001928E-02 0. -1.
</event>
<event>
 5   0  0.3471602E-07  0.2599500E+04  0.7818609E-02  0.8368371E-01
        1   -1    0    0  501    0  0.00000000000E+00  0.00000000000E+00  0.20465247980E+04  0.20465247980E+04  0.50400001928E-02 0. -1.
       -1   -1    0    0    0  501  0.00000000000E+00  0.00000000000E+00 -0.82547224656E+03  0.82547224657E+03  0.50400001928E-02 0.  1.
    10030    2    1    2    0    0  0.00000000000E+00  0.00000000000E+00  0.12210525514E+04  0.28719970446E+04  0.25994995077E+04 0.  0.
        5    1    3    3  502    0 -0.11489412295E+04  0.16961345011E+01  0.12818925235E+04  0.17214352609E+04  0.46999998093E+01 0.  1.
       -5    1    3    3    0  502  0.11489412295E+04 -0.16961345011E+01 -0.60839972092E+02  0.11505617836E+04  0.46999998093E+01 0. -1.
</event>
<event>
 5   0  0.1034683E-06  0.3792223E+04  0.7818609E-02  0.8047826E-01
       -2   -1    0    0    0  501  0.00000000000E+00  0.00000000000E+00  0.17092886182E+04  0.17092886182E+04  0.25500000920E-02 0.  1.
        2   -1    0    0  501    0  0.00000000000E+00  0.00000000000E+00 -0.21033538381E+04  0.21033538381E+04  0.25500000920E-02 0. -1.
    10030    2    1    2    0    0  0.00000000000E+00  0.00000000000E+00 -0.39406521990E+03  0.38126424563E+04  0.37922229764E+04 0.  0.
        2    1    3    3  502    0 -0.10216539089E+04 -0.13063575197E+04 -0.11211621192E+04  0.20018369505E+04  0.25500000920E-02 0. -1.
       -2    1    3    3    0  502  0.10216539089E+04  0.13063575197E+04  0.72709689926E+03  0.18108055058E+04  0.25500000920E-02 0.  1.
</event>
<event>
 5   0  0.4627905E-07  0.3892274E+04  0.7818609E-02  0.8026638E-01
       -1   -1    0    0    0  501  0.00000000000E+00  0.00000000000E+00  0.15007257384E+04  0.15007257384E+04  0.50400001928E-02 0. -1.
        1   -1    0    0  501    0  0.00000000000E+00  0.00000000000E+00 -0.25237446432E+04  0.25237446432E+04  0.50400001928E-02 0.  1.
    10030    2    1    2    0    0  0.00000000000E+00  0.00000000000E+00 -0.10230189048E+04  0.40244703816E+04  0.38922736509E+04 0.  0.
        1    1    3    3  502    0 -0.21411369887E+03  0.19083686778E+04 -0.18497839203E+03  0.19292311142E+04  0.50400001928E-02 0. -1.
       -1    1    3    3    0  502  0.21411369887E+03 -0.19083686778E+04 -0.83804051274E+03  0.20952392674E+04  0.50400001928E-02 0.  1.
</event>
<event>
 5   0  0.4627905E-07  0.3782766E+04  0.7818609E-02  0.8049863E-01
       -1   -1    0    0    0  501  0.00000000000E+00  0.00000000000E+00  0.22105714396E+04  0.22105714396E+04  0.50400001928E-02 0. -1.
        1   -1    0    0  501    0  0.00000000000E+00  0.00000000000E+00 -0.16182831815E+04  0.16182831815E+04  0.50400001928E-02 0.  1.
    10030    2    1    2    0    0  0.00000000000E+00  0.00000000000E+00  0.59228825815E+03  0.38288546211E+04  0.37827664914E+04 0.  0.
        1    1    3    3  502    0 -0.18624606460E+04 -0.11967928027E+03 -0.14594282039E+02  0.18663589636E+04  0.50400001928E-02 0.  1.
       -1    1    3    3    0  502  0.18624606460E+04  0.11967928027E+03  0.60688254019E+03  0.19624956575E+04  0.50400001928E-02 0. -1.
</event>
<event>
 5   0  0.4316671E-07  0.3754198E+04  0.7818609E-02  0.8056056E-01
        1   -1    0    0  501    0  0.00000000000E+00  0.00000000000E+00  0.19407495622E+04  0.19407495622E+04  0.50400001928E-02 0. -1.
       -1   -1    0    0    0  501  0.00000000000E+00  0.00000000000E+00 -0.18155363621E+04  0.18155363621E+04  0.50400001928E-02 0.  1.
    10030    2    1    2    0    0  0.00000000000E+00  0.00000000000E+00  0.12521320014E+03  0.37562859243E+04  0.37541983964E+04 0.  0.
        2    1    3    3  502    0 -0.10176898345E+03 -0.13770803852E+04  0.13348458183E+04  0.19205521789E+04  0.25500000920E-02 0. -1.
       -2    1    3    3    0  502  0.10176898345E+03  0.13770803852E+04 -0.12096326181E+04  0.18357337454E+04  0.25500000920E-02 0.  1.
</event>
<event>
 5   0  0.7268013E-07  0.2048542E+04  0.7818609E-02  0.8584256E-01
       -2   -1    0    0    0  501  0.00000000000E+00  0.00000000000E+00  0.83827090249E+03  0.83827090249E+03  0.25500000920E-02 0. -1.
        2   -1    0    0  501    0  0.00000000000E+00  0.00000000000E+00 -0.12515415556E+04  0.12515415556E+04  0.25500000920E-02 0.  1.
    10030    2    1    2    0    0  0.00000000000E+00  0.00000000000E+00 -0.41327065314E+03  0.20898124581E+04  0.20485417929E+04 0.  0.
        4    1    3    3  502    0  0.38377855067E+03 -0.76040876850E+03  0.37370314282E+03  0.93014145323E+03  0.12699999809E+01 0. -1.
       -4    1    3    3    0  502 -0.38377855067E+03  0.76040876850E+03 -0.78697379596E+03  0.11596710049E+04  0.12699999809E+01 0.  1.
</event>
<event>
 5   0  0.5385714E-07  0.2824573E+04  0.7818609E-02  0.8295680E-01
       -1   -1    0    0    0  501  0.00000000000E+00  0.00000000000E+00  0.22805785713E+04  0.22805785713E+04  0.50400001928E-02 0. -1.
        1   -1    0    0  501    0  0.00000000000E+00  0.00000000000E+00 -0.87458230323E+03  0.87458230324E+03  0.50400001928E-02 0.  1.
    10030    2    1    2    0    0  0.00000000000E+00  0.00000000000E+00  0.14059962680E+04  0.31551608745E+04  0.28245733551E+04 0.  0.
        3    1    3    3  502    0  0.11522097799E+04 -0.68182727145E+03  0.12051418128E+04  0.18013446656E+04  0.10100000352E+00 0. -1.
       -3    1    3    3    0  502 -0.11522097799E+04  0.68182727145E+03  0.20085445521E+03  0.13538162089E+04  0.10100000352E+00 0.  1.
</event>
<event>
 5   0  0.3471602E-07  0.3926536E+04  0.7818609E-02  0.8019533E-01
       -1   -1    0    0    0  501  0.00000000000E+00  0.00000000000E+00  0.21421031364E+04  0.21421031364E+04  0.50400001928E-02 0.  1.
        1   -1    0    0  501    0  0.00000000000E+00  0.00000000000E+00 -0.17993632393E+04  0.17993632393E+04  0.50400001928E-02 0. -1.
    10030    2    1    2    0    0  0.00000000000E+00  0.00000000000E+00  0.34273989712E+03  0.39414663757E+04  0.39265362030E+04 0.  0.
        5    1    3    3  502    0  0.18420779977E+04 -0.20994763413E+03 -0.47689538000E+03  0.19143616827E+04  0.46999998093E+01 0. -1.
       -5    1    3    3    0  502 -0.18420779977E+04  0.20994763413E+03  0.81963527712E+03  0.20271046930E+04  0.46999998093E+01 0.  1.
</event>
<event>
 5   0  0.4316671E-07  0.3606918E+04  0.7818609E-02  0.8088909E-01
       -1   -1    0    0    0  501  0.00000000000E+00  0.00000000000E+00  0.12958553001E+04  0.12958553001E+04  0.50400001928E-02 0. -1.
        1   -1    0    0  501    0  0.00000000000E+00  0.00000000000E+00 -0.25098981875E+04  0.25098981875E+04  0.50400001928E-02 0.  1.
    10030    2    1    2    0    0  0.00000000000E+00  0.00000000000E+00 -0.12140428875E+04  0.38057534876E+04  0.36069182796E+04 0.  0.
        2    1    3    3  502    0  0.16830852563E+04 -0.48897275720E+03 -0.10554121981E+04  0.20459142810E+04  0.25500000920E-02 0.  1.
       -2    1    3    3    0  502 -0.16830852563E+04  0.48897275720E+03 -0.15863068937E+03  0.17598392066E+04  0.25500000920E-02 0. -1.
</event>
<event>
 5   0  0.1034683E-06  0.3693882E+04  0.7818609E-02  0.8069319E-01
        2   -1    0    0  501    0  0.00000000000E+00  0.00000000000E+00  0.25943700409E+04  0.25943700409E+04  0.25500000920E-02 0.  1.
       -2   -1    0    0    0  501  0.00000000000E+00  0.00000000000E+00 -0.13148435670E+04  0.13148435670E+04  0.25500000920E-02 0. -1.
    10030    2    1    2    0    0  0.00000000000E+00  0.00000000000E+00  0.12795264739E+04  0.39092136079E+04  0.36938818383E+04 0.  0.
        2    1    3    3  502    0 -0.13842726850E+04 -0.83042493149E+03  0.15895044699E+04  0.22654670364E+04  0.25500000920E-02 0.  1.
       -2    1    3    3    0  502  0.13842726850E+04  0.83042493149E+03 -0.30997799606E+03  0.16437465715E+04  0.25500000920E-02 0. -1.
</event>
<event>
 5   0  0.7268013E-07  0.2474614E+04  0.7818609E-02  0.8412086E-01
       -2   -1    0    0    0  501  0.00000000000E+00  0.00000000000E+00  0.13495789481E+04  0.13495789481E+04  0.25500000920E-02 0. -1.
        2   -1    0    0  501    0  0.00000000000E+00  0.00000000000E+00 -0.11343746709E+04  0.11343746709E+04  0.25500000920E-02 0.  1.
    10030    2    1    2    0    0  0.00000000000E+00  0.00000000000E+00  0.21520427717E+03  0.24839536191E+04  0.24746136468E+04 0.  0.
        4    1    3    3  502    0 -0.90322836605E+03 -0.57204951354E+03  0.73274036796E+03  0.12961374105E+04  0.12699999809E+01 0. -1.
       -4    1    3    3    0  502  0.90322836605E+03  0.57204951354E+03 -0.51753609079E+03  0.11878162086E+04  0.12699999809E+01 0.  1.
</event>
<event>
 5   0  0.7268013E-07  0.2401519E+04  0.7818609E-02  0.8438935E-01
       -2   -1    0    0    0  501  0.00000000000E+00  0.00000000000E+00  0.13602335930E+04  0.13602335930E+04  0.25500000920E-02 0.  1.
        2   -1    0    0  501    0  0.00000000000E+00  0.00000000000E+00 -0.10599826149E+04  0.10599826149E+04  0.25500000920E-02 0. -1.
    10030    2    1    2    0    0  0.00000000000E+00  0.00000000000E+00  0.30025097816E+03  0.24202162079E+04  0.24015194863E+04 0.  0.
        4    1    3    3  502    0 -0.95675652024E+03 -0.64754807273E+03  0.47996673214E+03  0.12510280662E+04  0.12699999809E+01 0.  1.
       -4    1    3    3    0  502  0.95675652024E+03  0.64754807273E+03 -0.17971575399E+03  0.11691881417E+04  0.12699999809E+01 0. -1.
</event>
<event>
 5   0  0.3977376E-07  0.3877731E+04  0.7818609E-02  0.8029677E-01
        1   -1    0    0  501    0  0.00000000000E+00  0.00000000000E+00  0.15445836557E+04  0.15445836557E+04  0.50400001928E-02 0. -1.
       -1   -1    0    0    0  501  0.00000000000E+00  0.00000000000E+00 -0.24337945936E+04  0.24337945936E+04  0.50400001928E-02 0.  1.
    10030    2    1    2    0    0  0.00000000000E+00  0.00000000000E+00 -0.88921093787E+03  0.39783782493E+04  0.38777309606E+04 0.  0.
        4    1    3    3  502    0  0.10609689000E+04 -0.62685153893E+03  0.10911092678E+04  0.16459401283E+04  0.12699999809E+01 0. -1.
       -4    1    3    3    0  502 -0.10609689000E+04  0.62685153893E+03 -0.19803202057E+04  0.23324381211E+04  0.12699999809E+01 0.  1.
</event>
<event>
 5   0  0.1034683E-06  0.3993908E+04  0.7818609E-02  0.8005777E-01
       -2   -1    0    0    0  501  0.00000000000E+00  0.00000000000E+00  0.20937977212E+04  0.20937977212E+04  0.25500000920E-02 0.  1.
        2   -1    0    0  501    0  0.00000000000E+00  0.00000000000E+00 -0.19045897993E+04  0.19045897993E+04  0.25500000920E-02 0. -1.
    10030    2    1    2    0    0  0.00000000000E+00  0.00000000000E+00  0.18920792191E+03  0.39983875205E+04  0.39939082522E+04 0.  0.
        2    1    3    3  502    0 -0.46800211346E+03  0.13248741850E+04  0.15151767785E+04  0.20664167669E+04  0.25500000920E-02 0.  1.
       -2    1    3    3    0  502  0.46800211346E+03 -0.13248741850E+04 -0.13259688566E+04  0.19319707537E+04  0.25500000920E-02 0. -1.
</event>
<event>
 5   0  0.7268013E-07  0.3826223E+04  0.7818609E-02  0.8040551E-01
        2   -1    0    0  501    0  0.00000000000E+00  0.00000000000E+00  0.19823512734E+04  0.19823512734E+04  0.25500000920E-02 0.  1.
       -2   -1    0    0    0  501  0.00000000000E+00  0.00000000000E+00 -0.18462897388E+04  0.18462897388E+04  0.25500000920E-02 0. -1.
    10030    2    1    2    0    0  0.00000000000E+00  0.00000000000E+00  0.13606153461E+03  0.38286410121E+04  0.38262225835E+04 0.  0.
        4    1    3    3  502    0 -0.90774651403E+03 -0.90624512864E+03  0.14883324612E+04  0.19647949244E+04  0.12699999809E+01 0.  1.
       -4    1    3    3    0  502  0.90774651403E+03  0.90624512864E+03 -0.13522709266E+04  0.18638460877E+04  0.12699999809E+01 0. -1.
</event>
<event>
 5   0  0.1015219E-06  0.3890668E+04  0.7818609E-02  0.8026973E-01
       -2   -1    0    0    0  501  0.00000000000E+00  0.00000000000E+00  0.17951527167E+04  0.17951527167E+04  0.25500000920E-02 0.  1.
        2   -1    0    0  501    0  0.00000000000E+00  0.00000000000E+00 -0.21080794225E+04  0.21080794225E+04  0.25500000920E-02 0. -1.
    10030    2    1    2    0    0  0.00000000000E+00  0.00000000000E+00 -0.31292670584E+03  0.39032321391E+04  0.38906680672E+04 0.  0.
        3    1    3    3  502    0  0.13911799317E+04  0.46643104749E+03  0.11249180856E+04  0.18488862144E+04  0.10100000352E+00 0.  1.
       -3    1    3    3    0  502 -0.13911799317E+04 -0.46643104749E+03 -0.14378447914E+04  0.20543459248E+04  0.10100000352E+00 0. -1.
</event>
<event>
 5   0  0.1035864E-06  0.2235902E+04  0.7818609E-02  0.8503632E-01
       -2   -1    0    0    0  501  0.00000000000E+00  0.00000000000E+00  0.84188759407E+03  0.84188759408E+03  0.25500000920E-02 0.  1.
        2   -1    0    0  501    0  0.00000000000E+00  0.00000000000E+00 -0.14845379973E+04  0.14845379973E+04  0.25500000920E-02 0. -1.
    10030    2    1    2    0    0  0.00000000000E+00  0.00000000000E+00 -0.64265040322E+03  0.23264255914E+04  0.22359017178E+04 0.  0.
        5    1    3    3  502    0 -0.74317491801E+03 -0.82283963687E+03 -0.17264843022E+03  0.11221424140E+04  0.46999998093E+01 0. -1.
       -5    1    3    3    0  502  0.74317491801E+03  0.82283963687E+03 -0.47000197300E+03  0.12042831774E+04  0.46999998093E+01 0.  1.
</event>
<event>
 5   0  0.1015219E-06  0.2545245E+04  0.7818609E-02  0.8387042E-01
       -2   -1    0    0    0  501  0.00000000000E+00  0.00000000000E+00  0.10861421364E+04  0.10861421364E+04  0.25500000920E-02 0.  1.
        2   -1    0    0  501    0  0.00000000000E+00  0.00000000000E+00 -0.14911199459E+04  0.14911199459E+04  0.25500000920E-02 0. -1.
    10030    2    1    2    0    0  0.00000000000E+00  0.00000000000E+00 -0.40497780947E+03  0.25772620823E+04  0.25452451384E+04 0.  0.
        3    1    3    3  502    0 -0.26652426817E+03  0.76477221906E+03 -0.11964973779E+04  0.14448244593E+04  0.10100000352E+00 0. -1.
       -3    1    3    3    0  502  0.26652426817E+03 -0.76477221906E+03  0.79151956845E+03  0.11324376230E+04  0.10100000352E+00 0.  1.
</event>
<event>
 5   0  0.3191750E-07  0.3308206E+04  0.7818609E-02  0.8160811E-01
       -3   -1    0    0    0  501  0.00000000000E+00  0.00000000000E+00  0.12172782783E+04  0.12172782825E+04  0.10100000352E+00 0.  1.
        3   -1    0    0  501    0  0.00000000000E+00  0.00000000000E+00 -0.22476835286E+04  0.22476835309E+04  0.10100000352E+00 0. -1.
    10030    2    1    2    0    0  0.00000000000E+00  0.00000000000E+00 -0.10304052503E+04  0.34649618133E+04  0.33082057657E+04 0.  0.
        1    1    3    3  502    0 -0.13150225287E+04  0.43128423783E+02 -0.15651558752E+04  0.20447144607E+04  0.50400001928E-02 0. -1.
       -1    1    3    3    0  502  0.13150225287E+04 -0.43128423783E+02  0.53475062491E+03  0.14202473527E+04  0.50400001928E-02 0.  1.
</event>
<event>
 5   0  0.1035864E-06  0.2659281E+04  0.7818609E-02  0.8348339E-01
        2   -1    0    0  501    0  0.00000000000E+00  0.00000000000E+00  0.22280519305E+04  0.22280519305E+04  0.25500000920E-02 0. -1.
       -2   -1    0    0    0  501  0.00000000000E+00  0.00000000000E+00 -0.79349297672E+03  0.79349297672E+03  0.25500000920E-02 0.  1.
    10030    2    1    2    0    0  0.00000000000E+00  0.00000000000E+00  0.14345589537E+04  0.30215449072E+04  0.26592807739E+04 0.  0.
        5    1    3    3  502    0  0.31938222127E+03 -0.87923499664E+03  0.17909155601E+04  0.20205097912E+04  0.46999998093E+01 0. -1.
       -5    1    3    3    0  502 -0.31938222127E+03  0.87923499664E+03 -0.35635660640E+03  0.10010351160E+04  0.46999998093E+01 0.  1.
</event>
<event>
 5   0  0.7268013E-07  0.2238986E+04  0.7818609E-02  0.8502374E-01
        2   -1    0    0  501    0  0.00000000000E+00  0.00000000000E+00  0.25961589640E+04  0.25961589640E+04  0.25500000920E-02 0.  1.
       -2   -1    0    0    0  501  0.00000000000E+00  0.00000000000E+00 -0.48273821032E+03  0.48273821032E+03  0.25500000920E-02 0. -1.
    10030    2    1    2    0    0  0.00000000000E+00  0.00000000000E+00  0.21134207537E+04  0.30788971743E+04  0.22389864957E+04 0.  0.
        4    1    3    3  502    0 -0.78396054336E+03  0.20469274542E+03  0.21190106640E+04  0.22686341839E+04  0.12699999809E+01 0.  1.
       -4    1    3    3    0  502  0.78396054336E+03 -0.20469274542E+03 -0.55899103050E+01  0.81026299037E+03  0.12699999809E+01 0. -1.
</event>
<event>
 5   0  0.3977376E-07  0.3235329E+04  0.7818609E-02  0.8179549E-01
        1   -1    0    0  501    0  0.00000000000E+00  0.00000000000E+00  0.16933946596E+04  0.16933946596E+04  0.50400001928E-02 0.  1.
       -1   -1    0    0    0  501  0.00000000000E+00  0.00000000000E+00 -0.15453207348E+04  0.15453207348E+04  0.50400001928E-02 0. -1.
    10030    2    1    2    0    0  0.00000000000E+00  0.00000000000E+00  0.14807392479E+03  0.32387153944E+04  0.32353286569E+04 0.  0.
        4    1    3    3  502    0 -0.45697066362E+02  0.24960042015E+02  0.16925550594E+04  0.16933562731E+04  0.12699999809E+01 0.  1.
       -4    1    3    3    0  502  0.45697066362E+02 -0.24960042015E+02 -0.15444811346E+04  0.15453591213E+04  0.12699999809E+01 0. -1.
</event>
<event>
 5   0  0.5533705E-07  0.3798210E+04  0.7818609E-02  0.8046539E-01
       -2   -1    0    0    0  501  0.00000000000E+00  0.00000000000E+00  0.17743572329E+04  0.17743572329E+04  0.25500000920E-02 0. -1.
        2   -1    0    0  501    0  0.00000000000E+00  0.00000000000E+00 -0.20326235204E+04  0.20326235204E+04  0.25500000920E-02 0.  1.
    10030    2    1    2    0    0  0.00000000000E+00  0.00000000000E+00 -0.25826628751E+03  0.38069807533E+04  0.37982102338E+04 0.  0.
        1    1    3    3  502    0 -0.89582421144E+03 -0.16775837275E+02 -0.18074601222E+04  0.20173483933E+04  0.50400001928E-02 0.  1.
       -1    1    3    3    0  502  0.89582421144E+03  0.16775837275E+02  0.15491938347E+04  0.17896323600E+04  0.50400001928E-02 0. -1.
</event>
<event>
 5   0  0.3471602E-07  0.2548438E+04  0.7818609E-02  0.8385930E-01
       -1   -1    0    0    0  501  0.00000000000E+00  0.00000000000E+00  0.14824394448E+04  0.14824394448E+04  0.50400001928E-02 0.  1.
        1   -1    0    0  501    0  0.00000000000E+00  0.00000000000E+00 -0.10952444786E+04  0.10952444787E+04  0.50400001928E-02 0. -1.
    10030    2    1    2    0    0  0.00000000000E+00  0.00000000000E+00  0.38719496618E+03  0.25776839235E+04  0.25484376523E+04 0.  0.
        5    1    3    3  502    0 -0.42607251786E+03 -0.73163929759E+03  0.11567743856E+04  0.14335211619E+04  0.46999998093E+01 0.  1.
       -5    1    3    3    0  502  0.42607251786E+03  0.73163929759E+03 -0.76957941945E+03  0.11441627616E+04  0.46999998093E+01 0. -1.
</event>
<event>
 5   0  0.5385714E-07  0.3880965E+04  0.7818609E-02  0.8029000E-01
        1   -1    0    0  501    0  0.00000000000E+00  0.00000000000E+00  0.11228920209E+04  0.11228920209E+04  0.50400001928E-02 0. -1.
       -1   -1    0    0    0  501  0.00000000000E+00  0.00000000000E+00 -0.33533693803E+04  0.33533693803E+04  0.50400001928E-02 0.  1.
    10030    2    1    2    0    0  0.00000000000E+00  0.00000000000E+00 -0.22304773594E+04  0.44762614013E+04  0.38809646844E+04 0.  0.
        3    1    3    3  502    0  0.12478864690E+04  0.77379931781E+03 -0.25784912942E+04  0.29672551943E+04  0.10100000352E+00 0.  1.
       -3    1    3    3    0  502 -0.12478864690E+04 -0.77379931781E+03  0.34801393477E+03  0.15090062070E+04  0.10100000352E+00 0. -1.
</event>
<event>
 5   0  0.1034683E-06  0.3302339E+04  0.7818609E-02  0.8162301E-01
       -2   -1    0    0    0  501  0.00000000000E+00  0.00000000000E+00  0.10361040752E+04  0.10361040752E+04  0.25500000920E-02 0. -1.
        2   -1    0    0  501    0  0.00000000000E+00  0.00000000000E+00 -0.26313577054E+04  0.26313577054E+04  0.25500000920E-02 0.  1.
    10030    2    1    2    0    0  0.00000000000E+00  0.00000000000E+00 -0.15952536302E+04  0.36674617806E+04  0.33023388329E+04 0.  0.
        2    1    3    3  502    0 -0.19834718111E+03  0.10730642683E+04  0.57855627432E+03  0.12351258603E+04  0.25500000920E-02 0. -1.
       -2    1    3    3    0  502  0.19834718111E+03 -0.10730642683E+04 -0.21738099045E+04  0.24323359203E+04  0.25500000920E-02 0.  1.
</event>
<event>
 5   0  0.1015219E-06  0.3905739E+04  0.7818609E-02  0.8023837E-01
       -2   -1    0    0    0  501  0.00000000000E+00  0.00000000000E+00  0.16239859369E+04  0.16239859369E+04  0.25500000920E-02 0.  1.
        2   -1    0    0  501    0  0.00000000000E+00  0.00000000000E+00 -0.23483573347E+04  0.23483573347E+04  0.25500000920E-02 0. -1.
    10030    2    1    2    0    0  0.00000000000E+00  0.00000000000E+00 -0.72437139779E+03  0.39723432715E+04  0.39057390011E+04 0.  0.
        3    1    3    3  502    0 -0.12980813283E+04  0.75159559940E+03  0.90965441362E+03  0.17542469160E+04  0.10100000352E+00 0.  1.
       -3    1    3    3    0  502  0.12980813283E+04 -0.75159559940E+03 -0.16340258114E+04  0.22180963555E+04  0.10100000352E+00 0. -1.
</event>
<event>
 5   0  0.3977376E-07  0.3892008E+04  0.7818609E-02  0.8026693E-01
       -1   -1    0    0    0  501  0.00000000000E+00  0.00000000000E+00  0.15634956613E+04  0.15634956614E+04  0.50400001928E-02 0.  1.
        1   -1    0    0  501    0  0.00000000000E+00  0.00000000000E+00 -0.24220931497E+04  0.24220931497E+04  0.50400001928E-02 0. -1.
    10030    2    1    2    0    0  0.00000000000E+00  0.00000000000E+00 -0.85859748839E+03  0.39855888111E+04  0.38920082893E+04 0.  0.
        4    1    3    3  502    0  0.33551874782E+03 -0.14101219888E+04  0.90034838354E+03  0.17063544996E+04  0.12699999809E+01 0.  1.
       -4    1    3    3    0  502 -0.33551874782E+03  0.14101219888E+04 -0.17589458719E+04  0.22792343115E+04  0.12699999809E+01 0. -1.
</event>
<event>
 5   0  0.7268013E-07  0.4030678E+04  0.7818609E-02  0.7998386E-01
        2   -1    0    0  501    0  0.00000000000E+00  0.00000000000E+00  0.31571270096E+04  0.31571270096E+04  0.25500000920E-02 0.  1.
       -2   -1    0    0    0  501  0.00000000000E+00  0.00000000000E+00 -0.12864834773E+04  0.12864834773E+04  0.25500000920E-02 0. -1.
    10030    2    1    2    0    0  0.00000000000E+00  0.00000000000E+00  0.18706435324E+04  0.44436104869E+04  0.40306782226E+04 0.  0.
        4    1    3    3  502    0  0.14790484628E+03 -0.18799320488E+04  0.15144389831E+03  0.18918132093E+04  0.12699999809E+01 0. -1.
       -4    1    3    3    0  502 -0.14790484628E+03  0.18799320488E+04  0.17191996341E+04  0.25517972776E+04  0.12699999809E+01 0.  1.
</event>
<event>
 5   0  0.3471602E-07  0.3879229E+04  0.7818609E-02  0.8029363E-01
        1   -1    0    0  501    0  0.00000000000E+00  0.00000000000E+00  0.14252265993E+04  0.14252265993E+04  0.50400001928E-02 0. -1.
       -1   -1    0    0    0  501  0.00000000000E+00  0.00000000000E+00 -0.26396537177E+04  0.26396537177E+04  0.50400001928E-02 0.  1.
    10030    2    1    2    0    0  0.00000000000E+00  0.00000000000E+00 -0.12144271184E+04  0.40648803171E+04  0.38792291459E+04 0.  0.
        5    1    3    3  502    0  0.50771511734E+03  0.11734404389E+04  0.92113123925E+03  0.15758305600E+04  0.46999998093E+01 0. -1.
       -5    1    3    3    0  502 -0.50771511734E+03 -0.11734404389E+04 -0.21355583577E+04  0.24890497570E+04  0.46999998093E+01 0.  1.
</event>
<event>
 5   0  0.1034683E-06  0.2215867E+04  0.7818609E-02  0.8511853E-01
        2   -1    0    0  501    0  0.00000000000E+00  0.00000000000E+00  0.54273598298E+03  0.54273598299E+03  0.25500000920E-02 0. -1.
       -2   -1    0    0    0  501  0.00000000000E+00  0.00000000000E+00 -0.22617200037E+04  0.22617200037E+04  0.25500000920E-02 0.  1.
    10030    2    1    2    0    0  0.00000000000E+00  0.00000000000E+00 -0.17189840207E+04  0.28044559867E+04  0.22158671706E+04 0.  0.
        2    1    3    3  502    0 -0.36251805860E+03  0.88561303911E+03 -0.15661901190E+04  0.18353967654E+04  0.25500000920E-02 0.  1.
       -2    1    3    3    0  502  0.36251805860E+03 -0.88561303911E+03 -0.15279390175E+03  0.96905922124E+03  0.25500000920E-02 0. -1.
</event>
<event>
 5   0  0.5533705E-07  0.3970619E+04  0.7818609E-02  0.8010500E-01
       -2   -1    0    0    0  501  0.00000000000E+00  0.00000000000E+00  0.17928071031E+04  0.17928071031E+04  0.25500000920E-02 0.  1.
        2   -1    0    0  501    0  0.00000000000E+00  0.00000000000E+00 -0.21984818832E+04  0.21984818832E+04  0.25500000920E-02 0. -1.
    10030    2    1    2    0    0  0.00000000000E+00  0.00000000000E+00 -0.40567478001E+03  0.39912889863E+04  0.39706190632E+04 0.  0.
        1    1    3    3  502    0 -0.19069045635E+04  0.24361090991E+03  0.29554868029E+03  0.19449885121E+04  0.50400001928E-02 0. -1.
       -1    1    3    3    0  502  0.19069045635E+04 -0.24361090991E+03 -0.70122346031E+03  0.20463004742E+04  0.50400001928E-02 0.  1.
</event>
<event>
 5   0  0.4316671E-07  0.3760611E+04  0.7818609E-02  0.8054661E-01
       -1   -1    0    0    0  501  0.00000000000E+00  0.00000000000E+00  0.26011920233E+04  0.26011920234E+04  0.50400001928E-02 0. -1.
        1   -1    0    0  501    0  0.00000000000E+00  0.00000000000E+00 -0.13592030498E+04  0.13592030498E+04  0.50400001928E-02 0.  1.
    10030    2    1    2    0    0  0.00000000000E+00  0.00000000000E+00  0.12419889736E+04  0.39603950731E+04  0.37606106585E+04 0.  0.
        2    1    3    3  502    0 -0.11199489025E+04 -0.15098516235E+04  0.66325963026E+03  0.19934519824E+04  0.25500000920E-02 0. -1.
       -2    1    3    3    0  502  0.11199489025E+04  0.15098516235E+04  0.57872934331E+03  0.19669430907E+04  0.25500000920E-02 0.  1.
</event>
<event>
 5   0  0.3471602E-07  0.3897629E+04  0.7818609E-02  0.8025523E-01
       -1   -1    0    0    0  501  0.00000000000E+00  0.00000000000E+00  0.16867246101E+04  0.16867246101E+04  0.50400001928E-02 0.  1.
        1   -1    0    0  501    0  0.00000000000E+00  0.00000000000E+00 -0.22516288942E+04  0.22516288942E+04  0.50400001928E-02 0. -1.
    10030    2    1    2    0    0  0.00000000000E+00  0.00000000000E+00 -0.56490428414E+03  0.39383535043E+04  0.38976289554E+04 0.  0.
        5    1    3    3  502    0  0.18430424076E+03 -0.15047318382E+04 -0.15198576034E+04  0.21466660622E+04  0.46999998093E+01 0. -1.
       -5    1    3    3    0  502 -0.18430424076E+03  0.15047318382E+04  0.95495331930E+03  0.17916874420E+04  0.46999998093E+01 0.  1.
</event>
<event>
 5   0  0.1025005E-06  0.1939532E+04  0.7818609E-02  0.8635425E-01
        2   -1    0    0  501    0  0.00000000000E+00  0.00000000000E+00  0.11871160923E+04  0.11871160923E+04  0.25500000920E-02 0.  1.
       -2   -1    0    0    0  501  0.00000000000E+00  0.00000000000E+00 -0.79221109411E+03  0.79221109411E+03  0.25500000920E-02 0. -1.
    10030    2    1    2    0    0  0.00000000000E+00  0.00000000000E+00  0.39490499816E+03  0.19793271864E+04  0.19395324574E+04 0.  0.
        1    1    3    3  502    0 -0.38298178519E+03  0.85412065960E+01 -0.71172426585E+03  0.80826940473E+03  0.50400001928E-02 0. -1.
       -1    1    3    3    0  502  0.38298178519E+03 -0.85412065960E+01  0.11066292640E+04  0.11710577817E+04  0.50400001928E-02 0.  1.
</event>
<event>
 5   0  0.5533705E-07  0.3774816E+04  0.7818609E-02  0.8051581E-01
       -2   -1    0    0    0  501  0.00000000000E+00  0.00000000000E+00  0.19976066129E+04  0.19976066129E+04  0.25500000920E-02 0. -1.
        2   -1    0    0  501    0  0.00000000000E+00  0.00000000000E+00 -0.17832887182E+04  0.17832887182E+04  0.25500000920E-02 0.  1.
    10030    2    1    2    0    0  0.00000000000E+00  0.00000000000E+00  0.21431789477E+03  0.37808953311E+04  0.37748162001E+04 0.  0.
        1    1    3    3  502    0 -0.60335912699E+03  0.16733909605E+04 -0.52475309973E+03  0.18546280917E+04  0.50400001928E-02 0.  1.
       -1    1    3    3    0  502  0.60335912699E+03 -0.16733909605E+04  0.73907099450E+03  0.19262672394E+04  0.50400001928E-02 0. -1.
</event>
<event>
 5   0  0.1034683E-06  0.2393078E+04  0.7818609E-02  0.8442100E-01
       -2   -1    0    0    0  501  0.00000000000E+00  0.00000000000E+00  0.69185142423E+03  0.69185142423E+03  0.25500000920E-02 0. -1.
        2   -1    0    0  501    0  0.00000000000E+00  0.00000000000E+00 -0.20693828942E+04  0.20693828942E+04  0.25500000920E-02 0.  1.
    10030    2    1    2    0    0  0.00000000000E+00  0.00000000000E+00 -0.13775314700E+04  0.27612343185E+04  0.23930779366E+04 0.  0.
        2    1    3    3  502    0  0.95151870812E+03  0.43071262854E+02  0.14684430062E+03  0.96374593863E+03  0.25500000920E-02 0. -1.
       -2    1    3    3    0  502 -0.95151870812E+03 -0.43071262854E+02 -0.15243757706E+04  0.17974883798E+04  0.25500000920E-02 0.  1.
</event>
<event>
 5   0  0.3977376E-07  0.3861445E+04  0.7818609E-02  0.8033096E-01
       -1   -1    0    0    0  501  0.00000000000E+00  0.00000000000E+00  0.32494999739E+04  0.32494999739E+04  0.50400001928E-02 0.  1.
        1   -1    0    0  501    0  0.00000000000E+00  0.00000000000E+00 -0.11471576730E+04  0.11471576730E+04  0.50400001928E-02 0. -1.
    10030    2    1    2    0    0  0.00000000000E+00  0.00000000000E+00  0.21023423009E+04  0.43966576469E+04  0.38614447185E+04 0.  0.
        4    1    3    3  502    0 -0.44735647467E+03  0.62854808365E+03  0.30663678651E+04  0.31619320052E+04  0.12699999809E+01 0.  1.
       -4    1    3    3    0  502  0.44735647467E+03 -0.62854808365E+03 -0.96402556417E+03  0.12347256417E+04  0.12699999809E+01 0. -1.
</event>
<event>
 5   0  0.7268013E-07  0.3197916E+04  0.7818609E-02  0.8189368E-01
        2   -1    0    0  501    0  0.00000000000E+00  0.00000000000E+00  0.26117471875E+04  0.26117471875E+04  0.25500000920E-02 0.  1.
       -2   -1    0    0    0  501  0.00000000000E+00  0.00000000000E+00 -0.97891065056E+03  0.97891065056E+03  0.25500000920E-02 0. -1.
    10030    2    1    2    0    0  0.00000000000E+00  0.00000000000E+00  0.16328365370E+04  0.35906578381E+04  0.31979162831E+04 0.  0.
        4    1    3    3  502    0  0.27551444882E+03  0.55252027863E+03  0.24725098335E+04  0.25484295869E+04  0.12699999809E+01 0.  1.
       -4    1    3    3    0  502 -0.27551444882E+03 -0.55252027863E+03 -0.83967329651E+03  0.10422282512E+04  0.12699999809E+01 0. -1.
</event>
<event>
 5   0  0.5533705E-07  0.3887442E+04  0.7818609E-02  0.8027646E-01
       -2   -1    0    0    0  501  0.00000000000E+00  0.00000000000E+00  0.14649068348E+04  0.14649068348E+04  0.25500000920E-02 0. -1.
        2   -1    0    0  501    0  0.00000000000E+00  0.00000000000E+00 -0.25790390087E+04  0.25790390087E+04  0.25500000920E-02 0.  1.
    10030    2    1    2    0    0  0.00000000000E+00  0.00000000000E+00 -0.11141321739E+04  0.40439458435E+04  0.38874422805E+04 0.  0.
        1    1    3    3  502    0  0.16128918562E+04 -0.58453071258E+03  0.39347974556E+03  0.17600916464E+04  0.50400001928E-02 0. -1.
       -1    1    3    3    0  502 -0.16128918562E+04  0.58453071258E+03 -0.15076119195E+04  0.22838541971E+04  0.50400001928E-02 0.  1.
</event>
<event>
 5   0  0.1035864E-06  0.3965784E+04  0.7818609E-02  0.8011485E-01
       -2   -1    0    0    0  501  0.00000000000E+00  0.00000000000E+00  0.21364957829E+04  0.21364957829E+04  0.25500000920E-02 0.  1.
        2   -1    0    0  501    0  0.00000000000E+00  0.00000000000E+00 -0.18403311323E+04  0.18403311323E+04  0.25500000920E-02 0. -1.
    10030    2    1    2    0    0  0.00000000000E+00  0.00000000000E+00  0.29616465054E+03  0.39768269152E+04  0.39657835056E+04 0.  0.
        5    1    3    3  502    0 -0.59015315095E+03 -0.15889415290E+04 -0.88377369371E+03  0.19115684544E+04  0.46999998093E+01 0. -1.
       -5    1    3    3    0  502  0.59015315095E+03  0.15889415290E+04  0.11799383443E+04  0.20652584609E+04  0.46999998093E+01 0.  1.
</event>
<event>
 5   0  0.3977376E-07  0.3891751E+04  0.7818609E-02  0.8026747E-01
        1   -1    0    0  501    0  0.00000000000E+00  0.00000000000E+00  0.23774772898E+04  0.23774772898E+04  0.50400001928E-02 0. -1.
       -1   -1    0    0    0  501  0.00000000000E+00  0.00000000000E+00 -0.15926254807E+04  0.15926254807E+04  0.50400001928E-02 0.  1.
    10030    2    1    2    0    0  0.00000000000E+00  0.00000000000E+00  0.78485180917E+03  0.39701027705E+04  0.38917507174E+04 0.  0.
        4    1    3    3  502    0  0.36310586182E+03  0.12520146452E+04 -0.10813193121E+04  0.16937058795E+04  0.12699999809E+01 0.  1.
       -4    1    3    3    0  502 -0.36310586182E+03 -0.12520146452E+04  0.18661711213E+04  0.22763968910E+04  0.12699999809E+01 0. -1.
</event>
<event>
 5   0  0.5533705E-07  0.3824705E+04  0.7818609E-02  0.8040874E-01
       -2   -1    0    0    0  501  0.00000000000E+00  0.00000000000E+00  0.18187151915E+04  0.18187151915E+04  0.25500000920E-02 0.  1.
        2   -1    0    0  501    0  0.00000000000E+00  0.00000000000E+00 -0.20108111745E+04  0.20108111745E+04  0.25500000920E-02 0. -1.
    10030    2    1    2    0    0  0.00000000000E+00  0.00000000000E+00 -0.19209598305E+03  0.38295263660E+04  0.38247053901E+04 0.  0.
        1    1    3    3  502    0  0.18789479571E+04  0.35459728155E+03 -0.65874102871E+02  0.19132496060E+04  0.50400001928E-02 0. -1.
       -1    1    3    3    0  502 -0.18789479571E+04 -0.35459728155E+03 -0.12622188017E+03  0.19162767599E+04  0.50400001928E-02 0.  1.
</event>
<event>
 5   0  0.3471602E-07  0.2513798E+04  0.7818609E-02  0.8398086E-01
        1   -1    0    0  501    0  0.00000000000E+00  0.00000000000E+00  0.23353947424E+04  0.23353947424E+04  0.50400001928E-02 0.  1.
       -1   -1    0    0    0  501  0.00000000000E+00  0.00000000000E+00 -0.67645757979E+03  0.67645757981E+03  0.50400001928E-02 0. -1.
    10030    2    1    2    0    0  0.00000000000E+00  0.00000000000E+00  0.16589371626E+04  0.30118523222E+04  0.25137983016E+04 0.  0.
        5    1    3    3  502    0  0.12336012156E+04  0.23994329000E+03  0.85427428078E+03  0.15195892137E+04  0.46999998093E+01 0. -1.
       -5    1    3    3    0  502 -0.12336012156E+04 -0.23994329000E+03  0.80466288182E+03  0.14922631085E+04  0.46999998093E+01 0.  1.
</event>
<event>
 5   0  0.3977376E-07  0.2033716E+04  0.7818609E-02  0.8591017E-01
       -1   -1    0    0    0  501  0.00000000000E+00  0.00000000000E+00  0.48854503073E+03  0.48854503076E+03  0.50400001928E-02 0. -1.
        1   -1    0    0  501    0  0.00000000000E+00  0.00000000000E+00 -0.21164894851E+04  0.21164894851E+04  0.50400001928E-02 0.  1.
    10030    2    1    2    0    0  0.00000000000E+00  0.00000000000E+00 -0.16279444544E+04  0.26050345159E+04  0.20337162246E+04 0.  0.
        4    1    3    3  502    0  0.18006876229E+03 -0.92684173176E+03 -0.33036904630E+03  0.10003027914E+04  0.12699999809E+01 0. -1.
       -4    1    3    3    0  502 -0.18006876229E+03  0.92684173176E+03 -0.12975754081E+04  0.16047317245E+04  0.12699999809E+01 0.  1.
</event>
<event>
 5   0  0.5533705E-07  0.3916844E+04  0.7818609E-02  0.8021535E-01
       -2   -1    0    0    0  501  0.00000000000E+00  0.00000000000E+00  0.27440118732E+04  0.27440118732E+04  0.25500000920E-02 0.  1.
        2   -1    0    0  501    0  0.00000000000E+00  0.00000000000E+00 -0.13977403736E+04  0.13977403736E+04  0.25500000920E-02 0. -1.
    10030    2    1    2    0    0  0.00000000000E+00  0.00000000000E+00  0.13462714996E+04  0.41417522468E+04  0.39168437195E+04 0.  0.
        1    1    3    3  502    0  0.33780946091E+03  0.32927329689E+03  0.26830366465E+04  0.27241919504E+04  0.50400001928E-02 0.  1.
       -1    1    3    3    0  502 -0.33780946091E+03 -0.32927329689E+03 -0.13367651469E+04  0.14175602964E+04  0.50400001928E-02 0. -1.
</event>
<event>
 5   0  0.3977376E-07  0.3723967E+04  0.7818609E-02  0.8062671E-01
       -1   -1    0    0    0  501  0.00000000000E+00  0.00000000000E+00  0.32951260691E+04  0.32951260691E+04  0.50400001928E-02 0.  1.
        1   -1    0    0  501    0  0.00000000000E+00  0.00000000000E+00 -0.10521548624E+04  0.10521548624E+04  0.50400001928E-02 0. -1.
    10030    2    1    2    0    0  0.00000000000E+00  0.00000000000E+00  0.22429712068E+04  0.43472809315E+04  0.37239671942E+04 0.  0.
        4    1    3    3  502    0  0.15322287678E+04  0.10537363642E+04  0.10113801623E+04  0.21168317759E+04  0.12699999809E+01 0. -1.
       -4    1    3    3    0  502 -0.15322287678E+04 -0.10537363642E+04  0.12315910445E+04  0.22304491556E+04  0.12699999809E+01 0.  1.
</event>
<event>
 5   0  0.3977376E-07  0.1931034E+04  0.7818609E-02  0.8639561E-01
        1   -1    0    0  501    0  0.00000000000E+00  0.00000000000E+00  0.10401847325E+04  0.10401847325E+04  0.50400001928E-02 0. -1.
       -1   -1    0    0    0  501  0.00000000000E+00  0.00000000000E+00 -0.89620904124E+03  0.89620904126E+03  0.50400001928E-02 0.  1.
    10030    2    1    2    0    0  0.00000000000E+00  0.00000000000E+00  0.14397569128E+03  0.19363937738E+04  0.19310338805E+04 0.  0.
        4    1    3    3  502    0 -0.67219569248E+03 -0.68781147907E+03  0.15760439015E+03  0.97456268984E+03  0.12699999809E+01 0.  1.
       -4    1    3    3    0  502  0.67219569248E+03  0.68781147907E+03 -0.13628698870E+02  0.96183108395E+03  0.12699999809E+01 0. -1.
</event>
<event>
 5   0  0.1035864E-06  0.3103292E+04  0.7818609E-02  0.8214835E-01
        2   -1    0    0  501    0  0.00000000000E+00  0.00000000000E+00  0.16957920396E+04  0.16957920396E+04  0.25500000920E-02 0.  1.
       -2   -1    0    0    0  501  0.00000000000E+00  0.00000000000E+00 -0.14197529658E+04  0.14197529658E+04  0.25500000920E-02 0. -1.
    10030    2    1    2    0    0  0.00000000000E+00  0.00000000000E+00  0.27603907380E+03  0.31155450054E+04  0.31032923018E+04 0.  0.
        5    1    3    3  502    0 -0.13538816802E+04 -0.23774060985E+03 -0.58459137186E+03  0.14937487619E+04  0.46999998093E+01 0. -1.
       -5    1    3    3    0  502  0.13538816802E+04  0.23774060985E+03  0.86063044566E+03  0.16217962435E+04  0.46999998093E+01 0.  1.
</event>
<event>
 5   0  0.5533705E-07  0.4016077E+04  0.7818609E-02  0.8001311E-01
        2   -1    0    0  501    0  0.00000000000E+00  0.00000000000E+00  0.14004909310E+04  0.14004909310E+04  0.25500000920E-02 0.  1.
       -2   -1    0    0    0  501  0.00000000000E+00  0.00000000000E+00 -0.28791468158E+04  0.28791468158E+04  0.25500000920E-02 0. -1.
    10030    2    1    2    0    0  0.00000000000E+00  0.00000000000E+00 -0.14786558848E+04  0.42796377469E+04  0.40160771928E+04 0.  0.
        1    1    3    3  502    0 -0.25060443347E+03  0.75764457792E+03  0.12242577620E+04  0.14613811811E+04  0.50400001928E-02 0.  1.
       -1    1    3    3    0  502  0.25060443347E+03 -0.75764457792E+03 -0.27029136468E+04  0.28182565658E+04  0.50400001928E-02 0. -1.
</event>
<event>
 5   0  0.5533705E-07  0.3820750E+04  0.7818609E-02  0.8041717E-01
       -2   -1    0    0    0  501  0.00000000000E+00  0.00000000000E+00  0.20983235783E+04  0.20983235783E+04  0.25500000920E-02 0. -1.
        2   -1    0    0  501    0  0.00000000000E+00  0.00000000000E+00 -0.17392614780E+04  0.17392614780E+04  0.25500000920E-02 0.  1.
    10030    2    1    2    0    0  0.00000000000E+00  0.00000000000E+00  0.35906210022E+03  0.38375850563E+04  0.38207503808E+04 0.  0.
        1    1    3    3  502    0  0.49867914016E+02 -0.19091879044E+04  0.13407565314E+03  0.19145395122E+04  0.50400001928E-02 0.  1.
       -1    1    3    3    0  502 -0.49867914016E+02  0.19091879044E+04  0.22498644708E+03  0.19230455441E+04  0.50400001928E-02 0. -1.
</event>
<event>
 5   0  0.1034683E-06  0.3970524E+04  0.7818609E-02  0.8010519E-01
        2   -1    0    0  501    0  0.00000000000E+00  0.00000000000E+00  0.14906550377E+04  0.14906550377E+04  0.25500000920E-02 0.  1.
       -2   -1    0    0    0  501  0.00000000000E+00  0.00000000000E+00 -0.26439819205E+04  0.26439819205E+04  0.25500000920E-02 0. -1.
    10030    2    1    2    0    0  0.00000000000E+00  0.00000000000E+00 -0.11533268829E+04  0.41346369582E+04  0.39705238795E+04 0.  0.
        2    1    3    3  502    0  0.13416974052E+04  0.88342320943E+03 -0.17913577825E+04  0.24061486236E+04  0.25500000920E-02 0. -1.
       -2    1    3    3    0  502 -0.13416974052E+04 -0.88342320943E+03  0.63803089966E+03  0.17284883346E+04  0.25500000920E-02 0.  1.
</event>
<event>
 5   0  0.7268013E-07  0.3889498E+04  0.7818609E-02  0.8027217E-01
       -2   -1    0    0    0  501  0.00000000000E+00  0.00000000000E+00  0.19298867001E+04  0.19298867001E+04  0.25500000920E-02 0. -1.
        2   -1    0    0  501    0  0.00000000000E+00  0.00000000000E+00 -0.19597254974E+04  0.19597254974E+04  0.25500000920E-02 0.  1.
    10030    2    1    2    0    0  0.00000000000E+00  0.00000000000E+00 -0.29838797270E+02  0.38896121975E+04  0.38894977431E+04 0.  0.
        4    1    3    3  502    0 -0.11480604405E+04  0.30345381871E+03  0.15252296728E+04  0.19329909888E+04  0.12699999809E+01 0. -1.
       -4    1    3    3    0  502  0.11480604405E+04 -0.30345381871E+03 -0.15550684700E+04  0.19566212087E+04  0.12699999809E+01 0.  1.
</event>
<event>
 5   0  0.5533705E-07  0.3761400E+04  0.7818609E-02  0.8054489E-01
       -2   -1    0    0    0  501  0.00000000000E+00  0.00000000000E+00  0.16611723266E+04  0.16611723266E+04  0.25500000920E-02 0. -1.
        2   -1    0    0  501    0  0.00000000000E+00  0.00000000000E+00 -0.21292386348E+04  0.21292386348E+04  0.25500000920E-02 0.  1.
    10030    2    1    2    0    0  0.00000000000E+00  0.00000000000E+00 -0.46806630822E+03  0.37904109615E+04  0.37613998974E+04 0.  0.
        1    1    3    3  502    0  0.12540203745E+04 -0.11769033129E+03 -0.16414491407E+04  0.20690029955E+04  0.50400001928E-02 0.  1.
       -1    1    3    3    0  502 -0.12540203745E+04  0.11769033129E+03  0.11733828325E+04  0.17214079660E+04  0.50400001928E-02 0. -1.
</event>
<event>
 5   0  0.4627905E-07  0.1945427E+04  0.7818609E-02  0.8632569E-01
       -1   -1    0    0    0  501  0.00000000000E+00  0.00000000000E+00  0.46548289839E+03  0.46548289842E+03  0.50400001928E-02 0. -1.
        1   -1    0    0  501    0  0.00000000000E+00  0.00000000000E+00 -0.20326667747E+04  0.20326667747E+04  0.50400001928E-02 0.  1.
    10030    2    1    2    0    0  0.00000000000E+00  0.00000000000E+00 -0.15671838763E+04  0.24981496732E+04  0.19454270707E+04 0.  0.
        1    1    3    3  502    0 -0.26890594772E+03 -0.64491512342E+03 -0.16525733593E+04  0.17942197839E+04  0.50400001928E-02 0. -1.
       -1    1    3    3    0  502  0.26890594772E+03  0.64491512342E+03  0.85389482965E+02  0.70392988923E+03  0.50400001928E-02 0.  1.
</event>
<event>
 5   0  0.1061490E-06  0.1921784E+04  0.7818609E-02  0.8644088E-01
       -2   -1    0    0    0  501  0.00000000000E+00  0.00000000000E+00  0.85658576150E+03  0.85658576151E+03  0.25500000920E-02 0. -1.
        2   -1    0    0  501    0  0.00000000000E+00  0.00000000000E+00 -0.10779000172E+04  0.10779000172E+04  0.25500000920E-02 0.  1.
    10030    2    1    2    0    0  0.00000000000E+00  0.00000000000E+00 -0.22131425574E+03  0.19344857788E+04  0.19217843866E+04 0.  0.
        4    1    3    3  502    0  0.91779472118E+03  0.27194549593E+03 -0.19494038301E+03  0.97688528949E+03  0.12699999809E+01 0.  1.
       -4    1    3    3    0  502 -0.91779472118E+03 -0.27194549593E+03 -0.26373872724E+02  0.95760048927E+03  0.12699999809E+01 0. -1.
</event>
<event>
 5   0  0.1034683E-06  0.3860621E+04  0.7818609E-02  0.8033269E-01
       -2   -1    0    0    0  501  0.00000000000E+00  0.00000000000E+00  0.29179560210E+04  0.29179560210E+04  0.25500000920E-02 0. -1.
        2   -1    0    0  501    0  0.00000000000E+00  0.00000000000E+00 -0.12769552083E+04  0.12769552083E+04  0.25500000920E-02 0.  1.
    10030    2    1    2    0    0  0.00000000000E+00  0.00000000000E+00  0.16410008127E+04  0.41949112293E+04  0.38606212653E+04 0.  0.
        2    1    3    3  502    0  0.11446198076E+04  0.14081275727E+04  0.15356063442E+04  0.23771967965E+04  0.25500000920E-02 0. -1.
       -2    1    3    3    0  502 -0.11446198076E+04 -0.14081275727E+04  0.10539446853E+03  0.18177144328E+04  0.25500000920E-02 0.  1.
</event>
<event>
 5   0  0.1035864E-06  0.3849745E+04  0.7818609E-02  0.8035563E-01
       -2   -1    0    0    0  501  0.00000000000E+00  0.00000000000E+00  0.19177822007E+04  0.19177822007E+04  0.25500000920E-02 0.  1.
        2   -1    0    0  501    0  0.00000000000E+00  0.00000000000E+00 -0.19319892720E+04  0.19319892720E+04  0.25500000920E-02 0. -1.
    10030    2    1    2    0    0  0.00000000000E+00  0.00000000000E+00 -0.14207071258E+02  0.38497714727E+04  0.38497452580E+04 0.  0.
        5    1    3    3  502    0 -0.11182341957E+03 -0.68016345912E+03 -0.18043318819E+04  0.19315181693E+04  0.46999998093E+01 0. -1.
       -5    1    3    3    0  502  0.11182341957E+03  0.68016345912E+03  0.17901248107E+04  0.19182533034E+04  0.46999998093E+01 0.  1.
</event>
<event>
 5   0  0.1035864E-06  0.2239773E+04  0.7818609E-02  0.8502054E-01
        2   -1    0    0  501    0  0.00000000000E+00  0.00000000000E+00  0.51080070758E+03  0.51080070758E+03  0.25500000920E-02 0.  1.
       -2   -1    0    0    0  501  0.00000000000E+00  0.00000000000E+00 -0.24552545802E+04  0.24552545802E+04  0.25500000920E-02 0. -1.
    10030    2    1    2    0    0  0.00000000000E+00  0.00000000000E+00 -0.19444538727E+04  0.29660552878E+04  0.22397730036E+04 0.  0.
        5    1    3    3  502    0 -0.49745764286E+03 -0.72877625003E+03 -0.18854375191E+04  0.20817001844E+04  0.46999998093E+01 0. -1.
       -5    1    3    3    0  502  0.49745764286E+03  0.72877625003E+03 -0.59016353534E+02  0.88435510346E+03  0.46999998093E+01 0.  1.
</event>
<event>
 5   0  0.5533705E-07  0.3937533E+04  0.7818609E-02  0.8017268E-01
       -2   -1    0    0    0  501  0.00000000000E+00  0.00000000000E+00  0.15727999780E+04  0.15727999780E+04  0.25500000920E-02 0.  1.
        2   -1    0    0  501    0  0.00000000000E+00  0.00000000000E+00 -0.24644215752E+04  0.24644215752E+04  0.25500000920E-02 0. -1.
    10030    2    1    2    0    0  0.00000000000E+00  0.00000000000E+00 -0.89162159718E+03  0.40372215532E+04  0.39375333391E+04 0.  0.
        1    1    3    3  502    0  0.80265116932E+03  0.76541599262E+03 -0.21136249342E+04  0.23869480313E+04  0.50400001928E-02 0. -1.
       -1    1    3    3    0  502 -0.80265116932E+03 -0.76541599262E+03  0.12220033370E+04  0.16502735219E+04  0.50400001928E-02 0.  1.
</event>
<event>
 5   0  0.3977376E-07  0.2384052E+04  0.7818609E-02  0.8445498E-01
        1   -1    0    0  501    0  0.00000000000E+00  0.00000000000E+00  0.17369695953E+04  0.17369695953E+04  0.50400001928E-02 0. -1.
       -1   -1    0    0    0  501  0.00000000000E+00  0.00000000000E+00 -0.81804883001E+03  0.81804883003E+03  0.50400001928E-02 0.  1.
    10030    2    1    2    0    0  0.00000000000E+00  0.00000000000E+00  0.91892076529E+03  0.25550184253E+04  0.23840519669E+04 0.  0.
        4    1    3    3  502    0  0.83811203329E+03 -0.21350774686E+03  0.13385959276E+04  0.15936931978E+04  0.12699999809E+01 0. -1.
       -4    1    3    3    0  502 -0.83811203329E+03  0.21350774686E+03 -0.41967516234E+03  0.96132522754E+03  0.12699999809E+01 0.  1.
</event>
<event>
 5   0  0.3471602E-07  0.2244763E+04  0.7818609E-02  0.8500024E-01
        1   -1    0    0  501    0  0.00000000000E+00  0.00000000000E+00  0.15726946692E+04  0.15726946692E+04  0.50400001928E-02 0.  1.
       -1   -1    0    0    0  501  0.00000000000E+00  0.00000000000E+00 -0.80100759355E+03  0.80100759357E+03  0.50400001928E-02 0. -1.
    10030    2    1    2    0    0  0.00000000000E+00  0.00000000000E+00  0.77168707564E+03  0.23737022628E+04  0.22447631255E+04 0.  0.
        5    1    3    3  502    0  0.69974793319E+03 -0.78183853855E+03  0.80722986774E+03  0.13238432006E+04  0.46999998093E+01 0.  1.
       -5    1    3    3    0  502 -0.69974793319E+03  0.78183853855E+03 -0.35542792101E+02  0.10498590622E+04  0.46999998093E+01 0. -1.
</event>
<event>
 5   0  0.4620203E-07  0.1961068E+04  0.7818609E-02  0.8625042E-01
        1   -1    0    0  501    0  0.00000000000E+00  0.00000000000E+00  0.10569309857E+04  0.10569309857E+04  0.50400001928E-02 0.  1.
       -1   -1    0    0    0  501  0.00000000000E+00  0.00000000000E+00 -0.90965958486E+03  0.90965958487E+03  0.50400001928E-02 0. -1.
    10030    2    1    2    0    0  0.00000000000E+00  0.00000000000E+00  0.14727140080E+03  0.19665905706E+04  0.19610684860E+04 0.  0.
        4    1    3    3  502    0  0.81449657030E+03 -0.48563279887E+03 -0.17646969085E+03  0.96456572770E+03  0.12699999809E+01 0. -1.
       -4    1    3    3    0  502 -0.81449657030E+03  0.48563279887E+03  0.32374109166E+03  0.10020248429E+04  0.12699999809E+01 0.  1.
</event>
<event>
 5   0  0.5385714E-07  0.3938570E+04  0.7818609E-02  0.8017055E-01
       -1   -1    0    0    0  501  0.00000000000E+00  0.00000000000E+00  0.30444593482E+04  0.30444593482E+04  0.50400001928E-02 0. -1.
        1   -1    0    0  501    0  0.00000000000E+00  0.00000000000E+00 -0.12738167611E+04  0.12738167611E+04  0.50400001928E-02 0.  1.
    10030    2    1    2    0    0  0.00000000000E+00  0.00000000000E+00  0.17706425871E+04  0.43182761093E+04  0.39385699670E+04 0.  0.
        3    1    3    3  502    0  0.13642286078E+04  0.14195942301E+04  0.93073774980E+03  0.21777603728E+04  0.10100000352E+00 0. -1.
       -3    1    3    3    0  502 -0.13642286078E+04 -0.14195942301E+04  0.83990483728E+03  0.21405157365E+04  0.10100000352E+00 0.  1.
</event>
<event>
 5   0  0.5533705E-07  0.3977081E+04  0.7818609E-02  0.8009186E-01
       -2   -1    0    0    0  501  0.00000000000E+00  0.00000000000E+00  0.28333076343E+04  0.28333076343E+04  0.25500000920E-02 0.  1.
        2   -1    0    0  501    0  0.00000000000E+00  0.00000000000E+00 -0.13956455251E+04  0.13956455251E+04  0.25500000920E-02 0. -1.
    10030    2    1    2    0    0  0.00000000000E+00  0.00000000000E+00  0.14376621092E+04  0.42289531593E+04  0.39770808998E+04 0.  0.
        1    1    3    3  502    0  0.67590635651E+03 -0.15408597264E+04 -0.40809659477E+03  0.17313696687E+04  0.50400001928E-02 0. -1.
       -1    1    3    3    0  502 -0.67590635651E+03  0.15408597264E+04  0.18457587040E+04  0.24975834906E+04  0.50400001928E-02 0.  1.
</event>
<event>
 5   0  0.5533705E-07  0.2621382E+04  0.7818609E-02  0.8360974E-01
       -2   -1    0    0    0  501  0.00000000000E+00  0.00000000000E+00  0.10192986399E+04  0.10192986399E+04  0.25500000920E-02 0. -1.
        2   -1    0    0  501    0  0.00000000000E+00  0.00000000000E+00 -0.16853849009E+04  0.16853849009E+04  0.25500000920E-02 0.  1.
    10030    2    1    2    0    0  0.00000000000E+00  0.00000000000E+00 -0.66608626102E+03  0.27046835408E+04  0.26213817252E+04 0.  0.
        1    1    3    3  502    0 -0.30541950083E+03 -0.51230601448E+03  0.87116669745E+03  0.10557793040E+04  0.50400001928E-02 0. -1.
       -1    1    3    3    0  502  0.30541950083E+03  0.51230601448E+03 -0.15372529585E+04  0.16489042369E+04  0.50400001928E-02 0.  1.
</event>
<event>
 5   0  0.7268013E-07  0.2405459E+04  0.7818609E-02  0.8437463E-01
       -2   -1    0    0    0  501  0.00000000000E+00  0.00000000000E+00  0.78724074412E+03  0.78724074413E+03  0.25500000920E-02 0. -1.
        2   -1    0    0  501    0  0.00000000000E+00  0.00000000000E+00 -0.18375042565E+04  0.18375042565E+04  0.25500000920E-02 0.  1.
    10030    2    1    2    0    0  0.00000000000E+00  0.00000000000E+00 -0.10502635124E+04  0.26247450006E+04  0.24054589734E+04 0.  0.
        4    1    3    3  502    0  0.78820810491E+03  0.17964112388E+03 -0.14968256999E+04  0.17011853922E+04  0.12699999809E+01 0. -1.
       -4    1    3    3    0  502 -0.78820810491E+03 -0.17964112388E+03  0.44656218750E+03  0.92355960839E+03  0.12699999809E+01 0.  1.
</event>
<event>
 5   0  0.1035864E-06  0.1999641E+04  0.7818609E-02  0.8606789E-01
        2   -1    0    0  501    0  0.00000000000E+00  0.00000000000E+00  0.18665617683E+04  0.18665617683E+04  0.25500000920E-02 0.  1.
       -2   -1    0    0    0  501  0.00000000000E+00  0.00000000000E+00 -0.53555181802E+03  0.53555181803E+03  0.25500000920E-02 0. -1.
    10030    2    1    2    0    0  0.00000000000E+00  0.00000000000E+00  0.13310099503E+04  0.24021135863E+04  0.19996405162E+04 0.  0.
        5    1    3    3  502    0 -0.43947941296E+02 -0.37315490901E+03 -0.44750025403E+03  0.58434114609E+03  0.46999998093E+01 0. -1.
       -5    1    3    3    0  502  0.43947941296E+02  0.37315490901E+03  0.17785102043E+04  0.18177724402E+04  0.46999998093E+01 0.  1.
</event>
<event>
 5   0  0.1015219E-06  0.2065197E+04  0.7818609E-02  0.8576731E-01
       -2   -1    0    0    0  501  0.00000000000E+00  0.00000000000E+00  0.71547167556E+03  0.71547167556E+03  0.25500000920E-02 0. -1.
        2   -1    0    0  501    0  0.00000000000E+00  0.00000000000E+00 -0.14902891749E+04  0.14902891749E+04  0.25500000920E-02 0.  1.
    10030    2    1    2    0    0  0.00000000000E+00  0.00000000000E+00 -0.77481749935E+03  0.22057608505E+04  0.20651970299E+04 0.  0.
        3    1    3    3  502    0  0.37191159193E+03 -0.73953926368E+03 -0.10466928491E+04  0.13344671166E+04  0.10100000352E+00 0.  1.
       -3    1    3    3    0  502 -0.37191159193E+03  0.73953926368E+03  0.27187534972E+03  0.87129373390E+03  0.10100000352E+00 0. -1.
</event>
<event>
 5   0  0.1015219E-06  0.3303802E+04  0.7818609E-02  0.8161929E-01
       -2   -1    0    0    0  501  0.00000000000E+00  0.00000000000E+00  0.25825373745E+04  0.25825373745E+04  0.25500000920E-02 0.  1.
        2   -1    0    0  501    0  0.00000000000E+00  0.00000000000E+00 -0.10566261224E+04  0.10566261224E+04  0.25500000920E-02 0. -1.
    10030    2    1    2    0    0  0.00000000000E+00  0.00000000000E+00  0.15259112521E+04  0.36391634970E+04  0.33038017205E+04 0.  0.
        3    1    3    3  502    0 -0.13608819000E+04  0.17640060982E+03  0.17758995771E+04  0.22443119300E+04  0.10100000352E+00 0.  1.
       -3    1    3    3    0  502  0.13608819000E+04 -0.17640060982E+03 -0.24998832498E+03  0.13948515669E+04  0.10100000352E+00 0. -1.
</event>
<event>
 5   0  0.5533705E-07  0.3740842E+04  0.7818609E-02  0.8058971E-01
       -2   -1    0    0    0  501  0.00000000000E+00  0.00000000000E+00  0.15220311967E+04  0.15220311968E+04  0.25500000920E-02 0. -1.
        2   -1    0    0  501    0  0.00000000000E+00  0.00000000000E+00 -0.22985564736E+04  0.22985564736E+04  0.25500000920E-02 0.  1.
    10030    2    1    2    0    0  0.00000000000E+00  0.00000000000E+00 -0.77652527680E+03  0.38205876703E+04  0.37408419695E+04 0.  0.
        1    1    3    3  502    0 -0.47725902559E+03 -0.13099567795E+04  0.88519863929E+03  0.16514658860E+04  0.50400001928E-02 0. -1.
       -1    1    3    3    0  502  0.47725902559E+03  0.13099567795E+04 -0.16617239161E+04  0.21691217843E+04  0.50400001928E-02 0.  1.
</event>
<event>
 5   0  0.1015219E-06  0.3866278E+04  0.7818609E-02  0.8032079E-01
        2   -1    0    0  501    0  0.00000000000E+00  0.00000000000E+00  0.31374837281E+04  0.31374837281E+04  0.25500000920E-02 0. -1.
       -2   -1    0    0    0  501  0.00000000000E+00  0.00000000000E+00 -0.11910903509E+04  0.11910903509E+04  0.25500000920E-02 0.  1.
    10030    2    1    2    0    0  0.00000000000E+00  0.00000000000E+00  0.19463933772E+04  0.43285740790E+04  0.38662781041E+04 0.  0.
        3    1    3    3  502    0  0.84362020543E+03 -0.54100056818E+03 -0.87753628761E+03  0.13320835605E+04  0.10100000352E+00 0.  1.
       -3    1    3    3    0  502 -0.84362020543E+03  0.54100056818E+03  0.28239296648E+04  0.29964905185E+04  0.10100000352E+00 0. -1.
</event>
<event>
 5   0  0.1034683E-06  0.3550120E+04  0.7818609E-02  0.8102014E-01
        2   -1    0    0  501    0  0.00000000000E+00  0.00000000000E+00  0.22732595207E+04  0.22732595207E+04  0.25500000920E-02 0.  1.
       -2   -1    0    0    0  501  0.00000000000E+00  0.00000000000E+00 -0.13860440610E+04  0.13860440610E+04  0.25500000920E-02 0. -1.
    10030    2    1    2    0    0  0.00000000000E+00  0.00000000000E+00  0.88721545970E+03  0.36593035818E+04  0.35501199179E+04 0.  0.
        2    1    3    3  502    0 -0.73764764790E+03 -0.58614502113E+03  0.19942509272E+04  0.22056125677E+04  0.25500000920E-02 0.  1.
       -2    1    3    3    0  502  0.73764764790E+03  0.58614502113E+03 -0.11070354674E+04  0.14536910141E+04  0.25500000920E-02 0. -1.
</event>
<event>
 5   0  0.1015219E-06  0.2134467E+04  0.7818609E-02  0.8546211E-01
        2   -1    0    0  501    0  0.00000000000E+00  0.00000000000E+00  0.89745505910E+03  0.89745505910E+03  0.25500000920E-02 0. -1.
       -2   -1    0    0    0  501  0.00000000000E+00  0.00000000000E+00 -0.12691301680E+04  0.12691301680E+04  0.25500000920E-02 0.  1.
    10030    2    1    2    0    0  0.00000000000E+00  0.00000000000E+00 -0.37167510892E+03  0.21665852271E+04  0.21344669498E+04 0.  0.
        3    1    3    3  502    0 -0.59110616695E+03 -0.88229264133E+03 -0.78700875066E+02  0.10649134441E+04  0.10100000352E+00 0. -1.
       -3    1    3    3    0  502  0.59110616695E+03  0.88229264133E+03 -0.29297423385E+03  0.11016717830E+04  0.10100000352E+00 0.  1.
</event>
<event>
 5   0  0.1034683E-06  0.2473748E+04  0.7818609E-02  0.8412398E-01
       -2   -1    0    0    0  501  0.00000000000E+00  0.00000000000E+00  0.11918720076E+04  0.11918720076E+04  0.25500000920E-02 0.  1.
        2   -1    0    0  501    0  0.00000000000E+00  0.00000000000E+00 -0.12835747852E+04  0.12835747852E+04  0.25500000920E-02 0. -1.
    10030    2    1    2    0    0  0.00000000000E+00  0.00000000000E+00 -0.91702777574E+02  0.24754467927E+04  0.24737476477E+04 0.  0.
        2    1    3    3  502    0 -0.99860894121E+03  0.42563250191E+03 -0.63911103871E+03  0.12597006644E+04  0.25500000920E-02 0. -1.
       -2    1    3    3    0  502  0.99860894121E+03 -0.42563250191E+03  0.54740826114E+03  0.12157461283E+04  0.25500000920E-02 0.  1.
</event>
<event>
 5   0  0.7268013E-07  0.3813303E+04  0.7818609E-02  0.8043306E-01
       -2   -1    0    0    0  501  0.00000000000E+00  0.00000000000E+00  0.15370338641E+04  0.15370338641E+04  0.25500000920E-02 0.  1.
        2   -1    0    0  501    0  0.00000000000E+00  0.00000000000E+00 -0.23651522826E+04  0.23651522826E+04  0.25500000920E-02 0. -1.
    10030    2    1    2    0    0  0.00000000000E+00  0.00000000000E+00 -0.82811841849E+03  0.39021861468E+04  0.38133025855E+04 0.  0.
        4    1    3    3  502    0  0.82630216993E+03 -0.46790984959E+03 -0.21059581058E+04  0.23101463286E+04  0.12699999809E+01 0. -1.
       -4    1    3    3    0  502 -0.82630216993E+03  0.46790984959E+03  0.12778396873E+04  0.15920398182E+04  0.12699999809E+01 0.  1.
</event>
<event>
 5   0  0.5533705E-07  0.3913137E+04  0.7818609E-02  0.8022302E-01
        2   -1    0    0  501    0  0.00000000000E+00  0.00000000000E+00  0.24106253957E+04  0.24106253957E+04  0.25500000920E-02 0. -1.
       -2   -1    0    0    0  501  0.00000000000E+00  0.00000000000E+00 -0.15880362259E+04  0.15880362260E+04  0.25500000920E-02 0.  1.
    10030    2    1    2    0    0  0.00000000000E+00  0.00000000000E+00  0.82258916977E+03  0.39986616217E+04  0.39131370820E+04 0.  0.
        1    1    3    3  502    0 -0.10500573439E+04  0.12881487205E+04 -0.64384899211E+03  0.17822707640E+04  0.50400001928E-02 0.  1.
       -1    1    3    3    0  502  0.10500573439E+04 -0.12881487205E+04  0.14664381619E+04  0.22163908577E+04  0.50400001928E-02 0. -1.
</event>
<event>
 5   0  0.4627905E-07  0.2404449E+04  0.7818609E-02  0.8437840E-01
       -1   -1    0    0    0  501  0.00000000000E+00  0.00000000000E+00  0.96647141197E+03  0.96647141198E+03  0.50400001928E-02 0.  1.
        1   -1    0    0  501    0  0.00000000000E+00  0.00000000000E+00 -0.14954857006E+04  0.14954857006E+04  0.50400001928E-02 0. -1.
    10030    2    1    2    0    0  0.00000000000E+00  0.00000000000E+00 -0.52901428859E+03  0.24619571125E+04  0.24044493562E+04 0.  0.
        1    1    3    3  502    0  0.86905348536E+03 -0.45680286299E+03 -0.97494734291E+03  0.13836347558E+04  0.50400001928E-02 0. -1.
       -1    1    3    3    0  502 -0.86905348536E+03  0.45680286299E+03  0.44593305432E+03  0.10783223567E+04  0.50400001928E-02 0.  1.
</event>
<event>
 5   0  0.3471602E-07  0.2660675E+04  0.7818609E-02  0.8347878E-01
       -1   -1    0    0    0  501  0.00000000000E+00  0.00000000000E+00  0.10494779138E+04  0.10494779138E+04  0.50400001928E-02 0.  1.
        1   -1    0    0  501    0  0.00000000000E+00  0.00000000000E+00 -0.16863605204E+04  0.16863605204E+04  0.50400001928E-02 0. -1.
    10030    2    1    2    0    0  0.00000000000E+00  0.00000000000E+00 -0.63688260668E+03  0.27358384342E+04  0.26606751931E+04 0.  0.
        5    1    3    3  502    0 -0.10395653239E+04 -0.24104857192E+03  0.49833824127E+03  0.11777790835E+04  0.46999998093E+01 0.  1.
       -5    1    3    3    0  502  0.10395653239E+04  0.24104857192E+03 -0.11352208480E+04  0.15580593507E+04  0.46999998093E+01 0. -1.
</event>
<event>
 5   0  0.1035864E-06  0.4008093E+04  0.7818609E-02  0.8002916E-01
       -2   -1    0    0    0  501  0.00000000000E+00  0.00000000000E+00  0.18681252266E+04  0.18681252266E+04  0.25500000920E-02 0. -1.
        2   -1    0    0  501    0  0.00000000000E+00  0.00000000000E+00 -0.21498572358E+04  0.21498572358E+04  0.25500000920E-02 0.  1.
    10030    2    1    2    0    0  0.00000000000E+00  0.00000000000E+00 -0.28173200923E+03  0.40179824624E+04  0.40080930806E+04 0.  0.
        5    1    3    3  502    0 -0.19910896075E+04 -0.14515636072E+03  0.34701068121E+02  0.19966808579E+04  0.46999998093E+01 0. -1.
       -5    1    3    3    0  502  0.19910896075E+04  0.14515636072E+03 -0.31643307735E+03  0.20213016045E+04  0.46999998093E+01 0.  1.
</event>
<event>
 5   0  0.3191750E-07  0.3297292E+04  0.7818609E-02  0.8163585E-01
        3   -1    0    0  501    0  0.00000000000E+00  0.00000000000E+00  0.25723218962E+04  0.25723218981E+04  0.10100000352E+00 0.  1.
       -3   -1    0    0    0  501  0.00000000000E+00  0.00000000000E+00 -0.10566457212E+04  0.10566457261E+04  0.10100000352E+00 0. -1.
    10030    2    1    2    0    0  0.00000000000E+00  0.00000000000E+00  0.15156761749E+04  0.36289676242E+04  0.32972915780E+04 0.  0.
        2    1    3    3  502    0 -0.94438401375E+03  0.98015693259E+03  0.17817209742E+04  0.22421191779E+04  0.25500000920E-02 0.  1.
       -2    1    3    3    0  502  0.94438401375E+03 -0.98015693259E+03 -0.26604479925E+03  0.13868484463E+04  0.25500000920E-02 0. -1.
</event>
<event>
 5   0  0.5533705E-07  0.3806849E+04  0.7818609E-02  0.8044687E-01
       -2   -1    0    0    0  501  0.00000000000E+00  0.00000000000E+00  0.14372273735E+04  0.14372273735E+04  0.25500000920E-02 0. -1.
        2   -1    0    0  501    0  0.00000000000E+00  0.00000000000E+00 -0.25208427024E+04  0.25208427024E+04  0.25500000920E-02 0.  1.
    10030    2    1    2    0    0  0.00000000000E+00  0.00000000000E+00 -0.10836153289E+04  0.39580700759E+04  0.38068486369E+04 0.  0.
        1    1    3    3  502    0 -0.11761015536E+04  0.43607442388E+03 -0.20303375217E+04  0.23865553041E+04  0.50400001928E-02 0.  1.
       -1    1    3    3    0  502  0.11761015536E+04 -0.43607442388E+03  0.94672219279E+03  0.15715147718E+04  0.50400001928E-02 0. -1.
</event>
<event>
 5   0  0.7268013E-07  0.4064316E+04  0.7818609E-02  0.7991696E-01
        2   -1    0    0  501    0  0.00000000000E+00  0.00000000000E+00  0.17156212208E+04  0.17156212208E+04  0.25500000920E-02 0.  1.
       -2   -1    0    0    0  501  0.00000000000E+00  0.00000000000E+00 -0.24070964640E+04  0.24070964640E+04  0.25500000920E-02 0. -1.
    10030    2    1    2    0    0  0.00000000000E+00  0.00000000000E+00 -0.69147524321E+03  0.41227176847E+04  0.40643158214E+04 0.  0.
        4    1    3    3  502    0  0.49125471917E+03  0.11074456423E+04  0.13092386860E+04  0.17837809842E+04  0.12699999809E+01 0.  1.
       -4    1    3    3    0  502 -0.49125471917E+03 -0.11074456423E+04 -0.20007139292E+04  0.23389367005E+04  0.12699999809E+01 0. -1.
</event>
<event>
 5   0  0.3977376E-07  0.2115222E+04  0.7818609E-02  0.8554567E-01
       -1   -1    0    0    0  501  0.00000000000E+00  0.00000000000E+00  0.87121458022E+03  0.87121458023E+03  0.50400001928E-02 0.  1.
        1   -1    0    0  501    0  0.00000000000E+00  0.00000000000E+00 -0.12838869394E+04  0.12838869394E+04  0.50400001928E-02 0. -1.
    10030    2    1    2    0    0  0.00000000000E+00  0.00000000000E+00 -0.41267235916E+03  0.21551015196E+04  0.21152219940E+04 0.  0.
        4    1    3    3  502    0  0.50011720339E+03  0.76062112458E+03  0.34221755963E+03  0.97251024843E+03  0.12699999809E+01 0.  1.
       -4    1    3    3    0  502 -0.50011720339E+03 -0.76062112458E+03 -0.75488991880E+03  0.11825912712E+04  0.12699999809E+01 0. -1.
</event>
<event>
 5   0  0.1035864E-06  0.4008738E+04  0.7818609E-02  0.8002786E-01
       -2   -1    0    0    0  501  0.00000000000E+00  0.00000000000E+00  0.14766778209E+04  0.14766778209E+04  0.25500000920E-02 0. -1.
        2   -1    0    0  501    0  0.00000000000E+00  0.00000000000E+00 -0.27206311782E+04  0.27206311782E+04  0.25500000920E-02 0.  1.
    10030    2    1    2    0    0  0.00000000000E+00  0.00000000000E+00 -0.12439533573E+04  0.41973089990E+04  0.40087383150E+04 0.  0.
        5    1    3    3  502    0  0.12336256167E+04  0.10173135759E+04 -0.18874293702E+04  0.24736957759E+04  0.46999998093E+01 0.  1.
       -5    1    3    3    0  502 -0.12336256167E+04 -0.10173135759E+04  0.64347601295E+03  0.17236132232E+04  0.46999998093E+01 0. -1.
</event>
<event>
 5   0  0.1035864E-06  0.2214574E+04  0.7818609E-02  0.8512387E-01
       -2   -1    0    0    0  501  0.00000000000E+00  0.00000000000E+00  0.54844952854E+03  0.54844952855E+03  0.25500000920E-02 0.  1.
        2   -1    0    0  501    0  0.00000000000E+00  0.00000000000E+00 -0.22355461405E+04  0.22355461405E+04  0.25500000920E-02 0. -1.
    10030    2    1    2    0    0  0.00000000000E+00  0.00000000000E+00 -0.16870966120E+04  0.27839956691E+04  0.22145737529E+04 0.  0.
        5    1    3    3  502    0 -0.25386854290E+03  0.89306480571E+03 -0.85044398052E+02  0.93234576414E+03  0.46999998093E+01 0.  1.
       -5    1    3    3    0  502  0.25386854290E+03 -0.89306480571E+03 -0.16020522139E+04  0.18516499049E+04  0.46999998093E+01 0. -1.
</event>
<event>
 5   0  0.1034683E-06  0.2063625E+04  0.7818609E-02  0.8577438E-01
       -2   -1    0    0    0  501  0.00000000000E+00  0.00000000000E+00  0.80291051283E+03  0.80291051284E+03  0.25500000920E-02 0.  1.
        2   -1    0    0  501    0  0.00000000000E+00  0.00000000000E+00 -0.13259726953E+04  0.13259726953E+04  0.25500000920E-02 0. -1.
    10030    2    1    2    0    0  0.00000000000E+00  0.00000000000E+00 -0.52306218249E+03  0.21288832082E+04  0.20636253699E+04 0.  0.
        2    1    3    3  502    0 -0.28397971123E+03  0.96891409212E+03 -0.42208879490E+02  0.10105545922E+04  0.25500000920E-02 0. -1.
       -2    1    3    3    0  502  0.28397971123E+03 -0.96891409212E+03 -0.48085330300E+03  0.11183286160E+04  0.25500000920E-02 0.  1.
</event>
<event>
 5   0  0.3977376E-07  0.3602647E+04  0.7818609E-02  0.8089886E-01
        1   -1    0    0  501    0  0.00000000000E+00  0.00000000000E+00  0.18494349002E+04  0.18494349002E+04  0.50400001928E-02 0. -1.
       -1   -1    0    0    0  501  0.00000000000E+00  0.00000000000E+00 -0.17544632773E+04  0.17544632773E+04  0.50400001928E-02 0.  1.
    10030    2    1    2    0    0  0.00000000000E+00  0.00000000000E+00  0.94971622918E+02  0.36038981776E+04  0.36026465918E+04 0.  0.
        4    1    3    3  502    0 -0.13507939931E+04 -0.89985057662E+03  0.82903089134E+03  0.18225447330E+04  0.12699999809E+01 0. -1.
       -4    1    3    3    0  502  0.13507939931E+04  0.89985057662E+03 -0.73405926842E+03  0.17813534446E+04  0.12699999809E+01 0.  1.
</event>
<event>
 5   0  0.4316671E-07  0.3598410E+04  0.7818609E-02  0.8090856E-01
       -1   -1    0    0    0  501  0.00000000000E+00  0.00000000000E+00  0.20479724496E+04  0.20479724496E+04  0.50400001928E-02 0.  1.
        1   -1    0    0  501    0  0.00000000000E+00  0.00000000000E+00 -0.15806552558E+04  0.15806552558E+04  0.50400001928E-02 0. -1.
    10030    2    1    2    0    0  0.00000000000E+00  0.00000000000E+00  0.46731719375E+03  0.36286277054E+04  0.35984098800E+04 0.  0.
        2    1    3    3  502    0 -0.15254732575E+03 -0.60356408647E+03 -0.14685863970E+04  0.15950881789E+04  0.25500000920E-02 0. -1.
       -2    1    3    3    0  502  0.15254732575E+03  0.60356408647E+03  0.19359035907E+04  0.20335395265E+04  0.25500000920E-02 0.  1.
</event>
<event>
 5   0  0.5385714E-07  0.3756990E+04  0.7818609E-02  0.8055448E-01
        1   -1    0    0  501    0  0.00000000000E+00  0.00000000000E+00  0.13141604022E+04  0.13141604022E+04  0.50400001928E-02 0.  1.
       -1   -1    0    0    0  501  0.00000000000E+00  0.00000000000E+00 -0.26851690279E+04  0.26851690279E+04  0.50400001928E-02 0. -1.
    10030    2    1    2    0    0  0.00000000000E+00  0.00000000000E+00 -0.13710086257E+04  0.39993294302E+04  0.37569896512E+04 0.  0.
        3    1    3    3  502    0 -0.18614020857E+04 -0.25109969196E+03 -0.71697511022E+03  0.20104532073E+04  0.10100000352E+00 0.  1.
       -3    1    3    3    0  502  0.18614020857E+04  0.25109969196E+03 -0.65403351553E+03  0.19888762228E+04  0.10100000352E+00 0. -1.
</event>
<event>
 5   0  0.4316671E-07  0.3799332E+04  0.7818609E-02  0.8046298E-01
       -1   -1    0    0    0  501  0.00000000000E+00  0.00000000000E+00  0.18732651455E+04  0.18732651455E+04  0.50400001928E-02 0.  1.
        1   -1    0    0  501    0  0.00000000000E+00  0.00000000000E+00 -0.19264392186E+04  0.19264392186E+04  0.50400001928E-02 0. -1.
    10030    2    1    2    0    0  0.00000000000E+00  0.00000000000E+00 -0.53174073051E+02  0.37997043641E+04  0.37993322798E+04 0.  0.
        2    1    3    3  502    0 -0.18626988706E+04  0.38599191488E+02 -0.39756064027E+03  0.19050436853E+04  0.25500000920E-02 0. -1.
       -2    1    3    3    0  502  0.18626988706E+04 -0.38599191488E+02  0.34438656722E+03  0.18946606788E+04  0.25500000920E-02 0.  1.
</event>
<event>
 5   0  0.7268013E-07  0.2989443E+04  0.7818609E-02  0.8246752E-01
        2   -1    0    0  501    0  0.00000000000E+00  0.00000000000E+00  0.19451500456E+04  0.19451500456E+04  0.25500000920E-02 0.  1.
       -2   -1    0    0    0  501  0.00000000000E+00  0.00000000000E+00 -0.11485967554E+04  0.11485967554E+04  0.25500000920E-02 0. -1.
    10030    2    1    2    0    0  0.00000000000E+00  0.00000000000E+00  0.79655329012E+03  0.30937468010E+04  0.29894434473E+04 0.  0.
        4    1    3    3  502    0  0.36106332994E+03  0.73812049753E+03 -0.89388806410E+03  0.12141771210E+04  0.12699999809E+01 0. -1.
       -4    1    3    3    0  502 -0.36106332994E+03 -0.73812049753E+03  0.16904413542E+04  0.18795696800E+04  0.12699999809E+01 0.  1.
</event>
<event>
 5   0  0.1034683E-06  0.2244370E+04  0.7818609E-02  0.8500184E-01
       -2   -1    0    0    0  501  0.00000000000E+00  0.00000000000E+00  0.72822862622E+03  0.72822862623E+03  0.25500000920E-02 0.  1.
        2   -1    0    0  501    0  0.00000000000E+00  0.00000000000E+00 -0.17292630211E+04  0.17292630211E+04  0.25500000920E-02 0. -1.
    10030    2    1    2    0    0  0.00000000000E+00  0.00000000000E+00 -0.10010343949E+04  0.24574916473E+04  0.22443696970E+04 0.  0.
        2    1    3    3  502    0  0.51996249145E+03 -0.39505533850E+02  0.58750859643E+03  0.78554950869E+03  0.25500000920E-02 0.  1.
       -2    1    3    3    0  502 -0.51996249145E+03  0.39505533850E+02 -0.15885429913E+04  0.16719421386E+04  0.25500000920E-02 0. -1.
</event>
<event>
 5   0  0.1015219E-06  0.4033300E+04  0.7818609E-02  0.7997862E-01
        2   -1    0    0  501    0  0.00000000000E+00  0.00000000000E+00  0.21890880880E+04  0.21890880880E+04  0.25500000920E-02 0. -1.
       -2   -1    0    0    0  501  0.00000000000E+00  0.00000000000E+00 -0.18577948280E+04  0.18577948280E+04  0.25500000920E-02 0.  1.
    10030    2    1    2    0    0  0.00000000000E+00  0.00000000000E+00  0.33129326000E+03  0.40468829161E+04  0.40332996557E+04 0.  0.
        3    1    3    3  502    0  0.15949526669E+04 -0.12232198527E+04  0.15854113409E+01  0.20100107814E+04  0.10100000352E+00 0.  1.
       -3    1    3    3    0  502 -0.15949526669E+04  0.12232198527E+04  0.32970784866E+03  0.20368721347E+04  0.10100000352E+00 0. -1.
</event>
<event>
 5   0  0.7195755E-07  0.2048357E+04  0.7818609E-02  0.8584340E-01
       -2   -1    0    0    0  501  0.00000000000E+00  0.00000000000E+00  0.10907700426E+04  0.10907700426E+04  0.25500000920E-02 0.  1.
        2   -1    0    0  501    0  0.00000000000E+00  0.00000000000E+00 -0.96165218132E+03  0.96165218133E+03  0.25500000920E-02 0. -1.
    10030    2    1    2    0    0  0.00000000000E+00  0.00000000000E+00  0.12911786126E+03  0.20524222239E+04  0.20483567958E+04 0.  0.
        1    1    3    3  502    0  0.33960835582E+03 -0.17594893666E+03  0.10165232722E+04  0.10860991790E+04  0.50400001928E-02 0.  1.
       -1    1    3    3    0  502 -0.33960835582E+03  0.17594893666E+03 -0.88740541097E+03  0.96632304490E+03  0.50400001928E-02 0. -1.
</event>
<event>
 5   0  0.5533705E-07  0.3678895E+04  0.7818609E-02  0.8072655E-01
       -2   -1    0    0    0  501  0.00000000000E+00  0.00000000000E+00  0.20218439797E+04  0.20218439797E+04  0.25500000920E-02 0. -1.
        2   -1    0    0  501    0  0.00000000000E+00  0.00000000000E+00 -0.16735059800E+04  0.16735059801E+04  0.25500000920E-02 0.  1.
    10030    2    1    2    0    0  0.00000000000E+00  0.00000000000E+00  0.34833799969E+03  0.36953499598E+04  0.36788954814E+04 0.  0.
        1    1    3    3  502    0 -0.56410842172E+03 -0.19957782889E+03 -0.15730124942E+04  0.16829788852E+04  0.50400001928E-02 0. -1.
       -1    1    3    3    0  502  0.56410842172E+03  0.19957782889E+03  0.19213504939E+04  0.20123710745E+04  0.50400001928E-02 0.  1.
</event>
<event>
 5   0  0.5385714E-07  0.3798299E+04  0.7818609E-02  0.8046520E-01
        1   -1    0    0  501    0  0.00000000000E+00  0.00000000000E+00  0.14324942839E+04  0.14324942839E+04  0.50400001928E-02 0. -1.
       -1   -1    0    0    0  501  0.00000000000E+00  0.00000000000E+00 -0.25178246469E+04  0.25178246470E+04  0.50400001928E-02 0.  1.
    10030    2    1    2    0    0  0.00000000000E+00  0.00000000000E+00 -0.10853303630E+04  0.39503189309E+04  0.37982993114E+04 0.  0.
        3    1    3    3  502    0  0.61112365180E+03 -0.15923503318E+03  0.13200917776E+04  0.14633763102E+04  0.10100000352E+00 0. -1.
       -3    1    3    3    0  502 -0.61112365180E+03  0.15923503318E+03 -0.24054221407E+04  0.24869426207E+04  0.10100000352E+00 0.  1.
</event>
<event>
 5   0  0.4627905E-07  0.2130199E+04  0.7818609E-02  0.8548056E-01
       -1   -1    0    0    0  501  0.00000000000E+00  0.00000000000E+00  0.15364342900E+04  0.15364342900E+04  0.50400001928E-02 0. -1.
        1   -1    0    0  501    0  0.00000000000E+00  0.00000000000E+00 -0.73835678911E+03  0.73835678913E+03  0.50400001928E-02 0.  1.
    10030    2    1    2    0    0  0.00000000000E+00  0.00000000000E+00  0.79807750091E+03  0.22747910792E+04  0.21301987598E+04 0.  0.
        1    1    3    3  502    0 -0.43519097357E+02  0.10614167358E+04  0.31675472495E+03  0.11085273811E+04  0.50400001928E-02 0.  1.
       -1    1    3    3    0  502  0.43519097357E+02 -0.10614167358E+04  0.48132277596E+03  0.11662636981E+04  0.50400001928E-02 0. -1.
</event>
<event>
 5   0  0.1015219E-06  0.2249360E+04  0.7818609E-02  0.8498160E-01
        2   -1    0    0  501    0  0.00000000000E+00  0.00000000000E+00  0.17517088095E+04  0.17517088095E+04  0.25500000920E-02 0.  1.
       -2   -1    0    0    0  501  0.00000000000E+00  0.00000000000E+00 -0.72209766207E+03  0.72209766208E+03  0.25500000920E-02 0. -1.
    10030    2    1    2    0    0  0.00000000000E+00  0.00000000000E+00  0.10296111474E+04  0.24738064715E+04  0.22493597631E+04 0.  0.
        3    1    3    3  502    0 -0.10409542245E+04  0.37581744680E+02  0.98128287620E+03  0.14310535204E+04  0.10100000352E+00 0.  1.
       -3    1    3    3    0  502  0.10409542245E+04 -0.37581744680E+02  0.48328271185E+02  0.10427529511E+04  0.10100000352E+00 0. -1.
</event>
<event>
 5   0  0.4316671E-07  0.3907953E+04  0.7818609E-02  0.8023377E-01
        1   -1    0    0  501    0  0.00000000000E+00  0.00000000000E+00  0.23491512856E+04  0.23491512856E+04  0.50400001928E-02 0. -1.
       -1   -1    0    0    0  501  0.00000000000E+00  0.00000000000E+00 -0.16252783220E+04  0.16252783220E+04  0.50400001928E-02 0.  1.
    10030    2    1    2    0    0  0.00000000000E+00  0.00000000000E+00  0.72387296366E+03  0.39744296076E+04  0.39079532544E+04 0.  0.
        2    1    3    3  502    0 -0.12797596277E+04  0.11766206949E+04  0.12691895071E+04  0.21524551027E+04  0.25500000920E-02 0. -1.
       -2    1    3    3    0  502  0.12797596277E+04 -0.11766206949E+04 -0.54531654340E+03  0.18219745050E+04  0.25500000920E-02 0.  1.
</event>
<event>
 5   0  0.5533705E-07  0.2188073E+04  0.7818609E-02  0.8523409E-01
        2   -1    0    0  501    0  0.00000000000E+00  0.00000000000E+00  0.18863315260E+04  0.18863315260E+04  0.25500000920E-02 0. -1.
       -2   -1    0    0    0  501  0.00000000000E+00  0.00000000000E+00 -0.63452042032E+03  0.63452042033E+03  0.25500000920E-02 0.  1.
    10030    2    1    2    0    0  0.00000000000E+00  0.00000000000E+00  0.12518111056E+04  0.25208519463E+04  0.21880730086E+04 0.  0.
        1    1    3    3  502    0 -0.14360910968E+03  0.63188647157E+03 -0.38963982356E+03  0.75612385326E+03  0.50400001928E-02 0.  1.
       -1    1    3    3    0  502  0.14360910968E+03 -0.63188647157E+03  0.16414509292E+04  0.17647280930E+04  0.50400001928E-02 0. -1.
</event>
<event>
 5   0  0.5533705E-07  0.2402170E+04  0.7818609E-02  0.8438691E-01
        2   -1    0    0  501    0  0.00000000000E+00  0.00000000000E+00  0.13806053792E+04  0.13806053792E+04  0.25500000920E-02 0. -1.
       -2   -1    0    0    0  501  0.00000000000E+00  0.00000000000E+00 -0.10449079790E+04  0.10449079790E+04  0.25500000920E-02 0.  1.
    10030    2    1    2    0    0  0.00000000000E+00  0.00000000000E+00  0.33569740021E+03  0.24255133583E+04  0.24021703326E+04 0.  0.
        1    1    3    3  502    0  0.48636153800E+03 -0.58616464073E+03  0.11055653561E+04  0.13425391198E+04  0.50400001928E-02 0. -1.
       -1    1    3    3    0  502 -0.48636153800E+03  0.58616464073E+03 -0.76986795586E+03  0.10829742385E+04  0.50400001928E-02 0.  1.
</event>
<event>
 5   0  0.4627905E-07  0.2978463E+04  0.7818609E-02  0.8249908E-01
        1   -1    0    0  501    0  0.00000000000E+00  0.00000000000E+00  0.12524748770E+04  0.12524748770E+04  0.50400001928E-02 0. -1.
       -1   -1    0    0    0  501  0.00000000000E+00  0.00000000000E+00 -0.17707430019E+04  0.17707430019E+04  0.50400001928E-02 0.  1.
    10030    2    1    2    0    0  0.00000000000E+00  0.00000000000E+00 -0.51826812484E+03  0.30232178789E+04  0.29784634451E+04 0.  0.
        1    1    3    3  502    0  0.58415240523E+03 -0.86468027603E+03  0.81933053361E+03  0.13267285086E+04  0.50400001928E-02 0. -1.
       -1    1    3    3    0  502 -0.58415240523E+03  0.86468027603E+03 -0.13375986584E+04  0.16964893703E+04  0.50400001928E-02 0.  1.
</event>
<event>
 5   0  0.5533705E-07  0.2738925E+04  0.7818609E-02  0.8322484E-01
       -2   -1    0    0    0  501  0.00000000000E+00  0.00000000000E+00  0.15044851813E+04  0.15044851813E+04  0.25500000920E-02 0. -1.
        2   -1    0    0  501    0  0.00000000000E+00  0.00000000000E+00 -0.12465581072E+04  0.12465581072E+04  0.25500000920E-02 0.  1.
    10030    2    1    2    0    0  0.00000000000E+00  0.00000000000E+00  0.25792707411E+03  0.27510432885E+04  0.27389254826E+04 0.  0.
        1    1    3    3  502    0  0.29286728038E+03 -0.84178734174E+03 -0.91537259594E+03  0.12776087672E+04  0.50400001928E-02 0.  1.
       -1    1    3    3    0  502 -0.29286728038E+03  0.84178734174E+03  0.11732996701E+04  0.14734345212E+04  0.50400001928E-02 0. -1.
</event>
<event>
 5   0  0.5533705E-07  0.3843100E+04  0.7818609E-02  0.8036969E-01
        2   -1    0    0  501    0  0.00000000000E+00  0.00000000000E+00  0.18132290684E+04  0.18132290684E+04  0.25500000920E-02 0.  1.
       -2   -1    0    0    0  501  0.00000000000E+00  0.00000000000E+00 -0.20363415259E+04  0.20363415259E+04  0.25500000920E-02 0. -1.
    10030    2    1    2    0    0  0.00000000000E+00  0.00000000000E+00 -0.22311245748E+03  0.38495705943E+04  0.38430996073E+04 0.  0.
        1    1    3    3  502    0  0.81623542469E+03  0.14879794214E+04  0.79108850047E+03  0.18724700378E+04  0.50400001928E-02 0. -1.
       -1    1    3    3    0  502 -0.81623542469E+03 -0.14879794214E+04 -0.10142009580E+04  0.19771005564E+04  0.50400001928E-02 0.  1.
</event>
<event>
 5   0  0.4316671E-07  0.2165364E+04  0.7818609E-02  0.8532984E-01
       -1   -1    0    0    0  501  0.00000000000E+00  0.00000000000E+00  0.70302568335E+03  0.70302568336E+03  0.50400001928E-02 0.  1.
        1   -1    0    0  501    0  0.00000000000E+00  0.00000000000E+00 -0.16673649095E+04  0.16673649095E+04  0.50400001928E-02 0. -1.
    10030    2    1    2    0    0  0.00000000000E+00  0.00000000000E+00 -0.96433922619E+03  0.23703905929E+04  0.21653640386E+04 0.  0.
        2    1    3    3  502    0  0.70859475100E+02  0.18336688008E+03  0.68332551232E+03  0.71104024761E+03  0.25500000920E-02 0.  1.
       -2    1    3    3    0  502 -0.70859475100E+02 -0.18336688008E+03 -0.16476647385E+04  0.16593503453E+04  0.25500000920E-02 0. -1.
</event>
<event>
 5   0  0.7268013E-07  0.3860063E+04  0.7818609E-02  0.8033387E-01
        2   -1    0    0  501    0  0.00000000000E+00  0.00000000000E+00  0.26724735311E+04  0.26724735311E+04  0.25500000920E-02 0.  1.
       -2   -1    0    0    0  501  0.00000000000E+00  0.00000000000E+00 -0.13938477031E+04  0.13938477031E+04  0.25500000920E-02 0. -1.
    10030    2    1    2    0    0  0.00000000000E+00  0.00000000000E+00  0.12786258280E+04  0.40663212342E+04  0.38600627419E+04 0.  0.
        4    1    3    3  502    0 -0.36244419995E+03 -0.16480924582E+04  0.16260859081E+04  0.23434443758E+04  0.12699999809E+01 0.  1.
       -4    1    3    3    0  502  0.36244419995E+03  0.16480924582E+04 -0.34746008013E+03  0.17228768584E+04  0.12699999809E+01 0. -1.
</event>
<event>
 5   0  0.1034683E-06  0.2012893E+04  0.7818609E-02  0.8600616E-01
       -2   -1    0    0    0  501  0.00000000000E+00  0.00000000000E+00  0.76178107623E+03  0.76178107623E+03  0.25500000920E-02 0. -1.
        2   -1    0    0  501    0  0.00000000000E+00  0.00000000000E+00 -0.13296930238E+04  0.13296930238E+04  0.25500000920E-02 0.  1.
    10030    2    1    2    0    0  0.00000000000E+00  0.00000000000E+00 -0.56791194760E+03  0.20914741001E+04  0.20128934227E+04 0.  0.
        2    1    3    3  502    0  0.19723850142E+03 -0.51884571838E+03  0.58836081735E+03  0.80887103875E+03  0.25500000920E-02 0. -1.
       -2    1    3    3    0  502 -0.19723850142E+03  0.51884571838E+03 -0.11562727650E+04  0.12826030613E+04  0.25500000920E-02 0.  1.
</event>
<event>
 5   0  0.5385714E-07  0.2516171E+04  0.7818609E-02  0.8397247E-01
       -1   -1    0    0    0  501  0.00000000000E+00  0.00000000000E+00  0.12543114535E+04  0.12543114536E+04  0.50400001928E-02 0.  1.
        1   -1    0    0  501    0  0.00000000000E+00  0.00000000000E+00 -0.12618705889E+04  0.12618705889E+04  0.50400001928E-02 0. -1.
    10030    2    1    2    0    0  0.00000000000E+00  0.00000000000E+00 -0.75591353183E+01  0.25161820424E+04  0.25161706878E+04 0.  0.
        3    1    3    3  502    0  0.80226123620E+03 -0.11210517818E+03 -0.96637835377E+03  0.12609828686E+04  0.10100000352E+00 0. -1.
       -3    1    3    3    0  502 -0.80226123620E+03  0.11210517818E+03  0.95881921845E+03  0.12551991738E+04  0.10100000352E+00 0.  1.
</event>
<event>
 5   0  0.4316671E-07  0.2281427E+04  0.7818609E-02  0.8485280E-01
        1   -1    0    0  501    0  0.00000000000E+00  0.00000000000E+00  0.12443513490E+04  0.12443513490E+04  0.50400001928E-02 0.  1.
       -1   -1    0    0    0  501  0.00000000000E+00  0.00000000000E+00 -0.10457073891E+04  0.10457073891E+04  0.50400001928E-02 0. -1.
    10030    2    1    2    0    0  0.00000000000E+00  0.00000000000E+00  0.19864395993E+03  0.22900587381E+04  0.22814270975E+04 0.  0.
        2    1    3    3  502    0 -0.21406641049E+03 -0.55440039363E+03  0.10766809078E+04  0.12298073027E+04  0.25500000920E-02 0.  1.
       -2    1    3    3    0  502  0.21406641049E+03  0.55440039363E+03 -0.87803694784E+03  0.10602514354E+04  0.25500000920E-02 0. -1.
</event>
<event>
 5   0  0.3471602E-07  0.2627100E+04  0.7818609E-02  0.8359054E-01
       -1   -1    0    0    0  501  0.00000000000E+00  0.00000000000E+00  0.11916128518E+04  0.11916128518E+04  0.50400001928E-02 0.  1.
        1   -1    0    0  501    0  0.00000000000E+00  0.00000000000E+00 -0.14479650436E+04  0.14479650436E+04  0.50400001928E-02 0. -1.
    10030    2    1    2    0    0  0.00000000000E+00  0.00000000000E+00 -0.25635219181E+03  0.26395778954E+04  0.26271001160E+04 0.  0.
        5    1    3    3  502    0 -0.34472994091E+02 -0.35195043511E+03 -0.13992277442E+04  0.14432317438E+04  0.46999998093E+01 0. -1.
       -5    1    3    3    0  502  0.34472994091E+02  0.35195043511E+03  0.11428755524E+04  0.11963461516E+04  0.46999998093E+01 0.  1.
</event>
<event>
 5   0  0.4316671E-07  0.3927682E+04  0.7818609E-02  0.8019296E-01
        1   -1    0    0  501    0  0.00000000000E+00  0.00000000000E+00  0.26401926646E+04  0.26401926646E+04  0.50400001928E-02 0. -1.
       -1   -1    0    0    0  501  0.00000000000E+00  0.00000000000E+00 -0.14607536835E+04  0.14607536835E+04  0.50400001928E-02 0.  1.
    10030    2    1    2    0    0  0.00000000000E+00  0.00000000000E+00  0.11794389810E+04  0.41009463481E+04  0.39276818404E+04 0.  0.
        2    1    3    3  502    0  0.25480004455E+03  0.19412355929E+04  0.43016310193E+03  0.20045844917E+04  0.25500000920E-02 0. -1.
       -2    1    3    3    0  502 -0.25480004455E+03 -0.19412355929E+04  0.74927587912E+03  0.20963618564E+04  0.25500000920E-02 0.  1.
</event>
<event>
 5   0  0.4627905E-07  0.2653360E+04  0.7818609E-02  0.8350298E-01
       -1   -1    0    0    0  501  0.00000000000E+00  0.00000000000E+00  0.11391750660E+04  0.11391750660E+04  0.50400001928E-02 0. -1.
        1   -1    0    0  501    0  0.00000000000E+00  0.00000000000E+00 -0.15450481221E+04  0.15450481221E+04  0.50400001928E-02 0.  1.
    10030    2    1    2    0    0  0.00000000000E+00  0.00000000000E+00 -0.40587305610E+03  0.26842231881E+04  0.26533603574E+04 0.  0.
        1    1    3    3  502    0  0.11239140462E+04 -0.10215470471E+02  0.51009739182E+03  0.12342959484E+04  0.50400001928E-02 0. -1.
       -1    1    3    3    0  502 -0.11239140462E+04  0.10215470471E+02 -0.91597044792E+03  0.14499272397E+04  0.50400001928E-02 0.  1.
</event>
<event>
 5   0  0.1015219E-06  0.3489726E+04  0.7818609E-02  0.8116229E-01
       -2   -1    0    0    0  501  0.00000000000E+00  0.00000000000E+00  0.24335370577E+04  0.24335370577E+04  0.25500000920E-02 0. -1.
        2   -1    0    0  501    0  0.00000000000E+00  0.00000000000E+00 -0.12510787600E+04  0.12510787600E+04  0.25500000920E-02 0.  1.
    10030    2    1    2    0    0  0.00000000000E+00  0.00000000000E+00  0.11824582976E+04  0.36846158177E+04  0.34897257913E+04 0.  0.
        3    1    3    3  502    0 -0.51544850785E+03 -0.13758668283E+04 -0.40252958792E+03  0.15233931774E+04  0.10100000352E+00 0.  1.
       -3    1    3    3    0  502  0.51544850785E+03  0.13758668283E+04  0.15849878856E+04  0.21612226403E+04  0.10100000352E+00 0. -1.
</event>
<event>
 5   0  0.4316671E-07  0.3740207E+04  0.7818609E-02  0.8059110E-01
       -1   -1    0    0    0  501  0.00000000000E+00  0.00000000000E+00  0.15025151735E+04  0.15025151735E+04  0.50400001928E-02 0.  1.
        1   -1    0    0  501    0  0.00000000000E+00  0.00000000000E+00 -0.23276213127E+04  0.23276213127E+04  0.50400001928E-02 0. -1.
    10030    2    1    2    0    0  0.00000000000E+00  0.00000000000E+00 -0.82510613922E+03  0.38301364862E+04  0.37402065934E+04 0.  0.
        2    1    3    3  502    0 -0.72187628217E+03  0.54537080865E+03  0.12634888821E+04  0.15540073490E+04  0.25500000920E-02 0.  1.
       -2    1    3    3    0  502  0.72187628217E+03 -0.54537080865E+03 -0.20885950213E+04  0.22761291371E+04  0.25500000920E-02 0. -1.
</event>
<event>
 5   0  0.1035864E-06  0.3335648E+04  0.7818609E-02  0.8153884E-01
        2   -1    0    0  501    0  0.00000000000E+00  0.00000000000E+00  0.22291641492E+04  0.22291641492E+04  0.25500000920E-02 0.  1.
       -2   -1    0    0    0  501  0.00000000000E+00  0.00000000000E+00 -0.12478381933E+04  0.12478381933E+04  0.25500000920E-02 0. -1.
    10030    2    1    2    0    0  0.00000000000E+00  0.00000000000E+00  0.98132595584E+03  0.34770023425E+04  0.33356475620E+04 0.  0.
        5    1    3    3  502    0 -0.12543915185E+04 -0.62345222002E+03  0.14342435402E+04  0.20048110572E+04  0.46999998093E+01 0.  1.
       -5    1    3    3    0  502  0.12543915185E+04  0.62345222002E+03 -0.45291758433E+03  0.14721912853E+04  0.46999998093E+01 0. -1.
</event>
<event>
 5   0  0.5533705E-07  0.3021248E+04  0.7818609E-02  0.8237689E-01
       -2   -1    0    0    0  501  0.00000000000E+00  0.00000000000E+00  0.20465732290E+04  0.20465732290E+04  0.25500000920E-02 0.  1.
        2   -1    0    0  501    0  0.00000000000E+00  0.00000000000E+00 -0.11150269180E+04  0.11150269180E+04  0.25500000920E-02 0. -1.
    10030    2    1    2    0    0  0.00000000000E+00  0.00000000000E+00  0.93154631095E+03  0.31616001470E+04  0.30212475834E+04 0.  0.
        1    1    3    3  502    0 -0.41021751551E+03  0.14036444673E+04  0.69377872462E+02  0.14640046071E+04  0.50400001928E-02 0.  1.
       -1    1    3    3    0  502  0.41021751551E+03 -0.14036444673E+04  0.86216843849E+03  0.16975955398E+04  0.50400001928E-02 0. -1.
</event>
<event>
 5   0  0.5533705E-07  0.3739790E+04  0.7818609E-02  0.8059201E-01
       -2   -1    0    0    0  501  0.00000000000E+00  0.00000000000E+00  0.13243143365E+04  0.13243143365E+04  0.25500000920E-02 0.  1.
        2   -1    0    0  501    0  0.00000000000E+00  0.00000000000E+00 -0.26402392052E+04  0.26402392052E+04  0.25500000920E-02 0. -1.
    10030    2    1    2    0    0  0.00000000000E+00  0.00000000000E+00 -0.13159248686E+04  0.39645535417E+04  0.37397896365E+04 0.  0.
        1    1    3    3  502    0  0.11911380713E+04  0.45546639931E+03 -0.21077240830E+04  0.24634854081E+04  0.50400001928E-02 0. -1.
       -1    1    3    3    0  502 -0.11911380713E+04 -0.45546639931E+03  0.79179921435E+03  0.15010681336E+04  0.50400001928E-02 0.  1.
</event>
<event>
 5   0  0.3471602E-07  0.2723993E+04  0.7818609E-02  0.8327262E-01
       -1   -1    0    0    0  501  0.00000000000E+00  0.00000000000E+00  0.90527727794E+03  0.90527727795E+03  0.50400001928E-02 0.  1.
        1   -1    0    0  501    0  0.00000000000E+00  0.00000000000E+00 -0.20491338362E+04  0.20491338362E+04  0.50400001928E-02 0. -1.
    10030    2    1    2    0    0  0.00000000000E+00  0.00000000000E+00 -0.11438565583E+04  0.29544111142E+04  0.27239928791E+04 0.  0.
        5    1    3    3  502    0  0.14731039487E+03 -0.43779484993E+03 -0.19615766385E+04  0.20152343988E+04  0.46999998093E+01 0. -1.
       -5    1    3    3    0  502 -0.14731039487E+03  0.43779484993E+03  0.81772008028E+03  0.93917671540E+03  0.46999998093E+01 0.  1.
</event>
<event>
 5   0  0.1015219E-06  0.2459640E+04  0.7818609E-02  0.8417507E-01
       -2   -1    0    0    0  501  0.00000000000E+00  0.00000000000E+00  0.83715293293E+03  0.83715293293E+03  0.25500000920E-02 0.  1.
        2   -1    0    0  501    0  0.00000000000E+00  0.00000000000E+00 -0.18066674377E+04  0.18066674377E+04  0.25500000920E-02 0. -1.
    10030    2    1    2    0    0  0.00000000000E+00  0.00000000000E+00 -0.96951450478E+03  0.26438203706E+04  0.24596397657E+04 0.  0.
        3    1    3    3  502    0 -0.84133397489E+03 -0.87606699113E+03 -0.27766276437E+03  0.12459666332E+04  0.10100000352E+00 0. -1.
       -3    1    3    3    0  502  0.84133397489E+03  0.87606699113E+03 -0.69185174041E+03  0.13978537374E+04  0.10100000352E+00 0.  1.
</event>
<event>
 5   0  0.5533705E-07  0.3938777E+04  0.7818609E-02  0.8017012E-01
       -2   -1    0    0    0  501  0.00000000000E+00  0.00000000000E+00  0.14719755511E+04  0.14719755511E+04  0.25500000920E-02 0. -1.
        2   -1    0    0  501    0  0.00000000000E+00  0.00000000000E+00 -0.26348887477E+04  0.26348887477E+04  0.25500000920E-02 0.  1.
    10030    2    1    2    0    0  0.00000000000E+00  0.00000000000E+00 -0.11629131966E+04  0.41068642988E+04  0.39387773822E+04 0.  0.
        1    1    3    3  502    0  0.18929855983E+04  0.11143694896E+03 -0.27091597276E+02  0.18964563332E+04  0.50400001928E-02 0. -1.
       -1    1    3    3    0  502 -0.18929855983E+04 -0.11143694896E+03 -0.11358215994E+04  0.22104079657E+04  0.50400001928E-02 0.  1.
</event>
<event>
 5   0  0.4627905E-07  0.2341935E+04  0.7818609E-02  0.8461568E-01
       -1   -1    0    0    0  501  0.00000000000E+00  0.00000000000E+00  0.12910191707E+04  0.12910191707E+04  0.50400001928E-02 0. -1.
        1   -1    0    0  501    0  0.00000000000E+00  0.00000000000E+00 -0.10620794042E+04  0.10620794042E+04  0.50400001928E-02 0.  1.
    10030    2    1    2    0    0  0.00000000000E+00  0.00000000000E+00  0.22893976656E+03  0.23530985749E+04  0.23419349877E+04 0.  0.
        1    1    3    3  502    0  0.25362434346E+03  0.66255308683E+03  0.10505022480E+04  0.12676185836E+04  0.50400001928E-02 0. -1.
       -1    1    3    3    0  502 -0.25362434346E+03 -0.66255308683E+03 -0.82156248147E+03  0.10854799913E+04  0.50400001928E-02 0.  1.
</event>
<event>
 5   0  0.5385714E-07  0.3909040E+04  0.7818609E-02  0.8023152E-01
       -1   -1    0    0    0  501  0.00000000000E+00  0.00000000000E+00  0.12451048927E+04  0.12451048927E+04  0.50400001928E-02 0.  1.
        1   -1    0    0  501    0  0.00000000000E+00  0.00000000000E+00 -0.30681345857E+04  0.30681345857E+04  0.50400001928E-02 0. -1.
    10030    2    1    2    0    0  0.00000000000E+00  0.00000000000E+00 -0.18230296931E+04  0.43132394784E+04  0.39090404879E+04 0.  0.
        3    1    3    3  502    0  0.17547535784E+04 -0.10931539419E+03  0.30610964429E+02  0.17584217405E+04  0.10100000352E+00 0.  1.
       -3    1    3    3    0  502 -0.17547535784E+04  0.10931539419E+03 -0.18536406575E+04  0.25548177378E+04  0.10100000352E+00 0. -1.
</event>
<event>
 5   0  0.4316671E-07  0.3386628E+04  0.7818609E-02  0.8141196E-01
       -1   -1    0    0    0  501  0.00000000000E+00  0.00000000000E+00  0.14686492577E+04  0.14686492577E+04  0.50400001928E-02 0. -1.
        1   -1    0    0  501    0  0.00000000000E+00  0.00000000000E+00 -0.19523462072E+04  0.19523462072E+04  0.50400001928E-02 0.  1.
    10030    2    1    2    0    0  0.00000000000E+00  0.00000000000E+00 -0.48369694953E+03  0.34209954649E+04  0.33866277079E+04 0.  0.
        2    1    3    3  502    0 -0.12149016509E+04 -0.11755055544E+04 -0.34037017137E+03  0.17244277843E+04  0.25500000920E-02 0.  1.
       -2    1    3    3    0  502  0.12149016509E+04  0.11755055544E+04 -0.14332677816E+03  0.16965676806E+04  0.25500000920E-02 0. -1.
</event>
<event>
 5   0  0.5533705E-07  0.3446358E+04  0.7818609E-02  0.8126621E-01
       -2   -1    0    0    0  501  0.00000000000E+00  0.00000000000E+00  0.17168397993E+04  0.17168397993E+04  0.25500000920E-02 0. -1.
        2   -1    0    0  501    0  0.00000000000E+00  0.00000000000E+00 -0.17295415947E+04  0.17295415947E+04  0.25500000920E-02 0.  1.
    10030    2    1    2    0    0  0.00000000000E+00  0.00000000000E+00 -0.12701795399E+02  0.34463813940E+04  0.34463579874E+04 0.  0.
        1    1    3    3  502    0  0.16978917966E+04 -0.67454088742E+02 -0.29263807985E+03  0.17242458214E+04  0.50400001928E-02 0.  1.
       -1    1    3    3    0  502 -0.16978917966E+04  0.67454088742E+02  0.27993628445E+03  0.17221355726E+04  0.50400001928E-02 0. -1.
</event>
<event>
 5   0  0.1015219E-06  0.3986161E+04  0.7818609E-02  0.8007344E-01
       -2   -1    0    0    0  501  0.00000000000E+00  0.00000000000E+00  0.13222712516E+04  0.13222712516E+04  0.25500000920E-02 0. -1.
        2   -1    0    0  501    0  0.00000000000E+00  0.00000000000E+00 -0.30042014418E+04  0.30042014418E+04  0.25500000920E-02 0.  1.
    10030    2    1    2    0    0  0.00000000000E+00  0.00000000000E+00 -0.16819301902E+04  0.43264726934E+04  0.39861606594E+04 0.  0.
        3    1    3    3  502    0 -0.89166591276E+02  0.87122870554E+02  0.13180354938E+04  0.13239179161E+04  0.10100000352E+00 0. -1.
       -3    1    3    3    0  502  0.89166591276E+02 -0.87122870554E+02 -0.29999656840E+04  0.30025547773E+04  0.10100000352E+00 0.  1.
</event>
<event>
 5   0  0.1034683E-06  0.3858014E+04  0.7818609E-02  0.8033819E-01
       -2   -1    0    0    0  501  0.00000000000E+00  0.00000000000E+00  0.16899432589E+04  0.16899432589E+04  0.25500000920E-02 0. -1.
        2   -1    0    0  501    0  0.00000000000E+00  0.00000000000E+00 -0.22018896563E+04  0.22018896563E+04  0.25500000920E-02 0.  1.
    10030    2    1    2    0    0  0.00000000000E+00  0.00000000000E+00 -0.51194639743E+03  0.38918329152E+04  0.38580142983E+04 0.  0.
        2    1    3    3  502    0  0.16584233989E+04  0.58332875556E+03 -0.10569281529E+04  0.20512770967E+04  0.25500000920E-02 0.  1.
       -2    1    3    3    0  502 -0.16584233989E+04 -0.58332875556E+03  0.54498175549E+03  0.18405558185E+04  0.25500000920E-02 0. -1.
</event>
<event>
 5   0  0.5533705E-07  0.3890810E+04  0.7818609E-02  0.8026943E-01
       -2   -1    0    0    0  501  0.00000000000E+00  0.00000000000E+00  0.19426583027E+04  0.19426583027E+04  0.25500000920E-02 0. -1.
        2   -1    0    0  501    0  0.00000000000E+00  0.00000000000E+00 -0.19481555158E+04  0.19481555158E+04  0.25500000920E-02 0.  1.
    10030    2    1    2    0    0  0.00000000000E+00  0.00000000000E+00 -0.54972130963E+01  0.38908138186E+04  0.38908099351E+04 0.  0.
        1    1    3    3  502    0 -0.14313885297E+04  0.11070234762E+04 -0.71705064811E+03  0.19464161250E+04  0.50400001928E-02 0.  1.
       -1    1    3    3    0  502  0.14313885297E+04 -0.11070234762E+04  0.71155343501E+03  0.19443976935E+04  0.50400001928E-02 0. -1.
</event>
<event>
 5   0  0.4316671E-07  0.3506382E+04  0.7818609E-02  0.8112279E-01
       -1   -1    0    0    0  501  0.00000000000E+00  0.00000000000E+00  0.11399322991E+04  0.11399322991E+04  0.50400001928E-02 0.  1.
        1   -1    0    0  501    0  0.00000000000E+00  0.00000000000E+00 -0.26963698278E+04  0.26963698278E+04  0.50400001928E-02 0. -1.
    10030    2    1    2    0    0  0.00000000000E+00  0.00000000000E+00 -0.15564375287E+04  0.38363021269E+04  0.35063822136E+04 0.  0.
        2    1    3    3  502    0 -0.67422167614E+03 -0.14326013126E+04  0.45449342480E+02  0.15839782297E+04  0.25500000920E-02 0.  1.
       -2    1    3    3    0  502  0.67422167614E+03  0.14326013126E+04 -0.16018868712E+04  0.22523238971E+04  0.25500000920E-02 0. -1.
</event>
<event>
 5   0  0.4627905E-07  0.3927089E+04  0.7818609E-02  0.8019419E-01
       -1   -1    0    0    0  501  0.00000000000E+00  0.00000000000E+00  0.19870738111E+04  0.19870738111E+04  0.50400001928E-02 0.  1.
        1   -1    0    0  501    0  0.00000000000E+00  0.00000000000E+00 -0.19402937373E+04  0.19402937373E+04  0.50400001928E-02 0. -1.
    10030    2    1    2    0    0  0.00000000000E+00  0.00000000000E+00  0.46780073750E+02  0.39273675484E+04  0.39270889327E+04 0.  0.
        1    1    3    3  502    0 -0.12781331125E+04 -0.13419806522E+04  0.67225850019E+03  0.19714126446E+04  0.50400001928E-02 0. -1.
       -1    1    3    3    0  502  0.12781331125E+04  0.13419806522E+04 -0.62547842644E+03  0.19559549039E+04  0.50400001928E-02 0.  1.
</event>
<event>
 5   0  0.5533705E-07  0.2061922E+04  0.7818609E-02  0.8578205E-01
       -2   -1    0    0    0  501  0.00000000000E+00  0.00000000000E+00  0.83556270553E+03  0.83556270554E+03  0.25500000920E-02 0.  1.
        2   -1    0    0  501    0  0.00000000000E+00  0.00000000000E+00 -0.12720535658E+04  0.12720535658E+04  0.25500000920E-02 0. -1.
    10030    2    1    2    0    0  0.00000000000E+00  0.00000000000E+00 -0.43649086028E+03  0.21076162714E+04  0.20619219375E+04 0.  0.
        1    1    3    3  502    0  0.40073200365E+03 -0.77504437320E+03 -0.77959762364E+03  0.11700651153E+04  0.50400001928E-02 0. -1.
       -1    1    3    3    0  502 -0.40073200365E+03  0.77504437320E+03  0.34310676335E+03  0.93755115608E+03  0.50400001928E-02 0.  1.
</event>
<event>
 5   0  0.1015219E-06  0.3921907E+04  0.7818609E-02  0.8020488E-01
       -2   -1    0    0    0  501  0.00000000000E+00  0.00000000000E+00  0.26842299602E+04  0.26842299602E+04  0.25500000920E-02 0.  1.
        2   -1    0    0  501    0  0.00000000000E+00  0.00000000000E+00 -0.14325671254E+04  0.14325671254E+04  0.25500000920E-02 0. -1.
    10030    2    1    2    0    0  0.00000000000E+00  0.00000000000E+00  0.12516628348E+04  0.41167970856E+04  0.39219074941E+04 0.  0.
        3    1    3    3  502    0  0.78824266485E+03  0.88044173716E+02  0.25083435291E+04  0.26307537979E+04  0.10100000352E+00 0.  1.
       -3    1    3    3    0  502 -0.78824266485E+03 -0.88044173716E+02 -0.12566806943E+04  0.14860432877E+04  0.10100000352E+00 0. -1.
</event>
<event>
 5   0  0.5385714E-07  0.3957563E+04  0.7818609E-02  0.8013163E-01
        1   -1    0    0  501    0  0.00000000000E+00  0.00000000000E+00  0.13014031143E+04  0.13014031143E+04  0.50400001928E-02 0. -1.
       -1   -1    0    0    0  501  0.00000000000E+00  0.00000000000E+00 -0.30087340303E+04  0.30087340303E+04  0.50400001928E-02 0.  1.
    10030    2    1    2    0    0  0.00000000000E+00  0.00000000000E+00 -0.17073309161E+04  0.43101371446E+04  0.39575628041E+04 0.  0.
        3    1    3    3  502    0 -0.62999408573E+03 -0.60946847834E+03 -0.27857566252E+04  0.29204082522E+04  0.10100000352E+00 0.  1.
       -3    1    3    3    0  502  0.62999408573E+03  0.60946847834E+03  0.10784257092E+04  0.13897288924E+04  0.10100000352E+00 0. -1.
</event>
<event>
 5   0  0.4316671E-07  0.3871270E+04  0.7818609E-02  0.8031031E-01
        1   -1    0    0  501    0  0.00000000000E+00  0.00000000000E+00  0.17313232614E+04  0.17313232614E+04  0.50400001928E-02 0. -1.
       -1   -1    0    0    0  501  0.00000000000E+00  0.00000000000E+00 -0.21640578265E+04  0.21640578265E+04  0.50400001928E-02 0.  1.
    10030    2    1    2    0    0  0.00000000000E+00  0.00000000000E+00 -0.43273456507E+03  0.38953810879E+04  0.38712704138E+04 0.  0.
        2    1    3    3  502    0  0.17447085274E+04  0.39210551990E+03  0.52914457971E+03  0.18648722666E+04  0.25500000920E-02 0. -1.
       -2    1    3    3    0  502 -0.17447085274E+04 -0.39210551990E+03 -0.96187914478E+03  0.20305088214E+04  0.25500000920E-02 0.  1.
</event>
<event>
 5   0  0.1035864E-06  0.2760554E+04  0.7818609E-02  0.8315620E-01
       -2   -1    0    0    0  501  0.00000000000E+00  0.00000000000E+00  0.11979749010E+04  0.11979749010E+04  0.25500000920E-02 0.  1.
        2   -1    0    0  501    0  0.00000000000E+00  0.00000000000E+00 -0.15903211243E+04  0.15903211243E+04  0.25500000920E-02 0. -1.
    10030    2    1    2    0    0  0.00000000000E+00  0.00000000000E+00 -0.39234622337E+03  0.27882960253E+04  0.27605541411E+04 0.  0.
        5    1    3    3  502    0 -0.46444469698E+03  0.71567895548E+03  0.89973627459E+03  0.12399406025E+04  0.46999998093E+01 0.  1.
       -5    1    3    3    0  502  0.46444469698E+03 -0.71567895548E+03 -0.12920824980E+04  0.15483554228E+04  0.46999998093E+01 0. -1.
</event>
<event>
 5   0  0.7268013E-07  0.3970052E+04  0.7818609E-02  0.8010615E-01
        2   -1    0    0  501    0  0.00000000000E+00  0.00000000000E+00  0.13932213497E+04  0.13932213497E+04  0.25500000920E-02 0.  1.
       -2   -1    0    0    0  501  0.00000000000E+00  0.00000000000E+00 -0.28282146532E+04  0.28282146532E+04  0.25500000920E-02 0. -1.
    10030    2    1    2    0    0  0.00000000000E+00  0.00000000000E+00 -0.14349933035E+04  0.42214360029E+04  0.39700524109E+04 0.  0.
        4    1    3    3  502    0 -0.10036380800E+04  0.16727781668E+04 -0.11079700297E+04  0.22434516689E+04  0.12699999809E+01 0. -1.
       -4    1    3    3    0  502  0.10036380800E+04 -0.16727781668E+04 -0.32702327379E+03  0.19779843340E+04  0.12699999809E+01 0.  1.
</event>
<event>
 5   0  0.3471602E-07  0.3590124E+04  0.7818609E-02  0.8092758E-01
       -1   -1    0    0    0  501  0.00000000000E+00  0.00000000000E+00  0.14389630591E+04  0.14389630591E+04  0.50400001928E-02 0. -1.
        1   -1    0    0  501    0  0.00000000000E+00  0.00000000000E+00 -0.22392839569E+04  0.22392839569E+04  0.50400001928E-02 0.  1.
    10030    2    1    2    0    0  0.00000000000E+00  0.00000000000E+00 -0.80032089785E+03  0.36782470160E+04  0.35901236150E+04 0.  0.
        5    1    3    3  502    0 -0.17132802247E+03 -0.68081803929E+03 -0.20927894027E+04  0.22074093567E+04  0.46999998093E+01 0.  1.
       -5    1    3    3    0  502  0.17132802247E+03  0.68081803929E+03  0.12924685049E+04  0.14708376593E+04  0.46999998093E+01 0. -1.
</event>
<event>
 5   0  0.1015219E-06  0.3475850E+04  0.7818609E-02  0.8119537E-01
       -2   -1    0    0    0  501  0.00000000000E+00  0.00000000000E+00  0.16183601021E+04  0.16183601021E+04  0.25500000920E-02 0.  1.
        2   -1    0    0  501    0  0.00000000000E+00  0.00000000000E+00 -0.18663229161E+04  0.18663229161E+04  0.25500000920E-02 0. -1.
    10030    2    1    2    0    0  0.00000000000E+00  0.00000000000E+00 -0.24796281405E+03  0.34846830182E+04  0.34758495624E+04 0.  0.
        3    1    3    3  502    0 -0.94623106672E+03 -0.82665220730E+03  0.10797679165E+04  0.16566852046E+04  0.10100000352E+00 0.  1.
       -3    1    3    3    0  502  0.94623106672E+03  0.82665220730E+03 -0.13277307305E+04  0.18279978136E+04  0.10100000352E+00 0. -1.
</event>
<event>
 5   0  0.1035864E-06  0.4000576E+04  0.7818609E-02  0.8004430E-01
        2   -1    0    0  501    0  0.00000000000E+00  0.00000000000E+00  0.26980437431E+04  0.26980437431E+04  0.25500000920E-02 0.  1.
       -2   -1    0    0    0  501  0.00000000000E+00  0.00000000000E+00 -0.14829823769E+04  0.14829823769E+04  0.25500000920E-02 0. -1.
    10030    2    1    2    0    0  0.00000000000E+00  0.00000000000E+00  0.12150613663E+04  0.41810261200E+04  0.40005756202E+04 0.  0.
        5    1    3    3  502    0 -0.27943142437E+03  0.16733585982E+04 -0.49994571400E+03  0.17686658040E+04  0.46999998093E+01 0. -1.
       -5    1    3    3    0  502  0.27943142437E+03 -0.16733585982E+04  0.17150070803E+04  0.24123603161E+04  0.46999998093E+01 0.  1.
</event>
<event>
 5   0  0.5533705E-07  0.3863732E+04  0.7818609E-02  0.8032615E-01
       -2   -1    0    0    0  501  0.00000000000E+00  0.00000000000E+00  0.20234799856E+04  0.20234799856E+04  0.25500000920E-02 0.  1.
        2   -1    0    0  501    0  0.00000000000E+00  0.00000000000E+00 -0.18443996429E+04  0.18443996429E+04  0.25500000920E-02 0. -1.
    10030    2    1    2    0    0  0.00000000000E+00  0.00000000000E+00  0.17908034271E+03  0.38678796285E+04  0.38637317520E+04 0.  0.
        1    1    3    3  502    0  0.29870524644E+03 -0.14654983690E+04  0.13136347352E+04  0.19906146064E+04  0.50400001928E-02 0.  1.
       -1    1    3    3    0  502 -0.29870524644E+03  0.14654983690E+04 -0.11345543924E+04  0.18772650221E+04  0.50400001928E-02 0. -1.
</event>
<event>
 5   0  0.3471602E-07  0.1934735E+04  0.7818609E-02  0.8637757E-01
        1   -1    0    0  501    0  0.00000000000E+00  0.00000000000E+00  0.15318277997E+04  0.15318277997E+04  0.50400001928E-02 0.  1.
       -1   -1    0    0    0  501  0.00000000000E+00  0.00000000000E+00 -0.61090417195E+03  0.61090417198E+03  0.50400001928E-02 0. -1.
    10030    2    1    2    0    0  0.00000000000E+00  0.00000000000E+00  0.92092362777E+03  0.21427319717E+04  0.19347351174E+04 0.  0.
        5    1    3    3  502    0 -0.92926365497E+03  0.25380767781E+03  0.55845347132E+03  0.11134817679E+04  0.46999998093E+01 0. -1.
       -5    1    3    3    0  502  0.92926365497E+03 -0.25380767781E+03  0.36247015645E+03  0.10292502038E+04  0.46999998093E+01 0.  1.
</event>
<event>
 5   0  0.1035864E-06  0.3563819E+04  0.7818609E-02  0.8098830E-01
        2   -1    0    0  501    0  0.00000000000E+00  0.00000000000E+00  0.32593785143E+04  0.32593785143E+04  0.25500000920E-02 0. -1.
       -2   -1    0    0    0  501  0.00000000000E+00  0.00000000000E+00 -0.97417378643E+03  0.97417378644E+03  0.25500000920E-02 0.  1.
    10030    2    1    2    0    0  0.00000000000E+00  0.00000000000E+00  0.22852047278E+04  0.42335523007E+04  0.35638187994E+04 0.  0.
        5    1    3    3  502    0  0.30062775025E+03 -0.38674888611E+03  0.31778168351E+04  0.32153528069E+04  0.46999998093E+01 0. -1.
       -5    1    3    3    0  502 -0.30062775025E+03  0.38674888611E+03 -0.89261210730E+03  0.10181994938E+04  0.46999998093E+01 0.  1.
</event>
<event>
 5   0  0.1034683E-06  0.2788436E+04  0.7818609E-02  0.8306868E-01
        2   -1    0    0  501    0  0.00000000000E+00  0.00000000000E+00  0.93049669016E+03  0.93049669016E+03  0.25500000920E-02 0. -1.
       -2   -1    0    0    0  501  0.00000000000E+00  0.00000000000E+00 -0.20890385756E+04  0.20890385756E+04  0.25500000920E-02 0.  1.
    10030    2    1    2    0    0  0.00000000000E+00  0.00000000000E+00 -0.11585418854E+04  0.30195352657E+04  0.27884357480E+04 0.  0.
        2    1    3    3  502    0 -0.57872288760E+02  0.12841224336E+04 -0.11639486196E+04  0.17340980409E+04  0.25500000920E-02 0.  1.
       -2    1    3    3    0  502  0.57872288760E+02 -0.12841224336E+04  0.54067342084E+01  0.12854372249E+04  0.25500000920E-02 0. -1.
</event>
<event>
 5   0  0.1034683E-06  0.1950515E+04  0.7818609E-02  0.8630113E-01
       -2   -1    0    0    0  501  0.00000000000E+00  0.00000000000E+00  0.69947831252E+03  0.69947831253E+03  0.25500000920E-02 0. -1.
        2   -1    0    0  501    0  0.00000000000E+00  0.00000000000E+00 -0.13597662235E+04  0.13597662235E+04  0.25500000920E-02 0.  1.
    10030    2    1    2    0    0  0.00000000000E+00  0.00000000000E+00 -0.66028791094E+03  0.20592445360E+04  0.19505147868E+04 0.  0.
        2    1    3    3  502    0  0.33924554222E+03 -0.54568253223E+03  0.44442265340E+03  0.78126081353E+03  0.25500000920E-02 0. -1.
       -2    1    3    3    0  502 -0.33924554222E+03  0.54568253223E+03 -0.11047105643E+04  0.12779837225E+04  0.25500000920E-02 0.  1.
</event>
<event>
 5   0  0.7268013E-07  0.3940214E+04  0.7818609E-02  0.8016717E-01
        2   -1    0    0  501    0  0.00000000000E+00  0.00000000000E+00  0.24661170433E+04  0.24661170433E+04  0.25500000920E-02 0. -1.
       -2   -1    0    0    0  501  0.00000000000E+00  0.00000000000E+00 -0.15738595908E+04  0.15738595908E+04  0.25500000920E-02 0.  1.
    10030    2    1    2    0    0  0.00000000000E+00  0.00000000000E+00  0.89225745249E+03  0.40399766341E+04  0.39402141874E+04 0.  0.
        4    1    3    3  502    0 -0.10832065484E+04  0.10645160342E+04  0.17328079335E+04  0.23041605328E+04  0.12699999809E+01 0. -1.
       -4    1    3    3    0  502  0.10832065484E+04 -0.10645160342E+04 -0.84055048099E+03  0.17358161013E+04  0.12699999809E+01 0.  1.
</event>
<event>
 5   0  0.1034683E-06  0.3900715E+04  0.7818609E-02  0.8024881E-01
       -2   -1    0    0    0  501  0.00000000000E+00  0.00000000000E+00  0.12825462799E+04  0.12825462799E+04  0.25500000920E-02 0. -1.
        2   -1    0    0  501    0  0.00000000000E+00  0.00000000000E+00 -0.29658921554E+04  0.29658921554E+04  0.25500000920E-02 0.  1.
    10030    2    1    2    0    0  0.00000000000E+00  0.00000000000E+00 -0.16833458755E+04  0.42484384353E+04  0.39007147810E+04 0.  0.
        2    1    3    3  502    0  0.51603764136E+03 -0.17572640198E+04 -0.11135992467E+03  0.18348495076E+04  0.25500000920E-02 0. -1.
       -2    1    3    3    0  502 -0.51603764136E+03  0.17572640198E+04 -0.15719859508E+04  0.24135889278E+04  0.25500000920E-02 0.  1.
</event>
<event>
 5   0  0.1034683E-06  0.3851287E+04  0.7818609E-02  0.8035238E-01
        2   -1    0    0  501    0  0.00000000000E+00  0.00000000000E+00  0.17354186801E+04  0.17354186801E+04  0.25500000920E-02 0.  1.
       -2   -1    0    0    0  501  0.00000000000E+00  0.00000000000E+00 -0.21367193631E+04  0.21367193631E+04  0.25500000920E-02 0. -1.
    10030    2    1    2    0    0  0.00000000000E+00  0.00000000000E+00 -0.40130068300E+03  0.38721380432E+04  0.38512869002E+04 0.  0.
        2    1    3    3  502    0  0.39550770190E+03  0.12023697716E+04 -0.16597078820E+04  0.20872828423E+04  0.25500000920E-02 0. -1.
       -2    1    3    3    0  502 -0.39550770190E+03 -0.12023697716E+04  0.12584071990E+04  0.17848552010E+04  0.25500000920E-02 0.  1.
</event>
<event>
 5   0  0.5533705E-07  0.4140592E+04  0.7818609E-02  0.7976770E-01
        2   -1    0    0  501    0  0.00000000000E+00  0.00000000000E+00  0.24599693469E+04  0.24599693469E+04  0.25500000920E-02 0.  1.
       -2   -1    0    0    0  501  0.00000000000E+00  0.00000000000E+00 -0.17423493986E+04  0.17423493986E+04  0.25500000920E-02 0. -1.
    10030    2    1    2    0    0  0.00000000000E+00  0.00000000000E+00  0.71761994830E+03  0.42023187455E+04  0.41405922823E+04 0.  0.
        1    1    3    3  502    0  0.13242788336E+04  0.10023851545E+04  0.16132110552E+04  0.23153704532E+04  0.50400001928E-02 0.  1.
       -1    1    3    3    0  502 -0.13242788336E+04 -0.10023851545E+04 -0.89559110690E+03  0.18869482923E+04  0.50400001928E-02 0. -1.
</event>
<event>
 5   0  0.4316671E-07  0.4013297E+04  0.7818609E-02  0.8001869E-01
       -1   -1    0    0    0  501  0.00000000000E+00  0.00000000000E+00  0.17511828279E+04  0.17511828279E+04  0.50400001928E-02 0.  1.
        1   -1    0    0  501    0  0.00000000000E+00  0.00000000000E+00 -0.22993819688E+04  0.22993819688E+04  0.50400001928E-02 0. -1.
    10030    2    1    2    0    0  0.00000000000E+00  0.00000000000E+00 -0.54819914087E+03  0.40505647967E+04  0.40132970080E+04 0.  0.
        2    1    3    3  502    0  0.29565190466E+03  0.12702802015E+04 -0.18132579866E+04  0.22335904649E+04  0.25500000920E-02 0. -1.
       -2    1    3    3    0  502 -0.29565190466E+03 -0.12702802015E+04  0.12650588458E+04  0.18169743318E+04  0.25500000920E-02 0.  1.
</event>
<event>
 5   0  0.3977376E-07  0.3906645E+04  0.7818609E-02  0.8023649E-01
       -1   -1    0    0    0  501  0.00000000000E+00  0.00000000000E+00  0.22605723589E+04  0.22605723589E+04  0.50400001928E-02 0. -1.
        1   -1    0    0  501    0  0.00000000000E+00  0.00000000000E+00 -0.16878331412E+04  0.16878331412E+04  0.50400001928E-02 0.  1.
    10030    2    1    2    0    0  0.00000000000E+00  0.00000000000E+00  0.57273921772E+03  0.39484055001E+04  0.39066450801E+04 0.  0.
        4    1    3    3  502    0 -0.15286597426E+04  0.47205007096E+02 -0.94170699770E+03  0.17960630846E+04  0.12699999809E+01 0.  1.
       -4    1    3    3    0  502  0.15286597426E+04 -0.47205007096E+02  0.15144462154E+04  0.21523424155E+04  0.12699999809E+01 0. -1.
</event>
<event>
 5   0  0.5385714E-07  0.3907520E+04  0.7818609E-02  0.8023467E-01
        1   -1    0    0  501    0  0.00000000000E+00  0.00000000000E+00  0.19074858984E+04  0.19074858984E+04  0.50400001928E-02 0.  1.
       -1   -1    0    0    0  501  0.00000000000E+00  0.00000000000E+00 -0.20011566070E+04  0.20011566070E+04  0.50400001928E-02 0. -1.
    10030    2    1    2    0    0  0.00000000000E+00  0.00000000000E+00 -0.93670708579E+02  0.39086425055E+04  0.39075199339E+04 0.  0.
        3    1    3    3  502    0  0.18873719478E+04  0.37375204728E+03 -0.38651285135E+03  0.19624616319E+04  0.10100000352E+00 0.  1.
       -3    1    3    3    0  502 -0.18873719478E+04 -0.37375204728E+03  0.29284214277E+03  0.19461808736E+04  0.10100000352E+00 0. -1.
</event>
<event>
 5   0  0.1035864E-06  0.3841658E+04  0.7818609E-02  0.8037274E-01
       -2   -1    0    0    0  501  0.00000000000E+00  0.00000000000E+00  0.11990902461E+04  0.11990902461E+04  0.25500000920E-02 0. -1.
        2   -1    0    0  501    0  0.00000000000E+00  0.00000000000E+00 -0.30769860109E+04  0.30769860109E+04  0.25500000920E-02 0.  1.
    10030    2    1    2    0    0  0.00000000000E+00  0.00000000000E+00 -0.18778957648E+04  0.42760762569E+04  0.38416579301E+04 0.  0.
        5    1    3    3  502    0  0.18697301327E+04  0.54455295444E+02 -0.45286698051E+03  0.19245692350E+04  0.46999998093E+01 0. -1.
       -5    1    3    3    0  502 -0.18697301327E+04 -0.54455295444E+02 -0.14250287843E+04  0.23515070220E+04  0.46999998093E+01 0.  1.
</event>
<event>
 5   0  0.4627905E-07  0.3782997E+04  0.7818609E-02  0.8049813E-01
        1   -1    0    0  501    0  0.00000000000E+00  0.00000000000E+00  0.13570953357E+04  0.13570953357E+04  0.50400001928E-02 0.  1.
       -1   -1    0    0    0  501  0.00000000000E+00  0.00000000000E+00 -0.26363416632E+04  0.26363416633E+04  0.50400001928E-02 0. -1.
    10030    2    1    2    0    0  0.00000000000E+00  0.00000000000E+00 -0.12792463275E+04  0.39934369990E+04  0.37829972110E+04 0.  0.
        1    1    3    3  502    0  0.17299512880E+04 -0.41078413429E+03 -0.13207214730E+04  0.22148996079E+04  0.50400001928E-02 0. -1.
       -1    1    3    3    0  502 -0.17299512880E+04  0.41078413429E+03  0.41475145457E+02  0.17785373911E+04  0.50400001928E-02 0.  1.
</event>
<event>
 5   0  0.7268013E-07  0.2804763E+04  0.7818609E-02  0.8301791E-01
        2   -1    0    0  501    0  0.00000000000E+00  0.00000000000E+00  0.14185577546E+04  0.14185577546E+04  0.25500000920E-02 0.  1.
       -2   -1    0    0    0  501  0.00000000000E+00  0.00000000000E+00 -0.13863893958E+04  0.13863893958E+04  0.25500000920E-02 0. -1.
    10030    2    1    2    0    0  0.00000000000E+00  0.00000000000E+00  0.32168358780E+02  0.28049471504E+04  0.28047626840E+04 0.  0.
        4    1    3    3  502    0  0.99027946630E+03  0.25114650352E+03  0.97684701904E+03  0.14134920230E+04  0.12699999809E+01 0.  1.
       -4    1    3    3    0  502 -0.99027946630E+03 -0.25114650352E+03 -0.94467866026E+03  0.13914551274E+04  0.12699999809E+01 0. -1.
</event>
<event>
 5   0  0.7268013E-07  0.3659031E+04  0.7818609E-02  0.8077102E-01
       -2   -1    0    0    0  501  0.00000000000E+00  0.00000000000E+00  0.10965042493E+04  0.10965042493E+04  0.25500000920E-02 0. -1.
        2   -1    0    0  501    0  0.00000000000E+00  0.00000000000E+00 -0.30525437158E+04  0.30525437158E+04  0.25500000920E-02 0.  1.
    10030    2    1    2    0    0  0.00000000000E+00  0.00000000000E+00 -0.19560394664E+04  0.41490479651E+04  0.36590311044E+04 0.  0.
        4    1    3    3  502    0 -0.41061958292E+03 -0.17469775960E+04 -0.57458262307E+03  0.18843263960E+04  0.12699999809E+01 0. -1.
       -4    1    3    3    0  502  0.41061958292E+03  0.17469775960E+04 -0.13814568434E+04  0.22647215692E+04  0.12699999809E+01 0.  1.
</event>
<event>
 5   0  0.1034683E-06  0.2215375E+04  0.7818609E-02  0.8512056E-01
        2   -1    0    0  501    0  0.00000000000E+00  0.00000000000E+00  0.12598690255E+04  0.12598690255E+04  0.25500000920E-02 0.  1.
       -2   -1    0    0    0  501  0.00000000000E+00  0.00000000000E+00 -0.97388864349E+03  0.97388864350E+03  0.25500000920E-02 0. -1.
    10030    2    1    2    0    0  0.00000000000E+00  0.00000000000E+00  0.28598038205E+03  0.22337576690E+04  0.22153754863E+04 0.  0.
        2    1    3    3  502    0  0.33780887531E+03  0.94287162072E+03 -0.33406393323E+03  0.10558032207E+04  0.25500000920E-02 0. -1.
       -2    1    3    3    0  502 -0.33780887531E+03 -0.94287162072E+03  0.62004431527E+03  0.11779544483E+04  0.25500000920E-02 0.  1.
</event>
<event>
 5   0  0.3977376E-07  0.3533695E+04  0.7818609E-02  0.8105851E-01
       -1   -1    0    0    0  501  0.00000000000E+00  0.00000000000E+00  0.10718276635E+04  0.10718276635E+04  0.50400001928E-02 0.  1.
        1   -1    0    0  501    0  0.00000000000E+00  0.00000000000E+00 -0.29125478030E+04  0.29125478030E+04  0.50400001928E-02 0. -1.
    10030    2    1    2    0    0  0.00000000000E+00  0.00000000000E+00 -0.18407201396E+04  0.39843754665E+04  0.35336945575E+04 0.  0.
        4    1    3    3  502    0  0.31722766022E+03  0.34359587623E+03 -0.28414998719E+04  0.28797247524E+04  0.12699999809E+01 0. -1.
       -4    1    3    3    0  502 -0.31722766022E+03 -0.34359587623E+03  0.10007797324E+04  0.11046507141E+04  0.12699999809E+01 0.  1.
</event>
<event>
 5   0  0.5385714E-07  0.2225217E+04  0.7818609E-02  0.8508005E-01
       -1   -1    0    0    0  501  0.00000000000E+00  0.00000000000E+00  0.80263180997E+03  0.80263180998E+03  0.50400001928E-02 0. -1.
        1   -1    0    0  501    0  0.00000000000E+00  0.00000000000E+00 -0.15422986579E+04  0.15422986579E+04  0.50400001928E-02 0.  1.
    10030    2    1    2    0    0  0.00000000000E+00  0.00000000000E+00 -0.73966684797E+03  0.23449304679E+04  0.22252172598E+04 0.  0.
        3    1    3    3  502    0 -0.48653544924E+03  0.97308009367E+03 -0.61538505994E+03  0.12499201552E+04  0.10100000352E+00 0. -1.
       -3    1    3    3    0  502  0.48653544924E+03 -0.97308009367E+03 -0.12428178803E+03  0.10950103128E+04  0.10100000352E+00 0.  1.
</event>
<event>
 5   0  0.4316671E-07  0.3424039E+04  0.7818609E-02  0.8132031E-01
        1   -1    0    0  501    0  0.00000000000E+00  0.00000000000E+00  0.15932848272E+04  0.15932848272E+04  0.50400001928E-02 0. -1.
       -1   -1    0    0    0  501  0.00000000000E+00  0.00000000000E+00 -0.18396029414E+04  0.18396029414E+04  0.50400001928E-02 0.  1.
    10030    2    1    2    0    0  0.00000000000E+00  0.00000000000E+00 -0.24631811417E+03  0.34328877686E+04  0.34240394009E+04 0.  0.
        2    1    3    3  502    0 -0.33378574844E+03  0.41132979490E+03 -0.17553729935E+04  0.18335592361E+04  0.25500000920E-02 0.  1.
       -2    1    3    3    0  502  0.33378574844E+03 -0.41132979490E+03  0.15090548793E+04  0.15993285325E+04  0.25500000920E-02 0. -1.
</event>
<event>
 5   0  0.4316671E-07  0.2336949E+04  0.7818609E-02  0.8463493E-01
        1   -1    0    0  501    0  0.00000000000E+00  0.00000000000E+00  0.21439368019E+04  0.21439368019E+04  0.50400001928E-02 0.  1.
       -1   -1    0    0    0  501  0.00000000000E+00  0.00000000000E+00 -0.63683442972E+03  0.63683442974E+03  0.50400001928E-02 0. -1.
    10030    2    1    2    0    0  0.00000000000E+00  0.00000000000E+00  0.15071023722E+04  0.27807712317E+04  0.23369490971E+04 0.  0.
        2    1    3    3  502    0 -0.90529928216E+03  0.21880418489E+03 -0.86069287616E+02  0.93533415627E+03  0.25500000920E-02 0. -1.
       -2    1    3    3    0  502  0.90529928216E+03 -0.21880418489E+03  0.15931716598E+04  0.18454370754E+04  0.25500000920E-02 0.  1.
</event>
<event>
 5   0  0.5533705E-07  0.2555924E+04  0.7818609E-02  0.8383329E-01
        2   -1    0    0  501    0  0.00000000000E+00  0.00000000000E+00  0.11156065373E+04  0.11156065373E+04  0.25500000920E-02 0.  1.
       -2   -1    0    0    0  501  0.00000000000E+00  0.00000000000E+00 -0.14639455000E+04  0.14639455000E+04  0.25500000920E-02 0. -1.
    10030    2    1    2    0    0  0.00000000000E+00  0.00000000000E+00 -0.34833896268E+03  0.25795520372E+04  0.25559242320E+04 0.  0.
        1    1    3    3  502    0  0.12560907627E+04  0.22109115968E+03 -0.25579897561E+03  0.13007991470E+04  0.50400001928E-02 0. -1.
       -1    1    3    3    0  502 -0.12560907627E+04 -0.22109115968E+03 -0.92539987072E+02  0.12787528902E+04  0.50400001928E-02 0.  1.
</event>
<event>
 5   0  0.1034683E-06  0.2117644E+04  0.7818609E-02  0.8553511E-01
       -2   -1    0    0    0  501  0.00000000000E+00  0.00000000000E+00  0.38190538510E+03  0.38190538510E+03  0.25500000920E-02 0.  1.
        2   -1    0    0  501    0  0.00000000000E+00  0.00000000000E+00 -0.29355536558E+04  0.29355536558E+04  0.25500000920E-02 0. -1.
    10030    2    1    2    0    0  0.00000000000E+00  0.00000000000E+00 -0.25536482707E+04  0.33174590409E+04  0.21176437372E+04 0.  0.
        2    1    3    3  502    0 -0.47633475487E+02 -0.87345227870E+03 -0.34222284254E+03  0.93931054775E+03  0.25500000920E-02 0.  1.
       -2    1    3    3    0  502  0.47633475487E+02  0.87345227870E+03 -0.22114254282E+04  0.23781484932E+04  0.25500000920E-02 0. -1.
</event>
<event>
 5   0  0.5533705E-07  0.2093591E+04  0.7818609E-02  0.8564072E-01
       -2   -1    0    0    0  501  0.00000000000E+00  0.00000000000E+00  0.98362657599E+03  0.98362657599E+03  0.25500000920E-02 0. -1.
        2   -1    0    0  501    0  0.00000000000E+00  0.00000000000E+00 -0.11140210425E+04  0.11140210425E+04  0.25500000920E-02 0.  1.
    10030    2    1    2    0    0  0.00000000000E+00  0.00000000000E+00 -0.13039446653E+03  0.20976476185E+04  0.20935908900E+04 0.  0.
        1    1    3    3  502    0 -0.94804657283E+03 -0.23040349901E+03 -0.44527728332E+03  0.10724504351E+04  0.50400001928E-02 0.  1.
       -1    1    3    3    0  502  0.94804657283E+03  0.23040349901E+03  0.31488281679E+03  0.10251971834E+04  0.50400001928E-02 0. -1.
</event>
<event>
 5   0  0.1015219E-06  0.4060031E+04  0.7818609E-02  0.7992545E-01
        2   -1    0    0  501    0  0.00000000000E+00  0.00000000000E+00  0.18105608357E+04  0.18105608357E+04  0.25500000920E-02 0.  1.
       -2   -1    0    0    0  501  0.00000000000E+00  0.00000000000E+00 -0.22760698846E+04  0.22760698846E+04  0.25500000920E-02 0. -1.
    10030    2    1    2    0    0  0.00000000000E+00  0.00000000000E+00 -0.46550904889E+03  0.40866307203E+04  0.40600310306E+04 0.  0.
        3    1    3    3  502    0  0.66111554419E+03 -0.96200380153E+02 -0.21622471754E+04  0.22631043135E+04  0.10100000352E+00 0. -1.
       -3    1    3    3    0  502 -0.66111554419E+03  0.96200380153E+02  0.16967381265E+04  0.18235264068E+04  0.10100000352E+00 0.  1.
</event>
<event>
 5   0  0.3471602E-07  0.2247252E+04  0.7818609E-02  0.8499014E-01
       -1   -1    0    0    0  501  0.00000000000E+00  0.00000000000E+00  0.14192852826E+04  0.14192852826E+04  0.50400001928E-02 0. -1.
        1   -1    0    0  501    0  0.00000000000E+00  0.00000000000E+00 -0.88955739407E+03  0.88955739408E+03  0.50400001928E-02 0.  1.
    10030    2    1    2    0    0  0.00000000000E+00  0.00000000000E+00  0.52972788852E+03  0.23088426767E+04  0.22472522933E+04 0.  0.
        5    1    3    3  502    0 -0.18037606619E+03  0.83694187043E+03 -0.48275124964E+03  0.98289270969E+03  0.46999998093E+01 0.  1.
       -5    1    3    3    0  502  0.18037606619E+03 -0.83694187043E+03  0.10124791382E+04  0.13259499670E+04  0.46999998093E+01 0. -1.
</event>
<event>
 5   0  0.1035864E-06  0.2264019E+04  0.7818609E-02  0.8492244E-01
       -2   -1    0    0    0  501  0.00000000000E+00  0.00000000000E+00  0.12606121137E+04  0.12606121137E+04  0.25500000920E-02 0.  1.
        2   -1    0    0  501    0  0.00000000000E+00  0.00000000000E+00 -0.10165266649E+04  0.10165266649E+04  0.25500000920E-02 0. -1.
    10030    2    1    2    0    0  0.00000000000E+00  0.00000000000E+00  0.24408544887E+03  0.22771387786E+04  0.22640192823E+04 0.  0.
        5    1    3    3  502    0 -0.10762195657E+03 -0.82265862355E+03  0.89661836627E+03  0.12215957929E+04  0.46999998093E+01 0.  1.
       -5    1    3    3    0  502  0.10762195657E+03  0.82265862355E+03 -0.65253291739E+03  0.10555429857E+04  0.46999998093E+01 0. -1.
</event>
<event>
 5   0  0.3471602E-07  0.1975501E+04  0.7818609E-02  0.8618161E-01
        1   -1    0    0  501    0  0.00000000000E+00  0.00000000000E+00  0.88676294150E+03  0.88676294152E+03  0.50400001928E-02 0.  1.
       -1   -1    0    0    0  501  0.00000000000E+00  0.00000000000E+00 -0.11002384748E+04  0.11002384748E+04  0.50400001928E-02 0. -1.
    10030    2    1    2    0    0  0.00000000000E+00  0.00000000000E+00 -0.21347553328E+03  0.19870014163E+04  0.19755006518E+04 0.  0.
        5    1    3    3  502    0  0.24800913569E+01  0.94803994152E+03 -0.38555679251E+03  0.10234559159E+04  0.46999998093E+01 0. -1.
       -5    1    3    3    0  502 -0.24800913569E+01 -0.94803994152E+03  0.17208125923E+03  0.96354550040E+03  0.46999998093E+01 0.  1.
</event>
<event>
 5   0  0.1034683E-06  0.3621958E+04  0.7818609E-02  0.8085480E-01
        2   -1    0    0  501    0  0.00000000000E+00  0.00000000000E+00  0.11482729674E+04  0.11482729674E+04  0.25500000920E-02 0. -1.
       -2   -1    0    0    0  501  0.00000000000E+00  0.00000000000E+00 -0.28561549061E+04  0.28561549061E+04  0.25500000920E-02 0.  1.
    10030    2    1    2    0    0  0.00000000000E+00  0.00000000000E+00 -0.17078819387E+04  0.40044278735E+04  0.36219582932E+04 0.  0.
        2    1    3    3  502    0  0.71187933357E+03  0.43819192296E+03  0.92220783722E+03  0.12446893757E+04  0.25500000920E-02 0. -1.
       -2    1    3    3    0  502 -0.71187933357E+03 -0.43819192296E+03 -0.26300897759E+04  0.27597384978E+04  0.25500000920E-02 0.  1.
</event>
<event>
 5   0  0.7268013E-07  0.3849060E+04  0.7818609E-02  0.8035708E-01
       -2   -1    0    0    0  501  0.00000000000E+00  0.00000000000E+00  0.16250550383E+04  0.16250550383E+04  0.25500000920E-02 0. -1.
        2   -1    0    0  501    0  0.00000000000E+00  0.00000000000E+00 -0.22791938732E+04  0.22791938732E+04  0.25500000920E-02 0.  1.
    10030    2    1    2    0    0  0.00000000000E+00  0.00000000000E+00 -0.65413883485E+03  0.39042489115E+04  0.38490598784E+04 0.  0.
        4    1    3    3  502    0 -0.43554527867E+03 -0.43708328935E+03  0.15219979370E+04  0.16423217787E+04  0.12699999809E+01 0. -1.
       -4    1    3    3    0  502  0.43554527867E+03  0.43708328935E+03 -0.21761367718E+04  0.22619271328E+04  0.12699999809E+01 0.  1.
</event>
<event>
 5   0  0.5533705E-07  0.2143104E+04  0.7818609E-02  0.8542490E-01
       -2   -1    0    0    0  501  0.00000000000E+00  0.00000000000E+00  0.10243415896E+04  0.10243415896E+04  0.25500000920E-02 0.  1.
        2   -1    0    0  501    0  0.00000000000E+00  0.00000000000E+00 -0.11209387242E+04  0.11209387242E+04  0.25500000920E-02 0. -1.
    10030    2    1    2    0    0  0.00000000000E+00  0.00000000000E+00 -0.96597134638E+02  0.21452803138E+04  0.21431044348E+04 0.  0.
        1    1    3    3  502    0 -0.90570535953E+03  0.42777193769E+03  0.33278879039E+03  0.10554806526E+04  0.50400001928E-02 0.  1.
       -1    1    3    3    0  502  0.90570535953E+03 -0.42777193769E+03 -0.42938592502E+03  0.10897996612E+04  0.50400001928E-02 0. -1.
</event>
<event>
 5   0  0.5533705E-07  0.3934153E+04  0.7818609E-02  0.8017963E-01
        2   -1    0    0  501    0  0.00000000000E+00  0.00000000000E+00  0.20665191497E+04  0.20665191497E+04  0.25500000920E-02 0. -1.
       -2   -1    0    0    0  501  0.00000000000E+00  0.00000000000E+00 -0.18724193750E+04  0.18724193750E+04  0.25500000920E-02 0.  1.
    10030    2    1    2    0    0  0.00000000000E+00  0.00000000000E+00  0.19409977475E+03  0.39389385247E+04  0.39341532734E+04 0.  0.
        1    1    3    3  502    0 -0.49728947509E+03 -0.17708014898E+04 -0.60119048646E+03  0.19350619472E+04  0.50400001928E-02 0. -1.
       -1    1    3    3    0  502  0.49728947509E+03  0.17708014898E+04  0.79529026121E+03  0.20038765775E+04  0.50400001928E-02 0.  1.
</event>
<event>
 5   0  0.4316671E-07  0.3816450E+04  0.7818609E-02  0.8042634E-01
        1   -1    0    0  501    0  0.00000000000E+00  0.00000000000E+00  0.18914608341E+04  0.18914608341E+04  0.50400001928E-02 0.  1.
       -1   -1    0    0    0  501  0.00000000000E+00  0.00000000000E+00 -0.19251375733E+04  0.19251375733E+04  0.50400001928E-02 0. -1.
    10030    2    1    2    0    0  0.00000000000E+00  0.00000000000E+00 -0.33676739170E+02  0.38165984074E+04  0.38164498269E+04 0.  0.
        2    1    3    3  502    0 -0.93387938746E+03  0.14349123798E+04 -0.85961554840E+03  0.19157356653E+04  0.25500000920E-02 0. -1.
       -2    1    3    3    0  502  0.93387938746E+03 -0.14349123798E+04  0.82593880923E+03  0.19008627422E+04  0.25500000920E-02 0.  1.
</event>
<event>
 5   0  0.5533705E-07  0.2864094E+04  0.7818609E-02  0.8283642E-01
       -2   -1    0    0    0  501  0.00000000000E+00  0.00000000000E+00  0.97114100955E+03  0.97114100956E+03  0.25500000920E-02 0.  1.
        2   -1    0    0  501    0  0.00000000000E+00  0.00000000000E+00 -0.21116994342E+04  0.21116994342E+04  0.25500000920E-02 0. -1.
    10030    2    1    2    0    0  0.00000000000E+00  0.00000000000E+00 -0.11405584246E+04  0.30828404437E+04  0.28640935183E+04 0.  0.
        1    1    3    3  502    0  0.98218726201E+02 -0.36100110634E+03 -0.20581672179E+04  0.20918941211E+04  0.50400001928E-02 0. -1.
       -1    1    3    3    0  502 -0.98218726201E+02  0.36100110634E+03  0.91760879325E+03  0.99094632268E+03  0.50400001928E-02 0.  1.
</event>
<event>
 5   0  0.1035864E-06  0.3590337E+04  0.7818609E-02  0.8092709E-01
       -2   -1    0    0    0  501  0.00000000000E+00  0.00000000000E+00  0.26395530363E+04  0.26395530363E+04  0.25500000920E-02 0. -1.
        2   -1    0    0  501    0  0.00000000000E+00  0.00000000000E+00 -0.12208995533E+04  0.12208995533E+04  0.25500000920E-02 0.  1.
    10030    2    1    2    0    0  0.00000000000E+00  0.00000000000E+00  0.14186534830E+04  0.38604525896E+04  0.35903365430E+04 0.  0.
        5    1    3    3  502    0  0.68034780636E+03 -0.36702010065E+03 -0.10327617471E+04  0.12900371344E+04  0.46999998093E+01 0.  1.
       -5    1    3    3    0  502 -0.68034780636E+03  0.36702010065E+03  0.24514152301E+04  0.25704154552E+04  0.46999998093E+01 0. -1.
</event>
<event>
 5   0  0.1234262E-06  0.2082324E+04  0.7818609E-02  0.8569070E-01
       -2   -1    0    0    0  501  0.00000000000E+00  0.00000000000E+00  0.53988477149E+03  0.53988477150E+03  0.25500000920E-02 0. -1.
        2   -1    0    0  501    0  0.00000000000E+00  0.00000000000E+00 -0.20078688517E+04  0.20078688517E+04  0.25500000920E-02 0.  1.
    10030    2    1    2    0    0  0.00000000000E+00  0.00000000000E+00 -0.14679840802E+04  0.25477536232E+04  0.20823235255E+04 0.  0.
        3    1    3    3  502    0  0.30229286076E+03  0.19575170600E+03 -0.19292339233E+04  0.19625603800E+04  0.10100000352E+00 0.  1.
       -3    1    3    3    0  502 -0.30229286076E+03 -0.19575170600E+03  0.46124984303E+03  0.58519324327E+03  0.10100000352E+00 0. -1.
</event>
<event>
 5   0  0.5533705E-07  0.2462470E+04  0.7818609E-02  0.8416479E-01
       -2   -1    0    0    0  501  0.00000000000E+00  0.00000000000E+00  0.82103348374E+03  0.82103348374E+03  0.25500000920E-02 0. -1.
        2   -1    0    0  501    0  0.00000000000E+00  0.00000000000E+00 -0.18463792642E+04  0.18463792642E+04  0.25500000920E-02 0.  1.
    10030    2    1    2    0    0  0.00000000000E+00  0.00000000000E+00 -0.10253457805E+04  0.26674127479E+04  0.24624696543E+04 0.  0.
        1    1    3    3  502    0  0.10061136976E+04  0.66449066862E+03 -0.24267644076E+03  0.12299205161E+04  0.50400001928E-02 0. -1.
       -1    1    3    3    0  502 -0.10061136976E+04 -0.66449066862E+03 -0.78266933970E+03  0.14374922318E+04  0.50400001928E-02 0.  1.
</event>
<event>
 5   0  0.1035864E-06  0.2265393E+04  0.7818609E-02  0.8491693E-01
       -2   -1    0    0    0  501  0.00000000000E+00  0.00000000000E+00  0.72231072455E+03  0.72231072455E+03  0.25500000920E-02 0. -1.
        2   -1    0    0  501    0  0.00000000000E+00  0.00000000000E+00 -0.17762455950E+04  0.17762455950E+04  0.25500000920E-02 0.  1.
    10030    2    1    2    0    0  0.00000000000E+00  0.00000000000E+00 -0.10539348704E+04  0.24985563195E+04  0.22653928954E+04 0.  0.
        5    1    3    3  502    0  0.82834457336E+03  0.12382273670E+03 -0.13680092955E+04  0.16040443650E+04  0.46999998093E+01 0.  1.
       -5    1    3    3    0  502 -0.82834457336E+03 -0.12382273670E+03  0.31407442505E+03  0.89451195454E+03  0.46999998093E+01 0. -1.
</event>
<event>
 5   0  0.1035864E-06  0.3627347E+04  0.7818609E-02  0.8084256E-01
        2   -1    0    0  501    0  0.00000000000E+00  0.00000000000E+00  0.20904497588E+04  0.20904497588E+04  0.25500000920E-02 0. -1.
       -2   -1    0    0    0  501  0.00000000000E+00  0.00000000000E+00 -0.15735421911E+04  0.15735421911E+04  0.25500000920E-02 0.  1.
    10030    2    1    2    0    0  0.00000000000E+00  0.00000000000E+00  0.51690756770E+03  0.36639919498E+04  0.36273466301E+04 0.  0.
        5    1    3    3  502    0 -0.77668707795E+03  0.14452011342E+04 -0.52236242963E+03  0.17218402171E+04  0.46999998093E+01 0.  1.
       -5    1    3    3    0  502  0.77668707795E+03 -0.14452011342E+04  0.10392699973E+04  0.19421517327E+04  0.46999998093E+01 0. -1.
</event>
<event>
 5   0  0.3191750E-07  0.2714040E+04  0.7818609E-02  0.8330464E-01
        3   -1    0    0  501    0  0.00000000000E+00  0.00000000000E+00  0.14932982453E+04  0.14932982487E+04  0.10100000352E+00 0. -1.
       -3   -1    0    0    0  501  0.00000000000E+00  0.00000000000E+00 -0.12331786906E+04  0.12331786947E+04  0.10100000352E+00 0.  1.
    10030    2    1    2    0    0  0.00000000000E+00  0.00000000000E+00  0.26011955466E+03  0.27264769434E+04  0.27140402245E+04 0.  0.
        1    1    3    3  502    0 -0.61106363784E+03  0.10996448224E+04  0.64119981331E+03  0.14120037909E+04  0.50400001928E-02 0.  1.
       -1    1    3    3    0  502  0.61106363784E+03 -0.10996448224E+04 -0.38108025865E+03  0.13144731525E+04  0.50400001928E-02 0. -1.
</event>
<event>
 5   0  0.1034683E-06  0.2030053E+04  0.7818609E-02  0.8592697E-01
       -2   -1    0    0    0  501  0.00000000000E+00  0.00000000000E+00  0.76658121948E+03  0.76658121949E+03  0.25500000920E-02 0.  1.
        2   -1    0    0  501    0  0.00000000000E+00  0.00000000000E+00 -0.13439917270E+04  0.13439917270E+04  0.25500000920E-02 0. -1.
    10030    2    1    2    0    0  0.00000000000E+00  0.00000000000E+00 -0.57741050754E+03  0.21105729465E+04  0.20300530211E+04 0.  0.
        2    1    3    3  502    0  0.25194461704E+03 -0.48814960426E+03  0.59867865015E+03  0.81251600129E+03  0.25500000920E-02 0.  1.
       -2    1    3    3    0  502 -0.25194461704E+03  0.48814960426E+03 -0.11760891577E+04  0.12980569452E+04  0.25500000920E-02 0. -1.
</event>
<event>
 5   0  0.1034683E-06  0.2746303E+04  0.7818609E-02  0.8320136E-01
        2   -1    0    0  501    0  0.00000000000E+00  0.00000000000E+00  0.13379421099E+04  0.13379421099E+04  0.25500000920E-02 0. -1.
       -2   -1    0    0    0  501  0.00000000000E+00  0.00000000000E+00 -0.14092873050E+04  0.14092873050E+04  0.25500000920E-02 0.  1.
    10030    2    1    2    0    0  0.00000000000E+00  0.00000000000E+00 -0.71345195039E+02  0.27472294149E+04  0.27463028459E+04 0.  0.
        2    1    3    3  502    0 -0.23164925782E+03  0.15439204952E+03 -0.13807624749E+04  0.14085465188E+04  0.25500000920E-02 0.  1.
       -2    1    3    3    0  502  0.23164925782E+03 -0.15439204952E+03  0.13094172798E+04  0.13386828961E+04  0.25500000920E-02 0. -1.
</event>
<event>
 5   0  0.5385714E-07  0.3925006E+04  0.7818609E-02  0.8019848E-01
       -1   -1    0    0    0  501  0.00000000000E+00  0.00000000000E+00  0.16445617114E+04  0.16445617115E+04  0.50400001928E-02 0.  1.
        1   -1    0    0  501    0  0.00000000000E+00  0.00000000000E+00 -0.23419112909E+04  0.23419112909E+04  0.50400001928E-02 0. -1.
    10030    2    1    2    0    0  0.00000000000E+00  0.00000000000E+00 -0.69734957941E+03  0.39864730023E+04  0.39250058041E+04 0.  0.
        3    1    3    3  502    0  0.10048819452E+04 -0.63235391048E+03  0.12384090612E+04  0.17156095725E+04  0.10100000352E+00 0.  1.
       -3    1    3    3    0  502 -0.10048819452E+04  0.63235391048E+03 -0.19357586406E+04  0.22708634298E+04  0.10100000352E+00 0. -1.
</event>
<event>
 5   0  0.7268013E-07  0.2202995E+04  0.7818609E-02  0.8517183E-01
       -2   -1    0    0    0  501  0.00000000000E+00  0.00000000000E+00  0.64335971549E+03  0.64335971550E+03  0.25500000920E-02 0.  1.
        2   -1    0    0  501    0  0.00000000000E+00  0.00000000000E+00 -0.18858755132E+04  0.18858755132E+04  0.25500000920E-02 0. -1.
    10030    2    1    2    0    0  0.00000000000E+00  0.00000000000E+00 -0.12425157977E+04  0.25292352287E+04  0.22029946288E+04 0.  0.
        4    1    3    3  502    0 -0.46428250244E+03  0.29788690119E+03 -0.17158635734E+04  0.18023551990E+04  0.12699999809E+01 0. -1.
       -4    1    3    3    0  502  0.46428250244E+03 -0.29788690119E+03  0.47334777567E+03  0.72688002972E+03  0.12699999809E+01 0.  1.
</event>
<event>
 5   0  0.3977376E-07  0.2054484E+04  0.7818609E-02  0.8581563E-01
       -1   -1    0    0    0  501  0.00000000000E+00  0.00000000000E+00  0.66132041021E+03  0.66132041023E+03  0.50400001928E-02 0. -1.
        1   -1    0    0  501    0  0.00000000000E+00  0.00000000000E+00 -0.15956346716E+04  0.15956346716E+04  0.50400001928E-02 0.  1.
    10030    2    1    2    0    0  0.00000000000E+00  0.00000000000E+00 -0.93431426136E+03  0.22569550818E+04  0.20544836583E+04 0.  0.
        4    1    3    3  502    0 -0.68289194440E+03  0.76381276571E+03 -0.38588800927E+03  0.10948344703E+04  0.12699999809E+01 0. -1.
       -4    1    3    3    0  502  0.68289194440E+03 -0.76381276571E+03 -0.54842625209E+03  0.11621206115E+04  0.12699999809E+01 0.  1.
</event>
<event>
 5   0  0.1034683E-06  0.3924276E+04  0.7818609E-02  0.8019999E-01
       -2   -1    0    0    0  501  0.00000000000E+00  0.00000000000E+00  0.18766134034E+04  0.18766134034E+04  0.25500000920E-02 0. -1.
        2   -1    0    0  501    0  0.00000000000E+00  0.00000000000E+00 -0.20515601185E+04  0.20515601185E+04  0.25500000920E-02 0.  1.
    10030    2    1    2    0    0  0.00000000000E+00  0.00000000000E+00 -0.17494671507E+03  0.39281735219E+04  0.39242758396E+04 0.  0.
        2    1    3    3  502    0  0.19091176375E+03  0.68675052347E+03  0.17424319568E+04  0.18825893623E+04  0.25500000920E-02 0. -1.
       -2    1    3    3    0  502 -0.19091176375E+03 -0.68675052347E+03 -0.19173786718E+04  0.20455841597E+04  0.25500000920E-02 0.  1.
</event>
<event>
 5   0  0.3471602E-07  0.3826552E+04  0.7818609E-02  0.8040481E-01
        1   -1    0    0  501    0  0.00000000000E+00  0.00000000000E+00  0.24970543564E+04  0.24970543564E+04  0.50400001928E-02 0. -1.
       -1   -1    0    0    0  501  0.00000000000E+00  0.00000000000E+00 -0.14659770064E+04  0.14659770064E+04  0.50400001928E-02 0.  1.
    10030    2    1    2    0    0  0.00000000000E+00  0.00000000000E+00  0.10310773500E+04  0.39630313627E+04  0.38265515912E+04 0.  0.
        5    1    3    3  502    0  0.52024425504E+03  0.13852736494E+04 -0.74055233574E+03  0.16547135766E+04  0.46999998093E+01 0.  1.
       -5    1    3    3    0  502 -0.52024425504E+03 -0.13852736494E+04  0.17716296857E+04  0.23083177862E+04  0.46999998093E+01 0. -1.
</event>
<event>
 5   0  0.5533705E-07  0.2982527E+04  0.7818609E-02  0.8248738E-01
       -2   -1    0    0    0  501  0.00000000000E+00  0.00000000000E+00  0.19373217992E+04  0.19373217992E+04  0.25500000920E-02 0.  1.
        2   -1    0    0  501    0  0.00000000000E+00  0.00000000000E+00 -0.11479074546E+04  0.11479074546E+04  0.25500000920E-02 0. -1.
    10030    2    1    2    0    0  0.00000000000E+00  0.00000000000E+00  0.78941434466E+03  0.30852292538E+04  0.29825265365E+04 0.  0.
        1    1    3    3  502    0 -0.78771410260E+03  0.11071864763E+04 -0.24086924842E+03  0.13799903607E+04  0.50400001928E-02 0. -1.
       -1    1    3    3    0  502  0.78771410260E+03 -0.11071864763E+04  0.10302835931E+04  0.17052388932E+04  0.50400001928E-02 0.  1.
</event>
<event>
 5   0  0.1015219E-06  0.3912753E+04  0.7818609E-02  0.8022382E-01
       -2   -1    0    0    0  501  0.00000000000E+00  0.00000000000E+00  0.14992523949E+04  0.14992523949E+04  0.25500000920E-02 0.  1.
        2   -1    0    0  501    0  0.00000000000E+00  0.00000000000E+00 -0.25528783951E+04  0.25528783951E+04  0.25500000920E-02 0. -1.
    10030    2    1    2    0    0  0.00000000000E+00  0.00000000000E+00 -0.10536260002E+04  0.40521307900E+04  0.39127530194E+04 0.  0.
        3    1    3    3  502    0 -0.36049545810E+03 -0.11742378298E+04  0.10501284966E+04  0.16160325881E+04  0.10100000352E+00 0. -1.
       -3    1    3    3    0  502  0.36049545810E+03  0.11742378298E+04 -0.21037544968E+04  0.24360982019E+04  0.10100000352E+00 0.  1.
</event>
<event>
 5   0  0.4627905E-07  0.3910612E+04  0.7818609E-02  0.8022826E-01
        1   -1    0    0  501    0  0.00000000000E+00  0.00000000000E+00  0.24682840380E+04  0.24682840380E+04  0.50400001928E-02 0. -1.
       -1   -1    0    0    0  501  0.00000000000E+00  0.00000000000E+00 -0.15489393958E+04  0.15489393958E+04  0.50400001928E-02 0.  1.
    10030    2    1    2    0    0  0.00000000000E+00  0.00000000000E+00  0.91934464219E+03  0.40172234339E+04  0.39106124260E+04 0.  0.
        1    1    3    3  502    0  0.15255917800E+04 -0.10200023442E+03  0.17116632312E+04  0.22951307902E+04  0.50400001928E-02 0. -1.
       -1    1    3    3    0  502 -0.15255917800E+04  0.10200023442E+03 -0.79231858901E+03  0.17220926437E+04  0.50400001928E-02 0.  1.
</event>
<event>
 5   0  0.4316671E-07  0.2579218E+04  0.7818609E-02  0.8375295E-01
        1   -1    0    0  501    0  0.00000000000E+00  0.00000000000E+00  0.18330219150E+04  0.18330219150E+04  0.50400001928E-02 0.  1.
       -1   -1    0    0    0  501  0.00000000000E+00  0.00000000000E+00 -0.90729516283E+03  0.90729516284E+03  0.50400001928E-02 0. -1.
    10030    2    1    2    0    0  0.00000000000E+00  0.00000000000E+00  0.92572675213E+03  0.27403170778E+04  0.25792184218E+04 0.  0.
        2    1    3    3  502    0  0.12343134448E+04  0.34252325566E+03  0.30441761158E+03  0.13166328049E+04  0.25500000920E-02 0. -1.
       -2    1    3    3    0  502 -0.12343134448E+04 -0.34252325566E+03  0.62130914056E+03  0.14236842729E+04  0.25500000920E-02 0.  1.
</event>
<event>
 5   0  0.3977376E-07  0.3935393E+04  0.7818609E-02  0.8017708E-01
        1   -1    0    0  501    0  0.00000000000E+00  0.00000000000E+00  0.24810352283E+04  0.24810352283E+04  0.50400001928E-02 0. -1.
       -1   -1    0    0    0  501  0.00000000000E+00  0.00000000000E+00 -0.15605701347E+04  0.15605701347E+04  0.50400001928E-02 0.  1.
    10030    2    1    2    0    0  0.00000000000E+00  0.00000000000E+00  0.92046509354E+03  0.40416053630E+04  0.39353929819E+04 0.  0.
        4    1    3    3  502    0  0.14483156471E+04  0.11389182037E+04 -0.24911507717E+03  0.18592506079E+04  0.12699999809E+01 0.  1.
       -4    1    3    3    0  502 -0.14483156471E+04 -0.11389182037E+04  0.11695801707E+04  0.21823547551E+04  0.12699999809E+01 0. -1.
</event>
<event>
 5   0  0.1034683E-06  0.2091331E+04  0.7818609E-02  0.8565072E-01
       -2   -1    0    0    0  501  0.00000000000E+00  0.00000000000E+00  0.68978932524E+03  0.68978932524E+03  0.25500000920E-02 0.  1.
        2   -1    0    0  501    0  0.00000000000E+00  0.00000000000E+00 -0.15851448585E+04  0.15851448585E+04  0.25500000920E-02 0. -1.
    10030    2    1    2    0    0  0.00000000000E+00  0.00000000000E+00 -0.89535553327E+03  0.22749341837E+04  0.20913306791E+04 0.  0.
        2    1    3    3  502    0 -0.63513657979E+03 -0.45585278586E+03 -0.12030601121E+04  0.14347661379E+04  0.25500000920E-02 0. -1.
       -2    1    3    3    0  502  0.63513657979E+03  0.45585278586E+03  0.30770457879E+03  0.84016804580E+03  0.25500000920E-02 0.  1.
</event>
<event>
 5   0  0.1034683E-06  0.2297828E+04  0.7818609E-02  0.8478778E-01
       -2   -1    0    0    0  501  0.00000000000E+00  0.00000000000E+00  0.94922396819E+03  0.94922396819E+03  0.25500000920E-02 0. -1.
        2   -1    0    0  501    0  0.00000000000E+00  0.00000000000E+00 -0.13906127466E+04  0.13906127466E+04  0.25500000920E-02 0.  1.
    10030    2    1    2    0    0  0.00000000000E+00  0.00000000000E+00 -0.44138877840E+03  0.23398367148E+04  0.22978276259E+04 0.  0.
        2    1    3    3  502    0 -0.82103307232E+03 -0.63212887011E+03  0.28468623902E+03  0.10745829279E+04  0.25500000920E-02 0.  1.
       -2    1    3    3    0  502  0.82103307232E+03  0.63212887011E+03 -0.72607501742E+03  0.12652537869E+04  0.25500000920E-02 0. -1.
</event>
<event>
 5   0  0.7268013E-07  0.3778454E+04  0.7818609E-02  0.8050794E-01
       -2   -1    0    0    0  501  0.00000000000E+00  0.00000000000E+00  0.15817845239E+04  0.15817845239E+04  0.25500000920E-02 0. -1.
        2   -1    0    0  501    0  0.00000000000E+00  0.00000000000E+00 -0.22564254952E+04  0.22564254952E+04  0.25500000920E-02 0.  1.
    10030    2    1    2    0    0  0.00000000000E+00  0.00000000000E+00 -0.67464097127E+03  0.38382100191E+04  0.37784541430E+04 0.  0.
        4    1    3    3  502    0 -0.24442193850E+03 -0.14948081693E+04  0.80968872875E+03  0.17174955597E+04  0.12699999809E+01 0. -1.
       -4    1    3    3    0  502  0.24442193850E+03  0.14948081693E+04 -0.14843297000E+04  0.21207144594E+04  0.12699999809E+01 0.  1.
</event>
<event>
 5   0  0.1015219E-06  0.3661406E+04  0.7818609E-02  0.8076569E-01
       -2   -1    0    0    0  501  0.00000000000E+00  0.00000000000E+00  0.12158902787E+04  0.12158902787E+04  0.25500000920E-02 0. -1.
        2   -1    0    0  501    0  0.00000000000E+00  0.00000000000E+00 -0.27563941638E+04  0.27563941638E+04  0.25500000920E-02 0.  1.
    10030    2    1    2    0    0  0.00000000000E+00  0.00000000000E+00 -0.15405038852E+04  0.39722844425E+04  0.36614056688E+04 0.  0.
        3    1    3    3  502    0  0.62337849287E+03  0.16323289891E+04 -0.17763629888E+03  0.17563181201E+04  0.10100000352E+00 0. -1.
       -3    1    3    3    0  502 -0.62337849287E+03 -0.16323289891E+04 -0.13628675863E+04  0.22159663224E+04  0.10100000352E+00 0.  1.
</event>
<event>
 5   0  0.1034683E-06  0.2526576E+04  0.7818609E-02  0.8393579E-01
       -2   -1    0    0    0  501  0.00000000000E+00  0.00000000000E+00  0.13558958448E+04  0.13558958448E+04  0.25500000920E-02 0.  1.
        2   -1    0    0  501    0  0.00000000000E+00  0.00000000000E+00 -0.11770050468E+04  0.11770050468E+04  0.25500000920E-02 0. -1.
    10030    2    1    2    0    0  0.00000000000E+00  0.00000000000E+00  0.17889079800E+03  0.25329008916E+04  0.25265757477E+04 0.  0.
        2    1    3    3  502    0  0.10881317899E+04 -0.62245233650E+02 -0.55089538072E+03  0.12212251970E+04  0.25500000920E-02 0. -1.
       -2    1    3    3    0  502 -0.10881317899E+04  0.62245233650E+02  0.72978617872E+03  0.13116756946E+04  0.25500000920E-02 0.  1.
</event>
<event>
 5   0  0.7268013E-07  0.3496548E+04  0.7818609E-02  0.8114609E-01
       -2   -1    0    0    0  501  0.00000000000E+00  0.00000000000E+00  0.23055768431E+04  0.23055768431E+04  0.25500000920E-02 0. -1.
        2   -1    0    0  501    0  0.00000000000E+00  0.00000000000E+00 -0.13256818482E+04  0.13256818482E+04  0.25500000920E-02 0.  1.
    10030    2    1    2    0    0  0.00000000000E+00  0.00000000000E+00  0.97989499490E+03  0.36312586913E+04  0.34965476519E+04 0.  0.
        4    1    3    3  502    0 -0.60302120038E+03 -0.10938282228E+04 -0.78044087432E+03  0.14728151005E+04  0.12699999809E+01 0.  1.
       -4    1    3    3    0  502  0.60302120038E+03  0.10938282228E+04  0.17603358692E+04  0.21584435908E+04  0.12699999809E+01 0. -1.
</event>
<event>
 5   0  0.7268013E-07  0.4019568E+04  0.7818609E-02  0.8000611E-01
        2   -1    0    0  501    0  0.00000000000E+00  0.00000000000E+00  0.19365866049E+04  0.19365866049E+04  0.25500000920E-02 0. -1.
       -2   -1    0    0    0  501  0.00000000000E+00  0.00000000000E+00 -0.20857478158E+04  0.20857478158E+04  0.25500000920E-02 0.  1.
    10030    2    1    2    0    0  0.00000000000E+00  0.00000000000E+00 -0.14916121088E+03  0.40223344206E+04  0.40195677783E+04 0.  0.
        4    1    3    3  502    0  0.56611866139E+03  0.58197607841E+03 -0.19143353984E+04  0.20793912872E+04  0.12699999809E+01 0.  1.
       -4    1    3    3    0  502 -0.56611866139E+03 -0.58197607841E+03  0.17651741875E+04  0.19429431335E+04  0.12699999809E+01 0. -1.
</event>
<event>
 5   0  0.7268013E-07  0.3036029E+04  0.7818609E-02  0.8233517E-01
        2   -1    0    0  501    0  0.00000000000E+00  0.00000000000E+00  0.14881777171E+04  0.14881777171E+04  0.25500000920E-02 0. -1.
       -2   -1    0    0    0  501  0.00000000000E+00  0.00000000000E+00 -0.15484491073E+04  0.15484491073E+04  0.25500000920E-02 0.  1.
    10030    2    1    2    0    0  0.00000000000E+00  0.00000000000E+00 -0.60271390239E+02  0.30366268244E+04  0.30360286281E+04 0.  0.
        4    1    3    3  502    0 -0.87769234081E+03  0.12092516862E+04  0.23774604926E+03  0.15129964582E+04  0.12699999809E+01 0. -1.
       -4    1    3    3    0  502  0.87769234081E+03 -0.12092516862E+04 -0.29801743950E+03  0.15236303662E+04  0.12699999809E+01 0.  1.
</event>
<event>
 5   0  0.1015219E-06  0.3900730E+04  0.7818609E-02  0.8024877E-01
        2   -1    0    0  501    0  0.00000000000E+00  0.00000000000E+00  0.15092713681E+04  0.15092713681E+04  0.25500000920E-02 0.  1.
       -2   -1    0    0    0  501  0.00000000000E+00  0.00000000000E+00 -0.25203703731E+04  0.25203703731E+04  0.25500000920E-02 0. -1.
    10030    2    1    2    0    0  0.00000000000E+00  0.00000000000E+00 -0.10110990050E+04  0.40296417411E+04  0.39007295938E+04 0.  0.
        3    1    3    3  502    0  0.10355564367E+04  0.15426219297E+04  0.10723470504E+03  0.18610639010E+04  0.10100000352E+00 0. -1.
       -3    1    3    3    0  502 -0.10355564367E+04 -0.15426219297E+04 -0.11183337100E+04  0.21685778401E+04  0.10100000352E+00 0.  1.
</event>
<event>
 5   0  0.4316671E-07  0.3839446E+04  0.7818609E-02  0.8037742E-01
       -1   -1    0    0    0  501  0.00000000000E+00  0.00000000000E+00  0.26388509149E+04  0.26388509149E+04  0.50400001928E-02 0. -1.
        1   -1    0    0  501    0  0.00000000000E+00  0.00000000000E+00 -0.13965686490E+04  0.13965686490E+04  0.50400001928E-02 0.  1.
    10030    2    1    2    0    0  0.00000000000E+00  0.00000000000E+00  0.12422822659E+04  0.40354195639E+04  0.38394460315E+04 0.  0.
        2    1    3    3  502    0 -0.18400415551E+03  0.13255700194E+04  0.20677444028E+04  0.24630388387E+04  0.25500000920E-02 0. -1.
       -2    1    3    3    0  502  0.18400415551E+03 -0.13255700194E+04 -0.82546213690E+03  0.15723807252E+04  0.25500000920E-02 0.  1.
</event>
<event>
 5   0  0.1015219E-06  0.3891674E+04  0.7818609E-02  0.8026763E-01
       -2   -1    0    0    0  501  0.00000000000E+00  0.00000000000E+00  0.27995559709E+04  0.27995559709E+04  0.25500000920E-02 0. -1.
        2   -1    0    0  501    0  0.00000000000E+00  0.00000000000E+00 -0.13524575945E+04  0.13524575945E+04  0.25500000920E-02 0.  1.
    10030    2    1    2    0    0  0.00000000000E+00  0.00000000000E+00  0.14470983764E+04  0.41520135654E+04  0.38916735393E+04 0.  0.
        3    1    3    3  502    0 -0.17416741514E+04  0.57251575536E+03  0.14191442082E+04  0.23184420272E+04  0.10100000352E+00 0.  1.
       -3    1    3    3    0  502  0.17416741514E+04 -0.57251575536E+03  0.27954168257E+02  0.18335715382E+04  0.10100000352E+00 0. -1.
</event>
<event>
 5   0  0.5533705E-07  0.3919002E+04  0.7818609E-02  0.8021089E-01
       -2   -1    0    0    0  501  0.00000000000E+00  0.00000000000E+00  0.14437206563E+04  0.14437206563E+04  0.25500000920E-02 0.  1.
        2   -1    0    0  501    0  0.00000000000E+00  0.00000000000E+00 -0.26595478400E+04  0.26595478400E+04  0.25500000920E-02 0. -1.
    10030    2    1    2    0    0  0.00000000000E+00  0.00000000000E+00 -0.12158271837E+04  0.41032684963E+04  0.39190019918E+04 0.  0.
        1    1    3    3  502    0 -0.11404219695E+04  0.14651094034E+04 -0.12638992964E+04  0.22460074052E+04  0.50400001928E-02 0. -1.
       -1    1    3    3    0  502  0.11404219695E+04 -0.14651094034E+04  0.48072112686E+02  0.18572610911E+04  0.50400001928E-02 0.  1.
</event>
<event>
 5   0  0.1035864E-06  0.3848237E+04  0.7818609E-02  0.8035882E-01
        2   -1    0    0  501    0  0.00000000000E+00  0.00000000000E+00  0.24961603054E+04  0.24961603054E+04  0.25500000920E-02 0. -1.
       -2   -1    0    0    0  501  0.00000000000E+00  0.00000000000E+00 -0.14831709199E+04  0.14831709199E+04  0.25500000920E-02 0.  1.
    10030    2    1    2    0    0  0.00000000000E+00  0.00000000000E+00  0.10129893855E+04  0.39793312252E+04  0.38482371945E+04 0.  0.
        5    1    3    3  502    0 -0.17597621956E+04  0.65277699456E+03  0.68595523341E+02  0.18781928084E+04  0.46999998093E+01 0.  1.
       -5    1    3    3    0  502  0.17597621956E+04 -0.65277699456E+03  0.94439386215E+03  0.21011384168E+04  0.46999998093E+01 0. -1.
</event>
<event>
 5   0  0.3977376E-07  0.2218569E+04  0.7818609E-02  0.8510739E-01
        1   -1    0    0  501    0  0.00000000000E+00  0.00000000000E+00  0.12803416447E+04  0.12803416447E+04  0.50400001928E-02 0. -1.
       -1   -1    0    0    0  501  0.00000000000E+00  0.00000000000E+00 -0.96108119057E+03  0.96108119058E+03  0.50400001928E-02 0.  1.
    10030    2    1    2    0    0  0.00000000000E+00  0.00000000000E+00  0.31926045416E+03  0.22414228353E+04  0.22185691536E+04 0.  0.
        4    1    3    3  502    0 -0.58219904288E+03  0.94246378910E+03  0.21781637885E+03  0.11289992503E+04  0.12699999809E+01 0.  1.
       -4    1    3    3    0  502  0.58219904288E+03 -0.94246378910E+03  0.10144407531E+03  0.11124235851E+04  0.12699999809E+01 0. -1.
</event>
<event>
 5   0  0.3471602E-07  0.2255645E+04  0.7818609E-02  0.8495618E-01
        1   -1    0    0  501    0  0.00000000000E+00  0.00000000000E+00  0.11649983699E+04  0.11649983699E+04  0.50400001928E-02 0.  1.
       -1   -1    0    0    0  501  0.00000000000E+00  0.00000000000E+00 -0.10918333779E+04  0.10918333779E+04  0.50400001928E-02 0. -1.
    10030    2    1    2    0    0  0.00000000000E+00  0.00000000000E+00  0.73164992028E+02  0.22568317478E+04  0.22556454557E+04 0.  0.
        5    1    3    3  502    0 -0.11044767809E+04  0.22325566311E+03  0.84041234724E+02  0.11299544548E+04  0.46999998093E+01 0. -1.
       -5    1    3    3    0  502  0.11044767809E+04 -0.22325566311E+03 -0.10876242696E+02  0.11268772930E+04  0.46999998093E+01 0.  1.
</event>
<event>
 5   0  0.3471602E-07  0.2058944E+04  0.7818609E-02  0.8579548E-01
       -1   -1    0    0    0  501  0.00000000000E+00  0.00000000000E+00  0.75529793802E+03  0.75529793803E+03  0.50400001928E-02 0. -1.
        1   -1    0    0  501    0  0.00000000000E+00  0.00000000000E+00 -0.14031718588E+04  0.14031718588E+04  0.50400001928E-02 0.  1.
    10030    2    1    2    0    0  0.00000000000E+00  0.00000000000E+00 -0.64787392078E+03  0.21584697968E+04  0.20589442068E+04 0.  0.
        5    1    3    3  502    0  0.53942513327E+03  0.45933134563E+03 -0.11069171236E+04  0.13142497358E+04  0.46999998093E+01 0.  1.
       -5    1    3    3    0  502 -0.53942513327E+03 -0.45933134563E+03  0.45904320281E+03  0.84422006107E+03  0.46999998093E+01 0. -1.
</event>
<event>
 5   0  0.5533705E-07  0.3911691E+04  0.7818609E-02  0.8022602E-01
       -2   -1    0    0    0  501  0.00000000000E+00  0.00000000000E+00  0.18836440275E+04  0.18836440275E+04  0.25500000920E-02 0.  1.
        2   -1    0    0  501    0  0.00000000000E+00  0.00000000000E+00 -0.20308147493E+04  0.20308147493E+04  0.25500000920E-02 0. -1.
    10030    2    1    2    0    0  0.00000000000E+00  0.00000000000E+00 -0.14717072187E+03  0.39144587768E+04  0.39116912319E+04 0.  0.
        1    1    3    3  502    0 -0.60575135801E+03  0.14305216125E+04  0.11155336377E+04  0.19125224413E+04  0.50400001928E-02 0.  1.
       -1    1    3    3    0  502  0.60575135801E+03 -0.14305216125E+04 -0.12627043596E+04  0.20019363355E+04  0.50400001928E-02 0. -1.
</event>
<event>
 5   0  0.5533705E-07  0.3787212E+04  0.7818609E-02  0.8048905E-01
        2   -1    0    0  501    0  0.00000000000E+00  0.00000000000E+00  0.22778674425E+04  0.22778674425E+04  0.25500000920E-02 0.  1.
       -2   -1    0    0    0  501  0.00000000000E+00  0.00000000000E+00 -0.15741666030E+04  0.15741666030E+04  0.25500000920E-02 0. -1.
    10030    2    1    2    0    0  0.00000000000E+00  0.00000000000E+00  0.70370083954E+03  0.38520340455E+04  0.37872115621E+04 0.  0.
        1    1    3    3  502    0  0.15431290369E+04 -0.80718812175E+03 -0.40447852137E+03  0.17878486409E+04  0.50400001928E-02 0. -1.
       -1    1    3    3    0  502 -0.15431290369E+04  0.80718812175E+03  0.11081793609E+04  0.20641854046E+04  0.50400001928E-02 0.  1.
</event>
<event>
 5   0  0.4054744E-07  0.1999316E+04  0.7818609E-02  0.8606941E-01
        1   -1    0    0  501    0  0.00000000000E+00  0.00000000000E+00  0.12564131213E+04  0.12564131213E+04  0.50400001928E-02 0.  1.
       -1   -1    0    0    0  501  0.00000000000E+00  0.00000000000E+00 -0.79537208908E+03  0.79537208909E+03  0.50400001928E-02 0. -1.
    10030    2    1    2    0    0  0.00000000000E+00  0.00000000000E+00  0.46104103224E+03  0.20517852104E+04  0.19993158120E+04 0.  0.
        4    1    3    3  502    0  0.23947845117E+03 -0.58375291652E+03  0.10262379398E+04  0.12046922088E+04  0.12699999809E+01 0.  1.
       -4    1    3    3    0  502 -0.23947845117E+03  0.58375291652E+03 -0.56519690754E+03  0.84709300157E+03  0.12699999809E+01 0. -1.
</event>
<event>
 5   0  0.1034683E-06  0.2888902E+04  0.7818609E-02  0.8276187E-01
        2   -1    0    0  501    0  0.00000000000E+00  0.00000000000E+00  0.21158502026E+04  0.21158502026E+04  0.25500000920E-02 0.  1.
       -2   -1    0    0    0  501  0.00000000000E+00  0.00000000000E+00 -0.98609920133E+03  0.98609920133E+03  0.25500000920E-02 0. -1.
    10030    2    1    2    0    0  0.00000000000E+00  0.00000000000E+00  0.11297510013E+04  0.31019494039E+04  0.28889016563E+04 0.  0.
        2    1    3    3  502    0 -0.99678089454E+02 -0.52583117740E+03  0.20054598509E+04  0.20756452882E+04  0.25500000920E-02 0.  1.
       -2    1    3    3    0  502  0.99678089454E+02  0.52583117740E+03 -0.87570884966E+03  0.10263041158E+04  0.25500000920E-02 0. -1.
</event>
<event>
 5   0  0.1015219E-06  0.3192279E+04  0.7818609E-02  0.8190859E-01
        2   -1    0    0  501    0  0.00000000000E+00  0.00000000000E+00  0.18753124279E+04  0.18753124279E+04  0.25500000920E-02 0. -1.
       -2   -1    0    0    0  501  0.00000000000E+00  0.00000000000E+00 -0.13585266558E+04  0.13585266558E+04  0.25500000920E-02 0.  1.
    10030    2    1    2    0    0  0.00000000000E+00  0.00000000000E+00  0.51678577212E+03  0.32338390837E+04  0.31922793871E+04 0.  0.
        3    1    3    3  502    0 -0.10997974895E+04 -0.85496192816E+03  0.10477338024E+04  0.17430606838E+04  0.10100000352E+00 0. -1.
       -3    1    3    3    0  502  0.10997974895E+04  0.85496192816E+03 -0.53094803031E+03  0.14907783999E+04  0.10100000352E+00 0.  1.
</event>
<event>
 5   0  0.1015219E-06  0.2996175E+04  0.7818609E-02  0.8244824E-01
       -2   -1    0    0    0  501  0.00000000000E+00  0.00000000000E+00  0.13756351450E+04  0.13756351450E+04  0.25500000920E-02 0. -1.
        2   -1    0    0  501    0  0.00000000000E+00  0.00000000000E+00 -0.16314397723E+04  0.16314397723E+04  0.25500000920E-02 0.  1.
    10030    2    1    2    0    0  0.00000000000E+00  0.00000000000E+00 -0.25580462729E+03  0.30070749174E+04  0.29961748199E+04 0.  0.
        3    1    3    3  502    0  0.37079563055E+03 -0.81883783851E+02 -0.15823367253E+04  0.16272626943E+04  0.10100000352E+00 0.  1.
       -3    1    3    3    0  502 -0.37079563055E+03  0.81883783851E+02  0.13265320980E+04  0.13798122231E+04  0.10100000352E+00 0. -1.
</event>
<event>
 5   0  0.4627905E-07  0.3921365E+04  0.7818609E-02  0.8020600E-01
       -1   -1    0    0    0  501  0.00000000000E+00  0.00000000000E+00  0.26146768019E+04  0.26146768019E+04  0.50400001928E-02 0. -1.
        1   -1    0    0  501    0  0.00000000000E+00  0.00000000000E+00 -0.14702679943E+04  0.14702679943E+04  0.50400001928E-02 0.  1.
    10030    2    1    2    0    0  0.00000000000E+00  0.00000000000E+00  0.11444088076E+04  0.40849447962E+04  0.39213648732E+04 0.  0.
        1    1    3    3  502    0 -0.17994990424E+04  0.66236186182E+03  0.14604798575E+03  0.19230834755E+04  0.50400001928E-02 0.  1.
       -1    1    3    3    0  502  0.17994990424E+04 -0.66236186182E+03  0.99836082182E+03  0.21618613207E+04  0.50400001928E-02 0. -1.
</event>
<event>
 5   0  0.4316671E-07  0.2022611E+04  0.7818609E-02  0.8596122E-01
       -1   -1    0    0    0  501  0.00000000000E+00  0.00000000000E+00  0.75526261061E+03  0.75526261063E+03  0.50400001928E-02 0.  1.
        1   -1    0    0  501    0  0.00000000000E+00  0.00000000000E+00 -0.13541495169E+04  0.13541495169E+04  0.50400001928E-02 0. -1.
    10030    2    1    2    0    0  0.00000000000E+00  0.00000000000E+00 -0.59888690631E+03  0.21094121276E+04  0.20226106885E+04 0.  0.
        2    1    3    3  502    0  0.25806671704E+03  0.10819472022E+03 -0.13129695620E+04  0.13424580435E+04  0.25500000920E-02 0. -1.
       -2    1    3    3    0  502 -0.25806671704E+03 -0.10819472022E+03  0.71408265566E+03  0.76695408405E+03  0.25500000920E-02 0.  1.
</event>
<event>
 5   0  0.5533705E-07  0.3334538E+04  0.7818609E-02  0.8154162E-01
        2   -1    0    0  501    0  0.00000000000E+00  0.00000000000E+00  0.22014895825E+04  0.22014895825E+04  0.25500000920E-02 0.  1.
       -2   -1    0    0    0  501  0.00000000000E+00  0.00000000000E+00 -0.12626840919E+04  0.12626840919E+04  0.25500000920E-02 0. -1.
    10030    2    1    2    0    0  0.00000000000E+00  0.00000000000E+00  0.93880549061E+03  0.34641736744E+04  0.33345379736E+04 0.  0.
        1    1    3    3  502    0  0.13420062865E+04  0.21986126054E+03 -0.53270461053E+03  0.14605115710E+04  0.50400001928E-02 0. -1.
       -1    1    3    3    0  502 -0.13420062865E+04 -0.21986126054E+03  0.14715101011E+04  0.20036621034E+04  0.50400001928E-02 0.  1.
</event>
<event>
 5   0  0.7268013E-07  0.2035319E+04  0.7818609E-02  0.8590283E-01
        2   -1    0    0  501    0  0.00000000000E+00  0.00000000000E+00  0.87930449971E+03  0.87930449972E+03  0.25500000920E-02 0. -1.
       -2   -1    0    0    0  501  0.00000000000E+00  0.00000000000E+00 -0.11777845917E+04  0.11777845917E+04  0.25500000920E-02 0.  1.
    10030    2    1    2    0    0  0.00000000000E+00  0.00000000000E+00 -0.29848009197E+03  0.20570890914E+04  0.20353194257E+04 0.  0.
        4    1    3    3  502    0 -0.79695455646E+03 -0.62652016259E+03 -0.23944486627E+03  0.10416331101E+04  0.12699999809E+01 0. -1.
       -4    1    3    3    0  502  0.79695455646E+03  0.62652016259E+03 -0.59035225700E+02  0.10154559813E+04  0.12699999809E+01 0.  1.
</event>
<event>
 5   0  0.1015219E-06  0.3874011E+04  0.7818609E-02  0.8030456E-01
        2   -1    0    0  501    0  0.00000000000E+00  0.00000000000E+00  0.30849434790E+04  0.30849434790E+04  0.25500000920E-02 0. -1.
       -2   -1    0    0    0  501  0.00000000000E+00  0.00000000000E+00 -0.12162263620E+04  0.12162263620E+04  0.25500000920E-02 0.  1.
    10030    2    1    2    0    0  0.00000000000E+00  0.00000000000E+00  0.18687171170E+04  0.43011698409E+04  0.38740106269E+04 0.  0.
        3    1    3    3  502    0 -0.97136768789E+03  0.13566583841E+04 -0.15794617346E+03  0.16760143675E+04  0.10100000352E+00 0.  1.
       -3    1    3    3    0  502  0.97136768789E+03 -0.13566583841E+04  0.20266632905E+04  0.26251554734E+04  0.10100000352E+00 0. -1.
</event>
<event>
 5   0  0.1035864E-06  0.3408113E+04  0.7818609E-02  0.8135918E-01
        2   -1    0    0  501    0  0.00000000000E+00  0.00000000000E+00  0.28472453383E+04  0.28472453383E+04  0.25500000920E-02 0.  1.
       -2   -1    0    0    0  501  0.00000000000E+00  0.00000000000E+00 -0.10198658922E+04  0.10198658922E+04  0.25500000920E-02 0. -1.
    10030    2    1    2    0    0  0.00000000000E+00  0.00000000000E+00  0.18273794460E+04  0.38671112305E+04  0.34081129132E+04 0.  0.
        5    1    3    3  502    0 -0.79384839167E+03  0.14835569597E+04  0.60785281998E+03  0.17890342821E+04  0.46999998093E+01 0.  1.
       -5    1    3    3    0  502  0.79384839167E+03 -0.14835569597E+04  0.12195266261E+04  0.20780769484E+04  0.46999998093E+01 0. -1.
</event>
<event>
 5   0  0.5533705E-07  0.3193055E+04  0.7818609E-02  0.8190654E-01
        2   -1    0    0  501    0  0.00000000000E+00  0.00000000000E+00  0.17247418568E+04  0.17247418568E+04  0.25500000920E-02 0.  1.
       -2   -1    0    0    0  501  0.00000000000E+00  0.00000000000E+00 -0.14778441733E+04  0.14778441734E+04  0.25500000920E-02 0. -1.
    10030    2    1    2    0    0  0.00000000000E+00  0.00000000000E+00  0.24689768343E+03  0.32025860301E+04  0.31930547778E+04 0.  0.
        1    1    3    3  502    0  0.46851400560E+03  0.89517827244E+02 -0.14047069727E+04  0.14834825560E+04  0.50400001928E-02 0. -1.
       -1    1    3    3    0  502 -0.46851400560E+03 -0.89517827244E+02  0.16516046561E+04  0.17191034742E+04  0.50400001928E-02 0.  1.
</event>
<event>
 5   0  0.7268013E-07  0.3825680E+04  0.7818609E-02  0.8040666E-01
        2   -1    0    0  501    0  0.00000000000E+00  0.00000000000E+00  0.30093813006E+04  0.30093813006E+04  0.25500000920E-02 0.  1.
       -2   -1    0    0    0  501  0.00000000000E+00  0.00000000000E+00 -0.12158500718E+04  0.12158500718E+04  0.25500000920E-02 0. -1.
    10030    2    1    2    0    0  0.00000000000E+00  0.00000000000E+00  0.17935312288E+04  0.42252313724E+04  0.38256797934E+04 0.  0.
        4    1    3    3  502    0 -0.14517195788E+04  0.13087117377E+03 -0.47128567308E+03  0.15319036517E+04  0.12699999809E+01 0. -1.
       -4    1    3    3    0  502  0.14517195788E+04 -0.13087117377E+03  0.22648169019E+04  0.26933277207E+04  0.12699999809E+01 0.  1.
</event>
<event>
 5   0  0.3191750E-07  0.2006428E+04  0.7818609E-02  0.8603621E-01
       -3   -1    0    0    0  501  0.00000000000E+00  0.00000000000E+00  0.17823188506E+04  0.17823188535E+04  0.10100000352E+00 0. -1.
        3   -1    0    0  501    0  0.00000000000E+00  0.00000000000E+00 -0.56467910896E+03  0.56467911799E+03  0.10100000352E+00 0.  1.
    10030    2    1    2    0    0  0.00000000000E+00  0.00000000000E+00  0.12176397416E+04  0.23469979715E+04  0.20064279049E+04 0.  0.
        5    1    3    3  502    0  0.60509667817E+03 -0.55463965067E+03 -0.65835953778E+02  0.82348260141E+03  0.46999998093E+01 0.  1.
       -5    1    3    3    0  502 -0.60509667817E+03  0.55463965067E+03  0.12834756954E+04  0.15235153700E+04  0.46999998093E+01 0. -1.
</event>
<event>
 5   0  0.5533705E-07  0.2502088E+04  0.7818609E-02  0.8402242E-01
       -2   -1    0    0    0  501  0.00000000000E+00  0.00000000000E+00  0.12803896643E+04  0.12803896643E+04  0.25500000920E-02 0.  1.
        2   -1    0    0  501    0  0.00000000000E+00  0.00000000000E+00 -0.12223709830E+04  0.12223709830E+04  0.25500000920E-02 0. -1.
    10030    2    1    2    0    0  0.00000000000E+00  0.00000000000E+00  0.58018681231E+02  0.25027606473E+04  0.25020880660E+04 0.  0.
        1    1    3    3  502    0 -0.34729605179E+03 -0.98819658533E+03 -0.65525358581E+03  0.12355178269E+04  0.50400001928E-02 0. -1.
       -1    1    3    3    0  502  0.34729605179E+03  0.98819658533E+03  0.71327226704E+03  0.12672428204E+04  0.50400001928E-02 0.  1.
</event>
<event>
 5   0  0.7322250E-07  0.1933101E+04  0.7818609E-02  0.8638553E-01
        2   -1    0    0  501    0  0.00000000000E+00  0.00000000000E+00  0.24766183082E+04  0.24766183082E+04  0.25500000920E-02 0. -1.
       -2   -1    0    0    0  501  0.00000000000E+00  0.00000000000E+00 -0.37721573901E+03  0.37721573902E+03  0.25500000920E-02 0.  1.
    10030    2    1    2    0    0  0.00000000000E+00  0.00000000000E+00  0.20994025692E+04  0.28538340472E+04  0.19331005203E+04 0.  0.
        4    1    3    3  502    0  0.28364036986E+03 -0.65525565972E+03  0.87945048592E+02  0.71940793955E+03  0.12699999809E+01 0.  1.
       -4    1    3    3    0  502 -0.28364036986E+03  0.65525565972E+03  0.20114575206E+04  0.21344261076E+04  0.12699999809E+01 0. -1.
</event>
<event>
 5   0  0.7268013E-07  0.3711185E+04  0.7818609E-02  0.8065488E-01
       -2   -1    0    0    0  501  0.00000000000E+00  0.00000000000E+00  0.12822017511E+04  0.12822017511E+04  0.25500000920E-02 0.  1.
        2   -1    0    0  501    0  0.00000000000E+00  0.00000000000E+00 -0.26853986299E+04  0.26853986299E+04  0.25500000920E-02 0. -1.
    10030    2    1    2    0    0  0.00000000000E+00  0.00000000000E+00 -0.14031968788E+04  0.39676003810E+04  0.37111846226E+04 0.  0.
        4    1    3    3  502    0 -0.17343692583E+04  0.25378558737E+03 -0.13525849205E+04  0.22140305844E+04  0.12699999809E+01 0. -1.
       -4    1    3    3    0  502  0.17343692583E+04 -0.25378558737E+03 -0.50611958333E+02  0.17535697967E+04  0.12699999809E+01 0.  1.
</event>
<event>
 5   0  0.4316671E-07  0.3755902E+04  0.7818609E-02  0.8055685E-01
        1   -1    0    0  501    0  0.00000000000E+00  0.00000000000E+00  0.24766561474E+04  0.24766561474E+04  0.50400001928E-02 0.  1.
       -1   -1    0    0    0  501  0.00000000000E+00  0.00000000000E+00 -0.14239762282E+04  0.14239762282E+04  0.50400001928E-02 0. -1.
    10030    2    1    2    0    0  0.00000000000E+00  0.00000000000E+00  0.10526799192E+04  0.39006323756E+04  0.37559017449E+04 0.  0.
        2    1    3    3  502    0  0.30156045824E+02 -0.54492485613E+03 -0.13398013699E+04  0.14466928481E+04  0.25500000920E-02 0. -1.
       -2    1    3    3    0  502 -0.30156045824E+02  0.54492485613E+03  0.23924812891E+04  0.24539395275E+04  0.25500000920E-02 0.  1.
</event>
<event>
 5   0  0.5533705E-07  0.2011264E+04  0.7818609E-02  0.8601372E-01
       -2   -1    0    0    0  501  0.00000000000E+00  0.00000000000E+00  0.12581334125E+04  0.12581334125E+04  0.25500000920E-02 0.  1.
        2   -1    0    0  501    0  0.00000000000E+00  0.00000000000E+00 -0.80380643847E+03  0.80380643847E+03  0.25500000920E-02 0. -1.
    10030    2    1    2    0    0  0.00000000000E+00  0.00000000000E+00  0.45432697400E+03  0.20619398509E+04  0.20112640179E+04 0.  0.
        1    1    3    3  502    0  0.90470214056E+03  0.15428110583E+03 -0.19429946231E+03  0.93810495352E+03  0.50400001928E-02 0. -1.
       -1    1    3    3    0  502 -0.90470214056E+03 -0.15428110583E+03  0.64862643631E+03  0.11238348974E+04  0.50400001928E-02 0.  1.
</event>
<event>
 5   0  0.1015219E-06  0.3347584E+04  0.7818609E-02  0.8150892E-01
       -2   -1    0    0    0  501  0.00000000000E+00  0.00000000000E+00  0.13577229109E+04  0.13577229109E+04  0.25500000920E-02 0. -1.
        2   -1    0    0  501    0  0.00000000000E+00  0.00000000000E+00 -0.20634395995E+04  0.20634395995E+04  0.25500000920E-02 0.  1.
    10030    2    1    2    0    0  0.00000000000E+00  0.00000000000E+00 -0.70571668858E+03  0.34211625103E+04  0.33475837372E+04 0.  0.
        3    1    3    3  502    0 -0.40088347402E+02 -0.90657857836E+03  0.10844998026E+04  0.14140833166E+04  0.10100000352E+00 0. -1.
       -3    1    3    3    0  502  0.40088347402E+02  0.90657857836E+03 -0.17902164912E+04  0.20070791937E+04  0.10100000352E+00 0.  1.
</event>
<event>
 5   0  0.4627905E-07  0.3927618E+04  0.7818609E-02  0.8019310E-01
       -1   -1    0    0    0  501  0.00000000000E+00  0.00000000000E+00  0.16201696819E+04  0.16201696819E+04  0.50400001928E-02 0. -1.
        1   -1    0    0  501    0  0.00000000000E+00  0.00000000000E+00 -0.23803345849E+04  0.23803345849E+04  0.50400001928E-02 0.  1.
    10030    2    1    2    0    0  0.00000000000E+00  0.00000000000E+00 -0.76016490296E+03  0.40005042669E+04  0.39276180707E+04 0.  0.
        1    1    3    3  502    0 -0.12344965444E+04  0.68901367605E+03  0.10082319072E+04  0.17364484279E+04  0.50400001928E-02 0. -1.
       -1    1    3    3    0  502  0.12344965444E+04 -0.68901367605E+03 -0.17683968101E+04  0.22640558390E+04  0.50400001928E-02 0.  1.
</event>
<event>
 5   0  0.4316671E-07  0.3883460E+04  0.7818609E-02  0.8028478E-01
        1   -1    0    0  501    0  0.00000000000E+00  0.00000000000E+00  0.21281803070E+04  0.21281803070E+04  0.50400001928E-02 0.  1.
       -1   -1    0    0    0  501  0.00000000000E+00  0.00000000000E+00 -0.17716145257E+04  0.17716145257E+04  0.50400001928E-02 0. -1.
    10030    2    1    2    0    0  0.00000000000E+00  0.00000000000E+00  0.35656578135E+03  0.38997948327E+04  0.38834598724E+04 0.  0.
        2    1    3    3  502    0  0.54627322882E+03  0.14911842091E+04  0.13002426137E+04  0.20524803630E+04  0.25500000920E-02 0.  1.
       -2    1    3    3    0  502 -0.54627322882E+03 -0.14911842091E+04 -0.94367683238E+03  0.18473144697E+04  0.25500000920E-02 0. -1.
</event>
<event>
 5   0  0.7268013E-07  0.3986787E+04  0.7818609E-02  0.8007217E-01
       -2   -1    0    0    0  501  0.00000000000E+00  0.00000000000E+00  0.19349342401E+04  0.19349342401E+04  0.25500000920E-02 0.  1.
        2   -1    0    0  501    0  0.00000000000E+00  0.00000000000E+00 -0.20536184852E+04  0.20536184852E+04  0.25500000920E-02 0. -1.
    10030    2    1    2    0    0  0.00000000000E+00  0.00000000000E+00 -0.11868424506E+03  0.39885527253E+04  0.39867865371E+04 0.  0.
        4    1    3    3  502    0  0.14135790985E+04  0.13890783153E+04 -0.27361141049E+03  0.20006522063E+04  0.12699999809E+01 0.  1.
       -4    1    3    3    0  502 -0.14135790985E+04 -0.13890783153E+04  0.15492716543E+03  0.19879005190E+04  0.12699999809E+01 0. -1.
</event>
<event>
 5   0  0.5385714E-07  0.2596857E+04  0.7818609E-02  0.8369270E-01
        1   -1    0    0  501    0  0.00000000000E+00  0.00000000000E+00  0.14655709920E+04  0.14655709921E+04  0.50400001928E-02 0. -1.
       -1   -1    0    0    0  501  0.00000000000E+00  0.00000000000E+00 -0.11503476252E+04  0.11503476252E+04  0.50400001928E-02 0.  1.
    10030    2    1    2    0    0  0.00000000000E+00  0.00000000000E+00  0.31522336682E+03  0.26159186173E+04  0.25968566463E+04 0.  0.
        3    1    3    3  502    0 -0.91631977279E+03 -0.91227528217E+03  0.27692086828E+03  0.13223363014E+04  0.10100000352E+00 0.  1.
       -3    1    3    3    0  502  0.91631977279E+03  0.91227528217E+03  0.38302498547E+02  0.12935823159E+04  0.10100000352E+00 0. -1.
</event>
<event>
 5   0  0.1015219E-06  0.2413366E+04  0.7818609E-02  0.8434516E-01
       -2   -1    0    0    0  501  0.00000000000E+00  0.00000000000E+00  0.68478702319E+03  0.68478702320E+03  0.25500000920E-02 0.  1.
        2   -1    0    0  501    0  0.00000000000E+00  0.00000000000E+00 -0.21263316920E+04  0.21263316920E+04  0.25500000920E-02 0. -1.
    10030    2    1    2    0    0  0.00000000000E+00  0.00000000000E+00 -0.14415446688E+04  0.28111187152E+04  0.24133664038E+04 0.  0.
        3    1    3    3  502    0  0.71729022650E+02  0.79870110337E+03 -0.17710531333E+04  0.19441444690E+04  0.10100000352E+00 0. -1.
       -3    1    3    3    0  502 -0.71729022650E+02 -0.79870110337E+03  0.32950846448E+03  0.86697424620E+03  0.10100000352E+00 0.  1.
</event>
<event>
 5   0  0.1034683E-06  0.2231579E+04  0.7818609E-02  0.8505398E-01
       -2   -1    0    0    0  501  0.00000000000E+00  0.00000000000E+00  0.42924554083E+03  0.42924554083E+03  0.25500000920E-02 0.  1.
        2   -1    0    0  501    0  0.00000000000E+00  0.00000000000E+00 -0.29004066220E+04  0.29004066220E+04  0.25500000920E-02 0. -1.
    10030    2    1    2    0    0  0.00000000000E+00  0.00000000000E+00 -0.24711610812E+04  0.33296521628E+04  0.22315793592E+04 0.  0.
        2    1    3    3  502    0  0.70076160090E+02  0.85976867432E+03 -0.22915483380E+04  0.24485315246E+04  0.25500000920E-02 0. -1.
       -2    1    3    3    0  502 -0.70076160090E+02 -0.85976867432E+03 -0.17961274314E+03  0.88112063820E+03  0.25500000920E-02 0.  1.
</event>
<event>
 5   0  0.1015219E-06  0.3817416E+04  0.7818609E-02  0.8042428E-01
       -2   -1    0    0    0  501  0.00000000000E+00  0.00000000000E+00  0.17380228201E+04  0.17380228201E+04  0.25500000920E-02 0. -1.
        2   -1    0    0  501    0  0.00000000000E+00  0.00000000000E+00 -0.20961561068E+04  0.20961561068E+04  0.25500000920E-02 0.  1.
    10030    2    1    2    0    0  0.00000000000E+00  0.00000000000E+00 -0.35813328671E+03  0.38341789269E+04  0.38174164814E+04 0.  0.
        3    1    3    3  502    0 -0.15157399773E+04  0.37636910918E+03  0.92304179288E+03  0.18141465064E+04  0.10100000352E+00 0. -1.
       -3    1    3    3    0  502  0.15157399773E+04 -0.37636910918E+03 -0.12811750796E+04  0.20200324205E+04  0.10100000352E+00 0.  1.
</event>
<event>
 5   0  0.3471602E-07  0.1915591E+04  0.7818609E-02  0.8647135E-01
       -1   -1    0    0    0  501  0.00000000000E+00  0.00000000000E+00  0.10542700301E+04  0.10542700301E+04  0.50400001928E-02 0. -1.
        1   -1    0    0  501    0  0.00000000000E+00  0.00000000000E+00 -0.87014906264E+03  0.87014906265E+03  0.50400001928E-02 0.  1.
    10030    2    1    2    0    0  0.00000000000E+00  0.00000000000E+00  0.18412096748E+03  0.19244190928E+04  0.19155908524E+04 0.  0.
        5    1    3    3  502    0 -0.67541797649E+03 -0.32744152166E+03  0.68973304503E+03  0.10193925429E+04  0.46999998093E+01 0. -1.
       -5    1    3    3    0  502  0.67541797649E+03  0.32744152166E+03 -0.50561207755E+03  0.90502654990E+03  0.46999998093E+01 0.  1.
</event>
<event>
 5   0  0.4316671E-07  0.2492606E+04  0.7818609E-02  0.8405624E-01
        1   -1    0    0  501    0  0.00000000000E+00  0.00000000000E+00  0.13374782212E+04  0.13374782212E+04  0.50400001928E-02 0.  1.
       -1   -1    0    0    0  501  0.00000000000E+00  0.00000000000E+00 -0.11613431043E+04  0.11613431044E+04  0.50400001928E-02 0. -1.
    10030    2    1    2    0    0  0.00000000000E+00  0.00000000000E+00  0.17613511689E+03  0.24988213256E+04  0.24926059532E+04 0.  0.
        2    1    3    3  502    0  0.63894884218E+03  0.67163171411E+03 -0.74703200775E+03  0.11905467664E+04  0.25500000920E-02 0. -1.
       -2    1    3    3    0  502 -0.63894884218E+03 -0.67163171411E+03  0.92316712464E+03  0.13082745592E+04  0.25500000920E-02 0.  1.
</event>
<event>
 5   0  0.5533705E-07  0.3924517E+04  0.7818609E-02  0.8019949E-01
       -2   -1    0    0    0  501  0.00000000000E+00  0.00000000000E+00  0.22008840280E+04  0.22008840280E+04  0.25500000920E-02 0. -1.
        2   -1    0    0  501    0  0.00000000000E+00  0.00000000000E+00 -0.17495055343E+04  0.17495055343E+04  0.25500000920E-02 0.  1.
    10030    2    1    2    0    0  0.00000000000E+00  0.00000000000E+00  0.45137849367E+03  0.39503895623E+04  0.39245171868E+04 0.  0.
        1    1    3    3  502    0  0.14872697408E+04  0.71765317922E+03  0.12926114948E+04  0.20971032030E+04  0.50400001928E-02 0.  1.
       -1    1    3    3    0  502 -0.14872697408E+04 -0.71765317922E+03 -0.84123300114E+03  0.18532863593E+04  0.50400001928E-02 0. -1.
</event>
<event>
 5   0  0.1506865E-06  0.1926110E+04  0.7818609E-02  0.8641968E-01
        2   -1    0    0  501    0  0.00000000000E+00  0.00000000000E+00  0.18264551408E+04  0.18264551408E+04  0.25500000920E-02 0. -1.
       -2   -1    0    0    0  501  0.00000000000E+00  0.00000000000E+00 -0.50780042814E+03  0.50780042815E+03  0.25500000920E-02 0.  1.
    10030    2    1    2    0    0  0.00000000000E+00  0.00000000000E+00  0.13186547126E+04  0.23342555689E+04  0.19261097606E+04 0.  0.
        5    1    3    3  502    0  0.37083519432E+03  0.41953355052E+03 -0.29023873483E+03  0.63070417356E+03  0.46999998093E+01 0.  1.
       -5    1    3    3    0  502 -0.37083519432E+03 -0.41953355052E+03  0.16088934475E+04  0.17035513954E+04  0.46999998093E+01 0. -1.
</event>
<event>
 5   0  0.7268013E-07  0.4168158E+04  0.7818609E-02  0.7971457E-01
       -2   -1    0    0    0  501  0.00000000000E+00  0.00000000000E+00  0.20553763975E+04  0.20553763975E+04  0.25500000920E-02 0. -1.
        2   -1    0    0  501    0  0.00000000000E+00  0.00000000000E+00 -0.21131828519E+04  0.21131828519E+04  0.25500000920E-02 0.  1.
    10030    2    1    2    0    0  0.00000000000E+00  0.00000000000E+00 -0.57806454421E+02  0.41685592495E+04  0.41681584219E+04 0.  0.
        4    1    3    3  502    0  0.13491069766E+04  0.59552212880E+03 -0.15016779612E+04  0.21047029606E+04  0.12699999809E+01 0.  1.
       -4    1    3    3    0  502 -0.13491069766E+04 -0.59552212880E+03  0.14438715068E+04  0.20638562889E+04  0.12699999809E+01 0. -1.
</event>
<event>
 5   0  0.4316671E-07  0.2287933E+04  0.7818609E-02  0.8482694E-01
       -1   -1    0    0    0  501  0.00000000000E+00  0.00000000000E+00  0.63119087628E+03  0.63119087630E+03  0.50400001928E-02 0.  1.
        1   -1    0    0  501    0  0.00000000000E+00  0.00000000000E+00 -0.20733180028E+04  0.20733180028E+04  0.50400001928E-02 0. -1.
    10030    2    1    2    0    0  0.00000000000E+00  0.00000000000E+00 -0.14421271265E+04  0.27045088791E+04  0.22879330471E+04 0.  0.
        2    1    3    3  502    0  0.73225741742E+03  0.68751718293E+03 -0.73853267603E+02  0.10071420492E+04  0.25500000920E-02 0.  1.
       -2    1    3    3    0  502 -0.73225741742E+03 -0.68751718293E+03 -0.13682738589E+04  0.16973668299E+04  0.25500000920E-02 0. -1.
</event>
<event>
 5   0  0.3977376E-07  0.2140208E+04  0.7818609E-02  0.8543735E-01
        1   -1    0    0  501    0  0.00000000000E+00  0.00000000000E+00  0.18799356744E+04  0.18799356744E+04  0.50400001928E-02 0. -1.
       -1   -1    0    0    0  501  0.00000000000E+00  0.00000000000E+00 -0.60912863096E+03  0.60912863098E+03  0.50400001928E-02 0.  1.
    10030    2    1    2    0    0  0.00000000000E+00  0.00000000000E+00  0.12708070434E+04  0.24890643054E+04  0.21402080681E+04 0.  0.
        4    1    3    3  502    0 -0.76639984618E+03 -0.64372791322E+03  0.19504720099E+03  0.10197055330E+04  0.12699999809E+01 0.  1.
       -4    1    3    3    0  502  0.76639984618E+03  0.64372791322E+03  0.10757598424E+04  0.14693587724E+04  0.12699999809E+01 0. -1.
</event>
<event>
 5   0  0.3471602E-07  0.3941252E+04  0.7818609E-02  0.8016504E-01
       -1   -1    0    0    0  501  0.00000000000E+00  0.00000000000E+00  0.18139757327E+04  0.18139757327E+04  0.50400001928E-02 0.  1.
        1   -1    0    0  501    0  0.00000000000E+00  0.00000000000E+00 -0.21408037866E+04  0.21408037866E+04  0.50400001928E-02 0. -1.
    10030    2    1    2    0    0  0.00000000000E+00  0.00000000000E+00 -0.32682805394E+03  0.39547795193E+04  0.39412516375E+04 0.  0.
        5    1    3    3  502    0  0.19142643837E+04 -0.86381188307E+02  0.29802762572E+03  0.19392556294E+04  0.46999998093E+01 0.  1.
       -5    1    3    3    0  502 -0.19142643837E+04  0.86381188307E+02 -0.62485567966E+03  0.20155238899E+04  0.46999998093E+01 0. -1.
</event>
<event>
 5   0  0.4627905E-07  0.2651844E+04  0.7818609E-02  0.8350801E-01
        1   -1    0    0  501    0  0.00000000000E+00  0.00000000000E+00  0.85763113082E+03  0.85763113084E+03  0.50400001928E-02 0.  1.
       -1   -1    0    0    0  501  0.00000000000E+00  0.00000000000E+00 -0.20499128873E+04  0.20499128873E+04  0.50400001928E-02 0. -1.
    10030    2    1    2    0    0  0.00000000000E+00  0.00000000000E+00 -0.11922817564E+04  0.29075440181E+04  0.26518439680E+04 0.  0.
        1    1    3    3  502    0 -0.32203796864E+03  0.57059769960E+03 -0.18600175451E+04  0.19720434722E+04  0.50400001928E-02 0. -1.
       -1    1    3    3    0  502  0.32203796864E+03 -0.57059769960E+03  0.66773578864E+03  0.93550054596E+03  0.50400001928E-02 0.  1.
</event>
<event>
 5   0  0.1034683E-06  0.3870676E+04  0.7818609E-02  0.8031156E-01
       -2   -1    0    0    0  501  0.00000000000E+00  0.00000000000E+00  0.14291513059E+04  0.14291513059E+04  0.25500000920E-02 0.  1.
        2   -1    0    0  501    0  0.00000000000E+00  0.00000000000E+00 -0.26208089675E+04  0.26208089675E+04  0.25500000920E-02 0. -1.
    10030    2    1    2    0    0  0.00000000000E+00  0.00000000000E+00 -0.11916576617E+04  0.40499602734E+04  0.38706756818E+04 0.  0.
        2    1    3    3  502    0 -0.91699949771E+03 -0.13018999764E+04 -0.17466371340E+04  0.23635932190E+04  0.25500000920E-02 0. -1.
       -2    1    3    3    0  502  0.91699949771E+03  0.13018999764E+04  0.55497947230E+03  0.16863670544E+04  0.25500000920E-02 0.  1.
</event>
<event>
 5   0  0.4316671E-07  0.2609857E+04  0.7818609E-02  0.8364861E-01
       -1   -1    0    0    0  501  0.00000000000E+00  0.00000000000E+00  0.22248261815E+04  0.22248261815E+04  0.50400001928E-02 0. -1.
        1   -1    0    0  501    0  0.00000000000E+00  0.00000000000E+00 -0.76538038040E+03  0.76538038042E+03  0.50400001928E-02 0.  1.
    10030    2    1    2    0    0  0.00000000000E+00  0.00000000000E+00  0.14594458011E+04  0.29902065620E+04  0.26098569380E+04 0.  0.
        2    1    3    3  502    0  0.49453039836E+03  0.92170472405E+03  0.16236453341E+04  0.19314046920E+04  0.25500000920E-02 0. -1.
       -2    1    3    3    0  502 -0.49453039836E+03 -0.92170472405E+03 -0.16419953296E+03  0.10588018700E+04  0.25500000920E-02 0.  1.
</event>
<event>
 5   0  0.5533705E-07  0.3871537E+04  0.7818609E-02  0.8030975E-01
        2   -1    0    0  501    0  0.00000000000E+00  0.00000000000E+00  0.13450025537E+04  0.13450025537E+04  0.25500000920E-02 0.  1.
       -2   -1    0    0    0  501  0.00000000000E+00  0.00000000000E+00 -0.27860162033E+04  0.27860162033E+04  0.25500000920E-02 0. -1.
    10030    2    1    2    0    0  0.00000000000E+00  0.00000000000E+00 -0.14410136496E+04  0.41310187570E+04  0.38715365984E+04 0.  0.
        1    1    3    3  502    0  0.17709353180E+03 -0.96706412360E+03  0.10587756998E+04  0.14448464004E+04  0.50400001928E-02 0.  1.
       -1    1    3    3    0  502 -0.17709353180E+03  0.96706412360E+03 -0.24997893494E+04  0.26861723566E+04  0.50400001928E-02 0. -1.
</event>
<event>
 5   0  0.7268013E-07  0.1971429E+04  0.7818609E-02  0.8620096E-01
        2   -1    0    0  501    0  0.00000000000E+00  0.00000000000E+00  0.12277983904E+04  0.12277983904E+04  0.25500000920E-02 0. -1.
       -2   -1    0    0    0  501  0.00000000000E+00  0.00000000000E+00 -0.79136239776E+03  0.79136239776E+03  0.25500000920E-02 0.  1.
    10030    2    1    2    0    0  0.00000000000E+00  0.00000000000E+00  0.43643599268E+03  0.20191607882E+04  0.19714294086E+04 0.  0.
        4    1    3    3  502    0 -0.66606241576E+03 -0.60133099653E+03 -0.19957214324E+03  0.91927621656E+03  0.12699999809E+01 0.  1.
       -4    1    3    3    0  502  0.66606241576E+03  0.60133099653E+03  0.63600813592E+03  0.10998845716E+04  0.12699999809E+01 0. -1.
</event>
<event>
 5   0  0.7756968E-07  0.2000745E+04  0.7818609E-02  0.8606272E-01
        1   -1    0    0  501    0  0.00000000000E+00  0.00000000000E+00  0.10455203062E+04  0.10455203062E+04  0.50400001928E-02 0. -1.
       -1   -1    0    0    0  501  0.00000000000E+00  0.00000000000E+00 -0.95717428701E+03  0.95717428702E+03  0.50400001928E-02 0.  1.
    10030    2    1    2    0    0  0.00000000000E+00  0.00000000000E+00  0.88346019215E+02  0.20026945933E+04  0.20007450149E+04 0.  0.
        1    1    3    3  502    0  0.25571087700E+03  0.14694717309E+03 -0.91266829772E+03  0.95913760534E+03  0.50400001928E-02 0.  1.
       -1    1    3    3    0  502 -0.25571087700E+03 -0.14694717309E+03  0.10010143169E+04  0.10435569879E+04  0.50400001928E-02 0. -1.
</event>
<event>
 5   0  0.1015219E-06  0.3853949E+04  0.7818609E-02  0.8034676E-01
       -2   -1    0    0    0  501  0.00000000000E+00  0.00000000000E+00  0.28436553033E+04  0.28436553033E+04  0.25500000920E-02 0. -1.
        2   -1    0    0  501    0  0.00000000000E+00  0.00000000000E+00 -0.13057948581E+04  0.13057948581E+04  0.25500000920E-02 0.  1.
    10030    2    1    2    0    0  0.00000000000E+00  0.00000000000E+00  0.15378604452E+04  0.41494501614E+04  0.38539488701E+04 0.  0.
        3    1    3    3  502    0  0.65759208303E+03 -0.86293157246E+03  0.24835675024E+04  0.27102003239E+04  0.10100000352E+00 0. -1.
       -3    1    3    3    0  502 -0.65759208303E+03  0.86293157246E+03 -0.94570705726E+03  0.14392498375E+04  0.10100000352E+00 0.  1.
</event>
<event>
 5   0  0.5533705E-07  0.3874582E+04  0.7818609E-02  0.8030337E-01
       -2   -1    0    0    0  501  0.00000000000E+00  0.00000000000E+00  0.15226543870E+04  0.15226543870E+04  0.25500000920E-02 0.  1.
        2   -1    0    0  501    0  0.00000000000E+00  0.00000000000E+00 -0.24648374145E+04  0.24648374145E+04  0.25500000920E-02 0. -1.
    10030    2    1    2    0    0  0.00000000000E+00  0.00000000000E+00 -0.94218302747E+03  0.39874918014E+04  0.38745815270E+04 0.  0.
        1    1    3    3  502    0  0.15756878533E+04  0.44509277872E+03 -0.15367352392E+04  0.22455411348E+04  0.50400001928E-02 0. -1.
       -1    1    3    3    0  502 -0.15756878533E+04 -0.44509277872E+03  0.59455221172E+03  0.17419506667E+04  0.50400001928E-02 0.  1.
</event>
<event>
 5   0  0.5533705E-07  0.3729453E+04  0.7818609E-02  0.8061466E-01
       -2   -1    0    0    0  501  0.00000000000E+00  0.00000000000E+00  0.14565514761E+04  0.14565514761E+04  0.25500000920E-02 0. -1.
        2   -1    0    0  501    0  0.00000000000E+00  0.00000000000E+00 -0.23872861299E+04  0.23872861300E+04  0.25500000920E-02 0.  1.
    10030    2    1    2    0    0  0.00000000000E+00  0.00000000000E+00 -0.93073465381E+03  0.38438376061E+04  0.37294531162E+04 0.  0.
        1    1    3    3  502    0  0.92946144863E+03 -0.37996822552E+03  0.11541079761E+04  0.15297841866E+04  0.50400001928E-02 0. -1.
       -1    1    3    3    0  502 -0.92946144863E+03  0.37996822552E+03 -0.20848426299E+04  0.23140534195E+04  0.50400001928E-02 0.  1.
</event>
<event>
 5   0  0.3977376E-07  0.3280301E+04  0.7818609E-02  0.8167926E-01
       -1   -1    0    0    0  501  0.00000000000E+00  0.00000000000E+00  0.17949773901E+04  0.17949773901E+04  0.50400001928E-02 0.  1.
        1   -1    0    0  501    0  0.00000000000E+00  0.00000000000E+00 -0.14986783076E+04  0.14986783076E+04  0.50400001928E-02 0. -1.
    10030    2    1    2    0    0  0.00000000000E+00  0.00000000000E+00  0.29629908247E+03  0.32936556977E+04  0.32803010088E+04 0.  0.
        4    1    3    3  502    0 -0.42999104667E+03  0.13401438110E+04  0.99372671698E+03  0.17228964378E+04  0.12699999809E+01 0.  1.
       -4    1    3    3    0  502  0.42999104667E+03 -0.13401438110E+04 -0.69742763452E+03  0.15707592599E+04  0.12699999809E+01 0. -1.
</event>
<event>
 5   0  0.1035864E-06  0.2271098E+04  0.7818609E-02  0.8489405E-01
       -2   -1    0    0    0  501  0.00000000000E+00  0.00000000000E+00  0.12329195462E+04  0.12329195462E+04  0.25500000920E-02 0. -1.
        2   -1    0    0  501    0  0.00000000000E+00  0.00000000000E+00 -0.10458678923E+04  0.10458678923E+04  0.25500000920E-02 0.  1.
    10030    2    1    2    0    0  0.00000000000E+00  0.00000000000E+00  0.18705165390E+03  0.22787874385E+04  0.22710975032E+04 0.  0.
        5    1    3    3  502    0  0.21530949131E+03  0.99993301792E+03 -0.40132219583E+03  0.10987746867E+04  0.46999998093E+01 0.  1.
       -5    1    3    3    0  502 -0.21530949131E+03 -0.99993301792E+03  0.58837384973E+03  0.11800127518E+04  0.46999998093E+01 0. -1.
</event>
<event>
 5   0  0.5533705E-07  0.3840551E+04  0.7818609E-02  0.8037508E-01
        2   -1    0    0  501    0  0.00000000000E+00  0.00000000000E+00  0.14752767413E+04  0.14752767413E+04  0.25500000920E-02 0. -1.
       -2   -1    0    0    0  501  0.00000000000E+00  0.00000000000E+00 -0.24995019719E+04  0.24995019719E+04  0.25500000920E-02 0.  1.
    10030    2    1    2    0    0  0.00000000000E+00  0.00000000000E+00 -0.10242252307E+04  0.39747787132E+04  0.38405505460E+04 0.  0.
        1    1    3    3  502    0  0.12487745145E+04  0.13360788742E+04 -0.11181664139E+04  0.21435579477E+04  0.50400001928E-02 0.  1.
       -1    1    3    3    0  502 -0.12487745145E+04 -0.13360788742E+04  0.93941183236E+02  0.18312207655E+04  0.50400001928E-02 0. -1.
</event>
<event>
 5   0  0.5533705E-07  0.2514985E+04  0.7818609E-02  0.8397666E-01
        2   -1    0    0  501    0  0.00000000000E+00  0.00000000000E+00  0.11685483181E+04  0.11685483181E+04  0.25500000920E-02 0. -1.
       -2   -1    0    0    0  501  0.00000000000E+00  0.00000000000E+00 -0.13532065937E+04  0.13532065937E+04  0.25500000920E-02 0.  1.
    10030    2    1    2    0    0  0.00000000000E+00  0.00000000000E+00 -0.18465827560E+03  0.25217549118E+04  0.25149849217E+04 0.  0.
        1    1    3    3  502    0  0.32000298139E+02  0.14771137273E+03 -0.13440663890E+04  0.13525372922E+04  0.50400001928E-02 0.  1.
       -1    1    3    3    0  502 -0.32000298139E+02 -0.14771137273E+03  0.11594081134E+04  0.11692176197E+04  0.50400001928E-02 0. -1.
</event>
<event>
 5   0  0.3471602E-07  0.2905739E+04  0.7818609E-02  0.8271172E-01
        1   -1    0    0  501    0  0.00000000000E+00  0.00000000000E+00  0.12913450018E+04  0.12913450019E+04  0.50400001928E-02 0.  1.
       -1   -1    0    0    0  501  0.00000000000E+00  0.00000000000E+00 -0.16345976786E+04  0.16345976786E+04  0.50400001928E-02 0. -1.
    10030    2    1    2    0    0  0.00000000000E+00  0.00000000000E+00 -0.34325267678E+03  0.29259426805E+04  0.29057388337E+04 0.  0.
        5    1    3    3  502    0  0.47435972072E+03 -0.12289546804E+04  0.44538263468E+03  0.13905878370E+04  0.46999998093E+01 0.  1.
       -5    1    3    3    0  502 -0.47435972072E+03  0.12289546804E+04 -0.78863531146E+03  0.15353548435E+04  0.46999998093E+01 0. -1.
</event>
<event>
 5   0  0.5533705E-07  0.2708348E+04  0.7818609E-02  0.8332301E-01
       -2   -1    0    0    0  501  0.00000000000E+00  0.00000000000E+00  0.94996532848E+03  0.94996532848E+03  0.25500000920E-02 0.  1.
        2   -1    0    0  501    0  0.00000000000E+00  0.00000000000E+00 -0.19303734206E+04  0.19303734206E+04  0.25500000920E-02 0. -1.
    10030    2    1    2    0    0  0.00000000000E+00  0.00000000000E+00 -0.98040809208E+03  0.28803387490E+04  0.27083484418E+04 0.  0.
        1    1    3    3  502    0 -0.10968885236E+04  0.79384252394E+03 -0.51244716015E+03  0.14477404733E+04  0.50400001928E-02 0. -1.
       -1    1    3    3    0  502  0.10968885236E+04 -0.79384252394E+03 -0.46796093193E+03  0.14325982758E+04  0.50400001928E-02 0.  1.
</event>
<event>
 5   0  0.4316671E-07  0.2881190E+04  0.7818609E-02  0.8278496E-01
       -1   -1    0    0    0  501  0.00000000000E+00  0.00000000000E+00  0.14452509076E+04  0.14452509076E+04  0.50400001928E-02 0. -1.
        1   -1    0    0  501    0  0.00000000000E+00  0.00000000000E+00 -0.14359540381E+04  0.14359540381E+04  0.50400001928E-02 0.  1.
    10030    2    1    2    0    0  0.00000000000E+00  0.00000000000E+00  0.92968695712E+01  0.28812049457E+04  0.28811899464E+04 0.  0.
        2    1    3    3  502    0  0.62759265340E+03  0.64177403249E+03 -0.11221082595E+04  0.14369667336E+04  0.25500000920E-02 0.  1.
       -2    1    3    3    0  502 -0.62759265340E+03 -0.64177403249E+03  0.11314051291E+04  0.14442382121E+04  0.25500000920E-02 0. -1.
</event>
<event>
 5   0  0.4316671E-07  0.3662888E+04  0.7818609E-02  0.8076236E-01
        1   -1    0    0  501    0  0.00000000000E+00  0.00000000000E+00  0.16383069303E+04  0.16383069303E+04  0.50400001928E-02 0.  1.
       -1   -1    0    0    0  501  0.00000000000E+00  0.00000000000E+00 -0.20473501189E+04  0.20473501189E+04  0.50400001928E-02 0. -1.
    10030    2    1    2    0    0  0.00000000000E+00  0.00000000000E+00 -0.40904318859E+03  0.36856570492E+04  0.36628884168E+04 0.  0.
        2    1    3    3  502    0  0.64217586881E+02  0.48907921052E+03  0.15702066095E+04  0.16458648696E+04  0.25500000920E-02 0.  1.
       -2    1    3    3    0  502 -0.64217586881E+02 -0.48907921052E+03 -0.19792497981E+04  0.20397921796E+04  0.25500000920E-02 0. -1.
</event>
<event>
 5   0  0.5533705E-07  0.3776888E+04  0.7818609E-02  0.8051133E-01
       -2   -1    0    0    0  501  0.00000000000E+00  0.00000000000E+00  0.11756722585E+04  0.11756722585E+04  0.25500000920E-02 0.  1.
        2   -1    0    0  501    0  0.00000000000E+00  0.00000000000E+00 -0.30333454060E+04  0.30333454060E+04  0.25500000920E-02 0. -1.
    10030    2    1    2    0    0  0.00000000000E+00  0.00000000000E+00 -0.18576731475E+04  0.42090176645E+04  0.37768876310E+04 0.  0.
        1    1    3    3  502    0  0.12126047526E+04 -0.11403804141E+04  0.65020004181E+02  0.16658647531E+04  0.50400001928E-02 0.  1.
       -1    1    3    3    0  502 -0.12126047526E+04  0.11403804141E+04 -0.19226931517E+04  0.25431529113E+04  0.50400001928E-02 0. -1.
</event>
<event>
 5   0  0.3471602E-07  0.3943187E+04  0.7818609E-02  0.8016107E-01
       -1   -1    0    0    0  501  0.00000000000E+00  0.00000000000E+00  0.21693903917E+04  0.21693903917E+04  0.50400001928E-02 0. -1.
        1   -1    0    0  501    0  0.00000000000E+00  0.00000000000E+00 -0.17918309823E+04  0.17918309823E+04  0.50400001928E-02 0.  1.
    10030    2    1    2    0    0  0.00000000000E+00  0.00000000000E+00  0.37755940946E+03  0.39612213740E+04  0.39431869936E+04 0.  0.
        5    1    3    3  502    0 -0.12112920075E+04 -0.14800310132E+04 -0.29240861505E+03  0.19347467575E+04  0.46999998093E+01 0.  1.
       -5    1    3    3    0  502  0.12112920075E+04  0.14800310132E+04  0.66996802451E+03  0.20264746165E+04  0.46999998093E+01 0. -1.
</event>
<event>
 5   0  0.3977376E-07  0.4299035E+04  0.7818609E-02  0.7946797E-01
        1   -1    0    0  501    0  0.00000000000E+00  0.00000000000E+00  0.15067309887E+04  0.15067309888E+04  0.50400001928E-02 0. -1.
       -1   -1    0    0    0  501  0.00000000000E+00  0.00000000000E+00 -0.30665235483E+04  0.30665235483E+04  0.50400001928E-02 0.  1.
    10030    2    1    2    0    0  0.00000000000E+00  0.00000000000E+00 -0.15597925596E+04  0.45732545371E+04  0.42990352676E+04 0.  0.
        4    1    3    3  502    0  0.58961366977E+03 -0.18005506910E+04 -0.18599392086E+04  0.26549957708E+04  0.12699999809E+01 0.  1.
       -4    1    3    3    0  502 -0.58961366977E+03  0.18005506910E+04  0.30014664899E+03  0.19182587663E+04  0.12699999809E+01 0. -1.
</event>
<event>
 5   0  0.4316671E-07  0.2360083E+04  0.7818609E-02  0.8454601E-01
        1   -1    0    0  501    0  0.00000000000E+00  0.00000000000E+00  0.14808777053E+04  0.14808777053E+04  0.50400001928E-02 0. -1.
       -1   -1    0    0    0  501  0.00000000000E+00  0.00000000000E+00 -0.94031920417E+03  0.94031920418E+03  0.50400001928E-02 0.  1.
    10030    2    1    2    0    0  0.00000000000E+00  0.00000000000E+00  0.54055850114E+03  0.24211969095E+04  0.23600828336E+04 0.  0.
        2    1    3    3  502    0  0.23638896060E+02  0.84276628788E+03  0.11173006713E+04  0.13997051845E+04  0.25500000920E-02 0. -1.
       -2    1    3    3    0  502 -0.23638896060E+02 -0.84276628788E+03 -0.57674217017E+03  0.10214917250E+04  0.25500000920E-02 0.  1.
</event>
<event>
 5   0  0.1034683E-06  0.2129990E+04  0.7818609E-02  0.8548146E-01
       -2   -1    0    0    0  501  0.00000000000E+00  0.00000000000E+00  0.23473091800E+04  0.23473091800E+04  0.25500000920E-02 0. -1.
        2   -1    0    0  501    0  0.00000000000E+00  0.00000000000E+00 -0.48319772541E+03  0.48319772542E+03  0.25500000920E-02 0.  1.
    10030    2    1    2    0    0  0.00000000000E+00  0.00000000000E+00  0.18641114546E+04  0.28305069054E+04  0.21299901001E+04 0.  0.
        2    1    3    3  502    0 -0.20460750647E+03 -0.14754623509E+03 -0.44292390322E+03  0.50972120541E+03  0.25500000920E-02 0.  1.
       -2    1    3    3    0  502  0.20460750647E+03  0.14754623509E+03  0.23070353578E+04  0.23207857000E+04  0.25500000920E-02 0. -1.
</event>
<event>
 5   0  0.1034683E-06  0.1936849E+04  0.7818609E-02  0.8636728E-01
       -2   -1    0    0    0  501  0.00000000000E+00  0.00000000000E+00  0.56275522379E+03  0.56275522380E+03  0.25500000920E-02 0. -1.
        2   -1    0    0  501    0  0.00000000000E+00  0.00000000000E+00 -0.16665265001E+04  0.16665265001E+04  0.25500000920E-02 0.  1.
    10030    2    1    2    0    0  0.00000000000E+00  0.00000000000E+00 -0.11037712763E+04  0.22292817239E+04  0.19368494970E+04 0.  0.
        2    1    3    3  502    0  0.55835555470E+03  0.31330309786E+03 -0.13881737231E+04  0.15287073108E+04  0.25500000920E-02 0.  1.
       -2    1    3    3    0  502 -0.55835555470E+03 -0.31330309786E+03  0.28440244677E+03  0.70057441312E+03  0.25500000920E-02 0. -1.
</event>
<event>
 5   0  0.1034683E-06  0.2138725E+04  0.7818609E-02  0.8544374E-01
        2   -1    0    0  501    0  0.00000000000E+00  0.00000000000E+00  0.90932787010E+03  0.90932787010E+03  0.25500000920E-02 0. -1.
       -2   -1    0    0    0  501  0.00000000000E+00  0.00000000000E+00 -0.12575614514E+04  0.12575614514E+04  0.25500000920E-02 0.  1.
    10030    2    1    2    0    0  0.00000000000E+00  0.00000000000E+00 -0.34823358132E+03  0.21668893215E+04  0.21387245509E+04 0.  0.
        2    1    3    3  502    0 -0.16827530458E+03  0.99351176104E+03  0.18858280739E+03  0.10251564138E+04  0.25500000920E-02 0. -1.
       -2    1    3    3    0  502  0.16827530458E+03 -0.99351176104E+03 -0.53681638871E+03  0.11417329078E+04  0.25500000920E-02 0.  1.
</event>
<event>
 5   0  0.1035864E-06  0.2073672E+04  0.7818609E-02  0.8572931E-01
       -2   -1    0    0    0  501  0.00000000000E+00  0.00000000000E+00  0.20157738530E+04  0.20157738530E+04  0.25500000920E-02 0. -1.
        2   -1    0    0  501    0  0.00000000000E+00  0.00000000000E+00 -0.53330831085E+03  0.53330831086E+03  0.25500000920E-02 0.  1.
    10030    2    1    2    0    0  0.00000000000E+00  0.00000000000E+00  0.14824655422E+04  0.25490821639E+04  0.20736720557E+04 0.  0.
        5    1    3    3  502    0 -0.89344525439E+03  0.44663463987E+03  0.39950747249E+03  0.10758044593E+04  0.46999998093E+01 0.  1.
       -5    1    3    3    0  502  0.89344525439E+03 -0.44663463987E+03  0.10829580697E+04  0.14732777046E+04  0.46999998093E+01 0. -1.
</event>
<event>
 5   0  0.4316671E-07  0.2006472E+04  0.7818609E-02  0.8603601E-01
       -1   -1    0    0    0  501  0.00000000000E+00  0.00000000000E+00  0.99314382819E+03  0.99314382821E+03  0.50400001928E-02 0. -1.
        1   -1    0    0  501    0  0.00000000000E+00  0.00000000000E+00 -0.10134305589E+04  0.10134305589E+04  0.50400001928E-02 0.  1.
    10030    2    1    2    0    0  0.00000000000E+00  0.00000000000E+00 -0.20286730711E+02  0.20065743871E+04  0.20064718337E+04 0.  0.
        2    1    3    3  502    0 -0.96204750950E+03  0.16726247915E+03  0.22002086366E+03  0.10009602030E+04  0.25500000920E-02 0. -1.
       -2    1    3    3    0  502  0.96204750950E+03 -0.16726247915E+03 -0.24030759437E+03  0.10056141842E+04  0.25500000920E-02 0.  1.
</event>
<event>
 5   0  0.5385714E-07  0.3838393E+04  0.7818609E-02  0.8037966E-01
        1   -1    0    0  501    0  0.00000000000E+00  0.00000000000E+00  0.20305961555E+04  0.20305961555E+04  0.50400001928E-02 0.  1.
       -1   -1    0    0    0  501  0.00000000000E+00  0.00000000000E+00 -0.18139087417E+04  0.18139087417E+04  0.50400001928E-02 0. -1.
    10030    2    1    2    0    0  0.00000000000E+00  0.00000000000E+00  0.21668741381E+03  0.38445048973E+04  0.38383934751E+04 0.  0.
        3    1    3    3  502    0 -0.44055355246E+03  0.16644644004E+04  0.95750661007E+03  0.19701137255E+04  0.10100000352E+00 0.  1.
       -3    1    3    3    0  502  0.44055355246E+03 -0.16644644004E+04 -0.74081919626E+03  0.18743911717E+04  0.10100000352E+00 0. -1.
</event>
<event>
 5   0  0.1906285E-06  0.2024300E+04  0.7818609E-02  0.8595343E-01
        2   -1    0    0  501    0  0.00000000000E+00  0.00000000000E+00  0.14250042033E+04  0.14250042033E+04  0.25500000920E-02 0.  1.
       -2   -1    0    0    0  501  0.00000000000E+00  0.00000000000E+00 -0.71890844328E+03  0.71890844328E+03  0.25500000920E-02 0. -1.
    10030    2    1    2    0    0  0.00000000000E+00  0.00000000000E+00  0.70609576003E+03  0.21439126466E+04  0.20242999318E+04 0.  0.
        3    1    3    3  502    0 -0.39090386421E+03  0.22060903685E+03  0.13138304496E+04  0.13883892245E+04  0.10100000352E+00 0.  1.
       -3    1    3    3    0  502  0.39090386421E+03 -0.22060903685E+03 -0.60773468958E+03  0.75552342209E+03  0.10100000352E+00 0. -1.
</event>
<event>
 5   0  0.4316671E-07  0.3967232E+04  0.7818609E-02  0.8011190E-01
        1   -1    0    0  501    0  0.00000000000E+00  0.00000000000E+00  0.23833059716E+04  0.23833059716E+04  0.50400001928E-02 0.  1.
       -1   -1    0    0    0  501  0.00000000000E+00  0.00000000000E+00 -0.16509553236E+04  0.16509553236E+04  0.50400001928E-02 0. -1.
    10030    2    1    2    0    0  0.00000000000E+00  0.00000000000E+00  0.73235064799E+03  0.40342612952E+04  0.39672316199E+04 0.  0.
        2    1    3    3  502    0 -0.18096963279E+03  0.47344185206E+03 -0.15839950621E+04  0.16631108057E+04  0.25500000920E-02 0. -1.
       -2    1    3    3    0  502  0.18096963279E+03 -0.47344185206E+03  0.23163457101E+04  0.23711504895E+04  0.25500000920E-02 0.  1.
</event>
<event>
 5   0  0.1015219E-06  0.2013811E+04  0.7818609E-02  0.8600191E-01
        2   -1    0    0  501    0  0.00000000000E+00  0.00000000000E+00  0.11858389129E+04  0.11858389129E+04  0.25500000920E-02 0.  1.
       -2   -1    0    0    0  501  0.00000000000E+00  0.00000000000E+00 -0.85497197893E+03  0.85497197893E+03  0.25500000920E-02 0. -1.
    10030    2    1    2    0    0  0.00000000000E+00  0.00000000000E+00  0.33086693396E+03  0.20408108918E+04  0.20138113537E+04 0.  0.
        3    1    3    3  502    0  0.52649230593E+02  0.52263866423E+03  0.10359826312E+04  0.11615434288E+04  0.10100000352E+00 0.  1.
       -3    1    3    3    0  502 -0.52649230593E+02 -0.52263866423E+03 -0.70511569719E+03  0.87926746298E+03  0.10100000352E+00 0. -1.
</event>
<event>
 5   0  0.3977376E-07  0.3921378E+04  0.7818609E-02  0.8020598E-01
        1   -1    0    0  501    0  0.00000000000E+00  0.00000000000E+00  0.18331383475E+04  0.18331383475E+04  0.50400001928E-02 0.  1.
       -1   -1    0    0    0  501  0.00000000000E+00  0.00000000000E+00 -0.20971143028E+04  0.20971143028E+04  0.50400001928E-02 0. -1.
    10030    2    1    2    0    0  0.00000000000E+00  0.00000000000E+00 -0.26397595529E+03  0.39302526503E+04  0.39213776393E+04 0.  0.
        4    1    3    3  502    0 -0.43441082623E+03 -0.17368194545E+04  0.66922381955E+03  0.19113128255E+04  0.12699999809E+01 0.  1.
       -4    1    3    3    0  502  0.43441082623E+03  0.17368194545E+04 -0.93319977485E+03  0.20189398248E+04  0.12699999809E+01 0. -1.
</event>
<event>
 5   0  0.3191750E-07  0.2378894E+04  0.7818609E-02  0.8447448E-01
       -3   -1    0    0    0  501  0.00000000000E+00  0.00000000000E+00  0.75168694282E+03  0.75168694960E+03  0.10100000352E+00 0. -1.
        3   -1    0    0  501    0  0.00000000000E+00  0.00000000000E+00 -0.18821449177E+04  0.18821449204E+04  0.10100000352E+00 0.  1.
    10030    2    1    2    0    0  0.00000000000E+00  0.00000000000E+00 -0.11304579749E+04  0.26338318700E+04  0.23788936686E+04 0.  0.
        1    1    3    3  502    0  0.55370971286E+03  0.10254434072E+04 -0.82876058348E+03  0.14300254306E+04  0.50400001928E-02 0.  1.
       -1    1    3    3    0  502 -0.55370971286E+03 -0.10254434072E+04 -0.30169739140E+03  0.12038064394E+04  0.50400001928E-02 0. -1.
</event>
<event>
 5   0  0.5385714E-07  0.3857107E+04  0.7818609E-02  0.8034010E-01
        1   -1    0    0  501    0  0.00000000000E+00  0.00000000000E+00  0.13397993108E+04  0.13397993108E+04  0.50400001928E-02 0. -1.
       -1   -1    0    0    0  501  0.00000000000E+00  0.00000000000E+00 -0.27760264732E+04  0.27760264732E+04  0.50400001928E-02 0.  1.
    10030    2    1    2    0    0  0.00000000000E+00  0.00000000000E+00 -0.14362271625E+04  0.41158257840E+04  0.38571068720E+04 0.  0.
        3    1    3    3  502    0  0.17448854885E+04 -0.79567309609E+03 -0.93574815553E+03  0.21338569925E+04  0.10100000352E+00 0. -1.
       -3    1    3    3    0  502 -0.17448854885E+04  0.79567309609E+03 -0.50047900694E+03  0.19819687915E+04  0.10100000352E+00 0.  1.
</event>
<event>
 5   0  0.4627905E-07  0.2075219E+04  0.7818609E-02  0.8572239E-01
        1   -1    0    0  501    0  0.00000000000E+00  0.00000000000E+00  0.13837420022E+04  0.13837420022E+04  0.50400001928E-02 0.  1.
       -1   -1    0    0    0  501  0.00000000000E+00  0.00000000000E+00 -0.77805949146E+03  0.77805949148E+03  0.50400001928E-02 0. -1.
    10030    2    1    2    0    0  0.00000000000E+00  0.00000000000E+00  0.60568251075E+03  0.21618014937E+04  0.20752191196E+04 0.  0.
        1    1    3    3  502    0  0.53183137171E+03  0.83095553706E+03  0.63765708140E+03  0.11747077364E+04  0.50400001928E-02 0.  1.
       -1    1    3    3    0  502 -0.53183137171E+03 -0.83095553706E+03 -0.31974570645E+02  0.98709375729E+03  0.50400001928E-02 0. -1.
</event>
<event>
 5   0  0.7268013E-07  0.3935289E+04  0.7818609E-02  0.8017729E-01
        2   -1    0    0  501    0  0.00000000000E+00  0.00000000000E+00  0.16239225996E+04  0.16239225996E+04  0.25500000920E-02 0. -1.
       -2   -1    0    0    0  501  0.00000000000E+00  0.00000000000E+00 -0.23841195832E+04  0.23841195832E+04  0.25500000920E-02 0.  1.
    10030    2    1    2    0    0  0.00000000000E+00  0.00000000000E+00 -0.76019698357E+03  0.40080421828E+04  0.39352894030E+04 0.  0.
        4    1    3    3  502    0 -0.31249847092E+02  0.12799025451E+04  0.11416786194E+04  0.17153888074E+04  0.12699999809E+01 0. -1.
       -4    1    3    3    0  502  0.31249847092E+02 -0.12799025451E+04 -0.19018756029E+04  0.22926533754E+04  0.12699999809E+01 0.  1.
</event>
<event>
 5   0  0.1034683E-06  0.3901949E+04  0.7818609E-02  0.8024624E-01
        2   -1    0    0  501    0  0.00000000000E+00  0.00000000000E+00  0.19856884395E+04  0.19856884395E+04  0.25500000920E-02 0. -1.
       -2   -1    0    0    0  501  0.00000000000E+00  0.00000000000E+00 -0.19168674382E+04  0.19168674382E+04  0.25500000920E-02 0.  1.
    10030    2    1    2    0    0  0.00000000000E+00  0.00000000000E+00  0.68821001321E+02  0.39025558778E+04  0.39019490064E+04 0.  0.
        2    1    3    3  502    0 -0.36837823053E+03 -0.17400261809E+04 -0.76752957206E+03  0.19371358432E+04  0.25500000920E-02 0.  1.
       -2    1    3    3    0  502  0.36837823053E+03  0.17400261809E+04  0.83635057338E+03  0.19654200346E+04  0.25500000920E-02 0. -1.
</event>
<event>
 5   0  0.5385714E-07  0.3956872E+04  0.7818609E-02  0.8013304E-01
        1   -1    0    0  501    0  0.00000000000E+00  0.00000000000E+00  0.23169948083E+04  0.23169948083E+04  0.50400001928E-02 0.  1.
       -1   -1    0    0    0  501  0.00000000000E+00  0.00000000000E+00 -0.16893472305E+04  0.16893472305E+04  0.50400001928E-02 0. -1.
    10030    2    1    2    0    0  0.00000000000E+00  0.00000000000E+00  0.62764757785E+03  0.40063420388E+04  0.39568718769E+04 0.  0.
        3    1    3    3  502    0  0.18864929581E+04  0.53524115308E+03  0.57953569349E+03  0.20447983772E+04  0.10100000352E+00 0.  1.
       -3    1    3    3    0  502 -0.18864929581E+04 -0.53524115308E+03  0.48111884356E+02  0.19615436617E+04  0.10100000352E+00 0. -1.
</event>
<event>
 5   0  0.5533705E-07  0.3555878E+04  0.7818609E-02  0.8100674E-01
       -2   -1    0    0    0  501  0.00000000000E+00  0.00000000000E+00  0.11145149055E+04  0.11145149055E+04  0.25500000920E-02 0.  1.
        2   -1    0    0  501    0  0.00000000000E+00  0.00000000000E+00 -0.28362714877E+04  0.28362714877E+04  0.25500000920E-02 0. -1.
    10030    2    1    2    0    0  0.00000000000E+00  0.00000000000E+00 -0.17217565822E+04  0.39507863932E+04  0.35558778657E+04 0.  0.
        1    1    3    3  502    0 -0.64500837965E+03 -0.13173602261E+04  0.25549617538E+03  0.14888761100E+04  0.50400001928E-02 0. -1.
       -1    1    3    3    0  502  0.64500837965E+03  0.13173602261E+04 -0.19772527576E+04  0.24619102832E+04  0.50400001928E-02 0.  1.
</event>
<event>
 5   0  0.3977376E-07  0.3872326E+04  0.7818609E-02  0.8030810E-01
        1   -1    0    0  501    0  0.00000000000E+00  0.00000000000E+00  0.22527799003E+04  0.22527799003E+04  0.50400001928E-02 0.  1.
       -1   -1    0    0    0  501  0.00000000000E+00  0.00000000000E+00 -0.16640448421E+04  0.16640448421E+04  0.50400001928E-02 0. -1.
    10030    2    1    2    0    0  0.00000000000E+00  0.00000000000E+00  0.58873505824E+03  0.39168247424E+04  0.38723257990E+04 0.  0.
        4    1    3    3  502    0  0.73384253640E+03  0.17479043660E+04  0.69263147428E+03  0.20182751331E+04  0.12699999809E+01 0.  1.
       -4    1    3    3    0  502 -0.73384253640E+03 -0.17479043660E+04 -0.10389641603E+03  0.18985496093E+04  0.12699999809E+01 0. -1.
</event>
<event>
 5   0  0.4316671E-07  0.3924438E+04  0.7818609E-02  0.8019966E-01
        1   -1    0    0  501    0  0.00000000000E+00  0.00000000000E+00  0.18537418446E+04  0.18537418446E+04  0.50400001928E-02 0. -1.
       -1   -1    0    0    0  501  0.00000000000E+00  0.00000000000E+00 -0.20770441640E+04  0.20770441640E+04  0.50400001928E-02 0.  1.
    10030    2    1    2    0    0  0.00000000000E+00  0.00000000000E+00 -0.22330231941E+03  0.39307860085E+04  0.39244381406E+04 0.  0.
        2    1    3    3  502    0  0.81379729209E+03  0.14589931404E+04 -0.11425762622E+04  0.20239583818E+04  0.25500000920E-02 0.  1.
       -2    1    3    3    0  502 -0.81379729209E+03 -0.14589931404E+04  0.91927394274E+03  0.19068276268E+04  0.25500000920E-02 0. -1.
</event>
<event>
 5   0  0.3471602E-07  0.1918998E+04  0.7818609E-02  0.8645457E-01
        1   -1    0    0  501    0  0.00000000000E+00  0.00000000000E+00  0.86593676833E+03  0.86593676835E+03  0.50400001928E-02 0.  1.
       -1   -1    0    0    0  501  0.00000000000E+00  0.00000000000E+00 -0.10631702397E+04  0.10631702397E+04  0.50400001928E-02 0. -1.
    10030    2    1    2    0    0  0.00000000000E+00  0.00000000000E+00 -0.19723347135E+03  0.19291070080E+04  0.19189978651E+04 0.  0.
        5    1    3    3  502    0  0.47563658519E+03  0.49272457480E+03  0.57694159496E+03  0.89548387019E+03  0.46999998093E+01 0.  1.
       -5    1    3    3    0  502 -0.47563658519E+03 -0.49272457480E+03 -0.77417506631E+03  0.10336231378E+04  0.46999998093E+01 0. -1.
</event>
<event>
 5   0  0.5533705E-07  0.2047701E+04  0.7818609E-02  0.8584638E-01
        2   -1    0    0  501    0  0.00000000000E+00  0.00000000000E+00  0.16288562013E+04  0.16288562013E+04  0.25500000920E-02 0.  1.
       -2   -1    0    0    0  501  0.00000000000E+00  0.00000000000E+00 -0.64356167892E+03  0.64356167892E+03  0.25500000920E-02 0. -1.
    10030    2    1    2    0    0  0.00000000000E+00  0.00000000000E+00  0.98529452235E+03  0.22724178802E+04  0.20477005949E+04 0.  0.
        1    1    3    3  502    0  0.22693341378E+03 -0.91326759343E+03  0.94029130908E+03  0.13303023030E+04  0.50400001928E-02 0.  1.
       -1    1    3    3    0  502 -0.22693341378E+03  0.91326759343E+03  0.45003213271E+02  0.94211557716E+03  0.50400001928E-02 0. -1.
</event>
<event>
 5   0  0.3977376E-07  0.2514593E+04  0.7818609E-02  0.8397805E-01
        1   -1    0    0  501    0  0.00000000000E+00  0.00000000000E+00  0.86552665990E+03  0.86552665992E+03  0.50400001928E-02 0. -1.
       -1   -1    0    0    0  501  0.00000000000E+00  0.00000000000E+00 -0.18263958473E+04  0.18263958473E+04  0.50400001928E-02 0.  1.
    10030    2    1    2    0    0  0.00000000000E+00  0.00000000000E+00 -0.96086918735E+03  0.26919225072E+04  0.25145928477E+04 0.  0.
        4    1    3    3  502    0  0.86533261927E+02  0.80734262937E+03  0.54721049312E+03  0.97914813144E+03  0.12699999809E+01 0. -1.
       -4    1    3    3    0  502 -0.86533261927E+02 -0.80734262937E+03 -0.15080796805E+04  0.17127743757E+04  0.12699999809E+01 0.  1.
</event>
<event>
 5   0  0.5533705E-07  0.3316964E+04  0.7818609E-02  0.8158592E-01
        2   -1    0    0  501    0  0.00000000000E+00  0.00000000000E+00  0.23690908047E+04  0.23690908047E+04  0.25500000920E-02 0.  1.
       -2   -1    0    0    0  501  0.00000000000E+00  0.00000000000E+00 -0.11610201442E+04  0.11610201442E+04  0.25500000920E-02 0. -1.
    10030    2    1    2    0    0  0.00000000000E+00  0.00000000000E+00  0.12080706605E+04  0.35301109489E+04  0.33169637609E+04 0.  0.
        1    1    3    3  502    0  0.90899127412E+03  0.95434714562E+02 -0.86879755840E+03  0.12610242340E+04  0.50400001928E-02 0. -1.
       -1    1    3    3    0  502 -0.90899127412E+03 -0.95434714562E+02  0.20768682189E+04  0.22690867150E+04  0.50400001928E-02 0.  1.
</event>
<event>
 5   0  0.3977376E-07  0.2211535E+04  0.7818609E-02  0.8513642E-01
        1   -1    0    0  501    0  0.00000000000E+00  0.00000000000E+00  0.17195975403E+04  0.17195975403E+04  0.50400001928E-02 0.  1.
       -1   -1    0    0    0  501  0.00000000000E+00  0.00000000000E+00 -0.71105139856E+03  0.71105139858E+03  0.50400001928E-02 0. -1.
    10030    2    1    2    0    0  0.00000000000E+00  0.00000000000E+00  0.10085461418E+04  0.24306489389E+04  0.22115354268E+04 0.  0.
        4    1    3    3  502    0 -0.10693277957E+04  0.18788169549E+03  0.27383564512E+03  0.11197093549E+04  0.12699999809E+01 0. -1.
       -4    1    3    3    0  502  0.10693277957E+04 -0.18788169549E+03  0.73471049664E+03  0.13109395840E+04  0.12699999809E+01 0.  1.
</event>
<event>
 5   0  0.3471602E-07  0.3572840E+04  0.7818609E-02  0.8096742E-01
        1   -1    0    0  501    0  0.00000000000E+00  0.00000000000E+00  0.13299446909E+04  0.13299446909E+04  0.50400001928E-02 0. -1.
       -1   -1    0    0    0  501  0.00000000000E+00  0.00000000000E+00 -0.23995701803E+04  0.23995701803E+04  0.50400001928E-02 0.  1.
    10030    2    1    2    0    0  0.00000000000E+00  0.00000000000E+00 -0.10696254893E+04  0.37295148712E+04  0.35728395552E+04 0.  0.
        5    1    3    3  502    0 -0.10833260596E+03 -0.10880467652E+04 -0.20094512416E+04  0.22876840034E+04  0.46999998093E+01 0. -1.
       -5    1    3    3    0  502  0.10833260596E+03  0.10880467652E+04  0.93982575229E+03  0.14418308679E+04  0.46999998093E+01 0.  1.
</event>
<event>
 5   0  0.1035864E-06  0.3819730E+04  0.7818609E-02  0.8041934E-01
        2   -1    0    0  501    0  0.00000000000E+00  0.00000000000E+00  0.27074466074E+04  0.27074466074E+04  0.25500000920E-02 0.  1.
       -2   -1    0    0    0  501  0.00000000000E+00  0.00000000000E+00 -0.13472417968E+04  0.13472417968E+04  0.25500000920E-02 0. -1.
    10030    2    1    2    0    0  0.00000000000E+00  0.00000000000E+00  0.13602048106E+04  0.40546884043E+04  0.38197304786E+04 0.  0.
        5    1    3    3  502    0  0.27547918376E+03 -0.42486473517E+02  0.26857328835E+04  0.27001624196E+04  0.46999998093E+01 0.  1.
       -5    1    3    3    0  502 -0.27547918376E+03  0.42486473517E+02 -0.13255280728E+04  0.13545259846E+04  0.46999998093E+01 0. -1.
</event>
<event>
 5   0  0.4316671E-07  0.2245202E+04  0.7818609E-02  0.8499846E-01
       -1   -1    0    0    0  501  0.00000000000E+00  0.00000000000E+00  0.63434478958E+03  0.63434478960E+03  0.50400001928E-02 0. -1.
        1   -1    0    0  501    0  0.00000000000E+00  0.00000000000E+00 -0.19866691692E+04  0.19866691692E+04  0.50400001928E-02 0.  1.
    10030    2    1    2    0    0  0.00000000000E+00  0.00000000000E+00 -0.13523243796E+04  0.26210139588E+04  0.22452022057E+04 0.  0.
        2    1    3    3  502    0 -0.42603905493E+03 -0.93507249160E+03 -0.14842776055E+03  0.10382199386E+04  0.25500000920E-02 0. -1.
       -2    1    3    3    0  502  0.42603905493E+03  0.93507249160E+03 -0.12038966190E+04  0.15827940202E+04  0.25500000920E-02 0.  1.
</event>
<event>
 5   0  0.3471602E-07  0.2054359E+04  0.7818609E-02  0.8581620E-01
       -1   -1    0    0    0  501  0.00000000000E+00  0.00000000000E+00  0.76205079469E+03  0.76205079471E+03  0.50400001928E-02 0.  1.
        1   -1    0    0  501    0  0.00000000000E+00  0.00000000000E+00 -0.13845501346E+04  0.13845501346E+04  0.50400001928E-02 0. -1.
    10030    2    1    2    0    0  0.00000000000E+00  0.00000000000E+00 -0.62249933994E+03  0.21466009294E+04  0.20543588104E+04 0.  0.
        5    1    3    3  502    0  0.71060216515E+03 -0.73633528500E+03 -0.40430070949E+03  0.11002846190E+04  0.46999998093E+01 0. -1.
       -5    1    3    3    0  502 -0.71060216515E+03  0.73633528500E+03 -0.21819863045E+03  0.10463163104E+04  0.46999998093E+01 0.  1.
</event>
<event>
 5   0  0.1034683E-06  0.3528164E+04  0.7818609E-02  0.8107148E-01
        2   -1    0    0  501    0  0.00000000000E+00  0.00000000000E+00  0.14511669344E+04  0.14511669344E+04  0.25500000920E-02 0. -1.
       -2   -1    0    0    0  501  0.00000000000E+00  0.00000000000E+00 -0.21444705972E+04  0.21444705972E+04  0.25500000920E-02 0.  1.
    10030    2    1    2    0    0  0.00000000000E+00  0.00000000000E+00 -0.69330366281E+03  0.35956375315E+04  0.35281637277E+04 0.  0.
        2    1    3    3  502    0 -0.10606425332E+03 -0.15544957255E+04 -0.11896828176E+04  0.19603703204E+04  0.25500000920E-02 0.  1.
       -2    1    3    3    0  502  0.10606425332E+03  0.15544957255E+04  0.49637915482E+03  0.16352672111E+04  0.25500000920E-02 0. -1.
</event>
<event>
 5   0  0.3977376E-07  0.3342323E+04  0.7818609E-02  0.8152209E-01
        1   -1    0    0  501    0  0.00000000000E+00  0.00000000000E+00  0.22459197100E+04  0.22459197100E+04  0.50400001928E-02 0. -1.
       -1   -1    0    0    0  501  0.00000000000E+00  0.00000000000E+00 -0.12434912276E+04  0.12434912277E+04  0.50400001928E-02 0.  1.
    10030    2    1    2    0    0  0.00000000000E+00  0.00000000000E+00  0.10024284824E+04  0.34894109377E+04  0.33423234179E+04 0.  0.
        4    1    3    3  502    0 -0.37342160541E+03  0.20838932549E+03  0.21878310147E+04  0.22292321477E+04  0.12699999809E+01 0. -1.
       -4    1    3    3    0  502  0.37342160541E+03 -0.20838932549E+03 -0.11854025323E+04  0.12601787900E+04  0.12699999809E+01 0.  1.
</event>
<event>
 5   0  0.3977376E-07  0.3991722E+04  0.7818609E-02  0.8006219E-01
       -1   -1    0    0    0  501  0.00000000000E+00  0.00000000000E+00  0.23945809344E+04  0.23945809344E+04  0.50400001928E-02 0. -1.
        1   -1    0    0  501    0  0.00000000000E+00  0.00000000000E+00 -0.16635317250E+04  0.16635317250E+04  0.50400001928E-02 0.  1.
    10030    2    1    2    0    0  0.00000000000E+00  0.00000000000E+00  0.73104920948E+03  0.40581126594E+04  0.39917221108E+04 0.  0.
        4    1    3    3  502    0 -0.16407481403E+04  0.10892135088E+04  0.36068031142E+02  0.19697063343E+04  0.12699999809E+01 0.  1.
       -4    1    3    3    0  502  0.16407481403E+04 -0.10892135088E+04  0.69498117833E+03  0.20884063251E+04  0.12699999809E+01 0. -1.
</event>
<event>
 5   0  0.4627905E-07  0.2103092E+04  0.7818609E-02  0.8559883E-01
       -1   -1    0    0    0  501  0.00000000000E+00  0.00000000000E+00  0.94642660181E+03  0.94642660183E+03  0.50400001928E-02 0. -1.
        1   -1    0    0  501    0  0.00000000000E+00  0.00000000000E+00 -0.11683407581E+04  0.11683407581E+04  0.50400001928E-02 0.  1.
    10030    2    1    2    0    0  0.00000000000E+00  0.00000000000E+00 -0.22191415629E+03  0.21147673599E+04  0.21030917940E+04 0.  0.
        1    1    3    3  502    0 -0.42221243840E+03  0.21525517212E+02  0.85720799141E+03  0.95578880073E+03  0.50400001928E-02 0. -1.
       -1    1    3    3    0  502  0.42221243840E+03 -0.21525517212E+02 -0.10791221477E+04  0.11589785592E+04  0.50400001928E-02 0.  1.
</event>
<event>
 5   0  0.7268013E-07  0.3857743E+04  0.7818609E-02  0.8033876E-01
        2   -1    0    0  501    0  0.00000000000E+00  0.00000000000E+00  0.20432397660E+04  0.20432397660E+04  0.25500000920E-02 0. -1.
       -2   -1    0    0    0  501  0.00000000000E+00  0.00000000000E+00 -0.18209052272E+04  0.18209052272E+04  0.25500000920E-02 0.  1.
    10030    2    1    2    0    0  0.00000000000E+00  0.00000000000E+00  0.22233453876E+03  0.38641449932E+04  0.38577433665E+04 0.  0.
        4    1    3    3  502    0  0.15044307299E+04  0.10026731174E+04 -0.56216780128E+03  0.18933302541E+04  0.12699999809E+01 0.  1.
       -4    1    3    3    0  502 -0.15044307299E+04 -0.10026731174E+04  0.78450234004E+03  0.19708147391E+04  0.12699999809E+01 0. -1.
</event>
<event>
 5   0  0.4627905E-07  0.3928320E+04  0.7818609E-02  0.8019165E-01
       -1   -1    0    0    0  501  0.00000000000E+00  0.00000000000E+00  0.17828550769E+04  0.17828550769E+04  0.50400001928E-02 0.  1.
        1   -1    0    0  501    0  0.00000000000E+00  0.00000000000E+00 -0.21639023055E+04  0.21639023055E+04  0.50400001928E-02 0. -1.
    10030    2    1    2    0    0  0.00000000000E+00  0.00000000000E+00 -0.38104722861E+03  0.39467573824E+04  0.39283198501E+04 0.  0.
        1    1    3    3  502    0 -0.36540942641E+03 -0.12910203866E+04  0.12506658697E+04  0.18342363002E+04  0.50400001928E-02 0.  1.
       -1    1    3    3    0  502  0.36540942641E+03  0.12910203866E+04 -0.16317130983E+04  0.21125210822E+04  0.50400001928E-02 0. -1.
</event>
<event>
 5   0  0.7268013E-07  0.3901124E+04  0.7818609E-02  0.8024796E-01
       -2   -1    0    0    0  501  0.00000000000E+00  0.00000000000E+00  0.19063804551E+04  0.19063804551E+04  0.25500000920E-02 0. -1.
        2   -1    0    0  501    0  0.00000000000E+00  0.00000000000E+00 -0.19957673201E+04  0.19957673201E+04  0.25500000920E-02 0.  1.
    10030    2    1    2    0    0  0.00000000000E+00  0.00000000000E+00 -0.89386864930E+02  0.39021477752E+04  0.39011238442E+04 0.  0.
        4    1    3    3  502    0  0.13997613389E+04  0.41638917358E+03  0.12486960121E+04  0.19214460943E+04  0.12699999809E+01 0. -1.
       -4    1    3    3    0  502 -0.13997613389E+04 -0.41638917358E+03 -0.13380828771E+04  0.19807016809E+04  0.12699999809E+01 0.  1.
</event>
<event>
 5   0  0.5533705E-07  0.2174534E+04  0.7818609E-02  0.8529103E-01
        2   -1    0    0  501    0  0.00000000000E+00  0.00000000000E+00  0.16154432804E+04  0.16154432804E+04  0.25500000920E-02 0. -1.
       -2   -1    0    0    0  501  0.00000000000E+00  0.00000000000E+00 -0.73178017844E+03  0.73178017844E+03  0.25500000920E-02 0.  1.
    10030    2    1    2    0    0  0.00000000000E+00  0.00000000000E+00  0.88366310197E+03  0.23472234589E+04  0.21745338553E+04 0.  0.
        1    1    3    3  502    0 -0.86709074704E+03 -0.64351045255E+03  0.30445593443E+03  0.11218937036E+04  0.50400001928E-02 0. -1.
       -1    1    3    3    0  502  0.86709074704E+03  0.64351045255E+03  0.57920716754E+03  0.12253297553E+04  0.50400001928E-02 0.  1.
</event>
<event>
 5   0  0.7268013E-07  0.2515954E+04  0.7818609E-02  0.8397324E-01
       -2   -1    0    0    0  501  0.00000000000E+00  0.00000000000E+00  0.18431903866E+04  0.18431903866E+04  0.25500000920E-02 0. -1.
        2   -1    0    0  501    0  0.00000000000E+00  0.00000000000E+00 -0.85856918643E+03  0.85856918644E+03  0.25500000920E-02 0.  1.
    10030    2    1    2    0    0  0.00000000000E+00  0.00000000000E+00  0.98462120020E+03  0.27017595731E+04  0.25159542688E+04 0.  0.
        4    1    3    3  502    0 -0.55678444904E+03 -0.51567114333E+03 -0.58506697939E+03  0.95824351499E+03  0.12699999809E+01 0.  1.
       -4    1    3    3    0  502  0.55678444904E+03  0.51567114333E+03  0.15696881796E+04  0.17435160581E+04  0.12699999809E+01 0. -1.
</event>
<event>
 5   0  0.7268013E-07  0.2737198E+04  0.7818609E-02  0.8323036E-01
       -2   -1    0    0    0  501  0.00000000000E+00  0.00000000000E+00  0.14854279605E+04  0.14854279605E+04  0.25500000920E-02 0. -1.
        2   -1    0    0  501    0  0.00000000000E+00  0.00000000000E+00 -0.12609584104E+04  0.12609584104E+04  0.25500000920E-02 0.  1.
    10030    2    1    2    0    0  0.00000000000E+00  0.00000000000E+00  0.22446955016E+03  0.27463863709E+04  0.27371977494E+04 0.  0.
        4    1    3    3  502    0 -0.22094015785E+02 -0.13434677138E+04  0.37323802975E+03  0.13945256840E+04  0.12699999809E+01 0. -1.
       -4    1    3    3    0  502  0.22094015785E+02  0.13434677138E+04 -0.14876847959E+03  0.13518606870E+04  0.12699999809E+01 0.  1.
</event>
<event>
 5   0  0.4627905E-07  0.2815487E+04  0.7818609E-02  0.8298476E-01
        1   -1    0    0  501    0  0.00000000000E+00  0.00000000000E+00  0.20206108170E+04  0.20206108170E+04  0.50400001928E-02 0.  1.
       -1   -1    0    0    0  501  0.00000000000E+00  0.00000000000E+00 -0.98076375502E+03  0.98076375503E+03  0.50400001928E-02 0. -1.
    10030    2    1    2    0    0  0.00000000000E+00  0.00000000000E+00  0.10398470620E+04  0.30013745721E+04  0.28154870643E+04 0.  0.
        1    1    3    3  502    0  0.63338905018E+03 -0.11501625437E+04  0.10610668687E+04  0.16881701531E+04  0.50400001928E-02 0.  1.
       -1    1    3    3    0  502 -0.63338905018E+03  0.11501625437E+04 -0.21219806734E+02  0.13132044190E+04  0.50400001928E-02 0. -1.
</event>
<event>
 5   0  0.5533705E-07  0.3863752E+04  0.7818609E-02  0.8032611E-01
       -2   -1    0    0    0  501  0.00000000000E+00  0.00000000000E+00  0.17576371285E+04  0.17576371285E+04  0.25500000920E-02 0. -1.
        2   -1    0    0  501    0  0.00000000000E+00  0.00000000000E+00 -0.21233879224E+04  0.21233879224E+04  0.25500000920E-02 0.  1.
    10030    2    1    2    0    0  0.00000000000E+00  0.00000000000E+00 -0.36575079385E+03  0.38810250509E+04  0.38637522957E+04 0.  0.
        1    1    3    3  502    0  0.10688857170E+04  0.14518317307E+04  0.51435547274E+03  0.18748049506E+04  0.50400001928E-02 0.  1.
       -1    1    3    3    0  502 -0.10688857170E+04 -0.14518317307E+04 -0.88010626659E+03  0.20062201003E+04  0.50400001928E-02 0. -1.
</event>
<event>
 5   0  0.4627905E-07  0.2477386E+04  0.7818609E-02  0.8411086E-01
        1   -1    0    0  501    0  0.00000000000E+00  0.00000000000E+00  0.21394703151E+04  0.21394703151E+04  0.50400001928E-02 0. -1.
       -1   -1    0    0    0  501  0.00000000000E+00  0.00000000000E+00 -0.71716853503E+03  0.71716853505E+03  0.50400001928E-02 0.  1.
    10030    2    1    2    0    0  0.00000000000E+00  0.00000000000E+00  0.14223017801E+04  0.28566388502E+04  0.24773863580E+04 0.  0.
        1    1    3    3  502    0 -0.19302919613E+03  0.28454609671E+03 -0.66103761724E+03  0.74511575151E+03  0.50400001928E-02 0.  1.
       -1    1    3    3    0  502  0.19302919613E+03 -0.28454609671E+03  0.20833393973E+04  0.21115230987E+04  0.50400001928E-02 0. -1.
</event>
<event>
 5   0  0.7268013E-07  0.3773424E+04  0.7818609E-02  0.8051882E-01
       -2   -1    0    0    0  501  0.00000000000E+00  0.00000000000E+00  0.23593459726E+04  0.23593459726E+04  0.25500000920E-02 0.  1.
        2   -1    0    0  501    0  0.00000000000E+00  0.00000000000E+00 -0.15087582860E+04  0.15087582860E+04  0.25500000920E-02 0. -1.
    10030    2    1    2    0    0  0.00000000000E+00  0.00000000000E+00  0.85058768655E+03  0.38681042586E+04  0.37734243258E+04 0.  0.
        4    1    3    3  502    0  0.16002069685E+04 -0.97818370650E+03  0.21477427217E+03  0.18877593349E+04  0.12699999809E+01 0.  1.
       -4    1    3    3    0  502 -0.16002069685E+04  0.97818370650E+03  0.63581341438E+03  0.19803449236E+04  0.12699999809E+01 0. -1.
</event>
<event>
 5   0  0.1034683E-06  0.3468690E+04  0.7818609E-02  0.8121250E-01
       -2   -1    0    0    0  501  0.00000000000E+00  0.00000000000E+00  0.11673858207E+04  0.11673858207E+04  0.25500000920E-02 0. -1.
        2   -1    0    0  501    0  0.00000000000E+00  0.00000000000E+00 -0.25766572234E+04  0.25766572234E+04  0.25500000920E-02 0.  1.
    10030    2    1    2    0    0  0.00000000000E+00  0.00000000000E+00 -0.14092714028E+04  0.37440430441E+04  0.34686903047E+04 0.  0.
        2    1    3    3  502    0  0.98271052957E+03  0.10737034670E+04 -0.17225762192E+04  0.22551780308E+04  0.25500000920E-02 0.  1.
       -2    1    3    3    0  502 -0.98271052957E+03 -0.10737034670E+04  0.31330481639E+03  0.14888650133E+04  0.25500000920E-02 0. -1.
</event>
<event>
 5   0  0.5533705E-07  0.2872739E+04  0.7818609E-02  0.8281035E-01
        2   -1    0    0  501    0  0.00000000000E+00  0.00000000000E+00  0.10275656637E+04  0.10275656637E+04  0.25500000920E-02 0.  1.
       -2   -1    0    0    0  501  0.00000000000E+00  0.00000000000E+00 -0.20078112751E+04  0.20078112751E+04  0.25500000920E-02 0. -1.
    10030    2    1    2    0    0  0.00000000000E+00  0.00000000000E+00 -0.98024561139E+03  0.30353769389E+04  0.28727394073E+04 0.  0.
        1    1    3    3  502    0 -0.36404176786E+03 -0.12540041622E+04 -0.11224205582E+04  0.17218829103E+04  0.50400001928E-02 0. -1.
       -1    1    3    3    0  502  0.36404176786E+03  0.12540041622E+04  0.14217494680E+03  0.13134940285E+04  0.50400001928E-02 0.  1.
</event>
<event>
 5   0  0.5855072E-07  0.1995725E+04  0.7818609E-02  0.8608622E-01
       -2   -1    0    0    0  501  0.00000000000E+00  0.00000000000E+00  0.51543604616E+03  0.51543604616E+03  0.25500000920E-02 0.  1.
        2   -1    0    0  501    0  0.00000000000E+00  0.00000000000E+00 -0.19318191384E+04  0.19318191384E+04  0.25500000920E-02 0. -1.
    10030    2    1    2    0    0  0.00000000000E+00  0.00000000000E+00 -0.14163830923E+04  0.24472551846E+04  0.19957246490E+04 0.  0.
        1    1    3    3  502    0  0.50324274315E+03  0.35824960646E+03  0.25277864600E+03  0.66745268219E+03  0.50400001928E-02 0.  1.
       -1    1    3    3    0  502 -0.50324274315E+03 -0.35824960646E+03 -0.16691617383E+04  0.17798025024E+04  0.50400001928E-02 0. -1.
</event>
<event>
 5   0  0.1034683E-06  0.2774938E+04  0.7818609E-02  0.8311092E-01
        2   -1    0    0  501    0  0.00000000000E+00  0.00000000000E+00  0.24278326174E+04  0.24278326174E+04  0.25500000920E-02 0.  1.
       -2   -1    0    0    0  501  0.00000000000E+00  0.00000000000E+00 -0.79291708164E+03  0.79291708165E+03  0.25500000920E-02 0. -1.
    10030    2    1    2    0    0  0.00000000000E+00  0.00000000000E+00  0.16349155357E+04  0.32207496990E+04  0.27749378038E+04 0.  0.
        2    1    3    3  502    0 -0.60053629698E+03 -0.41408656008E+03  0.21873070910E+04  0.23057371562E+04  0.25500000920E-02 0.  1.
       -2    1    3    3    0  502  0.60053629698E+03  0.41408656008E+03 -0.55239155524E+03  0.91501254283E+03  0.25500000920E-02 0. -1.
</event>
<event>
 5   0  0.3191750E-07  0.2015628E+04  0.7818609E-02  0.8599349E-01
        4   -1    0    0  501    0  0.00000000000E+00  0.00000000000E+00  0.89879629750E+03  0.89879719476E+03  0.12699999809E+01 0. -1.
       -4   -1    0    0    0  501  0.00000000000E+00  0.00000000000E+00 -0.11300529284E+04  0.11300536421E+04  0.12699999809E+01 0.  1.
    10030    2    1    2    0    0  0.00000000000E+00  0.00000000000E+00 -0.23125663094E+03  0.20288508368E+04  0.20156279639E+04 0.  0.
        5    1    3    3  502    0  0.99248382215E+02  0.98972170519E+03  0.47507849039E+02  0.99583049803E+03  0.46999998093E+01 0. -1.
       -5    1    3    3    0  502 -0.99248382215E+02 -0.98972170519E+03 -0.27876447998E+03  0.10330203388E+04  0.46999998093E+01 0.  1.
</event>
<event>
 5   0  0.1035864E-06  0.3926204E+04  0.7818609E-02  0.8019601E-01
       -2   -1    0    0    0  501  0.00000000000E+00  0.00000000000E+00  0.22891137773E+04  0.22891137773E+04  0.25500000920E-02 0.  1.
        2   -1    0    0  501    0  0.00000000000E+00  0.00000000000E+00 -0.16835202219E+04  0.16835202219E+04  0.25500000920E-02 0. -1.
    10030    2    1    2    0    0  0.00000000000E+00  0.00000000000E+00  0.60559355546E+03  0.39726339992E+04  0.39262039347E+04 0.  0.
        5    1    3    3  502    0  0.10902236971E+04 -0.87114259003E+03  0.16998016530E+04  0.21992782615E+04  0.46999998093E+01 0.  1.
       -5    1    3    3    0  502 -0.10902236971E+04  0.87114259003E+03 -0.10942080975E+04  0.17733557377E+04  0.46999998093E+01 0. -1.
</event>
<event>
 5   0  0.4316671E-07  0.2283491E+04  0.7818609E-02  0.8484459E-01
       -1   -1    0    0    0  501  0.00000000000E+00  0.00000000000E+00  0.10927066952E+04  0.10927066952E+04  0.50400001928E-02 0. -1.
        1   -1    0    0  501    0  0.00000000000E+00  0.00000000000E+00 -0.11929851701E+04  0.11929851701E+04  0.50400001928E-02 0.  1.
    10030    2    1    2    0    0  0.00000000000E+00  0.00000000000E+00 -0.10027847484E+03  0.22856918653E+04  0.22834910840E+04 0.  0.
        2    1    3    3  502    0 -0.97785799956E+03  0.58915159386E+03 -0.66799039045E+02  0.11435768358E+04  0.25500000920E-02 0.  1.
       -2    1    3    3    0  502  0.97785799956E+03 -0.58915159386E+03 -0.33479435790E+02  0.11421150294E+04  0.25500000920E-02 0. -1.
</event>
<event>
 5   0  0.3471602E-07  0.3892746E+04  0.7818609E-02  0.8026540E-01
        1   -1    0    0  501    0  0.00000000000E+00  0.00000000000E+00  0.27145137295E+04  0.27145137295E+04  0.50400001928E-02 0. -1.
       -1   -1    0    0    0  501  0.00000000000E+00  0.00000000000E+00 -0.13955971562E+04  0.13955971562E+04  0.50400001928E-02 0.  1.
    10030    2    1    2    0    0  0.00000000000E+00  0.00000000000E+00  0.13189165733E+04  0.41101108857E+04  0.38927458901E+04 0.  0.
        5    1    3    3  502    0 -0.90834751754E+03 -0.72850264689E+03 -0.98728902916E+03  0.15266214450E+04  0.46999998093E+01 0.  1.
       -5    1    3    3    0  502  0.90834751754E+03  0.72850264689E+03  0.23062056025E+04  0.25834894407E+04  0.46999998093E+01 0. -1.
</event>
<event>
 5   0  0.3471602E-07  0.2031456E+04  0.7818609E-02  0.8592053E-01
       -1   -1    0    0    0  501  0.00000000000E+00  0.00000000000E+00  0.76229938952E+03  0.76229938954E+03  0.50400001928E-02 0. -1.
        1   -1    0    0  501    0  0.00000000000E+00  0.00000000000E+00 -0.13534102044E+04  0.13534102044E+04  0.50400001928E-02 0.  1.
    10030    2    1    2    0    0  0.00000000000E+00  0.00000000000E+00 -0.59111081490E+03  0.21157095940E+04  0.20314563964E+04 0.  0.
        5    1    3    3  502    0  0.83777341926E+03  0.44082062151E+03 -0.67891777666E+03  0.11649629006E+04  0.46999998093E+01 0.  1.
       -5    1    3    3    0  502 -0.83777341926E+03 -0.44082062151E+03  0.87806961765E+02  0.95074669334E+03  0.46999998093E+01 0. -1.
</event>
<event>
 5   0  0.5533705E-07  0.3826217E+04  0.7818609E-02  0.8040552E-01
        2   -1    0    0  501    0  0.00000000000E+00  0.00000000000E+00  0.25130628984E+04  0.25130628984E+04  0.25500000920E-02 0. -1.
       -2   -1    0    0    0  501  0.00000000000E+00  0.00000000000E+00 -0.14563838704E+04  0.14563838704E+04  0.25500000920E-02 0.  1.
    10030    2    1    2    0    0  0.00000000000E+00  0.00000000000E+00  0.10566790280E+04  0.39694467689E+04  0.38262170721E+04 0.  0.
        1    1    3    3  502    0  0.15435262630E+04 -0.13387117378E+03 -0.63598726266E+03  0.16747759892E+04  0.50400001928E-02 0.  1.
       -1    1    3    3    0  502 -0.15435262630E+04  0.13387117378E+03  0.16926662907E+04  0.22946707797E+04  0.50400001928E-02 0. -1.
</event>
<event>
 5   0  0.5533705E-07  0.3895327E+04  0.7818609E-02  0.8026002E-01
        2   -1    0    0  501    0  0.00000000000E+00  0.00000000000E+00  0.14035650905E+04  0.14035650905E+04  0.25500000920E-02 0. -1.
       -2   -1    0    0    0  501  0.00000000000E+00  0.00000000000E+00 -0.27026845605E+04  0.27026845605E+04  0.25500000920E-02 0.  1.
    10030    2    1    2    0    0  0.00000000000E+00  0.00000000000E+00 -0.12991194700E+04  0.41062496510E+04  0.38953273032E+04 0.  0.
        1    1    3    3  502    0  0.12093317930E+04 -0.15207731725E+04 -0.50750666827E+03  0.20081826227E+04  0.50400001928E-02 0.  1.
       -1    1    3    3    0  502 -0.12093317930E+04  0.15207731725E+04 -0.79161280172E+03  0.20980670284E+04  0.50400001928E-02 0. -1.
</event>
<event>
 5   0  0.3191750E-07  0.2496738E+04  0.7818609E-02  0.8404149E-01
        3   -1    0    0  501    0  0.00000000000E+00  0.00000000000E+00  0.17307474749E+04  0.17307474779E+04  0.10100000352E+00 0. -1.
       -3   -1    0    0    0  501  0.00000000000E+00  0.00000000000E+00 -0.90043478002E+03  0.90043478569E+03  0.10100000352E+00 0.  1.
    10030    2    1    2    0    0  0.00000000000E+00  0.00000000000E+00  0.83031269492E+03  0.26311822636E+04  0.24967380585E+04 0.  0.
        1    1    3    3  502    0 -0.11942610252E+04 -0.12195337001E+03  0.77607920887E+03  0.14294862571E+04  0.50400001928E-02 0. -1.
       -1    1    3    3    0  502  0.11942610252E+04  0.12195337001E+03  0.54233486055E+02  0.12016960064E+04  0.50400001928E-02 0.  1.
</event>
<event>
 5   0  0.5533705E-07  0.3953862E+04  0.7818609E-02  0.8013919E-01
       -2   -1    0    0    0  501  0.00000000000E+00  0.00000000000E+00  0.12647048728E+04  0.12647048728E+04  0.25500000920E-02 0.  1.
        2   -1    0    0  501    0  0.00000000000E+00  0.00000000000E+00 -0.30902511034E+04  0.30902511034E+04  0.25500000920E-02 0. -1.
    10030    2    1    2    0    0  0.00000000000E+00  0.00000000000E+00 -0.18255462307E+04  0.43549559762E+04  0.39538617217E+04 0.  0.
        1    1    3    3  502    0  0.14140287030E+04 -0.15884003346E+03  0.59887488204E+03  0.15438129594E+04  0.50400001928E-02 0.  1.
       -1    1    3    3    0  502 -0.14140287030E+04  0.15884003346E+03 -0.24244211127E+04  0.28111430168E+04  0.50400001928E-02 0. -1.
</event>
<event>
 5   0  0.1035864E-06  0.2724633E+04  0.7818609E-02  0.8327056E-01
        2   -1    0    0  501    0  0.00000000000E+00  0.00000000000E+00  0.14553287789E+04  0.14553287789E+04  0.25500000920E-02 0. -1.
       -2   -1    0    0    0  501  0.00000000000E+00  0.00000000000E+00 -0.12752486428E+04  0.12752486428E+04  0.25500000920E-02 0.  1.
    10030    2    1    2    0    0  0.00000000000E+00  0.00000000000E+00  0.18008013619E+03  0.27305774217E+04  0.27246328561E+04 0.  0.
        5    1    3    3  502    0  0.28186641346E+02  0.13251299252E+04  0.40556050248E+03  0.13860971166E+04  0.46999998093E+01 0. -1.
       -5    1    3    3    0  502 -0.28186641346E+02 -0.13251299252E+04 -0.22548036629E+03  0.13444803052E+04  0.46999998093E+01 0.  1.
</event>
<event>
 5   0  0.5533705E-07  0.2092532E+04  0.7818609E-02  0.8564540E-01
       -2   -1    0    0    0  501  0.00000000000E+00  0.00000000000E+00  0.75243386648E+03  0.75243386649E+03  0.25500000920E-02 0.  1.
        2   -1    0    0  501    0  0.00000000000E+00  0.00000000000E+00 -0.14548428124E+04  0.14548428124E+04  0.25500000920E-02 0. -1.
    10030    2    1    2    0    0  0.00000000000E+00  0.00000000000E+00 -0.70240894587E+03  0.22072766788E+04  0.20925324394E+04 0.  0.
        1    1    3    3  502    0 -0.92250715568E+03  0.32489254768E+03 -0.74319797820E+03  0.12283801751E+04  0.50400001928E-02 0. -1.
       -1    1    3    3    0  502  0.92250715568E+03 -0.32489254768E+03  0.40789032328E+02  0.97889650372E+03  0.50400001928E-02 0.  1.
</event>
<event>
 5   0  0.7268013E-07  0.3865360E+04  0.7818609E-02  0.8032273E-01
       -2   -1    0    0    0  501  0.00000000000E+00  0.00000000000E+00  0.24564606655E+04  0.24564606655E+04  0.25500000920E-02 0. -1.
        2   -1    0    0  501    0  0.00000000000E+00  0.00000000000E+00 -0.15205826976E+04  0.15205826976E+04  0.25500000920E-02 0.  1.
    10030    2    1    2    0    0  0.00000000000E+00  0.00000000000E+00  0.93587796793E+03  0.39770433631E+04  0.38653597945E+04 0.  0.
        4    1    3    3  502    0 -0.17872525472E+03 -0.36995236101E+02  0.24475734545E+04  0.24543693267E+04  0.12699999809E+01 0. -1.
       -4    1    3    3    0  502  0.17872525472E+03  0.36995236101E+02 -0.15116954865E+04  0.15226740364E+04  0.12699999809E+01 0.  1.
</event>
<event>
 5   0  0.1015219E-06  0.3847233E+04  0.7818609E-02  0.8036094E-01
        2   -1    0    0  501    0  0.00000000000E+00  0.00000000000E+00  0.25131026436E+04  0.25131026436E+04  0.25500000920E-02 0. -1.
       -2   -1    0    0    0  501  0.00000000000E+00  0.00000000000E+00 -0.14724029226E+04  0.14724029226E+04  0.25500000920E-02 0.  1.
    10030    2    1    2    0    0  0.00000000000E+00  0.00000000000E+00  0.10406997211E+04  0.39855055662E+04  0.38472326039E+04 0.  0.
        3    1    3    3  502    0  0.55321212014E+03  0.17762542060E+04  0.10269842834E+04  0.21250457366E+04  0.10100000352E+00 0.  1.
       -3    1    3    3    0  502 -0.55321212014E+03 -0.17762542060E+04  0.13715437674E+02  0.18604598296E+04  0.10100000352E+00 0. -1.
</event>
<event>
 5   0  0.4627905E-07  0.3920608E+04  0.7818609E-02  0.8020757E-01
       -1   -1    0    0    0  501  0.00000000000E+00  0.00000000000E+00  0.15807639740E+04  0.15807639740E+04  0.50400001928E-02 0.  1.
        1   -1    0    0  501    0  0.00000000000E+00  0.00000000000E+00 -0.24309711517E+04  0.24309711517E+04  0.50400001928E-02 0. -1.
    10030    2    1    2    0    0  0.00000000000E+00  0.00000000000E+00 -0.85020717764E+03  0.40117351257E+04  0.39206079215E+04 0.  0.
        1    1    3    3  502    0  0.68334017823E+03 -0.44116203766E+03 -0.22501557107E+04  0.23926509284E+04  0.50400001928E-02 0. -1.
       -1    1    3    3    0  502 -0.68334017823E+03  0.44116203766E+03  0.13999485331E+04  0.16190841973E+04  0.50400001928E-02 0.  1.
</event>
<event>
 5   0  0.4627905E-07  0.2246255E+04  0.7818609E-02  0.8499419E-01
        1   -1    0    0  501    0  0.00000000000E+00  0.00000000000E+00  0.11898036538E+04  0.11898036538E+04  0.50400001928E-02 0. -1.
       -1   -1    0    0    0  501  0.00000000000E+00  0.00000000000E+00 -0.10601874476E+04  0.10601874476E+04  0.50400001928E-02 0.  1.
    10030    2    1    2    0    0  0.00000000000E+00  0.00000000000E+00  0.12961620622E+03  0.22499911014E+04  0.22462545705E+04 0.  0.
        1    1    3    3  502    0  0.76481566944E+03 -0.62779589191E+03 -0.46743650292E+03  0.10943343065E+04  0.50400001928E-02 0.  1.
       -1    1    3    3    0  502 -0.76481566944E+03  0.62779589191E+03  0.59705270914E+03  0.11556567949E+04  0.50400001928E-02 0. -1.
</event>
<event>
 5   0  0.3977376E-07  0.3909246E+04  0.7818609E-02  0.8023109E-01
        1   -1    0    0  501    0  0.00000000000E+00  0.00000000000E+00  0.20393771443E+04  0.20393771444E+04  0.50400001928E-02 0. -1.
       -1   -1    0    0    0  501  0.00000000000E+00  0.00000000000E+00 -0.18733911141E+04  0.18733911141E+04  0.50400001928E-02 0.  1.
    10030    2    1    2    0    0  0.00000000000E+00  0.00000000000E+00  0.16598603026E+03  0.39127682584E+04  0.39092459736E+04 0.  0.
        4    1    3    3  502    0  0.76985361675E+03  0.54507405751E+03  0.17964844200E+04  0.20290732376E+04  0.12699999809E+01 0. -1.
       -4    1    3    3    0  502 -0.76985361675E+03 -0.54507405751E+03 -0.16304983898E+04  0.18836950208E+04  0.12699999809E+01 0.  1.
</event>
<event>
 5   0  0.3471602E-07  0.2504592E+04  0.7818609E-02  0.8401351E-01
       -1   -1    0    0    0  501  0.00000000000E+00  0.00000000000E+00  0.93508992974E+03  0.93508992975E+03  0.50400001928E-02 0. -1.
        1   -1    0    0  501    0  0.00000000000E+00  0.00000000000E+00 -0.16771069758E+04  0.16771069758E+04  0.50400001928E-02 0.  1.
    10030    2    1    2    0    0  0.00000000000E+00  0.00000000000E+00 -0.74201704603E+03  0.26121969055E+04  0.25045924572E+04 0.  0.
        5    1    3    3  502    0 -0.76876626472E+03 -0.42185113387E+03 -0.13034335365E+04  0.15709618146E+04  0.46999998093E+01 0.  1.
       -5    1    3    3    0  502  0.76876626472E+03  0.42185113387E+03  0.56141649043E+03  0.10412350910E+04  0.46999998093E+01 0. -1.
</event>
<event>
 5   0  0.5533705E-07  0.3921517E+04  0.7818609E-02  0.8020569E-01
       -2   -1    0    0    0  501  0.00000000000E+00  0.00000000000E+00  0.23818698281E+04  0.23818698281E+04  0.25500000920E-02 0. -1.
        2   -1    0    0  501    0  0.00000000000E+00  0.00000000000E+00 -0.16140994302E+04  0.16140994302E+04  0.25500000920E-02 0.  1.
    10030    2    1    2    0    0  0.00000000000E+00  0.00000000000E+00  0.76777039790E+03  0.39959692583E+04  0.39215174269E+04 0.  0.
        1    1    3    3  502    0  0.31609379178E+03  0.12957236326E+04 -0.10806772377E+04  0.17165891499E+04  0.50400001928E-02 0.  1.
       -1    1    3    3    0  502 -0.31609379178E+03 -0.12957236326E+04  0.18484476356E+04  0.22793801085E+04  0.50400001928E-02 0. -1.
</event>
<event>
 5   0  0.1035864E-06  0.3922639E+04  0.7818609E-02  0.8020337E-01
       -2   -1    0    0    0  501  0.00000000000E+00  0.00000000000E+00  0.15658423053E+04  0.15658423053E+04  0.25500000920E-02 0. -1.
        2   -1    0    0  501    0  0.00000000000E+00  0.00000000000E+00 -0.24566809813E+04  0.24566809813E+04  0.25500000920E-02 0.  1.
    10030    2    1    2    0    0  0.00000000000E+00  0.00000000000E+00 -0.89083867595E+03  0.40225232866E+04  0.39226394233E+04 0.  0.
        5    1    3    3  502    0  0.49429707503E+03 -0.11276685668E+04  0.11201469643E+04  0.16645471777E+04  0.46999998093E+01 0. -1.
       -5    1    3    3    0  502 -0.49429707503E+03  0.11276685668E+04 -0.20109856403E+04  0.23579761090E+04  0.46999998093E+01 0.  1.
</event>
<event>
 5   0  0.4316671E-07  0.2237830E+04  0.7818609E-02  0.8502845E-01
        1   -1    0    0  501    0  0.00000000000E+00  0.00000000000E+00  0.18473220747E+04  0.18473220747E+04  0.50400001928E-02 0.  1.
       -1   -1    0    0    0  501  0.00000000000E+00  0.00000000000E+00 -0.67772211018E+03  0.67772211020E+03  0.50400001928E-02 0. -1.
    10030    2    1    2    0    0  0.00000000000E+00  0.00000000000E+00  0.11695999646E+04  0.25250441849E+04  0.22378302122E+04 0.  0.
        2    1    3    3  502    0 -0.45454820839E+03 -0.63660192614E+02 -0.56661184051E+03  0.72918836503E+03  0.25500000920E-02 0. -1.
       -2    1    3    3    0  502  0.45454820839E+03  0.63660192614E+02  0.17362118051E+04  0.17958558199E+04  0.25500000920E-02 0.  1.
</event>
<event>
 5   0  0.5385714E-07  0.2575313E+04  0.7818609E-02  0.8376635E-01
       -1   -1    0    0    0  501  0.00000000000E+00  0.00000000000E+00  0.15576126068E+04  0.15576126068E+04  0.50400001928E-02 0. -1.
        1   -1    0    0  501    0  0.00000000000E+00  0.00000000000E+00 -0.10644876341E+04  0.10644876342E+04  0.50400001928E-02 0.  1.
    10030    2    1    2    0    0  0.00000000000E+00  0.00000000000E+00  0.49312497268E+03  0.26221002410E+04  0.25753130752E+04 0.  0.
        3    1    3    3  502    0 -0.45389551588E+03  0.68685912704E+03 -0.76150708851E+03  0.11214676347E+04  0.10100000352E+00 0.  1.
       -3    1    3    3    0  502  0.45389551588E+03 -0.68685912704E+03  0.12546320612E+04  0.15006326062E+04  0.10100000352E+00 0. -1.
</event>
<event>
 5   0  0.4316671E-07  0.3253359E+04  0.7818609E-02  0.8174866E-01
       -1   -1    0    0    0  501  0.00000000000E+00  0.00000000000E+00  0.16052794165E+04  0.16052794165E+04  0.50400001928E-02 0. -1.
        1   -1    0    0  501    0  0.00000000000E+00  0.00000000000E+00 -0.16483648965E+04  0.16483648965E+04  0.50400001928E-02 0.  1.
    10030    2    1    2    0    0  0.00000000000E+00  0.00000000000E+00 -0.43085480004E+02  0.32536443130E+04  0.32533590267E+04 0.  0.
        2    1    3    3  502    0  0.63615519517E+03  0.73102538963E+03  0.12850918958E+04  0.16095194107E+04  0.25500000920E-02 0. -1.
       -2    1    3    3    0  502 -0.63615519517E+03 -0.73102538963E+03 -0.13281773758E+04  0.16441249023E+04  0.25500000920E-02 0.  1.
</event>
<event>
 5   0  0.1034683E-06  0.2328354E+04  0.7818609E-02  0.8466825E-01
        2   -1    0    0  501    0  0.00000000000E+00  0.00000000000E+00  0.10080244386E+04  0.10080244386E+04  0.25500000920E-02 0.  1.
       -2   -1    0    0    0  501  0.00000000000E+00  0.00000000000E+00 -0.13445192474E+04  0.13445192474E+04  0.25500000920E-02 0. -1.
    10030    2    1    2    0    0  0.00000000000E+00  0.00000000000E+00 -0.33649480876E+03  0.23525436860E+04  0.23283541480E+04 0.  0.
        2    1    3    3  502    0  0.95292122054E+03 -0.59546563867E+03  0.13933283329E+03  0.11322772707E+04  0.25500000920E-02 0.  1.
       -2    1    3    3    0  502 -0.95292122054E+03  0.59546563867E+03 -0.47582764204E+03  0.12202664153E+04  0.25500000920E-02 0. -1.
</event>
<event>
 5   0  0.1015219E-06  0.3885010E+04  0.7818609E-02  0.8028154E-01
        2   -1    0    0  501    0  0.00000000000E+00  0.00000000000E+00  0.17347022344E+04  0.17347022344E+04  0.25500000920E-02 0.  1.
       -2   -1    0    0    0  501  0.00000000000E+00  0.00000000000E+00 -0.21752002958E+04  0.21752002958E+04  0.25500000920E-02 0. -1.
    10030    2    1    2    0    0  0.00000000000E+00  0.00000000000E+00 -0.44049806140E+03  0.39099025303E+04  0.38850095565E+04 0.  0.
        3    1    3    3  502    0  0.17761226832E+04 -0.34233239237E+03 -0.93296852779E+03  0.20352477826E+04  0.10100000352E+00 0. -1.
       -3    1    3    3    0  502 -0.17761226832E+04  0.34233239237E+03  0.49247046639E+03  0.18746547477E+04  0.10100000352E+00 0.  1.
</event>
<event>
 5   0  0.5533705E-07  0.3452621E+04  0.7818609E-02  0.8125111E-01
        2   -1    0    0  501    0  0.00000000000E+00  0.00000000000E+00  0.18047304986E+04  0.18047304986E+04  0.25500000920E-02 0.  1.
       -2   -1    0    0    0  501  0.00000000000E+00  0.00000000000E+00 -0.16512979902E+04  0.16512979903E+04  0.25500000920E-02 0. -1.
    10030    2    1    2    0    0  0.00000000000E+00  0.00000000000E+00  0.15343250839E+03  0.34560284889E+04  0.34526209438E+04 0.  0.
        1    1    3    3  502    0 -0.11754525128E+03  0.16399702723E+04  0.60338043894E+03  0.17513958245E+04  0.50400001928E-02 0.  1.
       -1    1    3    3    0  502  0.11754525128E+03 -0.16399702723E+04 -0.44994793055E+03  0.17046326643E+04  0.50400001928E-02 0. -1.
</event>
<event>
 5   0  0.1015219E-06  0.3797263E+04  0.7818609E-02  0.8046742E-01
        2   -1    0    0  501    0  0.00000000000E+00  0.00000000000E+00  0.15480792844E+04  0.15480792844E+04  0.25500000920E-02 0.  1.
       -2   -1    0    0    0  501  0.00000000000E+00  0.00000000000E+00 -0.23285639580E+04  0.23285639580E+04  0.25500000920E-02 0. -1.
    10030    2    1    2    0    0  0.00000000000E+00  0.00000000000E+00 -0.78048467363E+03  0.38766432424E+04  0.37972630279E+04 0.  0.
        3    1    3    3  502    0 -0.93386277098E+03 -0.11451307400E+03 -0.20738340086E+04  0.22772791714E+04  0.10100000352E+00 0. -1.
       -3    1    3    3    0  502  0.93386277098E+03  0.11451307400E+03  0.12933493349E+04  0.15993640710E+04  0.10100000352E+00 0.  1.
</event>
<event>
 5   0  0.4316671E-07  0.3212686E+04  0.7818609E-02  0.8185475E-01
       -1   -1    0    0    0  501  0.00000000000E+00  0.00000000000E+00  0.12871833567E+04  0.12871833568E+04  0.50400001928E-02 0.  1.
        1   -1    0    0  501    0  0.00000000000E+00  0.00000000000E+00 -0.20046392978E+04  0.20046392978E+04  0.50400001928E-02 0. -1.
    10030    2    1    2    0    0  0.00000000000E+00  0.00000000000E+00 -0.71745594105E+03  0.32918226546E+04  0.32126863155E+04 0.  0.
        2    1    3    3  502    0  0.11785293174E+03 -0.11192870363E+04 -0.15331040782E+04  0.19018677392E+04  0.25500000920E-02 0. -1.
       -2    1    3    3    0  502 -0.11785293174E+03  0.11192870363E+04  0.81564813710E+03  0.13899549153E+04  0.25500000920E-02 0.  1.
</event>
<event>
 5   0  0.3471602E-07  0.3721033E+04  0.7818609E-02  0.8063317E-01
       -1   -1    0    0    0  501  0.00000000000E+00  0.00000000000E+00  0.21846741430E+04  0.21846741430E+04  0.50400001928E-02 0. -1.
        1   -1    0    0  501    0  0.00000000000E+00  0.00000000000E+00 -0.15844564363E+04  0.15844564363E+04  0.50400001928E-02 0.  1.
    10030    2    1    2    0    0  0.00000000000E+00  0.00000000000E+00  0.60021770666E+03  0.37691305793E+04  0.37210326561E+04 0.  0.
        5    1    3    3  502    0 -0.88118749135E+03 -0.11117115566E+04  0.15194567127E+04  0.20787411507E+04  0.46999998093E+01 0. -1.
       -5    1    3    3    0  502  0.88118749135E+03  0.11117115566E+04 -0.91923900606E+03  0.16903894285E+04  0.46999998093E+01 0.  1.
</event>
<event>
 5   0  0.5385714E-07  0.2053869E+04  0.7818609E-02  0.8581841E-01
       -1   -1    0    0    0  501  0.00000000000E+00  0.00000000000E+00  0.52353247889E+03  0.52353247892E+03  0.50400001928E-02 0. -1.
        1   -1    0    0  501    0  0.00000000000E+00  0.00000000000E+00 -0.20143820609E+04  0.20143820609E+04  0.50400001928E-02 0.  1.
    10030    2    1    2    0    0  0.00000000000E+00  0.00000000000E+00 -0.14908495820E+04  0.25379145398E+04  0.20538689674E+04 0.  0.
        3    1    3    3  502    0 -0.57261910717E+03  0.19630569618E+03  0.27963883031E+03  0.66680315976E+03  0.10100000352E+00 0. -1.
       -3    1    3    3    0  502  0.57261910717E+03 -0.19630569618E+03 -0.17704884123E+04  0.18711113801E+04  0.10100000352E+00 0.  1.
</event>
<event>
 5   0  0.3471602E-07  0.2537122E+04  0.7818609E-02  0.8389879E-01
       -1   -1    0    0    0  501  0.00000000000E+00  0.00000000000E+00  0.19403160251E+04  0.19403160251E+04  0.50400001928E-02 0. -1.
        1   -1    0    0  501    0  0.00000000000E+00  0.00000000000E+00 -0.82937368349E+03  0.82937368350E+03  0.50400001928E-02 0.  1.
    10030    2    1    2    0    0  0.00000000000E+00  0.00000000000E+00  0.11109423416E+04  0.27696897086E+04  0.25371220301E+04 0.  0.
        5    1    3    3  502    0 -0.34407185424E+03 -0.10209401610E+04 -0.17563594234E+03  0.10915925648E+04  0.46999998093E+01 0.  1.
       -5    1    3    3    0  502  0.34407185424E+03  0.10209401610E+04  0.12865782840E+04  0.16780971438E+04  0.46999998093E+01 0. -1.
</event>
<event>
 5   0  0.1034683E-06  0.2264557E+04  0.7818609E-02  0.8492028E-01
        2   -1    0    0  501    0  0.00000000000E+00  0.00000000000E+00  0.16577591963E+04  0.16577591963E+04  0.25500000920E-02 0.  1.
       -2   -1    0    0    0  501  0.00000000000E+00  0.00000000000E+00 -0.77336588606E+03  0.77336588606E+03  0.25500000920E-02 0. -1.
    10030    2    1    2    0    0  0.00000000000E+00  0.00000000000E+00  0.88439331026E+03  0.24311250824E+04  0.22645568306E+04 0.  0.
        2    1    3    3  502    0 -0.57389340044E+03  0.17751476238E+02  0.14898811189E+04  0.15966886041E+04  0.25500000920E-02 0.  1.
       -2    1    3    3    0  502  0.57389340044E+03 -0.17751476238E+02 -0.60548780861E+03  0.83443647832E+03  0.25500000920E-02 0. -1.
</event>
<event>
 5   0  0.5533705E-07  0.3953347E+04  0.7818609E-02  0.8014025E-01
        2   -1    0    0  501    0  0.00000000000E+00  0.00000000000E+00  0.17208517284E+04  0.17208517284E+04  0.25500000920E-02 0. -1.
       -2   -1    0    0    0  501  0.00000000000E+00  0.00000000000E+00 -0.22705262387E+04  0.22705262387E+04  0.25500000920E-02 0.  1.
    10030    2    1    2    0    0  0.00000000000E+00  0.00000000000E+00 -0.54967451030E+03  0.39913779671E+04  0.39533474435E+04 0.  0.
        1    1    3    3  502    0  0.21794005653E+03  0.50801845253E+03 -0.21908973685E+04  0.22595601111E+04  0.50400001928E-02 0.  1.
       -1    1    3    3    0  502 -0.21794005653E+03 -0.50801845253E+03  0.16412228582E+04  0.17318178561E+04  0.50400001928E-02 0. -1.
</event>
<event>
 5   0  0.5533705E-07  0.2200441E+04  0.7818609E-02  0.8518245E-01
        2   -1    0    0  501    0  0.00000000000E+00  0.00000000000E+00  0.93825943795E+03  0.93825943795E+03  0.25500000920E-02 0. -1.
       -2   -1    0    0    0  501  0.00000000000E+00  0.00000000000E+00 -0.12901386938E+04  0.12901386938E+04  0.25500000920E-02 0.  1.
    10030    2    1    2    0    0  0.00000000000E+00  0.00000000000E+00 -0.35187925584E+03  0.22283981317E+04  0.22004406883E+04 0.  0.
        1    1    3    3  502    0  0.10473570452E+04  0.18234433438E+03 -0.46287423464E+03  0.11595079963E+04  0.50400001928E-02 0.  1.
       -1    1    3    3    0  502 -0.10473570452E+04 -0.18234433438E+03  0.11099497880E+03  0.10688901355E+04  0.50400001928E-02 0. -1.
</event>
<event>
 5   0  0.1035864E-06  0.3878200E+04  0.7818609E-02  0.8029579E-01
        2   -1    0    0  501    0  0.00000000000E+00  0.00000000000E+00  0.25678188520E+04  0.25678188520E+04  0.25500000920E-02 0. -1.
       -2   -1    0    0    0  501  0.00000000000E+00  0.00000000000E+00 -0.14643197630E+04  0.14643197630E+04  0.25500000920E-02 0.  1.
    10030    2    1    2    0    0  0.00000000000E+00  0.00000000000E+00  0.11034990890E+04  0.40321386149E+04  0.38781995269E+04 0.  0.
        5    1    3    3  502    0  0.12950186663E+04  0.20598034877E+02 -0.94865027751E+03  0.16054460639E+04  0.46999998093E+01 0.  1.
       -5    1    3    3    0  502 -0.12950186663E+04 -0.20598034877E+02  0.20521493665E+04  0.24266925511E+04  0.46999998093E+01 0. -1.
</event>
<event>
 5   0  0.7268013E-07  0.3916990E+04  0.7818609E-02  0.8021505E-01
        2   -1    0    0  501    0  0.00000000000E+00  0.00000000000E+00  0.27675876788E+04  0.27675876788E+04  0.25500000920E-02 0.  1.
       -2   -1    0    0    0  501  0.00000000000E+00  0.00000000000E+00 -0.13859372115E+04  0.13859372115E+04  0.25500000920E-02 0. -1.
    10030    2    1    2    0    0  0.00000000000E+00  0.00000000000E+00  0.13816504673E+04  0.41535248903E+04  0.39169900435E+04 0.  0.
        4    1    3    3  502    0 -0.70422847248E+03  0.13335596461E+04 -0.63418411697E+03  0.16360043332E+04  0.12699999809E+01 0. -1.
       -4    1    3    3    0  502  0.70422847248E+03 -0.13335596461E+04  0.20158345843E+04  0.25175205571E+04  0.12699999809E+01 0.  1.
</event>
<event>
 5   0  0.5533705E-07  0.2867280E+04  0.7818609E-02  0.8282680E-01
       -2   -1    0    0    0  501  0.00000000000E+00  0.00000000000E+00  0.10661180385E+04  0.10661180385E+04  0.25500000920E-02 0.  1.
        2   -1    0    0  501    0  0.00000000000E+00  0.00000000000E+00 -0.19278578447E+04  0.19278578447E+04  0.25500000920E-02 0. -1.
    10030    2    1    2    0    0  0.00000000000E+00  0.00000000000E+00 -0.86173980617E+03  0.29939758832E+04  0.28672802611E+04 0.  0.
        1    1    3    3  502    0  0.72888978403E+03  0.11715984593E+04 -0.83716555602E+03  0.16139298111E+04  0.50400001928E-02 0.  1.
       -1    1    3    3    0  502 -0.72888978403E+03 -0.11715984593E+04 -0.24574250148E+02  0.13800460720E+04  0.50400001928E-02 0. -1.
</event>
<event>
 5   0  0.5533705E-07  0.3937661E+04  0.7818609E-02  0.8017242E-01
        2   -1    0    0  501    0  0.00000000000E+00  0.00000000000E+00  0.24578956144E+04  0.24578956144E+04  0.25500000920E-02 0.  1.
       -2   -1    0    0    0  501  0.00000000000E+00  0.00000000000E+00 -0.15770784980E+04  0.15770784980E+04  0.25500000920E-02 0. -1.
    10030    2    1    2    0    0  0.00000000000E+00  0.00000000000E+00  0.88081711643E+03  0.40349741123E+04  0.39376613992E+04 0.  0.
        1    1    3    3  502    0  0.79886417102E+03 -0.15956030497E+04  0.12929314139E+04  0.22035890490E+04  0.50400001928E-02 0.  1.
       -1    1    3    3    0  502 -0.79886417102E+03  0.15956030497E+04 -0.41211429746E+03  0.18313850633E+04  0.50400001928E-02 0. -1.
</event>
<event>
 5   0  0.5533705E-07  0.3914237E+04  0.7818609E-02  0.8022075E-01
       -2   -1    0    0    0  501  0.00000000000E+00  0.00000000000E+00  0.17486309713E+04  0.17486309713E+04  0.25500000920E-02 0. -1.
        2   -1    0    0  501    0  0.00000000000E+00  0.00000000000E+00 -0.21904641858E+04  0.21904641858E+04  0.25500000920E-02 0.  1.
    10030    2    1    2    0    0  0.00000000000E+00  0.00000000000E+00 -0.44183321446E+03  0.39390951571E+04  0.39142373545E+04 0.  0.
        1    1    3    3  502    0  0.34101355012E+03  0.18207680707E+04  0.41462141909E+03  0.18982617127E+04  0.50400001928E-02 0. -1.
       -1    1    3    3    0  502 -0.34101355012E+03 -0.18207680707E+04 -0.85645463354E+03  0.20408334445E+04  0.50400001928E-02 0.  1.
</event>
<event>
 5   0  0.1015219E-06  0.2950512E+04  0.7818609E-02  0.8258005E-01
       -2   -1    0    0    0  501  0.00000000000E+00  0.00000000000E+00  0.85534343201E+03  0.85534343202E+03  0.25500000920E-02 0. -1.
        2   -1    0    0  501    0  0.00000000000E+00  0.00000000000E+00 -0.25444515641E+04  0.25444515641E+04  0.25500000920E-02 0.  1.
    10030    2    1    2    0    0  0.00000000000E+00  0.00000000000E+00 -0.16891081321E+04  0.33997949961E+04  0.29505117749E+04 0.  0.
        3    1    3    3  502    0  0.38436059056E+03 -0.86403460263E+03  0.46015840922E+03  0.10516818102E+04  0.10100000352E+00 0. -1.
       -3    1    3    3    0  502 -0.38436059056E+03  0.86403460263E+03 -0.21492665413E+04  0.23481131859E+04  0.10100000352E+00 0.  1.
</event>
<event>
 5   0  0.5385714E-07  0.4068152E+04  0.7818609E-02  0.7990938E-01
       -1   -1    0    0    0  501  0.00000000000E+00  0.00000000000E+00  0.25668643614E+04  0.25668643614E+04  0.50400001928E-02 0. -1.
        1   -1    0    0  501    0  0.00000000000E+00  0.00000000000E+00 -0.16118750463E+04  0.16118750463E+04  0.50400001928E-02 0.  1.
    10030    2    1    2    0    0  0.00000000000E+00  0.00000000000E+00  0.95498931510E+03  0.41787394076E+04  0.40681517235E+04 0.  0.
        3    1    3    3  502    0 -0.59680331086E+03 -0.14211378174E+04 -0.88586020622E+03  0.17777950397E+04  0.10100000352E+00 0.  1.
       -3    1    3    3    0  502  0.59680331086E+03  0.14211378174E+04  0.18408495213E+04  0.24009443680E+04  0.10100000352E+00 0. -1.
</event>
<event>
 5   0  0.1035864E-06  0.3837929E+04  0.7818609E-02  0.8038064E-01
       -2   -1    0    0    0  501  0.00000000000E+00  0.00000000000E+00  0.18567555189E+04  0.18567555189E+04  0.25500000920E-02 0. -1.
        2   -1    0    0  501    0  0.00000000000E+00  0.00000000000E+00 -0.19832579695E+04  0.19832579695E+04  0.25500000920E-02 0.  1.
    10030    2    1    2    0    0  0.00000000000E+00  0.00000000000E+00 -0.12650245054E+03  0.38400134884E+04  0.38379292230E+04 0.  0.
        5    1    3    3  502    0  0.14373280509E+04 -0.57150006107E+03 -0.11995963378E+04  0.19574416235E+04  0.46999998093E+01 0.  1.
       -5    1    3    3    0  502 -0.14373280509E+04  0.57150006107E+03  0.10730938872E+04  0.18825718649E+04  0.46999998093E+01 0. -1.
</event>
<event>
 5   0  0.4316671E-07  0.3882692E+04  0.7818609E-02  0.8028639E-01
       -1   -1    0    0    0  501  0.00000000000E+00  0.00000000000E+00  0.17917389409E+04  0.17917389409E+04  0.50400001928E-02 0. -1.
        1   -1    0    0  501    0  0.00000000000E+00  0.00000000000E+00 -0.21034450191E+04  0.21034450191E+04  0.50400001928E-02 0.  1.
    10030    2    1    2    0    0  0.00000000000E+00  0.00000000000E+00 -0.31170607817E+03  0.38951839601E+04  0.38826920305E+04 0.  0.
        2    1    3    3  502    0 -0.63928591855E+03 -0.70774711494E+03 -0.18522196591E+04  0.20833410978E+04  0.25500000920E-02 0.  1.
       -2    1    3    3    0  502  0.63928591855E+03  0.70774711494E+03  0.15405135809E+04  0.18118428622E+04  0.25500000920E-02 0. -1.
</event>
<event>
 5   0  0.5533705E-07  0.2588651E+04  0.7818609E-02  0.8372067E-01
       -2   -1    0    0    0  501  0.00000000000E+00  0.00000000000E+00  0.16045040353E+04  0.16045040353E+04  0.25500000920E-02 0. -1.
        2   -1    0    0  501    0  0.00000000000E+00  0.00000000000E+00 -0.10441094890E+04  0.10441094890E+04  0.25500000920E-02 0.  1.
    10030    2    1    2    0    0  0.00000000000E+00  0.00000000000E+00  0.56039454633E+03  0.26486135243E+04  0.25886505275E+04 0.  0.
        1    1    3    3  502    0  0.81901353545E+03 -0.90652660786E+03  0.71753753966E+03  0.14168393638E+04  0.50400001928E-02 0. -1.
       -1    1    3    3    0  502 -0.81901353545E+03  0.90652660786E+03 -0.15714299333E+03  0.12317741605E+04  0.50400001928E-02 0.  1.
</event>
<event>
 5   0  0.5533705E-07  0.3108232E+04  0.7818609E-02  0.8213482E-01
       -2   -1    0    0    0  501  0.00000000000E+00  0.00000000000E+00  0.12873453500E+04  0.12873453501E+04  0.25500000920E-02 0. -1.
        2   -1    0    0  501    0  0.00000000000E+00  0.00000000000E+00 -0.18761684262E+04  0.18761684262E+04  0.25500000920E-02 0.  1.
    10030    2    1    2    0    0  0.00000000000E+00  0.00000000000E+00 -0.58882307613E+03  0.31635137762E+04  0.31082321016E+04 0.  0.
        1    1    3    3  502    0  0.10087562303E+04 -0.78909822719E+03  0.60159334681E+03  0.14149839926E+04  0.50400001928E-02 0. -1.
       -1    1    3    3    0  502 -0.10087562303E+04  0.78909822719E+03 -0.11904164229E+04  0.17485297837E+04  0.50400001928E-02 0.  1.
</event>
<event>
 5   0  0.5533705E-07  0.2131417E+04  0.7818609E-02  0.8547529E-01
        2   -1    0    0  501    0  0.00000000000E+00  0.00000000000E+00  0.12613733202E+04  0.12613733202E+04  0.25500000920E-02 0.  1.
       -2   -1    0    0    0  501  0.00000000000E+00  0.00000000000E+00 -0.90039494900E+03  0.90039494900E+03  0.25500000920E-02 0. -1.
    10030    2    1    2    0    0  0.00000000000E+00  0.00000000000E+00  0.36097837122E+03  0.21617682692E+04  0.21314165865E+04 0.  0.
        1    1    3    3  502    0  0.32249332778E+03 -0.85574349497E+03 -0.37450992699E+03  0.98820876392E+03  0.50400001928E-02 0. -1.
       -1    1    3    3    0  502 -0.32249332778E+03  0.85574349497E+03  0.73548829821E+03  0.11735595053E+04  0.50400001928E-02 0.  1.
</event>
<event>
 5   0  0.3977376E-07  0.3970827E+04  0.7818609E-02  0.8010458E-01
        1   -1    0    0  501    0  0.00000000000E+00  0.00000000000E+00  0.16844650100E+04  0.16844650100E+04  0.50400001928E-02 0.  1.
       -1   -1    0    0    0  501  0.00000000000E+00  0.00000000000E+00 -0.23401292901E+04  0.23401292901E+04  0.50400001928E-02 0. -1.
    10030    2    1    2    0    0  0.00000000000E+00  0.00000000000E+00 -0.65566428009E+03  0.40245943001E+04  0.39708265679E+04 0.  0.
        4    1    3    3  502    0  0.17842754295E+04 -0.21839407828E+03 -0.11821751094E+04  0.21514819041E+04  0.12699999809E+01 0. -1.
       -4    1    3    3    0  502 -0.17842754295E+04  0.21839407828E+03  0.52651082928E+03  0.18731123960E+04  0.12699999809E+01 0.  1.
</event>
<event>
 5   0  0.1034683E-06  0.3893258E+04  0.7818609E-02  0.8026433E-01
       -2   -1    0    0    0  501  0.00000000000E+00  0.00000000000E+00  0.19493658981E+04  0.19493658981E+04  0.25500000920E-02 0.  1.
        2   -1    0    0  501    0  0.00000000000E+00  0.00000000000E+00 -0.19438954768E+04  0.19438954768E+04  0.25500000920E-02 0. -1.
    10030    2    1    2    0    0  0.00000000000E+00  0.00000000000E+00  0.54704213113E+01  0.38932613749E+04  0.38932575316E+04 0.  0.
        2    1    3    3  502    0  0.88634639988E+02 -0.24580560636E+03 -0.19262786314E+04  0.19439202302E+04  0.25500000920E-02 0. -1.
       -2    1    3    3    0  502 -0.88634639988E+02  0.24580560636E+03  0.19317490527E+04  0.19493411447E+04  0.25500000920E-02 0.  1.
</event>
<event>
 5   0  0.5533705E-07  0.3895367E+04  0.7818609E-02  0.8025994E-01
       -2   -1    0    0    0  501  0.00000000000E+00  0.00000000000E+00  0.17910660772E+04  0.17910660772E+04  0.25500000920E-02 0.  1.
        2   -1    0    0  501    0  0.00000000000E+00  0.00000000000E+00 -0.21179957116E+04  0.21179957116E+04  0.25500000920E-02 0. -1.
    10030    2    1    2    0    0  0.00000000000E+00  0.00000000000E+00 -0.32692963436E+03  0.39090617888E+04  0.38953666173E+04 0.  0.
        1    1    3    3  502    0 -0.10559874237E+04  0.10441115482E+04  0.11012007270E+04  0.18487621278E+04  0.50400001928E-02 0.  1.
       -1    1    3    3    0  502  0.10559874237E+04 -0.10441115482E+04 -0.14281303614E+04  0.20602996610E+04  0.50400001928E-02 0. -1.
</event>
<event>
 5   0  0.4627905E-07  0.2324435E+04  0.7818609E-02  0.8468349E-01
       -1   -1    0    0    0  501  0.00000000000E+00  0.00000000000E+00  0.95568196374E+03  0.95568196376E+03  0.50400001928E-02 0.  1.
        1   -1    0    0  501    0  0.00000000000E+00  0.00000000000E+00 -0.14133882036E+04  0.14133882036E+04  0.50400001928E-02 0. -1.
    10030    2    1    2    0    0  0.00000000000E+00  0.00000000000E+00 -0.45770623981E+03  0.23690701673E+04  0.23244350831E+04 0.  0.
        1    1    3    3  502    0  0.89532636480E+03  0.59954869375E+03 -0.67274090462E+03  0.12702945566E+04  0.50400001928E-02 0. -1.
       -1    1    3    3    0  502 -0.89532636480E+03 -0.59954869375E+03  0.21503466481E+03  0.10987756107E+04  0.50400001928E-02 0.  1.
</event>
<event>
 5   0  0.7268013E-07  0.4152409E+04  0.7818609E-02  0.7974487E-01
       -2   -1    0    0    0  501  0.00000000000E+00  0.00000000000E+00  0.18295323629E+04  0.18295323629E+04  0.25500000920E-02 0.  1.
        2   -1    0    0  501    0  0.00000000000E+00  0.00000000000E+00 -0.23561346372E+04  0.23561346372E+04  0.25500000920E-02 0. -1.
    10030    2    1    2    0    0  0.00000000000E+00  0.00000000000E+00 -0.52660227431E+03  0.41856670002E+04  0.41524087324E+04 0.  0.
        4    1    3    3  502    0  0.26442105005E+03  0.18636095140E+04 -0.11464830747E+04  0.22039473601E+04  0.12699999809E+01 0. -1.
       -4    1    3    3    0  502 -0.26442105005E+03 -0.18636095140E+04  0.61988080042E+03  0.19817196401E+04  0.12699999809E+01 0.  1.
</event>
<event>
 5   0  0.3191750E-07  0.3994332E+04  0.7818609E-02  0.8005691E-01
       -3   -1    0    0    0  501  0.00000000000E+00  0.00000000000E+00  0.18549719263E+04  0.18549719291E+04  0.10100000352E+00 0. -1.
        3   -1    0    0  501    0  0.00000000000E+00  0.00000000000E+00 -0.21502604224E+04  0.21502604248E+04  0.10100000352E+00 0.  1.
    10030    2    1    2    0    0  0.00000000000E+00  0.00000000000E+00 -0.29528849603E+03  0.40052323538E+04  0.39943323488E+04 0.  0.
        3    1    3    3  502    0  0.19667311446E+04  0.20212191258E+03 -0.43088286049E+03  0.20234981374E+04  0.10100000352E+00 0. -1.
       -3    1    3    3    0  502 -0.19667311446E+04 -0.20212191258E+03  0.13559436446E+03  0.19817342164E+04  0.10100000352E+00 0.  1.
</event>
<event>
 5   0  0.1015219E-06  0.2088794E+04  0.7818609E-02  0.8566196E-01
        2   -1    0    0  501    0  0.00000000000E+00  0.00000000000E+00  0.16427212519E+04  0.16427212519E+04  0.25500000920E-02 0. -1.
       -2   -1    0    0    0  501  0.00000000000E+00  0.00000000000E+00 -0.66399908729E+03  0.66399908729E+03  0.25500000920E-02 0.  1.
    10030    2    1    2    0    0  0.00000000000E+00  0.00000000000E+00  0.97872216458E+03  0.23067203392E+04  0.20887943048E+04 0.  0.
        3    1    3    3  502    0 -0.36864364707E+03 -0.22440144947E+02 -0.58947689748E+03  0.69561822971E+03  0.10100000352E+00 0.  1.
       -3    1    3    3    0  502  0.36864364707E+03  0.22440144947E+02  0.15681990621E+04  0.16111021095E+04  0.10100000352E+00 0. -1.
</event>
<event>
 5   0  0.7268013E-07  0.3899579E+04  0.7818609E-02  0.8025117E-01
       -2   -1    0    0    0  501  0.00000000000E+00  0.00000000000E+00  0.21467439242E+04  0.21467439242E+04  0.25500000920E-02 0.  1.
        2   -1    0    0  501    0  0.00000000000E+00  0.00000000000E+00 -0.17709051969E+04  0.17709051969E+04  0.25500000920E-02 0. -1.
    10030    2    1    2    0    0  0.00000000000E+00  0.00000000000E+00  0.37583872734E+03  0.39176491210E+04  0.38995794500E+04 0.  0.
        4    1    3    3  502    0  0.42708658636E+02 -0.19286686923E+04  0.47223498247E+03  0.19861003111E+04  0.12699999809E+01 0.  1.
       -4    1    3    3    0  502 -0.42708658636E+02  0.19286686923E+04 -0.96396255136E+02  0.19315488099E+04  0.12699999809E+01 0. -1.
</event>
<event>
 5   0  0.5533705E-07  0.3851822E+04  0.7818609E-02  0.8035125E-01
       -2   -1    0    0    0  501  0.00000000000E+00  0.00000000000E+00  0.17797502027E+04  0.17797502027E+04  0.25500000920E-02 0. -1.
        2   -1    0    0  501    0  0.00000000000E+00  0.00000000000E+00 -0.20840750873E+04  0.20840750874E+04  0.25500000920E-02 0.  1.
    10030    2    1    2    0    0  0.00000000000E+00  0.00000000000E+00 -0.30432488464E+03  0.38638252901E+04  0.38518219373E+04 0.  0.
        1    1    3    3  502    0  0.17598101200E+03 -0.60521924578E+03 -0.19776889456E+04  0.20756958394E+04  0.50400001928E-02 0.  1.
       -1    1    3    3    0  502 -0.17598101200E+03  0.60521924578E+03  0.16733640609E+04  0.17881294507E+04  0.50400001928E-02 0. -1.
</event>
<event>
 5   0  0.5533705E-07  0.3905344E+04  0.7818609E-02  0.8023919E-01
        2   -1    0    0  501    0  0.00000000000E+00  0.00000000000E+00  0.31218166037E+04  0.31218166037E+04  0.25500000920E-02 0. -1.
       -2   -1    0    0    0  501  0.00000000000E+00  0.00000000000E+00 -0.12213813920E+04  0.12213813920E+04  0.25500000920E-02 0.  1.
    10030    2    1    2    0    0  0.00000000000E+00  0.00000000000E+00  0.19004352117E+04  0.43431979957E+04  0.39053443940E+04 0.  0.
        1    1    3    3  502    0  0.70049086998E+03  0.17237047814E+04  0.16091718167E+04  0.24599348707E+04  0.50400001928E-02 0. -1.
       -1    1    3    3    0  502 -0.70049086998E+03 -0.17237047814E+04  0.29126339499E+03  0.18832631249E+04  0.50400001928E-02 0.  1.
</event>
<event>
 5   0  0.7268013E-07  0.3917021E+04  0.7818609E-02  0.8021498E-01
       -2   -1    0    0    0  501  0.00000000000E+00  0.00000000000E+00  0.21668070114E+04  0.21668070114E+04  0.25500000920E-02 0.  1.
        2   -1    0    0  501    0  0.00000000000E+00  0.00000000000E+00 -0.17702376691E+04  0.17702376691E+04  0.25500000920E-02 0. -1.
    10030    2    1    2    0    0  0.00000000000E+00  0.00000000000E+00  0.39656934228E+03  0.39370446806E+04  0.39170210075E+04 0.  0.
        4    1    3    3  502    0  0.19693151955E+03 -0.34383117522E+03  0.21260988207E+04  0.21627065702E+04  0.12699999809E+01 0.  1.
       -4    1    3    3    0  502 -0.19693151955E+03  0.34383117522E+03 -0.17295294784E+04  0.17743381104E+04  0.12699999809E+01 0. -1.
</event>
<event>
 5   0  0.5533705E-07  0.2069841E+04  0.7818609E-02  0.8574646E-01
       -2   -1    0    0    0  501  0.00000000000E+00  0.00000000000E+00  0.11832289479E+04  0.11832289479E+04  0.25500000920E-02 0.  1.
        2   -1    0    0  501    0  0.00000000000E+00  0.00000000000E+00 -0.90520173807E+03  0.90520173807E+03  0.25500000920E-02 0. -1.
    10030    2    1    2    0    0  0.00000000000E+00  0.00000000000E+00  0.27802720979E+03  0.20884306859E+04  0.20698414433E+04 0.  0.
        1    1    3    3  502    0 -0.64665314258E+03 -0.31183087222E+03  0.89113576279E+03  0.11443433608E+04  0.50400001928E-02 0.  1.
       -1    1    3    3    0  502  0.64665314258E+03  0.31183087222E+03 -0.61310855300E+03  0.94408732513E+03  0.50400001928E-02 0. -1.
</event>
<event>
 5   0  0.3471602E-07  0.3549647E+04  0.7818609E-02  0.8102124E-01
        1   -1    0    0  501    0  0.00000000000E+00  0.00000000000E+00  0.24239131061E+04  0.24239131062E+04  0.50400001928E-02 0. -1.
       -1   -1    0    0    0  501  0.00000000000E+00  0.00000000000E+00 -0.12995509999E+04  0.12995510000E+04  0.50400001928E-02 0.  1.
    10030    2    1    2    0    0  0.00000000000E+00  0.00000000000E+00  0.11243621062E+04  0.37234641061E+04  0.35496471379E+04 0.  0.
        5    1    3    3  502    0 -0.23384930181E+03  0.81657489518E+03 -0.10724913640E+04  0.13681154451E+04  0.46999998093E+01 0.  1.
       -5    1    3    3    0  502  0.23384930181E+03 -0.81657489518E+03  0.21968534702E+04  0.23553486610E+04  0.46999998093E+01 0. -1.
</event>
<event>
 5   0  0.5533705E-07  0.3818530E+04  0.7818609E-02  0.8042190E-01
       -2   -1    0    0    0  501  0.00000000000E+00  0.00000000000E+00  0.15247083690E+04  0.15247083690E+04  0.25500000920E-02 0.  1.
        2   -1    0    0  501    0  0.00000000000E+00  0.00000000000E+00 -0.23908132492E+04  0.23908132492E+04  0.25500000920E-02 0. -1.
    10030    2    1    2    0    0  0.00000000000E+00  0.00000000000E+00 -0.86610488024E+03  0.39155216182E+04  0.38185300679E+04 0.  0.
        1    1    3    3  502    0  0.89793399403E+03  0.36499294615E+03 -0.21197618487E+04  0.23308572680E+04  0.50400001928E-02 0. -1.
       -1    1    3    3    0  502 -0.89793399403E+03 -0.36499294615E+03  0.12536569685E+04  0.15846643503E+04  0.50400001928E-02 0.  1.
</event>
<event>
 5   0  0.4627905E-07  0.2315073E+04  0.7818609E-02  0.8472002E-01
        1   -1    0    0  501    0  0.00000000000E+00  0.00000000000E+00  0.14915814260E+04  0.14915814260E+04  0.50400001928E-02 0.  1.
       -1   -1    0    0    0  501  0.00000000000E+00  0.00000000000E+00 -0.89830205776E+03  0.89830205777E+03  0.50400001928E-02 0. -1.
    10030    2    1    2    0    0  0.00000000000E+00  0.00000000000E+00  0.59327936822E+03  0.23898834838E+04  0.23150729270E+04 0.  0.
        1    1    3    3  502    0  0.10240564448E+04 -0.51616535079E+03  0.13416113573E+03  0.11546070682E+04  0.50400001928E-02 0. -1.
       -1    1    3    3    0  502 -0.10240564448E+04  0.51616535079E+03  0.45911823249E+03  0.12352764156E+04  0.50400001928E-02 0.  1.
</event>
<event>
 5   0  0.7268013E-07  0.3805822E+04  0.7818609E-02  0.8044907E-01
       -2   -1    0    0    0  501  0.00000000000E+00  0.00000000000E+00  0.17889203651E+04  0.17889203651E+04  0.25500000920E-02 0. -1.
        2   -1    0    0  501    0  0.00000000000E+00  0.00000000000E+00 -0.20241651083E+04  0.20241651083E+04  0.25500000920E-02 0.  1.
    10030    2    1    2    0    0  0.00000000000E+00  0.00000000000E+00 -0.23524474322E+03  0.38130854735E+04  0.38058219531E+04 0.  0.
        4    1    3    3  502    0 -0.67747679616E+03 -0.17701271711E+04 -0.28748520209E+03  0.19170222652E+04  0.12699999809E+01 0.  1.
       -4    1    3    3    0  502  0.67747679616E+03  0.17701271711E+04  0.52240458870E+02  0.18960632082E+04  0.12699999809E+01 0. -1.
</event>
<event>
 5   0  0.7268013E-07  0.3746424E+04  0.7818609E-02  0.8057751E-01
       -2   -1    0    0    0  501  0.00000000000E+00  0.00000000000E+00  0.12883484798E+04  0.12883484798E+04  0.25500000920E-02 0. -1.
        2   -1    0    0  501    0  0.00000000000E+00  0.00000000000E+00 -0.27235823099E+04  0.27235823099E+04  0.25500000920E-02 0.  1.
    10030    2    1    2    0    0  0.00000000000E+00  0.00000000000E+00 -0.14352338301E+04  0.40119307897E+04  0.37464239635E+04 0.  0.
        4    1    3    3  502    0  0.69993770042E+03  0.10598478781E+04  0.75681556485E+03  0.14784998212E+04  0.12699999809E+01 0. -1.
       -4    1    3    3    0  502 -0.69993770042E+03 -0.10598478781E+04 -0.21920493950E+04  0.25334309685E+04  0.12699999809E+01 0.  1.
</event>
<event>
 5   0  0.7268013E-07  0.2623767E+04  0.7818609E-02  0.8360173E-01
       -2   -1    0    0    0  501  0.00000000000E+00  0.00000000000E+00  0.58300665732E+03  0.58300665733E+03  0.25500000920E-02 0.  1.
        2   -1    0    0  501    0  0.00000000000E+00  0.00000000000E+00 -0.29520054049E+04  0.29520054049E+04  0.25500000920E-02 0. -1.
    10030    2    1    2    0    0  0.00000000000E+00  0.00000000000E+00 -0.23689987476E+04  0.35350120623E+04  0.26237673704E+04 0.  0.
        4    1    3    3  502    0 -0.49794912461E+03 -0.86528060924E+02 -0.28155702025E+04  0.28605729521E+04  0.12699999809E+01 0. -1.
       -4    1    3    3    0  502  0.49794912461E+03  0.86528060924E+02  0.44657145493E+03  0.67443911014E+03  0.12699999809E+01 0.  1.
</event>
<event>
 5   0  0.5533705E-07  0.3762977E+04  0.7818609E-02  0.8054147E-01
       -2   -1    0    0    0  501  0.00000000000E+00  0.00000000000E+00  0.18909352868E+04  0.18909352868E+04  0.25500000920E-02 0.  1.
        2   -1    0    0  501    0  0.00000000000E+00  0.00000000000E+00 -0.18720890891E+04  0.18720890891E+04  0.25500000920E-02 0. -1.
    10030    2    1    2    0    0  0.00000000000E+00  0.00000000000E+00  0.18846197668E+02  0.37630243759E+04  0.37629771822E+04 0.  0.
        1    1    3    3  502    0  0.15048841396E+04  0.49982013617E+03  0.10221069584E+04  0.18865839702E+04  0.50400001928E-02 0.  1.
       -1    1    3    3    0  502 -0.15048841396E+04 -0.49982013617E+03 -0.10032607607E+04  0.18764404057E+04  0.50400001928E-02 0. -1.
</event>
<event>
 5   0  0.3977376E-07  0.2786399E+04  0.7818609E-02  0.8307503E-01
       -1   -1    0    0    0  501  0.00000000000E+00  0.00000000000E+00  0.11756153677E+04  0.11756153677E+04  0.50400001928E-02 0.  1.
        1   -1    0    0  501    0  0.00000000000E+00  0.00000000000E+00 -0.16510546917E+04  0.16510546917E+04  0.50400001928E-02 0. -1.
    10030    2    1    2    0    0  0.00000000000E+00  0.00000000000E+00 -0.47543932399E+03  0.28266700594E+04  0.27863993027E+04 0.  0.
        4    1    3    3  502    0  0.12419400719E+04 -0.23931188296E+03  0.35494847030E+03  0.13136496295E+04  0.12699999809E+01 0.  1.
       -4    1    3    3    0  502 -0.12419400719E+04  0.23931188296E+03 -0.83038779429E+03  0.15130204299E+04  0.12699999809E+01 0. -1.
</event>
<event>
 5   0  0.3471602E-07  0.3937170E+04  0.7818609E-02  0.8017343E-01
        1   -1    0    0  501    0  0.00000000000E+00  0.00000000000E+00  0.20837898168E+04  0.20837898168E+04  0.50400001928E-02 0.  1.
       -1   -1    0    0    0  501  0.00000000000E+00  0.00000000000E+00 -0.18597490183E+04  0.18597490183E+04  0.50400001928E-02 0. -1.
    10030    2    1    2    0    0  0.00000000000E+00  0.00000000000E+00  0.22404079846E+03  0.39435388351E+04  0.39371695752E+04 0.  0.
        5    1    3    3  502    0  0.94571176343E+03 -0.16891120570E+04 -0.24609638303E+03  0.19514240442E+04  0.46999998093E+01 0.  1.
       -5    1    3    3    0  502 -0.94571176343E+03  0.16891120570E+04  0.47013718149E+03  0.19921147909E+04  0.46999998093E+01 0. -1.
</event>
<event>
 5   0  0.7268013E-07  0.2541211E+04  0.7818609E-02  0.8388449E-01
       -2   -1    0    0    0  501  0.00000000000E+00  0.00000000000E+00  0.87792469255E+03  0.87792469255E+03  0.25500000920E-02 0.  1.
        2   -1    0    0  501    0  0.00000000000E+00  0.00000000000E+00 -0.18389251900E+04  0.18389251900E+04  0.25500000920E-02 0. -1.
    10030    2    1    2    0    0  0.00000000000E+00  0.00000000000E+00 -0.96100049740E+03  0.27168498825E+04  0.25412106029E+04 0.  0.
        4    1    3    3  502    0  0.68739106696E+03 -0.10685734417E+04 -0.49009492164E+03  0.13618187561E+04  0.12699999809E+01 0.  1.
       -4    1    3    3    0  502 -0.68739106696E+03  0.10685734417E+04 -0.47090557576E+03  0.13550311264E+04  0.12699999809E+01 0. -1.
</event>
<event>
 5   0  0.5533705E-07  0.3789314E+04  0.7818609E-02  0.8048452E-01
        2   -1    0    0  501    0  0.00000000000E+00  0.00000000000E+00  0.20696247070E+04  0.20696247070E+04  0.25500000920E-02 0. -1.
       -2   -1    0    0    0  501  0.00000000000E+00  0.00000000000E+00 -0.17344813091E+04  0.17344813091E+04  0.25500000920E-02 0.  1.
    10030    2    1    2    0    0  0.00000000000E+00  0.00000000000E+00  0.33514339786E+03  0.38041060161E+04  0.37893141180E+04 0.  0.
        1    1    3    3  502    0 -0.13921730200E+04 -0.63959150956E+03 -0.95145542630E+03  0.18034662306E+04  0.50400001928E-02 0.  1.
       -1    1    3    3    0  502  0.13921730200E+04  0.63959150956E+03  0.12865988242E+04  0.20006397855E+04  0.50400001928E-02 0. -1.
</event>
<event>
 5   0  0.7268013E-07  0.3920771E+04  0.7818609E-02  0.8020723E-01
       -2   -1    0    0    0  501  0.00000000000E+00  0.00000000000E+00  0.30533686667E+04  0.30533686667E+04  0.25500000920E-02 0.  1.
        2   -1    0    0  501    0  0.00000000000E+00  0.00000000000E+00 -0.12586465832E+04  0.12586465832E+04  0.25500000920E-02 0. -1.
    10030    2    1    2    0    0  0.00000000000E+00  0.00000000000E+00  0.17947220835E+04  0.43120152498E+04  0.39207713728E+04 0.  0.
        4    1    3    3  502    0 -0.39821282741E+03  0.18633096960E+04  0.39024815743E+03  0.19449400290E+04  0.12699999809E+01 0. -1.
       -4    1    3    3    0  502  0.39821282741E+03 -0.18633096960E+04  0.14044739261E+04  0.23670752208E+04  0.12699999809E+01 0.  1.
</event>
<event>
 5   0  0.1015219E-06  0.3950476E+04  0.7818609E-02  0.8014612E-01
       -2   -1    0    0    0  501  0.00000000000E+00  0.00000000000E+00  0.19645529046E+04  0.19645529046E+04  0.25500000920E-02 0.  1.
        2   -1    0    0  501    0  0.00000000000E+00  0.00000000000E+00 -0.19859809072E+04  0.19859809072E+04  0.25500000920E-02 0. -1.
    10030    2    1    2    0    0  0.00000000000E+00  0.00000000000E+00 -0.21428002576E+02  0.39505338117E+04  0.39504756977E+04 0.  0.
        3    1    3    3  502    0 -0.11360989427E+04  0.13998818913E+04  0.79625166763E+03  0.19708898613E+04  0.10100000352E+00 0.  1.
       -3    1    3    3    0  502  0.11360989427E+04 -0.13998818913E+04 -0.81767967020E+03  0.19796439504E+04  0.10100000352E+00 0. -1.
</event>
<event>
 5   0  0.1034683E-06  0.2114835E+04  0.7818609E-02  0.8554736E-01
       -2   -1    0    0    0  501  0.00000000000E+00  0.00000000000E+00  0.90465459526E+03  0.90465459527E+03  0.25500000920E-02 0.  1.
        2   -1    0    0  501    0  0.00000000000E+00  0.00000000000E+00 -0.12359763613E+04  0.12359763613E+04  0.25500000920E-02 0. -1.
    10030    2    1    2    0    0  0.00000000000E+00  0.00000000000E+00 -0.33132176602E+03  0.21406309565E+04  0.21148349296E+04 0.  0.
        2    1    3    3  502    0 -0.32703550673E+03  0.77054042954E+03 -0.81964312634E+03  0.11715372938E+04  0.25500000920E-02 0.  1.
       -2    1    3    3    0  502  0.32703550673E+03 -0.77054042954E+03  0.48832136032E+03  0.96909366274E+03  0.25500000920E-02 0. -1.
</event>
<event>
 5   0  0.5385714E-07  0.3766014E+04  0.7818609E-02  0.8053488E-01
       -1   -1    0    0    0  501  0.00000000000E+00  0.00000000000E+00  0.11345577967E+04  0.11345577967E+04  0.50400001928E-02 0. -1.
        1   -1    0    0  501    0  0.00000000000E+00  0.00000000000E+00 -0.31251964806E+04  0.31251964806E+04  0.50400001928E-02 0.  1.
    10030    2    1    2    0    0  0.00000000000E+00  0.00000000000E+00 -0.19906386839E+04  0.42597542774E+04  0.37660143566E+04 0.  0.
        3    1    3    3  502    0 -0.42864233784E+03 -0.17964340224E+04 -0.58002299588E+03  0.19358037443E+04  0.10100000352E+00 0. -1.
       -3    1    3    3    0  502  0.42864233784E+03  0.17964340224E+04 -0.14106156880E+04  0.23239505330E+04  0.10100000352E+00 0.  1.
</event>
<event>
 5   0  0.7268013E-07  0.3883800E+04  0.7818609E-02  0.8028407E-01
       -2   -1    0    0    0  501  0.00000000000E+00  0.00000000000E+00  0.23033374188E+04  0.23033374188E+04  0.25500000920E-02 0. -1.
        2   -1    0    0  501    0  0.00000000000E+00  0.00000000000E+00 -0.16371791094E+04  0.16371791094E+04  0.25500000920E-02 0.  1.
    10030    2    1    2    0    0  0.00000000000E+00  0.00000000000E+00  0.66615830943E+03  0.39405165281E+04  0.38838001513E+04 0.  0.
        4    1    3    3  502    0 -0.69894930789E+03  0.99286093954E+03  0.18706874093E+04  0.22301963986E+04  0.12699999809E+01 0. -1.
       -4    1    3    3    0  502  0.69894930789E+03 -0.99286093954E+03 -0.12045290998E+04  0.17103201295E+04  0.12699999809E+01 0.  1.
</event>
<event>
 5   0  0.4316671E-07  0.2338378E+04  0.7818609E-02  0.8462941E-01
        1   -1    0    0  501    0  0.00000000000E+00  0.00000000000E+00  0.10753775738E+04  0.10753775738E+04  0.50400001928E-02 0. -1.
       -1   -1    0    0    0  501  0.00000000000E+00  0.00000000000E+00 -0.12711838770E+04  0.12711838770E+04  0.50400001928E-02 0.  1.
    10030    2    1    2    0    0  0.00000000000E+00  0.00000000000E+00 -0.19580630325E+03  0.23465614509E+04  0.23383777570E+04 0.  0.
        2    1    3    3  502    0 -0.25158701660E+03 -0.22511463457E+03  0.10254026357E+04  0.10795476789E+04  0.25500000920E-02 0. -1.
       -2    1    3    3    0  502  0.25158701660E+03  0.22511463457E+03 -0.12212089390E+04  0.12670137719E+04  0.25500000920E-02 0.  1.
</event>
<event>
 5   0  0.4316671E-07  0.1974093E+04  0.7818609E-02  0.8618830E-01
       -1   -1    0    0    0  501  0.00000000000E+00  0.00000000000E+00  0.12357174542E+04  0.12357174542E+04  0.50400001928E-02 0.  1.
        1   -1    0    0  501    0  0.00000000000E+00  0.00000000000E+00 -0.78841718519E+03  0.78841718520E+03  0.50400001928E-02 0. -1.
    10030    2    1    2    0    0  0.00000000000E+00  0.00000000000E+00  0.44730026902E+03  0.20241346394E+04  0.19740930849E+04 0.  0.
        2    1    3    3  502    0  0.60729492304E+03 -0.44684998869E+03 -0.42950518553E+03  0.86773079947E+03  0.25500000920E-02 0. -1.
       -2    1    3    3    0  502 -0.60729492304E+03  0.44684998869E+03  0.87680545455E+03  0.11564038400E+04  0.25500000920E-02 0.  1.
</event>
<event>
 5   0  0.5533705E-07  0.3838539E+04  0.7818609E-02  0.8037935E-01
       -2   -1    0    0    0  501  0.00000000000E+00  0.00000000000E+00  0.18386040683E+04  0.18386040683E+04  0.25500000920E-02 0.  1.
        2   -1    0    0  501    0  0.00000000000E+00  0.00000000000E+00 -0.20034736646E+04  0.20034736646E+04  0.25500000920E-02 0. -1.
    10030    2    1    2    0    0  0.00000000000E+00  0.00000000000E+00 -0.16486959631E+03  0.38420777330E+04  0.38385386962E+04 0.  0.
        1    1    3    3  502    0 -0.53063377200E+03  0.14114133840E+04  0.11060667534E+04  0.18700383963E+04  0.50400001928E-02 0.  1.
       -1    1    3    3    0  502  0.53063377200E+03 -0.14114133840E+04 -0.12709363497E+04  0.19720393367E+04  0.50400001928E-02 0. -1.
</event>
<event>
 5   0  0.1015219E-06  0.3865398E+04  0.7818609E-02  0.8032264E-01
        2   -1    0    0  501    0  0.00000000000E+00  0.00000000000E+00  0.26224533734E+04  0.26224533734E+04  0.25500000920E-02 0.  1.
       -2   -1    0    0    0  501  0.00000000000E+00  0.00000000000E+00 -0.14243632953E+04  0.14243632953E+04  0.25500000920E-02 0. -1.
    10030    2    1    2    0    0  0.00000000000E+00  0.00000000000E+00  0.11980900781E+04  0.40468166687E+04  0.38653984678E+04 0.  0.
        3    1    3    3  502    0  0.85260679299E+02  0.57705205190E+02 -0.14214904652E+04  0.14252138180E+04  0.10100000352E+00 0. -1.
       -3    1    3    3    0  502 -0.85260679299E+02 -0.57705205190E+02  0.26195805432E+04  0.26216028507E+04  0.10100000352E+00 0.  1.
</event>
<event>
 5   0  0.1015219E-06  0.3391928E+04  0.7818609E-02  0.8139890E-01
        2   -1    0    0  501    0  0.00000000000E+00  0.00000000000E+00  0.15414013724E+04  0.15414013724E+04  0.25500000920E-02 0. -1.
       -2   -1    0    0    0  501  0.00000000000E+00  0.00000000000E+00 -0.18660255688E+04  0.18660255688E+04  0.25500000920E-02 0.  1.
    10030    2    1    2    0    0  0.00000000000E+00  0.00000000000E+00 -0.32462419646E+03  0.34074269412E+04  0.33919282850E+04 0.  0.
        3    1    3    3  502    0 -0.79700433059E+03 -0.14428536901E+04 -0.56319904399E+03  0.17419058090E+04  0.10100000352E+00 0.  1.
       -3    1    3    3    0  502  0.79700433059E+03  0.14428536901E+04  0.23857484753E+03  0.16655211323E+04  0.10100000352E+00 0. -1.
</event>
<event>
 5   0  0.5533705E-07  0.2499571E+04  0.7818609E-02  0.8403138E-01
        2   -1    0    0  501    0  0.00000000000E+00  0.00000000000E+00  0.22476690649E+04  0.22476690649E+04  0.25500000920E-02 0. -1.
       -2   -1    0    0    0  501  0.00000000000E+00  0.00000000000E+00 -0.69492591664E+03  0.69492591665E+03  0.25500000920E-02 0.  1.
    10030    2    1    2    0    0  0.00000000000E+00  0.00000000000E+00  0.15527431482E+04  0.29425949815E+04  0.24995707513E+04 0.  0.
        1    1    3    3  502    0 -0.11313676915E+04 -0.42269969264E+03  0.39801091739E+03  0.12716448301E+04  0.50400001928E-02 0. -1.
       -1    1    3    3    0  502  0.11313676915E+04  0.42269969264E+03  0.11547322308E+04  0.16709501514E+04  0.50400001928E-02 0.  1.
</event>
<event>
 5   0  0.3977376E-07  0.3846885E+04  0.7818609E-02  0.8036168E-01
        1   -1    0    0  501    0  0.00000000000E+00  0.00000000000E+00  0.24552193638E+04  0.24552193638E+04  0.50400001928E-02 0. -1.
       -1   -1    0    0    0  501  0.00000000000E+00  0.00000000000E+00 -0.15068433075E+04  0.15068433075E+04  0.50400001928E-02 0.  1.
    10030    2    1    2    0    0  0.00000000000E+00  0.00000000000E+00  0.94837605637E+03  0.39620626713E+04  0.38468849043E+04 0.  0.
        4    1    3    3  502    0  0.13622798740E+04 -0.13087674896E+04  0.10148265233E+03  0.18918190026E+04  0.12699999809E+01 0. -1.
       -4    1    3    3    0  502 -0.13622798740E+04  0.13087674896E+04  0.84689340404E+03  0.20702436687E+04  0.12699999809E+01 0.  1.
</event>
<event>
 5   0  0.3191750E-07  0.2726325E+04  0.7818609E-02  0.8326514E-01
        3   -1    0    0  501    0  0.00000000000E+00  0.00000000000E+00  0.20482549984E+04  0.20482550009E+04  0.10100000352E+00 0. -1.
       -3   -1    0    0    0  501  0.00000000000E+00  0.00000000000E+00 -0.90721728807E+03  0.90721729369E+03  0.10100000352E+00 0.  1.
    10030    2    1    2    0    0  0.00000000000E+00  0.00000000000E+00  0.11410377104E+04  0.29554722946E+04  0.27263252608E+04 0.  0.
        3    1    3    3  502    0  0.47328588579E+03 -0.97476440189E+03  0.14671054736E+04  0.18238869619E+04  0.10100000352E+00 0. -1.
       -3    1    3    3    0  502 -0.47328588579E+03  0.97476440189E+03 -0.32606776321E+03  0.11315853327E+04  0.10100000352E+00 0.  1.
</event>
<event>
 5   0  0.1015219E-06  0.2448559E+04  0.7818609E-02  0.8421544E-01
       -2   -1    0    0    0  501  0.00000000000E+00  0.00000000000E+00  0.10143805731E+04  0.10143805731E+04  0.25500000920E-02 0.  1.
        2   -1    0    0  501    0  0.00000000000E+00  0.00000000000E+00 -0.14776115629E+04  0.14776115629E+04  0.25500000920E-02 0. -1.
    10030    2    1    2    0    0  0.00000000000E+00  0.00000000000E+00 -0.46323098979E+03  0.24919921360E+04  0.24485591387E+04 0.  0.
        3    1    3    3  502    0 -0.41014685166E+03  0.50815442803E+03  0.82233045200E+03  0.10500803518E+04  0.10100000352E+00 0.  1.
       -3    1    3    3    0  502  0.41014685166E+03 -0.50815442803E+03 -0.12855614418E+04  0.14419117842E+04  0.10100000352E+00 0. -1.
</event>
<event>
 5   0  0.1034683E-06  0.3794017E+04  0.7818609E-02  0.8047440E-01
        2   -1    0    0  501    0  0.00000000000E+00  0.00000000000E+00  0.15371112118E+04  0.15371112118E+04  0.25500000920E-02 0.  1.
       -2   -1    0    0    0  501  0.00000000000E+00  0.00000000000E+00 -0.23411717212E+04  0.23411717212E+04  0.25500000920E-02 0. -1.
    10030    2    1    2    0    0  0.00000000000E+00  0.00000000000E+00 -0.80406050940E+03  0.38782829330E+04  0.37940170276E+04 0.  0.
        2    1    3    3  502    0 -0.32500512778E+03 -0.81651972162E+03  0.13164715662E+04  0.15828550703E+04  0.25500000920E-02 0.  1.
       -2    1    3    3    0  502  0.32500512778E+03  0.81651972162E+03 -0.21205320756E+04  0.22954278627E+04  0.25500000920E-02 0. -1.
</event>
<event>
 5   0  0.5533705E-07  0.3472753E+04  0.7818609E-02  0.8120278E-01
       -2   -1    0    0    0  501  0.00000000000E+00  0.00000000000E+00  0.11967887827E+04  0.11967887827E+04  0.25500000920E-02 0.  1.
        2   -1    0    0  501    0  0.00000000000E+00  0.00000000000E+00 -0.25192442188E+04  0.25192442188E+04  0.25500000920E-02 0. -1.
    10030    2    1    2    0    0  0.00000000000E+00  0.00000000000E+00 -0.13224554361E+04  0.37160330015E+04  0.34727529264E+04 0.  0.
        1    1    3    3  502    0 -0.43576384216E+03 -0.11783106780E+04 -0.19438189748E+04  0.23144628722E+04  0.50400001928E-02 0. -1.
       -1    1    3    3    0  502  0.43576384216E+03  0.11783106780E+04  0.62136353872E+03  0.14015701293E+04  0.50400001928E-02 0.  1.
</event>
<event>
 5   0  0.3977376E-07  0.3925501E+04  0.7818609E-02  0.8019746E-01
        1   -1    0    0  501    0  0.00000000000E+00  0.00000000000E+00  0.17379297042E+04  0.17379297042E+04  0.50400001928E-02 0. -1.
       -1   -1    0    0    0  501  0.00000000000E+00  0.00000000000E+00 -0.22166539909E+04  0.22166539910E+04  0.50400001928E-02 0.  1.
    10030    2    1    2    0    0  0.00000000000E+00  0.00000000000E+00 -0.47872428672E+03  0.39545836952E+04  0.39255006381E+04 0.  0.
        4    1    3    3  502    0  0.48770278690E+03  0.11426334600E+03  0.16724536583E+04  0.17458559427E+04  0.12699999809E+01 0. -1.
       -4    1    3    3    0  502 -0.48770278690E+03 -0.11426334600E+03 -0.21511779450E+04  0.22087277525E+04  0.12699999809E+01 0.  1.
</event>
<event>
 5   0  0.5533705E-07  0.3380295E+04  0.7818609E-02  0.8142759E-01
        2   -1    0    0  501    0  0.00000000000E+00  0.00000000000E+00  0.22855220509E+04  0.22855220509E+04  0.25500000920E-02 0. -1.
       -2   -1    0    0    0  501  0.00000000000E+00  0.00000000000E+00 -0.12498672184E+04  0.12498672184E+04  0.25500000920E-02 0.  1.
    10030    2    1    2    0    0  0.00000000000E+00  0.00000000000E+00  0.10356548324E+04  0.35353892693E+04  0.33802953057E+04 0.  0.
        1    1    3    3  502    0 -0.27881333605E+03  0.10792716117E+04  0.18465645467E+04  0.21569341003E+04  0.50400001928E-02 0. -1.
       -1    1    3    3    0  502  0.27881333605E+03 -0.10792716117E+04 -0.81090971423E+03  0.13784551690E+04  0.50400001928E-02 0.  1.
</event>
<event>
 5   0  0.1015219E-06  0.3886073E+04  0.7818609E-02  0.8027932E-01
       -2   -1    0    0    0  501  0.00000000000E+00  0.00000000000E+00  0.25062960196E+04  0.25062960196E+04  0.25500000920E-02 0.  1.
        2   -1    0    0  501    0  0.00000000000E+00  0.00000000000E+00 -0.15063627800E+04  0.15063627800E+04  0.25500000920E-02 0. -1.
    10030    2    1    2    0    0  0.00000000000E+00  0.00000000000E+00  0.99993323963E+03  0.40126587997E+04  0.38860731026E+04 0.  0.
        3    1    3    3  502    0  0.76903678240E+03  0.27162826775E+03 -0.13210538795E+04  0.15525407728E+04  0.10100000352E+00 0. -1.
       -3    1    3    3    0  502 -0.76903678240E+03 -0.27162826775E+03  0.23209871191E+04  0.24601180268E+04  0.10100000352E+00 0.  1.
</event>
<event>
 5   0  0.3977376E-07  0.2627106E+04  0.7818609E-02  0.8359052E-01
        1   -1    0    0  501    0  0.00000000000E+00  0.00000000000E+00  0.18232595778E+04  0.18232595778E+04  0.50400001928E-02 0.  1.
       -1   -1    0    0    0  501  0.00000000000E+00  0.00000000000E+00 -0.94633882629E+03  0.94633882631E+03  0.50400001928E-02 0. -1.
    10030    2    1    2    0    0  0.00000000000E+00  0.00000000000E+00  0.87692075149E+03  0.27695984041E+04  0.26271058821E+04 0.  0.
        4    1    3    3  502    0 -0.89679605903E+03  0.44747795410E+03 -0.45667514706E+03  0.11013779977E+04  0.12699999809E+01 0. -1.
       -4    1    3    3    0  502  0.89679605903E+03 -0.44747795410E+03  0.13335958985E+04  0.16682204064E+04  0.12699999809E+01 0.  1.
</event>
<event>
 5   0  0.1035864E-06  0.3771370E+04  0.7818609E-02  0.8052327E-01
       -2   -1    0    0    0  501  0.00000000000E+00  0.00000000000E+00  0.15684735732E+04  0.15684735732E+04  0.25500000920E-02 0.  1.
        2   -1    0    0  501    0  0.00000000000E+00  0.00000000000E+00 -0.22670496094E+04  0.22670496094E+04  0.25500000920E-02 0. -1.
    10030    2    1    2    0    0  0.00000000000E+00  0.00000000000E+00 -0.69857603612E+03  0.38355231826E+04  0.37713697254E+04 0.  0.
        5    1    3    3  502    0  0.12142805612E+04 -0.11167673534E+04 -0.12781359945E+04  0.20869356274E+04  0.46999998093E+01 0. -1.
       -5    1    3    3    0  502 -0.12142805612E+04  0.11167673534E+04  0.57955995833E+03  0.17485875552E+04  0.46999998093E+01 0.  1.
</event>
<event>
 5   0  0.7268013E-07  0.3887636E+04  0.7818609E-02  0.8027606E-01
       -2   -1    0    0    0  501  0.00000000000E+00  0.00000000000E+00  0.22224073589E+04  0.22224073589E+04  0.25500000920E-02 0.  1.
        2   -1    0    0  501    0  0.00000000000E+00  0.00000000000E+00 -0.17001514707E+04  0.17001514707E+04  0.25500000920E-02 0. -1.
    10030    2    1    2    0    0  0.00000000000E+00  0.00000000000E+00  0.52225588822E+03  0.39225588296E+04  0.38876363717E+04 0.  0.
        4    1    3    3  502    0 -0.52965101022E+03  0.10903555928E+04  0.17943246094E+04  0.21654117226E+04  0.12699999809E+01 0.  1.
       -4    1    3    3    0  502  0.52965101022E+03 -0.10903555928E+04 -0.12720687212E+04  0.17571471070E+04  0.12699999809E+01 0. -1.
</event>
<event>
 5   0  0.7268013E-07  0.3845306E+04  0.7818609E-02  0.8036502E-01
       -2   -1    0    0    0  501  0.00000000000E+00  0.00000000000E+00  0.15214270957E+04  0.15214270957E+04  0.25500000920E-02 0.  1.
        2   -1    0    0  501    0  0.00000000000E+00  0.00000000000E+00 -0.24296886211E+04  0.24296886211E+04  0.25500000920E-02 0. -1.
    10030    2    1    2    0    0  0.00000000000E+00  0.00000000000E+00 -0.90826152540E+03  0.39511157168E+04  0.38453057627E+04 0.  0.
        4    1    3    3  502    0 -0.10696138812E+04 -0.78096993320E+03 -0.18862562585E+04  0.23047672718E+04  0.12699999809E+01 0. -1.
       -4    1    3    3    0  502  0.10696138812E+04  0.78096993320E+03  0.97799473308E+03  0.16463484450E+04  0.12699999809E+01 0.  1.
</event>
<event>
 5   0  0.1034683E-06  0.1931417E+04  0.7818609E-02  0.8639374E-01
        2   -1    0    0  501    0  0.00000000000E+00  0.00000000000E+00  0.14991419186E+04  0.14991419186E+04  0.25500000920E-02 0. -1.
       -2   -1    0    0    0  501  0.00000000000E+00  0.00000000000E+00 -0.62208446469E+03  0.62208446469E+03  0.25500000920E-02 0.  1.
    10030    2    1    2    0    0  0.00000000000E+00  0.00000000000E+00  0.87705745396E+03  0.21212263833E+04  0.19314169907E+04 0.  0.
        2    1    3    3  502    0  0.37923571457E+03  0.83356313472E+03  0.77515604682E+03  0.11997975345E+04  0.25500000920E-02 0. -1.
       -2    1    3    3    0  502 -0.37923571457E+03 -0.83356313472E+03  0.10190140714E+03  0.92142884888E+03  0.25500000920E-02 0.  1.
</event>
<event>
 5   0  0.5533705E-07  0.3937493E+04  0.7818609E-02  0.8017276E-01
        2   -1    0    0  501    0  0.00000000000E+00  0.00000000000E+00  0.19037841916E+04  0.19037841916E+04  0.25500000920E-02 0. -1.
       -2   -1    0    0    0  501  0.00000000000E+00  0.00000000000E+00 -0.20359257565E+04  0.20359257565E+04  0.25500000920E-02 0.  1.
    10030    2    1    2    0    0  0.00000000000E+00  0.00000000000E+00 -0.13214156482E+03  0.39397099481E+04  0.39374932485E+04 0.  0.
        1    1    3    3  502    0 -0.11242113871E+04 -0.84534998882E+03  0.13122007802E+04  0.19236264538E+04  0.50400001928E-02 0. -1.
       -1    1    3    3    0  502  0.11242113871E+04  0.84534998882E+03 -0.14443423450E+04  0.20160834943E+04  0.50400001928E-02 0.  1.
</event>
<event>
 5   0  0.7268013E-07  0.2993304E+04  0.7818609E-02  0.8245645E-01
        2   -1    0    0  501    0  0.00000000000E+00  0.00000000000E+00  0.20954557203E+04  0.20954557203E+04  0.25500000920E-02 0.  1.
       -2   -1    0    0    0  501  0.00000000000E+00  0.00000000000E+00 -0.10689645855E+04  0.10689645855E+04  0.25500000920E-02 0. -1.
    10030    2    1    2    0    0  0.00000000000E+00  0.00000000000E+00  0.10264911348E+04  0.31644203057E+04  0.29933044986E+04 0.  0.
        4    1    3    3  502    0  0.92766195980E+03  0.10757071810E+04  0.14846150074E+02  0.14205367549E+04  0.12699999809E+01 0. -1.
       -4    1    3    3    0  502 -0.92766195980E+03 -0.10757071810E+04  0.10116449848E+04  0.17438835509E+04  0.12699999809E+01 0.  1.
</event>
<event>
 5   0  0.5533705E-07  0.3317116E+04  0.7818609E-02  0.8158554E-01
       -2   -1    0    0    0  501  0.00000000000E+00  0.00000000000E+00  0.13070890300E+04  0.13070890300E+04  0.25500000920E-02 0.  1.
        2   -1    0    0  501    0  0.00000000000E+00  0.00000000000E+00 -0.21045347029E+04  0.21045347029E+04  0.25500000920E-02 0. -1.
    10030    2    1    2    0    0  0.00000000000E+00  0.00000000000E+00 -0.79744567294E+03  0.34116237329E+04  0.33171157492E+04 0.  0.
        1    1    3    3  502    0  0.10520215905E+04 -0.43387116244E+02  0.91926435981E+03  0.13977406168E+04  0.50400001928E-02 0.  1.
       -1    1    3    3    0  502 -0.10520215905E+04  0.43387116244E+02 -0.17167100327E+04  0.20138831161E+04  0.50400001928E-02 0. -1.
</event>
<event>
 5   0  0.6310223E-07  0.1923076E+04  0.7818609E-02  0.8643455E-01
        1   -1    0    0  501    0  0.00000000000E+00  0.00000000000E+00  0.10860263991E+04  0.10860263991E+04  0.50400001928E-02 0.  1.
       -1   -1    0    0    0  501  0.00000000000E+00  0.00000000000E+00 -0.85131898095E+03  0.85131898096E+03  0.50400001928E-02 0. -1.
    10030    2    1    2    0    0  0.00000000000E+00  0.00000000000E+00  0.23470741817E+03  0.19373453801E+04  0.19230755444E+04 0.  0.
        1    1    3    3  502    0 -0.30032173264E+02 -0.12707250064E+03  0.10770533843E+04  0.10849393275E+04  0.50400001928E-02 0.  1.
       -1    1    3    3    0  502  0.30032173264E+02  0.12707250064E+03 -0.84234596609E+03  0.85240605257E+03  0.50400001928E-02 0. -1.
</event>
<event>
 5   0  0.4627905E-07  0.2174504E+04  0.7818609E-02  0.8529116E-01
       -1   -1    0    0    0  501  0.00000000000E+00  0.00000000000E+00  0.60482122914E+03  0.60482122917E+03  0.50400001928E-02 0. -1.
        1   -1    0    0  501    0  0.00000000000E+00  0.00000000000E+00 -0.19544899413E+04  0.19544899413E+04  0.50400001928E-02 0.  1.
    10030    2    1    2    0    0  0.00000000000E+00  0.00000000000E+00 -0.13496687121E+04  0.25593111704E+04  0.21745040894E+04 0.  0.
        1    1    3    3  502    0 -0.34431749311E+03  0.22102531932E+03  0.51075391376E+03  0.65442821477E+03  0.50400001928E-02 0. -1.
       -1    1    3    3    0  502  0.34431749311E+03 -0.22102531932E+03 -0.18604226259E+04  0.19048829557E+04  0.50400001928E-02 0.  1.
</event>
<event>
 5   0  0.4316671E-07  0.3736154E+04  0.7818609E-02  0.8059997E-01
       -1   -1    0    0    0  501  0.00000000000E+00  0.00000000000E+00  0.13481266781E+04  0.13481266781E+04  0.50400001928E-02 0. -1.
        1   -1    0    0  501    0  0.00000000000E+00  0.00000000000E+00 -0.25885637238E+04  0.25885637238E+04  0.50400001928E-02 0.  1.
    10030    2    1    2    0    0  0.00000000000E+00  0.00000000000E+00 -0.12404370457E+04  0.39366904020E+04  0.37361540729E+04 0.  0.
        2    1    3    3  502    0 -0.16152261018E+03  0.67861697130E+03 -0.24461794180E+04  0.25436989390E+04  0.25500000920E-02 0.  1.
       -2    1    3    3    0  502  0.16152261018E+03 -0.67861697130E+03  0.12057423723E+04  0.13929914629E+04  0.25500000920E-02 0. -1.
</event>
<event>
 5   0  0.4627905E-07  0.3924475E+04  0.7818609E-02  0.8019958E-01
        1   -1    0    0  501    0  0.00000000000E+00  0.00000000000E+00  0.27038179860E+04  0.27038179860E+04  0.50400001928E-02 0.  1.
       -1   -1    0    0    0  501  0.00000000000E+00  0.00000000000E+00 -0.14240513364E+04  0.14240513364E+04  0.50400001928E-02 0. -1.
    10030    2    1    2    0    0  0.00000000000E+00  0.00000000000E+00  0.12797666495E+04  0.41278693224E+04  0.39244748013E+04 0.  0.
        1    1    3    3  502    0 -0.53609980004E+01 -0.17058456175E+04  0.16599049725E+04  0.23801727939E+04  0.50400001928E-02 0.  1.
       -1    1    3    3    0  502  0.53609980004E+01  0.17058456175E+04 -0.38013832296E+03  0.17476965285E+04  0.50400001928E-02 0. -1.
</event>
<event>
 5   0  0.5533705E-07  0.3872503E+04  0.7818609E-02  0.8030773E-01
       -2   -1    0    0    0  501  0.00000000000E+00  0.00000000000E+00  0.15818266704E+04  0.15818266704E+04  0.25500000920E-02 0. -1.
        2   -1    0    0  501    0  0.00000000000E+00  0.00000000000E+00 -0.23700883347E+04  0.23700883347E+04  0.25500000920E-02 0.  1.
    10030    2    1    2    0    0  0.00000000000E+00  0.00000000000E+00 -0.78826166430E+03  0.39519150051E+04  0.38725025186E+04 0.  0.
        1    1    3    3  502    0 -0.19091042004E+04 -0.30746624415E+03 -0.29282478185E+03  0.19557506723E+04  0.50400001928E-02 0.  1.
       -1    1    3    3    0  502  0.19091042004E+04  0.30746624415E+03 -0.49543688245E+03  0.19961643329E+04  0.50400001928E-02 0. -1.
</event>
<event>
 5   0  0.7268013E-07  0.3282182E+04  0.7818609E-02  0.8167444E-01
        2   -1    0    0  501    0  0.00000000000E+00  0.00000000000E+00  0.23298837508E+04  0.23298837508E+04  0.25500000920E-02 0.  1.
       -2   -1    0    0    0  501  0.00000000000E+00  0.00000000000E+00 -0.11559284907E+04  0.11559284907E+04  0.25500000920E-02 0. -1.
    10030    2    1    2    0    0  0.00000000000E+00  0.00000000000E+00  0.11739552601E+04  0.34858122414E+04  0.32821815961E+04 0.  0.
        4    1    3    3  502    0  0.12844675275E+04 -0.39948123658E+03  0.15853728381E+04  0.20791466365E+04  0.12699999809E+01 0.  1.
       -4    1    3    3    0  502 -0.12844675275E+04  0.39948123658E+03 -0.41141757794E+03  0.14066656049E+04  0.12699999809E+01 0. -1.
</event>
<event>
 5   0  0.1034683E-06  0.1998915E+04  0.7818609E-02  0.8607128E-01
        2   -1    0    0  501    0  0.00000000000E+00  0.00000000000E+00  0.18682274542E+04  0.18682274543E+04  0.25500000920E-02 0.  1.
       -2   -1    0    0    0  501  0.00000000000E+00  0.00000000000E+00 -0.53468620121E+03  0.53468620122E+03  0.25500000920E-02 0. -1.
    10030    2    1    2    0    0  0.00000000000E+00  0.00000000000E+00  0.13335412530E+04  0.24029136555E+04  0.19989151463E+04 0.  0.
        2    1    3    3  502    0  0.29508990882E+02 -0.34585842189E+03  0.17934401554E+04  0.18267228634E+04  0.25500000920E-02 0.  1.
       -2    1    3    3    0  502 -0.29508990882E+02  0.34585842189E+03 -0.45989890235E+03  0.57619079212E+03  0.25500000920E-02 0. -1.
</event>
<event>
 5   0  0.3191750E-07  0.2647629E+04  0.7818609E-02  0.8352200E-01
       -3   -1    0    0    0  501  0.00000000000E+00  0.00000000000E+00  0.27666195517E+04  0.27666195535E+04  0.10100000352E+00 0. -1.
        3   -1    0    0  501    0  0.00000000000E+00  0.00000000000E+00 -0.63343915969E+03  0.63343916774E+03  0.10100000352E+00 0.  1.
    10030    2    1    2    0    0  0.00000000000E+00  0.00000000000E+00  0.21331803920E+04  0.34000587213E+04  0.26476292647E+04 0.  0.
        4    1    3    3  502    0  0.10277385999E+04 -0.77150752078E+03  0.65844183291E+03  0.14439590523E+04  0.12699999809E+01 0. -1.
       -4    1    3    3    0  502 -0.10277385999E+04  0.77150752078E+03  0.14747385591E+04  0.19560996690E+04  0.12699999809E+01 0.  1.
</event>
<event>
 5   0  0.5385714E-07  0.2398148E+04  0.7818609E-02  0.8440197E-01
        1   -1    0    0  501    0  0.00000000000E+00  0.00000000000E+00  0.24568411131E+04  0.24568411131E+04  0.50400001928E-02 0.  1.
       -1   -1    0    0    0  501  0.00000000000E+00  0.00000000000E+00 -0.58521426461E+03  0.58521426463E+03  0.50400001928E-02 0. -1.
    10030    2    1    2    0    0  0.00000000000E+00  0.00000000000E+00  0.18716268484E+04  0.30420553777E+04  0.23981480065E+04 0.  0.
        3    1    3    3  502    0 -0.36915281677E+01 -0.20785986232E+03 -0.56217892601E+03  0.59938677395E+03  0.10100000352E+00 0. -1.
       -3    1    3    3    0  502  0.36915281677E+01  0.20785986232E+03  0.24338057745E+04  0.24426686037E+04  0.10100000352E+00 0.  1.
</event>
<event>
 5   0  0.5533705E-07  0.3891210E+04  0.7818609E-02  0.8026860E-01
        2   -1    0    0  501    0  0.00000000000E+00  0.00000000000E+00  0.27039674051E+04  0.27039674051E+04  0.25500000920E-02 0. -1.
       -2   -1    0    0    0  501  0.00000000000E+00  0.00000000000E+00 -0.13999353915E+04  0.13999353915E+04  0.25500000920E-02 0.  1.
    10030    2    1    2    0    0  0.00000000000E+00  0.00000000000E+00  0.13040320136E+04  0.41039027966E+04  0.38912104378E+04 0.  0.
        1    1    3    3  502    0  0.34957372745E+03  0.13236993218E+04 -0.80593342756E+03  0.15886819616E+04  0.50400001928E-02 0.  1.
       -1    1    3    3    0  502 -0.34957372745E+03 -0.13236993218E+04  0.21099654412E+04  0.25152208350E+04  0.50400001928E-02 0. -1.
</event>
<event>
 5   0  0.4316671E-07  0.2005285E+04  0.7818609E-02  0.8604154E-01
       -1   -1    0    0    0  501  0.00000000000E+00  0.00000000000E+00  0.12444319311E+04  0.12444319311E+04  0.50400001928E-02 0.  1.
        1   -1    0    0  501    0  0.00000000000E+00  0.00000000000E+00 -0.80783190065E+03  0.80783190067E+03  0.50400001928E-02 0. -1.
    10030    2    1    2    0    0  0.00000000000E+00  0.00000000000E+00  0.43660003041E+03  0.20522638317E+04  0.20052848298E+04 0.  0.
        2    1    3    3  502    0 -0.47789054849E+03 -0.63870602638E+03 -0.40335710699E+03  0.89388014870E+03  0.25500000920E-02 0. -1.
       -2    1    3    3    0  502  0.47789054849E+03  0.63870602638E+03  0.83995713740E+03  0.11583836830E+04  0.25500000920E-02 0.  1.
</event>
<event>
 5   0  0.4627905E-07  0.2853196E+04  0.7818609E-02  0.8286941E-01
        1   -1    0    0  501    0  0.00000000000E+00  0.00000000000E+00  0.19328369599E+04  0.19328369599E+04  0.50400001928E-02 0.  1.
       -1   -1    0    0    0  501  0.00000000000E+00  0.00000000000E+00 -0.10529504329E+04  0.10529504329E+04  0.50400001928E-02 0. -1.
    10030    2    1    2    0    0  0.00000000000E+00  0.00000000000E+00  0.87988652693E+03  0.29857873928E+04  0.28531957617E+04 0.  0.
        1    1    3    3  502    0  0.10012617617E+04 -0.14535652117E+03 -0.61254252032E+03  0.11827349546E+04  0.50400001928E-02 0.  1.
       -1    1    3    3    0  502 -0.10012617617E+04  0.14535652117E+03  0.14924290472E+04  0.18030524382E+04  0.50400001928E-02 0. -1.
</event>
<event>
 5   0  0.3977376E-07  0.3357151E+04  0.7818609E-02  0.8148504E-01
       -1   -1    0    0    0  501  0.00000000000E+00  0.00000000000E+00  0.21597849324E+04  0.21597849324E+04  0.50400001928E-02 0.  1.
        1   -1    0    0  501    0  0.00000000000E+00  0.00000000000E+00 -0.13045815632E+04  0.13045815632E+04  0.50400001928E-02 0. -1.
    10030    2    1    2    0    0  0.00000000000E+00  0.00000000000E+00  0.85520336919E+03  0.34643664955E+04  0.33571509368E+04 0.  0.
        4    1    3    3  502    0 -0.15749406859E+04 -0.14749319004E+03 -0.15195866694E+03  0.15891146764E+04  0.12699999809E+01 0. -1.
       -4    1    3    3    0  502  0.15749406859E+04  0.14749319004E+03  0.10071620361E+04  0.18752518192E+04  0.12699999809E+01 0.  1.
</event>
<event>
 5   0  0.3191750E-07  0.3682313E+04  0.7818609E-02  0.8071893E-01
        3   -1    0    0  501    0  0.00000000000E+00  0.00000000000E+00  0.30484220356E+04  0.30484220372E+04  0.10100000352E+00 0.  1.
       -3   -1    0    0    0  501  0.00000000000E+00  0.00000000000E+00 -0.11120039505E+04  0.11120039550E+04  0.10100000352E+00 0. -1.
    10030    2    1    2    0    0  0.00000000000E+00  0.00000000000E+00  0.19364180851E+04  0.41604259923E+04  0.36823130553E+04 0.  0.
        2    1    3    3  502    0 -0.47791236717E+03  0.10192207370E+04 -0.67788976905E+03  0.13140569548E+04  0.25500000920E-02 0. -1.
       -2    1    3    3    0  502  0.47791236717E+03 -0.10192207370E+04  0.26143078542E+04  0.28463690375E+04  0.25500000920E-02 0.  1.
</event>
<event>
 5   0  0.5385714E-07  0.2194113E+04  0.7818609E-02  0.8520882E-01
        1   -1    0    0  501    0  0.00000000000E+00  0.00000000000E+00  0.15355958945E+04  0.15355958945E+04  0.50400001928E-02 0.  1.
       -1   -1    0    0    0  501  0.00000000000E+00  0.00000000000E+00 -0.78375644851E+03  0.78375644853E+03  0.50400001928E-02 0. -1.
    10030    2    1    2    0    0  0.00000000000E+00  0.00000000000E+00  0.75183944600E+03  0.23193523430E+04  0.21941132010E+04 0.  0.
        3    1    3    3  502    0  0.47956708700E+03  0.76735405882E+03  0.10315786981E+04  0.13722140734E+04  0.10100000352E+00 0.  1.
       -3    1    3    3    0  502 -0.47956708700E+03 -0.76735405882E+03 -0.27973925213E+03  0.94713826968E+03  0.10100000352E+00 0. -1.
</event>
<event>
 5   0  0.7268013E-07  0.3882095E+04  0.7818609E-02  0.8028763E-01
        2   -1    0    0  501    0  0.00000000000E+00  0.00000000000E+00  0.27935917407E+04  0.27935917407E+04  0.25500000920E-02 0. -1.
       -2   -1    0    0    0  501  0.00000000000E+00  0.00000000000E+00 -0.13486814610E+04  0.13486814610E+04  0.25500000920E-02 0.  1.
    10030    2    1    2    0    0  0.00000000000E+00  0.00000000000E+00  0.14449102797E+04  0.41422732017E+04  0.38820949964E+04 0.  0.
        4    1    3    3  502    0  0.11481227953E+04 -0.12230111834E+04  0.17644926687E+04  0.24346207710E+04  0.12699999809E+01 0. -1.
       -4    1    3    3    0  502 -0.11481227953E+04  0.12230111834E+04 -0.31958238898E+03  0.17076524307E+04  0.12699999809E+01 0.  1.
</event>
<event>
 5   0  0.7268013E-07  0.4018142E+04  0.7818609E-02  0.8000897E-01
       -2   -1    0    0    0  501  0.00000000000E+00  0.00000000000E+00  0.20529451859E+04  0.20529451859E+04  0.25500000920E-02 0. -1.
        2   -1    0    0  501    0  0.00000000000E+00  0.00000000000E+00 -0.19661341132E+04  0.19661341132E+04  0.25500000920E-02 0.  1.
    10030    2    1    2    0    0  0.00000000000E+00  0.00000000000E+00  0.86811072696E+02  0.40190792991E+04  0.40181416414E+04 0.  0.
        4    1    3    3  502    0  0.93184777210E+03  0.67450197479E+03 -0.16041190116E+04  0.19739535457E+04  0.12699999809E+01 0.  1.
       -4    1    3    3    0  502 -0.93184777210E+03 -0.67450197479E+03  0.16909300843E+04  0.20451257534E+04  0.12699999809E+01 0. -1.
</event>
<event>
 5   0  0.3977376E-07  0.2940047E+04  0.7818609E-02  0.8261061E-01
        1   -1    0    0  501    0  0.00000000000E+00  0.00000000000E+00  0.23629565981E+04  0.23629565981E+04  0.50400001928E-02 0. -1.
       -1   -1    0    0    0  501  0.00000000000E+00  0.00000000000E+00 -0.91451932742E+03  0.91451932743E+03  0.50400001928E-02 0.  1.
    10030    2    1    2    0    0  0.00000000000E+00  0.00000000000E+00  0.14484372707E+04  0.32774759255E+04  0.29400472641E+04 0.  0.
        4    1    3    3  502    0 -0.67017326034E+03  0.11022621336E+03  0.21775663345E+04  0.22810258155E+04  0.12699999809E+01 0. -1.
       -4    1    3    3    0  502  0.67017326034E+03 -0.11022621336E+03 -0.72912906387E+03  0.99645010997E+03  0.12699999809E+01 0.  1.
</event>
<event>
 5   0  0.1015219E-06  0.3941213E+04  0.7818609E-02  0.8016512E-01
        2   -1    0    0  501    0  0.00000000000E+00  0.00000000000E+00  0.19855685204E+04  0.19855685204E+04  0.25500000920E-02 0. -1.
       -2   -1    0    0    0  501  0.00000000000E+00  0.00000000000E+00 -0.19557573157E+04  0.19557573157E+04  0.25500000920E-02 0.  1.
    10030    2    1    2    0    0  0.00000000000E+00  0.00000000000E+00  0.29811204707E+02  0.39413258361E+04  0.39412130922E+04 0.  0.
        3    1    3    3  502    0 -0.22835692969E+03 -0.66547099542E+03 -0.18258783265E+04  0.19567396879E+04  0.10100000352E+00 0.  1.
       -3    1    3    3    0  502  0.22835692969E+03  0.66547099542E+03  0.18556895312E+04  0.19845861481E+04  0.10100000352E+00 0. -1.
</event>
<event>
 5   0  0.4316671E-07  0.3126009E+04  0.7818609E-02  0.8208636E-01
        1   -1    0    0  501    0  0.00000000000E+00  0.00000000000E+00  0.17514448175E+04  0.17514448175E+04  0.50400001928E-02 0. -1.
       -1   -1    0    0    0  501  0.00000000000E+00  0.00000000000E+00 -0.13948387685E+04  0.13948387686E+04  0.50400001928E-02 0.  1.
    10030    2    1    2    0    0  0.00000000000E+00  0.00000000000E+00  0.35660604896E+03  0.31462835861E+04  0.31260090419E+04 0.  0.
        2    1    3    3  502    0  0.88138949110E+03 -0.10799018763E+04 -0.53335261276E+03  0.14924813255E+04  0.25500000920E-02 0.  1.
       -2    1    3    3    0  502 -0.88138949110E+03  0.10799018763E+04  0.88995866172E+03  0.16538022606E+04  0.25500000920E-02 0. -1.
</event>
<event>
 5   0  0.4683348E-07  0.2003996E+04  0.7818609E-02  0.8604755E-01
        1   -1    0    0  501    0  0.00000000000E+00  0.00000000000E+00  0.10650457183E+04  0.10650457183E+04  0.50400001928E-02 0. -1.
       -1   -1    0    0    0  501  0.00000000000E+00  0.00000000000E+00 -0.94268230817E+03  0.94268230819E+03  0.50400001928E-02 0.  1.
    10030    2    1    2    0    0  0.00000000000E+00  0.00000000000E+00  0.12236341013E+03  0.20077280265E+04  0.20039957645E+04 0.  0.
        4    1    3    3  502    0  0.43533387617E+03  0.79852839374E+03 -0.36011896622E+03  0.97818733486E+03  0.12699999809E+01 0.  1.
       -4    1    3    3    0  502 -0.43533387617E+03 -0.79852839374E+03  0.48248237636E+03  0.10295406916E+04  0.12699999809E+01 0. -1.
</event>
<event>
 5   0  0.4627905E-07  0.2578536E+04  0.7818609E-02  0.8375529E-01
       -1   -1    0    0    0  501  0.00000000000E+00  0.00000000000E+00  0.13688454453E+04  0.13688454453E+04  0.50400001928E-02 0.  1.
        1   -1    0    0  501    0  0.00000000000E+00  0.00000000000E+00 -0.12143165736E+04  0.12143165736E+04  0.50400001928E-02 0. -1.
    10030    2    1    2    0    0  0.00000000000E+00  0.00000000000E+00  0.15452887175E+03  0.25831620189E+04  0.25785357945E+04 0.  0.
        1    1    3    3  502    0 -0.11928816223E+04 -0.33558564572E+03  0.43375033992E+03  0.13129065648E+04  0.50400001928E-02 0.  1.
       -1    1    3    3    0  502  0.11928816223E+04  0.33558564572E+03 -0.27922146816E+03  0.12702554541E+04  0.50400001928E-02 0. -1.
</event>
<event>
 5   0  0.5385714E-07  0.3979557E+04  0.7818609E-02  0.8008683E-01
        1   -1    0    0  501    0  0.00000000000E+00  0.00000000000E+00  0.13536133681E+04  0.13536133682E+04  0.50400001928E-02 0.  1.
       -1   -1    0    0    0  501  0.00000000000E+00  0.00000000000E+00 -0.29249250848E+04  0.29249250848E+04  0.50400001928E-02 0. -1.
    10030    2    1    2    0    0  0.00000000000E+00  0.00000000000E+00 -0.15713117166E+04  0.42785384529E+04  0.39795566062E+04 0.  0.
        3    1    3    3  502    0 -0.37489176966E+03 -0.36918974189E+03  0.12774648049E+04  0.13815792567E+04  0.10100000352E+00 0.  1.
       -3    1    3    3    0  502  0.37489176966E+03  0.36918974189E+03 -0.28487765216E+04  0.28969591962E+04  0.10100000352E+00 0. -1.
</event>
<event>
 5   0  0.1015219E-06  0.3561848E+04  0.7818609E-02  0.8099287E-01
       -2   -1    0    0    0  501  0.00000000000E+00  0.00000000000E+00  0.16915941224E+04  0.16915941224E+04  0.25500000920E-02 0.  1.
        2   -1    0    0  501    0  0.00000000000E+00  0.00000000000E+00 -0.18749713663E+04  0.18749713663E+04  0.25500000920E-02 0. -1.
    10030    2    1    2    0    0  0.00000000000E+00  0.00000000000E+00 -0.18337724393E+03  0.35665654888E+04  0.35618481400E+04 0.  0.
        3    1    3    3  502    0  0.68874098914E+03 -0.53720356463E+03 -0.16457553050E+04  0.18631860761E+04  0.10100000352E+00 0. -1.
       -3    1    3    3    0  502 -0.68874098914E+03  0.53720356463E+03  0.14623780611E+04  0.17033794127E+04  0.10100000352E+00 0.  1.
</event>
<event>
 5   0  0.5533705E-07  0.3910615E+04  0.7818609E-02  0.8022825E-01
       -2   -1    0    0    0  501  0.00000000000E+00  0.00000000000E+00  0.24323826159E+04  0.24323826159E+04  0.25500000920E-02 0.  1.
        2   -1    0    0  501    0  0.00000000000E+00  0.00000000000E+00 -0.15718031317E+04  0.15718031317E+04  0.25500000920E-02 0. -1.
    10030    2    1    2    0    0  0.00000000000E+00  0.00000000000E+00  0.86057948418E+03  0.40041857475E+04  0.39106145875E+04 0.  0.
        1    1    3    3  502    0  0.75209947404E+03  0.10192563051E+04 -0.10948775086E+04  0.16743039727E+04  0.50400001928E-02 0. -1.
       -1    1    3    3    0  502 -0.75209947404E+03 -0.10192563051E+04  0.19554569927E+04  0.23298817748E+04  0.50400001928E-02 0.  1.
</event>
<event>
 5   0  0.4316671E-07  0.3894392E+04  0.7818609E-02  0.8026197E-01
       -1   -1    0    0    0  501  0.00000000000E+00  0.00000000000E+00  0.20567716962E+04  0.20567716962E+04  0.50400001928E-02 0. -1.
        1   -1    0    0  501    0  0.00000000000E+00  0.00000000000E+00 -0.18434580238E+04  0.18434580238E+04  0.50400001928E-02 0.  1.
    10030    2    1    2    0    0  0.00000000000E+00  0.00000000000E+00  0.21331367243E+03  0.39002297201E+04  0.38943920124E+04 0.  0.
        2    1    3    3  502    0  0.43378781835E+03  0.17566178814E+04  0.82724496237E+03  0.19895256923E+04  0.25500000920E-02 0. -1.
       -2    1    3    3    0  502 -0.43378781835E+03 -0.17566178814E+04 -0.61393128993E+03  0.19107040277E+04  0.25500000920E-02 0.  1.
</event>
<event>
 5   0  0.5385714E-07  0.3859512E+04  0.7818609E-02  0.8033503E-01
       -1   -1    0    0    0  501  0.00000000000E+00  0.00000000000E+00  0.22099648079E+04  0.22099648079E+04  0.50400001928E-02 0. -1.
        1   -1    0    0  501    0  0.00000000000E+00  0.00000000000E+00 -0.16850756749E+04  0.16850756749E+04  0.50400001928E-02 0.  1.
    10030    2    1    2    0    0  0.00000000000E+00  0.00000000000E+00  0.52488913305E+03  0.38950404828E+04  0.38595118552E+04 0.  0.
        3    1    3    3  502    0 -0.15186094124E+04 -0.11782855249E+04  0.89323598182E+02  0.19241907496E+04  0.10100000352E+00 0.  1.
       -3    1    3    3    0  502  0.15186094124E+04  0.11782855249E+04  0.43556553487E+03  0.19708497332E+04  0.10100000352E+00 0. -1.
</event>
<event>
 5   0  0.1015219E-06  0.4075780E+04  0.7818609E-02  0.7989431E-01
        2   -1    0    0  501    0  0.00000000000E+00  0.00000000000E+00  0.22753993536E+04  0.22753993536E+04  0.25500000920E-02 0. -1.
       -2   -1    0    0    0  501  0.00000000000E+00  0.00000000000E+00 -0.18251720243E+04  0.18251720243E+04  0.25500000920E-02 0.  1.
    10030    2    1    2    0    0  0.00000000000E+00  0.00000000000E+00  0.45022732926E+03  0.41005713779E+04  0.40757797999E+04 0.  0.
        3    1    3    3  502    0  0.80564713036E+03 -0.80846588571E+03  0.19236692987E+04  0.22367807152E+04  0.10100000352E+00 0. -1.
       -3    1    3    3    0  502 -0.80564713036E+03  0.80846588571E+03 -0.14734419694E+04  0.18637906627E+04  0.10100000352E+00 0.  1.
</event>
<event>
 5   0  0.3471602E-07  0.3013050E+04  0.7818609E-02  0.8240014E-01
        1   -1    0    0  501    0  0.00000000000E+00  0.00000000000E+00  0.16089132100E+04  0.16089132100E+04  0.50400001928E-02 0.  1.
       -1   -1    0    0    0  501  0.00000000000E+00  0.00000000000E+00 -0.14106529947E+04  0.14106529947E+04  0.50400001928E-02 0. -1.
    10030    2    1    2    0    0  0.00000000000E+00  0.00000000000E+00  0.19826021526E+03  0.30195662047E+04  0.30130504396E+04 0.  0.
        5    1    3    3  502    0 -0.11198347603E+04 -0.48441023695E+03 -0.78647369939E+03  0.14516356767E+04  0.46999998093E+01 0. -1.
       -5    1    3    3    0  502  0.11198347603E+04  0.48441023695E+03  0.98473391465E+03  0.15679305280E+04  0.46999998093E+01 0.  1.
</event>
<event>
 5   0  0.4627905E-07  0.3938583E+04  0.7818609E-02  0.8017052E-01
       -1   -1    0    0    0  501  0.00000000000E+00  0.00000000000E+00  0.27982940274E+04  0.27982940274E+04  0.50400001928E-02 0.  1.
        1   -1    0    0  501    0  0.00000000000E+00  0.00000000000E+00 -0.13858832012E+04  0.13858832012E+04  0.50400001928E-02 0. -1.
    10030    2    1    2    0    0  0.00000000000E+00  0.00000000000E+00  0.14124108262E+04  0.41841772286E+04  0.39385828337E+04 0.  0.
        1    1    3    3  502    0 -0.59391094115E+03  0.17268489398E+04 -0.76896712840E+02  0.18277446680E+04  0.50400001928E-02 0. -1.
       -1    1    3    3    0  502  0.59391094115E+03 -0.17268489398E+04  0.14893075391E+04  0.23564325606E+04  0.50400001928E-02 0.  1.
</event>
<event>
 5   0  0.7268013E-07  0.3850768E+04  0.7818609E-02  0.8035347E-01
        2   -1    0    0  501    0  0.00000000000E+00  0.00000000000E+00  0.15322809419E+04  0.15322809419E+04  0.25500000920E-02 0. -1.
       -2   -1    0    0    0  501  0.00000000000E+00  0.00000000000E+00 -0.24193363348E+04  0.24193363348E+04  0.25500000920E-02 0.  1.
    10030    2    1    2    0    0  0.00000000000E+00  0.00000000000E+00 -0.88705539290E+03  0.39516172767E+04  0.38507676937E+04 0.  0.
        4    1    3    3  502    0 -0.13827422434E+04 -0.78915370093E+03 -0.15546410351E+04  0.22252303333E+04  0.12699999809E+01 0.  1.
       -4    1    3    3    0  502  0.13827422434E+04  0.78915370093E+03  0.66758564224E+03  0.17263869433E+04  0.12699999809E+01 0. -1.
</event>
<event>
 5   0  0.1034683E-06  0.2354299E+04  0.7818609E-02  0.8456814E-01
       -2   -1    0    0    0  501  0.00000000000E+00  0.00000000000E+00  0.76310540643E+03  0.76310540644E+03  0.25500000920E-02 0. -1.
        2   -1    0    0  501    0  0.00000000000E+00  0.00000000000E+00 -0.18158453553E+04  0.18158453553E+04  0.25500000920E-02 0.  1.
    10030    2    1    2    0    0  0.00000000000E+00  0.00000000000E+00 -0.10527399489E+04  0.25789507617E+04  0.23542993929E+04 0.  0.
        2    1    3    3  502    0  0.38348550264E+03 -0.62752132332E+02 -0.17435617154E+04  0.17863388302E+04  0.25500000920E-02 0.  1.
       -2    1    3    3    0  502 -0.38348550264E+03  0.62752132332E+02  0.69082176655E+03  0.79261193152E+03  0.25500000920E-02 0. -1.
</event>
<event>
 5   0  0.1035864E-06  0.2018073E+04  0.7818609E-02  0.8598217E-01
       -2   -1    0    0    0  501  0.00000000000E+00  0.00000000000E+00  0.58100979217E+03  0.58100979218E+03  0.25500000920E-02 0.  1.
        2   -1    0    0  501    0  0.00000000000E+00  0.00000000000E+00 -0.17523886849E+04  0.17523886849E+04  0.25500000920E-02 0. -1.
    10030    2    1    2    0    0  0.00000000000E+00  0.00000000000E+00 -0.11713788927E+04  0.23333984771E+04  0.20180733244E+04 0.  0.
        5    1    3    3  502    0  0.35760250560E+03  0.16446495244E+03  0.48856917341E+03  0.62741549216E+03  0.46999998093E+01 0.  1.
       -5    1    3    3    0  502 -0.35760250560E+03 -0.16446495244E+03 -0.16599480661E+04  0.17059829849E+04  0.46999998093E+01 0. -1.
</event>
<event>
 5   0  0.1034683E-06  0.3847813E+04  0.7818609E-02  0.8035971E-01
       -2   -1    0    0    0  501  0.00000000000E+00  0.00000000000E+00  0.15993600166E+04  0.15993600166E+04  0.25500000920E-02 0.  1.
        2   -1    0    0  501    0  0.00000000000E+00  0.00000000000E+00 -0.23143109978E+04  0.23143109978E+04  0.25500000920E-02 0. -1.
    10030    2    1    2    0    0  0.00000000000E+00  0.00000000000E+00 -0.71495098126E+03  0.39136710144E+04  0.38478131326E+04 0.  0.
        2    1    3    3  502    0 -0.56338130586E+02 -0.18759470562E+04 -0.78787905412E+03  0.20354618018E+04  0.25500000920E-02 0.  1.
       -2    1    3    3    0  502  0.56338130586E+02  0.18759470562E+04  0.72928072862E+02  0.18782092126E+04  0.25500000920E-02 0. -1.
</event>
<event>
 5   0  0.1035864E-06  0.2942405E+04  0.7818609E-02  0.8260371E-01
        2   -1    0    0  501    0  0.00000000000E+00  0.00000000000E+00  0.97408697462E+03  0.97408697463E+03  0.25500000920E-02 0.  1.
       -2   -1    0    0    0  501  0.00000000000E+00  0.00000000000E+00 -0.22220167056E+04  0.22220167056E+04  0.25500000920E-02 0. -1.
    10030    2    1    2    0    0  0.00000000000E+00  0.00000000000E+00 -0.12479297309E+04  0.31961036802E+04  0.29424054991E+04 0.  0.
        5    1    3    3  502    0 -0.10373509720E+04  0.10025052587E+04 -0.31045946454E+03  0.14756425725E+04  0.46999998093E+01 0. -1.
       -5    1    3    3    0  502  0.10373509720E+04 -0.10025052587E+04 -0.93747026639E+03  0.17204611077E+04  0.46999998093E+01 0.  1.
</event>
<event>
 5   0  0.4627905E-07  0.3306942E+04  0.7818609E-02  0.8161131E-01
       -1   -1    0    0    0  501  0.00000000000E+00  0.00000000000E+00  0.23903432865E+04  0.23903432865E+04  0.50400001928E-02 0.  1.
        1   -1    0    0  501    0  0.00000000000E+00  0.00000000000E+00 -0.11437545006E+04  0.11437545006E+04  0.50400001928E-02 0. -1.
    10030    2    1    2    0    0  0.00000000000E+00  0.00000000000E+00  0.12465887859E+04  0.35340977871E+04  0.33069417243E+04 0.  0.
        1    1    3    3  502    0  0.16224298569E+04 -0.16687262311E+03  0.33289202349E+03  0.16646147338E+04  0.50400001928E-02 0. -1.
       -1    1    3    3    0  502 -0.16224298569E+04  0.16687262311E+03  0.91369676246E+03  0.18694830533E+04  0.50400001928E-02 0.  1.
</event>
<event>
 5   0  0.1034683E-06  0.3476972E+04  0.7818609E-02  0.8119269E-01
       -2   -1    0    0    0  501  0.00000000000E+00  0.00000000000E+00  0.19386133279E+04  0.19386133279E+04  0.25500000920E-02 0. -1.
        2   -1    0    0  501    0  0.00000000000E+00  0.00000000000E+00 -0.15590184559E+04  0.15590184559E+04  0.25500000920E-02 0.  1.
    10030    2    1    2    0    0  0.00000000000E+00  0.00000000000E+00  0.37959487207E+03  0.34976317838E+04  0.34769722214E+04 0.  0.
        2    1    3    3  502    0  0.16973767544E+04  0.37268427312E+03  0.14100621771E+03  0.17435206243E+04  0.25500000920E-02 0.  1.
       -2    1    3    3    0  502 -0.16973767544E+04 -0.37268427312E+03  0.23858865436E+03  0.17541111595E+04  0.25500000920E-02 0. -1.
</event>
<event>
 5   0  0.7268013E-07  0.3960798E+04  0.7818609E-02  0.8012502E-01
        2   -1    0    0  501    0  0.00000000000E+00  0.00000000000E+00  0.23896882669E+04  0.23896882669E+04  0.25500000920E-02 0. -1.
       -2   -1    0    0    0  501  0.00000000000E+00  0.00000000000E+00 -0.16412098070E+04  0.16412098070E+04  0.25500000920E-02 0.  1.
    10030    2    1    2    0    0  0.00000000000E+00  0.00000000000E+00  0.74847845996E+03  0.40308980739E+04  0.39607978081E+04 0.  0.
        4    1    3    3  502    0 -0.19585260270E+04 -0.15657192054E+03  0.62690580091E+03  0.20623655013E+04  0.12699999809E+01 0.  1.
       -4    1    3    3    0  502  0.19585260270E+04  0.15657192054E+03  0.12157265905E+03  0.19685325726E+04  0.12699999809E+01 0. -1.
</event>
<event>
 5   0  0.5533705E-07  0.3115176E+04  0.7818609E-02  0.8211585E-01
       -2   -1    0    0    0  501  0.00000000000E+00  0.00000000000E+00  0.22201184913E+04  0.22201184913E+04  0.25500000920E-02 0. -1.
        2   -1    0    0  501    0  0.00000000000E+00  0.00000000000E+00 -0.10927706221E+04  0.10927706221E+04  0.25500000920E-02 0.  1.
    10030    2    1    2    0    0  0.00000000000E+00  0.00000000000E+00  0.11273478691E+04  0.33128891134E+04  0.31151759276E+04 0.  0.
        1    1    3    3  502    0 -0.93367017967E+02  0.10264060490E+04  0.18056355707E+04  0.20790734936E+04  0.50400001928E-02 0. -1.
       -1    1    3    3    0  502  0.93367017967E+02 -0.10264060490E+04 -0.67828770163E+03  0.12338156198E+04  0.50400001928E-02 0.  1.
</event>
<event>
 5   0  0.7268013E-07  0.2905507E+04  0.7818609E-02  0.8271241E-01
        2   -1    0    0  501    0  0.00000000000E+00  0.00000000000E+00  0.16017620010E+04  0.16017620010E+04  0.25500000920E-02 0. -1.
       -2   -1    0    0    0  501  0.00000000000E+00  0.00000000000E+00 -0.13176071754E+04  0.13176071754E+04  0.25500000920E-02 0.  1.
    10030    2    1    2    0    0  0.00000000000E+00  0.00000000000E+00  0.28415482567E+03  0.29193691764E+04  0.29055072574E+04 0.  0.
        4    1    3    3  502    0  0.43558633892E+03 -0.96397871463E+03 -0.85841465033E+03  0.13623023694E+04  0.12699999809E+01 0.  1.
       -4    1    3    3    0  502 -0.43558633892E+03  0.96397871463E+03  0.11425694760E+04  0.15570668070E+04  0.12699999809E+01 0. -1.
</event>
<event>
 5   0  0.1035864E-06  0.2490966E+04  0.7818609E-02  0.8406211E-01
       -2   -1    0    0    0  501  0.00000000000E+00  0.00000000000E+00  0.80438613903E+03  0.80438613904E+03  0.25500000920E-02 0.  1.
        2   -1    0    0  501    0  0.00000000000E+00  0.00000000000E+00 -0.19284624876E+04  0.19284624876E+04  0.25500000920E-02 0. -1.
    10030    2    1    2    0    0  0.00000000000E+00  0.00000000000E+00 -0.11240763486E+04  0.27328486266E+04  0.24909664748E+04 0.  0.
        5    1    3    3  502    0 -0.10152266267E+04  0.64203021787E+03 -0.92311449926E+03  0.15149423662E+04  0.46999998093E+01 0. -1.
       -5    1    3    3    0  502  0.10152266267E+04 -0.64203021787E+03 -0.20096184931E+03  0.12179062604E+04  0.46999998093E+01 0.  1.
</event>
<event>
 5   0  0.1035864E-06  0.2946681E+04  0.7818609E-02  0.8259122E-01
       -2   -1    0    0    0  501  0.00000000000E+00  0.00000000000E+00  0.15028263693E+04  0.15028263693E+04  0.25500000920E-02 0. -1.
        2   -1    0    0  501    0  0.00000000000E+00  0.00000000000E+00 -0.14444331666E+04  0.14444331666E+04  0.25500000920E-02 0.  1.
    10030    2    1    2    0    0  0.00000000000E+00  0.00000000000E+00  0.58393202630E+02  0.29472595359E+04  0.29466810153E+04 0.  0.
        5    1    3    3  502    0  0.34000833745E+03  0.59927581410E+03 -0.12733543555E+04  0.14478227017E+04  0.46999998093E+01 0.  1.
       -5    1    3    3    0  502 -0.34000833745E+03 -0.59927581410E+03  0.13317475582E+04  0.14994368341E+04  0.46999998093E+01 0. -1.
</event>
<event>
 5   0  0.5533705E-07  0.2684724E+04  0.7818609E-02  0.8339978E-01
       -2   -1    0    0    0  501  0.00000000000E+00  0.00000000000E+00  0.75735308507E+03  0.75735308507E+03  0.25500000920E-02 0. -1.
        2   -1    0    0  501    0  0.00000000000E+00  0.00000000000E+00 -0.23792550873E+04  0.23792550873E+04  0.25500000920E-02 0.  1.
    10030    2    1    2    0    0  0.00000000000E+00  0.00000000000E+00 -0.16219020023E+04  0.31366081724E+04  0.26847243289E+04 0.  0.
        1    1    3    3  502    0 -0.88148308825E+03 -0.56857352611E+03 -0.17895847382E+04  0.20743437094E+04  0.50400001928E-02 0.  1.
       -1    1    3    3    0  502  0.88148308825E+03  0.56857352611E+03  0.16768273592E+03  0.10622644630E+04  0.50400001928E-02 0. -1.
</event>
<event>
 5   0  0.1015219E-06  0.1921832E+04  0.7818609E-02  0.8644065E-01
       -2   -1    0    0    0  501  0.00000000000E+00  0.00000000000E+00  0.50914968118E+03  0.50914968118E+03  0.25500000920E-02 0. -1.
        2   -1    0    0  501    0  0.00000000000E+00  0.00000000000E+00 -0.18135322344E+04  0.18135322344E+04  0.25500000920E-02 0.  1.
    10030    2    1    2    0    0  0.00000000000E+00  0.00000000000E+00 -0.13043825532E+04  0.23226819155E+04  0.19218317917E+04 0.  0.
        3    1    3    3  502    0  0.66091415646E+03 -0.52487105618E+03 -0.12074298074E+04  0.14731544040E+04  0.10100000352E+00 0.  1.
       -3    1    3    3    0  502 -0.66091415646E+03  0.52487105618E+03 -0.96952745745E+02  0.84952751158E+03  0.10100000352E+00 0. -1.
</event>
<event>
 5   0  0.7268013E-07  0.3692948E+04  0.7818609E-02  0.8069526E-01
        2   -1    0    0  501    0  0.00000000000E+00  0.00000000000E+00  0.23850838969E+04  0.23850838969E+04  0.25500000920E-02 0. -1.
       -2   -1    0    0    0  501  0.00000000000E+00  0.00000000000E+00 -0.14294953374E+04  0.14294953374E+04  0.25500000920E-02 0.  1.
    10030    2    1    2    0    0  0.00000000000E+00  0.00000000000E+00  0.95558855950E+03  0.38145792343E+04  0.36929480418E+04 0.  0.
        4    1    3    3  502    0  0.51322207106E+03  0.34585631829E+03  0.22747620232E+04  0.23574472130E+04  0.12699999809E+01 0. -1.
       -4    1    3    3    0  502 -0.51322207106E+03 -0.34585631829E+03 -0.13191734637E+04  0.14571320213E+04  0.12699999809E+01 0.  1.
</event>
<event>
 5   0  0.4627905E-07  0.2827862E+04  0.7818609E-02  0.8294670E-01
       -1   -1    0    0    0  501  0.00000000000E+00  0.00000000000E+00  0.10665820630E+04  0.10665820630E+04  0.50400001928E-02 0.  1.
        1   -1    0    0  501    0  0.00000000000E+00  0.00000000000E+00 -0.18743991180E+04  0.18743991181E+04  0.50400001928E-02 0. -1.
    10030    2    1    2    0    0  0.00000000000E+00  0.00000000000E+00 -0.80781705509E+03  0.29409811810E+04  0.28278617209E+04 0.  0.
        1    1    3    3  502    0 -0.83211239174E+02  0.14080043998E+04 -0.30095372124E+03  0.14422113723E+04  0.50400001928E-02 0.  1.
       -1    1    3    3    0  502  0.83211239174E+02 -0.14080043998E+04 -0.50686333385E+03  0.14987698087E+04  0.50400001928E-02 0. -1.
</event>
<event>
 5   0  0.5533705E-07  0.3884219E+04  0.7818609E-02  0.8028319E-01
        2   -1    0    0  501    0  0.00000000000E+00  0.00000000000E+00  0.24107890659E+04  0.24107890659E+04  0.25500000920E-02 0.  1.
       -2   -1    0    0    0  501  0.00000000000E+00  0.00000000000E+00 -0.15645457117E+04  0.15645457117E+04  0.25500000920E-02 0. -1.
    10030    2    1    2    0    0  0.00000000000E+00  0.00000000000E+00  0.84624335420E+03  0.39753347776E+04  0.38842191982E+04 0.  0.
        1    1    3    3  502    0  0.57415054386E+03 -0.38489601939E+03 -0.14343897959E+04  0.15922524546E+04  0.50400001928E-02 0. -1.
       -1    1    3    3    0  502 -0.57415054386E+03  0.38489601939E+03  0.22806331501E+04  0.23830823230E+04  0.50400001928E-02 0.  1.
</event>
<event>
 5   0  0.5533705E-07  0.2301279E+04  0.7818609E-02  0.8477417E-01
       -2   -1    0    0    0  501  0.00000000000E+00  0.00000000000E+00  0.92395220645E+03  0.92395220645E+03  0.25500000920E-02 0. -1.
        2   -1    0    0  501    0  0.00000000000E+00  0.00000000000E+00 -0.14329435518E+04  0.14329435518E+04  0.25500000920E-02 0.  1.
    10030    2    1    2    0    0  0.00000000000E+00  0.00000000000E+00 -0.50899134532E+03  0.23568957582E+04  0.23012790847E+04 0.  0.
        1    1    3    3  502    0  0.79529236027E+00 -0.10550630517E+04 -0.72473554393E+03  0.12800001111E+04  0.50400001928E-02 0.  1.
       -1    1    3    3    0  502 -0.79529236027E+00  0.10550630517E+04  0.21574419861E+03  0.10768956472E+04  0.50400001928E-02 0. -1.
</event>
<event>
 5   0  0.4316671E-07  0.2819908E+04  0.7818609E-02  0.8297114E-01
        1   -1    0    0  501    0  0.00000000000E+00  0.00000000000E+00  0.14850379855E+04  0.14850379855E+04  0.50400001928E-02 0. -1.
       -1   -1    0    0    0  501  0.00000000000E+00  0.00000000000E+00 -0.13386663623E+04  0.13386663623E+04  0.50400001928E-02 0.  1.
    10030    2    1    2    0    0  0.00000000000E+00  0.00000000000E+00  0.14637162314E+03  0.28237043478E+04  0.28199080822E+04 0.  0.
        2    1    3    3  502    0  0.11550026034E+04 -0.31263727180E+03 -0.67360457103E+03  0.13731409963E+04  0.25500000920E-02 0.  1.
       -2    1    3    3    0  502 -0.11550026034E+04  0.31263727180E+03  0.81997619418E+03  0.14505633515E+04  0.25500000920E-02 0. -1.
</event>
<event>
 5   0  0.5574172E-07  0.1947442E+04  0.7818609E-02  0.8631595E-01
       -2   -1    0    0    0  501  0.00000000000E+00  0.00000000000E+00  0.81893400363E+03  0.81893400363E+03  0.25500000920E-02 0. -1.
        2   -1    0    0  501    0  0.00000000000E+00  0.00000000000E+00 -0.11577648111E+04  0.11577648111E+04  0.25500000920E-02 0.  1.
    10030    2    1    2    0    0  0.00000000000E+00  0.00000000000E+00 -0.33883080745E+03  0.19766988147E+04  0.19474423966E+04 0.  0.
        1    1    3    3  502    0  0.23756260934E+03 -0.91714399464E+03 -0.39761251085E+03  0.10274652350E+04  0.50400001928E-02 0.  1.
       -1    1    3    3    0  502 -0.23756260934E+03  0.91714399464E+03  0.58781703396E+02  0.94923357975E+03  0.50400001928E-02 0. -1.
</event>
<event>
 5   0  0.5533705E-07  0.3900127E+04  0.7818609E-02  0.8025003E-01
        2   -1    0    0  501    0  0.00000000000E+00  0.00000000000E+00  0.32951423506E+04  0.32951423506E+04  0.25500000920E-02 0. -1.
       -2   -1    0    0    0  501  0.00000000000E+00  0.00000000000E+00 -0.11540467990E+04  0.11540467990E+04  0.25500000920E-02 0.  1.
    10030    2    1    2    0    0  0.00000000000E+00  0.00000000000E+00  0.21410955516E+04  0.44491891497E+04  0.39001274246E+04 0.  0.
        1    1    3    3  502    0 -0.14033775168E+04 -0.13343481793E+04  0.13326666666E+04  0.23507347708E+04  0.50400001928E-02 0. -1.
       -1    1    3    3    0  502  0.14033775168E+04  0.13343481793E+04  0.80842888497E+03  0.20984543789E+04  0.50400001928E-02 0.  1.
</event>
<event>
 5   0  0.1035864E-06  0.2236530E+04  0.7818609E-02  0.8503376E-01
        2   -1    0    0  501    0  0.00000000000E+00  0.00000000000E+00  0.17110526136E+04  0.17110526136E+04  0.25500000920E-02 0. -1.
       -2   -1    0    0    0  501  0.00000000000E+00  0.00000000000E+00 -0.73084627322E+03  0.73084627323E+03  0.25500000920E-02 0.  1.
    10030    2    1    2    0    0  0.00000000000E+00  0.00000000000E+00  0.98020634033E+03  0.24418988868E+04  0.22365298352E+04 0.  0.
        5    1    3    3  502    0  0.18528540281E+03 -0.10705584410E+04  0.20109261209E+03  0.11049372764E+04  0.46999998093E+01 0.  1.
       -5    1    3    3    0  502 -0.18528540281E+03  0.10705584410E+04  0.77911372825E+03  0.13369616104E+04  0.46999998093E+01 0. -1.
</event>
<event>
 5   0  0.1015219E-06  0.2786928E+04  0.7818609E-02  0.8307338E-01
       -2   -1    0    0    0  501  0.00000000000E+00  0.00000000000E+00  0.12797253197E+04  0.12797253197E+04  0.25500000920E-02 0. -1.
        2   -1    0    0  501    0  0.00000000000E+00  0.00000000000E+00 -0.15173115737E+04  0.15173115737E+04  0.25500000920E-02 0.  1.
    10030    2    1    2    0    0  0.00000000000E+00  0.00000000000E+00 -0.23758625401E+03  0.27970368933E+04  0.27869280856E+04 0.  0.
        3    1    3    3  502    0  0.11698696133E+04  0.60413782649E+03  0.33911238760E+03  0.13596229798E+04  0.10100000352E+00 0.  1.
       -3    1    3    3    0  502 -0.11698696133E+04 -0.60413782649E+03 -0.57669864162E+03  0.14374139136E+04  0.10100000352E+00 0. -1.
</event>
<event>
 5   0  0.4627905E-07  0.2205562E+04  0.7818609E-02  0.8516117E-01
        1   -1    0    0  501    0  0.00000000000E+00  0.00000000000E+00  0.16872457085E+04  0.16872457085E+04  0.50400001928E-02 0. -1.
       -1   -1    0    0    0  501  0.00000000000E+00  0.00000000000E+00 -0.72077559863E+03  0.72077559865E+03  0.50400001928E-02 0.  1.
    10030    2    1    2    0    0  0.00000000000E+00  0.00000000000E+00  0.96647010988E+03  0.24080213072E+04  0.22055616388E+04 0.  0.
        1    1    3    3  502    0  0.23622605112E+03 -0.64480959661E+03  0.14253114605E+04  0.15821172279E+04  0.50400001928E-02 0.  1.
       -1    1    3    3    0  502 -0.23622605112E+03  0.64480959661E+03 -0.45884135067E+03  0.82590407931E+03  0.50400001928E-02 0. -1.
</event>
<event>
 5   0  0.5533705E-07  0.3874163E+04  0.7818609E-02  0.8030424E-01
       -2   -1    0    0    0  501  0.00000000000E+00  0.00000000000E+00  0.16006287791E+04  0.16006287791E+04  0.25500000920E-02 0.  1.
        2   -1    0    0  501    0  0.00000000000E+00  0.00000000000E+00 -0.23442570383E+04  0.23442570383E+04  0.25500000920E-02 0. -1.
    10030    2    1    2    0    0  0.00000000000E+00  0.00000000000E+00 -0.74362825920E+03  0.39448858174E+04  0.38741632806E+04 0.  0.
        1    1    3    3  502    0  0.36242139704E+03  0.15710564321E+04 -0.14650603826E+04  0.21785246169E+04  0.50400001928E-02 0.  1.
       -1    1    3    3    0  502 -0.36242139704E+03 -0.15710564321E+04  0.72143212345E+03  0.17663612005E+04  0.50400001928E-02 0. -1.
</event>
<event>
 5   0  0.1034683E-06  0.3831584E+04  0.7818609E-02  0.8039411E-01
       -2   -1    0    0    0  501  0.00000000000E+00  0.00000000000E+00  0.18627463416E+04  0.18627463416E+04  0.25500000920E-02 0.  1.
        2   -1    0    0  501    0  0.00000000000E+00  0.00000000000E+00 -0.19703482669E+04  0.19703482669E+04  0.25500000920E-02 0. -1.
    10030    2    1    2    0    0  0.00000000000E+00  0.00000000000E+00 -0.10760192534E+03  0.38330946085E+04  0.38315840201E+04 0.  0.
        2    1    3    3  502    0  0.15864580313E+04  0.86471163072E+02  0.10171035225E+04  0.18864850709E+04  0.25500000920E-02 0.  1.
       -2    1    3    3    0  502 -0.15864580313E+04 -0.86471163072E+02 -0.11247054479E+04  0.19466095376E+04  0.25500000920E-02 0. -1.
</event>
<event>
 5   0  0.3191750E-07  0.2219141E+04  0.7818609E-02  0.8510503E-01
       -3   -1    0    0    0  501  0.00000000000E+00  0.00000000000E+00  0.89215181900E+03  0.89215182472E+03  0.10100000352E+00 0.  1.
        3   -1    0    0  501    0  0.00000000000E+00  0.00000000000E+00 -0.13799748785E+04  0.13799748822E+04  0.10100000352E+00 0. -1.
    10030    2    1    2    0    0  0.00000000000E+00  0.00000000000E+00 -0.48782305953E+03  0.22721267069E+04  0.22191413734E+04 0.  0.
        4    1    3    3  502    0 -0.95369185434E+03  0.55696906311E+03 -0.13457798337E+03  0.11125895635E+04  0.12699999809E+01 0.  1.
       -4    1    3    3    0  502  0.95369185434E+03 -0.55696906311E+03 -0.35324507616E+03  0.11595371434E+04  0.12699999809E+01 0. -1.
</event>
<event>
 5   0  0.5385714E-07  0.3923058E+04  0.7818609E-02  0.8020251E-01
        1   -1    0    0  501    0  0.00000000000E+00  0.00000000000E+00  0.21714048212E+04  0.21714048212E+04  0.50400001928E-02 0.  1.
       -1   -1    0    0    0  501  0.00000000000E+00  0.00000000000E+00 -0.17719388739E+04  0.17719388739E+04  0.50400001928E-02 0. -1.
    10030    2    1    2    0    0  0.00000000000E+00  0.00000000000E+00  0.39946594723E+03  0.39433436951E+04  0.39230583038E+04 0.  0.
        3    1    3    3  502    0 -0.69339931527E+03 -0.50211862791E+03 -0.15742357129E+04  0.17919664664E+04  0.10100000352E+00 0. -1.
       -3    1    3    3    0  502  0.69339931527E+03  0.50211862791E+03  0.19737016601E+04  0.21513772287E+04  0.10100000352E+00 0.  1.
</event>
<event>
 5   0  0.5533705E-07  0.2605500E+04  0.7818609E-02  0.8366335E-01
       -2   -1    0    0    0  501  0.00000000000E+00  0.00000000000E+00  0.84947824556E+03  0.84947824556E+03  0.25500000920E-02 0. -1.
        2   -1    0    0  501    0  0.00000000000E+00  0.00000000000E+00 -0.19978828468E+04  0.19978828468E+04  0.25500000920E-02 0.  1.
    10030    2    1    2    0    0  0.00000000000E+00  0.00000000000E+00 -0.11484046012E+04  0.28473610924E+04  0.26055003477E+04 0.  0.
        1    1    3    3  502    0  0.11800063031E+04 -0.25918612618E+03 -0.41550656237E+02  0.12088501894E+04  0.50400001928E-02 0. -1.
       -1    1    3    3    0  502 -0.11800063031E+04  0.25918612618E+03 -0.11068539450E+04  0.16385109029E+04  0.50400001928E-02 0.  1.
</event>
<event>
 5   0  0.1015219E-06  0.3764827E+04  0.7818609E-02  0.8053745E-01
        2   -1    0    0  501    0  0.00000000000E+00  0.00000000000E+00  0.18334043723E+04  0.18334043723E+04  0.25500000920E-02 0. -1.
       -2   -1    0    0    0  501  0.00000000000E+00  0.00000000000E+00 -0.19327329887E+04  0.19327329887E+04  0.25500000920E-02 0.  1.
    10030    2    1    2    0    0  0.00000000000E+00  0.00000000000E+00 -0.99328616368E+02  0.37661373610E+04  0.37648272800E+04 0.  0.
        3    1    3    3  502    0 -0.15833447920E+04 -0.27907551898E+03  0.92976639360E+03  0.18572370427E+04  0.10100000352E+00 0. -1.
       -3    1    3    3    0  502  0.15833447920E+04  0.27907551898E+03 -0.10290950100E+04  0.19089003184E+04  0.10100000352E+00 0.  1.
</event>
<event>
 5   0  0.3191750E-07  0.2021301E+04  0.7818609E-02  0.8596726E-01
       -3   -1    0    0    0  501  0.00000000000E+00  0.00000000000E+00  0.13955043458E+04  0.13955043494E+04  0.10100000352E+00 0. -1.
        3   -1    0    0  501    0  0.00000000000E+00  0.00000000000E+00 -0.73193205119E+03  0.73193205816E+03  0.10100000352E+00 0.  1.
    10030    2    1    2    0    0  0.00000000000E+00  0.00000000000E+00  0.66357229460E+03  0.21274364076E+04  0.20213009371E+04 0.  0.
        4    1    3    3  502    0 -0.64745247307E+02 -0.81274441228E+03 -0.29678910036E+03  0.86765823325E+03  0.12699999809E+01 0.  1.
       -4    1    3    3    0  502  0.64745247307E+02  0.81274441228E+03  0.96036139495E+03  0.12597781743E+04  0.12699999809E+01 0. -1.
</event>
<event>
 5   0  0.7268013E-07  0.3907945E+04  0.7818609E-02  0.8023379E-01
        2   -1    0    0  501    0  0.00000000000E+00  0.00000000000E+00  0.15749519183E+04  0.15749519183E+04  0.25500000920E-02 0.  1.
       -2   -1    0    0    0  501  0.00000000000E+00  0.00000000000E+00 -0.24242061045E+04  0.24242061045E+04  0.25500000920E-02 0. -1.
    10030    2    1    2    0    0  0.00000000000E+00  0.00000000000E+00 -0.84925418623E+03  0.39991580228E+04  0.39079447563E+04 0.  0.
        4    1    3    3  502    0  0.47834226441E+03 -0.18254520381E+04 -0.94333048292E+03  0.21097299538E+04  0.12699999809E+01 0.  1.
       -4    1    3    3    0  502 -0.47834226441E+03  0.18254520381E+04  0.94076296694E+02  0.18894280689E+04  0.12699999809E+01 0. -1.
</event>
<event>
 5   0  0.3977376E-07  0.3838565E+04  0.7818609E-02  0.8037929E-01
        1   -1    0    0  501    0  0.00000000000E+00  0.00000000000E+00  0.25266033170E+04  0.25266033170E+04  0.50400001928E-02 0.  1.
       -1   -1    0    0    0  501  0.00000000000E+00  0.00000000000E+00 -0.14579435009E+04  0.14579435009E+04  0.50400001928E-02 0. -1.
    10030    2    1    2    0    0  0.00000000000E+00  0.00000000000E+00  0.10686598161E+04  0.39845468179E+04  0.38385647763E+04 0.  0.
        4    1    3    3  502    0 -0.41484845316E+03 -0.17032039256E+04  0.13454830127E+04  0.22098255591E+04  0.12699999809E+01 0.  1.
       -4    1    3    3    0  502  0.41484845316E+03  0.17032039256E+04 -0.27682319657E+03  0.17747212588E+04  0.12699999809E+01 0. -1.
</event>
<event>
 5   0  0.5533705E-07  0.3864367E+04  0.7818609E-02  0.8032481E-01
        2   -1    0    0  501    0  0.00000000000E+00  0.00000000000E+00  0.18528728472E+04  0.18528728472E+04  0.25500000920E-02 0. -1.
       -2   -1    0    0    0  501  0.00000000000E+00  0.00000000000E+00 -0.20148892588E+04  0.20148892588E+04  0.25500000920E-02 0.  1.
    10030    2    1    2    0    0  0.00000000000E+00  0.00000000000E+00 -0.16201641164E+03  0.38677621060E+04  0.38643672692E+04 0.  0.
        1    1    3    3  502    0 -0.59545778774E+03  0.99869476413E+03 -0.16255334681E+04  0.19985795618E+04  0.50400001928E-02 0.  1.
       -1    1    3    3    0  502  0.59545778774E+03 -0.99869476413E+03  0.14635170565E+04  0.18691825442E+04  0.50400001928E-02 0. -1.
</event>
<event>
 5   0  0.7268013E-07  0.2215481E+04  0.7818609E-02  0.8512012E-01
       -2   -1    0    0    0  501  0.00000000000E+00  0.00000000000E+00  0.72053032458E+03  0.72053032459E+03  0.25500000920E-02 0.  1.
        2   -1    0    0  501    0  0.00000000000E+00  0.00000000000E+00 -0.17030366247E+04  0.17030366247E+04  0.25500000920E-02 0. -1.
    10030    2    1    2    0    0  0.00000000000E+00  0.00000000000E+00 -0.98250630011E+03  0.24235669493E+04  0.22154814664E+04 0.  0.
        4    1    3    3  502    0  0.27086420666E+03  0.10075067839E+04 -0.83921884155E+02  0.10466526805E+04  0.12699999809E+01 0. -1.
       -4    1    3    3    0  502 -0.27086420666E+03 -0.10075067839E+04 -0.89858441596E+03  0.13769142688E+04  0.12699999809E+01 0.  1.
</event>
<event>
 5   0  0.1034683E-06  0.3952333E+04  0.7818609E-02  0.8014232E-01
        2   -1    0    0  501    0  0.00000000000E+00  0.00000000000E+00  0.25329986082E+04  0.25329986082E+04  0.25500000920E-02 0.  1.
       -2   -1    0    0    0  501  0.00000000000E+00  0.00000000000E+00 -0.15417434223E+04  0.15417434223E+04  0.25500000920E-02 0. -1.
    10030    2    1    2    0    0  0.00000000000E+00  0.00000000000E+00  0.99125518584E+03  0.40747420305E+04  0.39523329531E+04 0.  0.
        2    1    3    3  502    0  0.93676304518E+02  0.51296878320E+03 -0.14695351562E+04  0.15593093977E+04  0.25500000920E-02 0. -1.
       -2    1    3    3    0  502 -0.93676304518E+02 -0.51296878320E+03  0.24607903420E+04  0.25154326328E+04  0.25500000920E-02 0.  1.
</event>
<event>
 5   0  0.7268013E-07  0.3848757E+04  0.7818609E-02  0.8035772E-01
       -2   -1    0    0    0  501  0.00000000000E+00  0.00000000000E+00  0.23846381515E+04  0.23846381516E+04  0.25500000920E-02 0.  1.
        2   -1    0    0  501    0  0.00000000000E+00  0.00000000000E+00 -0.15529534615E+04  0.15529534615E+04  0.25500000920E-02 0. -1.
    10030    2    1    2    0    0  0.00000000000E+00  0.00000000000E+00  0.83168469008E+03  0.39375916130E+04  0.38487567197E+04 0.  0.
        4    1    3    3  502    0 -0.14147907488E+03 -0.95941335931E+03 -0.12846717252E+04  0.16096190161E+04  0.12699999809E+01 0. -1.
       -4    1    3    3    0  502  0.14147907488E+03  0.95941335931E+03  0.21163564153E+04  0.23279725969E+04  0.12699999809E+01 0.  1.
</event>
<event>
 5   0  0.5533705E-07  0.2677135E+04  0.7818609E-02  0.8342462E-01
       -2   -1    0    0    0  501  0.00000000000E+00  0.00000000000E+00  0.74927795677E+03  0.74927795677E+03  0.25500000920E-02 0.  1.
        2   -1    0    0  501    0  0.00000000000E+00  0.00000000000E+00 -0.23913189310E+04  0.23913189310E+04  0.25500000920E-02 0. -1.
    10030    2    1    2    0    0  0.00000000000E+00  0.00000000000E+00 -0.16420409742E+04  0.31405968877E+04  0.26771347090E+04 0.  0.
        1    1    3    3  502    0  0.11827556216E+04 -0.54579066770E+03 -0.11825319237E+04  0.17593123838E+04  0.50400001928E-02 0.  1.
       -1    1    3    3    0  502 -0.11827556216E+04  0.54579066770E+03 -0.45950905056E+03  0.13812845040E+04  0.50400001928E-02 0. -1.
</event>
<event>
 5   0  0.3191750E-07  0.2147681E+04  0.7818609E-02  0.8540526E-01
       -3   -1    0    0    0  501  0.00000000000E+00  0.00000000000E+00  0.10779101312E+04  0.10779101359E+04  0.10100000352E+00 0.  1.
        3   -1    0    0  501    0  0.00000000000E+00  0.00000000000E+00 -0.10697861103E+04  0.10697861151E+04  0.10100000352E+00 0. -1.
    10030    2    1    2    0    0  0.00000000000E+00  0.00000000000E+00  0.81240208412E+01  0.21476962510E+04  0.21476808857E+04 0.  0.
        4    1    3    3  502    0  0.13046283027E+02  0.10154531627E+04 -0.34496248104E+03  0.10725278819E+04  0.12699999809E+01 0. -1.
       -4    1    3    3    0  502 -0.13046283027E+02 -0.10154531627E+04  0.35308650188E+03  0.10751683691E+04  0.12699999809E+01 0.  1.
</event>
<event>
 5   0  0.4627905E-07  0.2199339E+04  0.7818609E-02  0.8518703E-01
       -1   -1    0    0    0  501  0.00000000000E+00  0.00000000000E+00  0.71750950265E+03  0.71750950267E+03  0.50400001928E-02 0. -1.
        1   -1    0    0  501    0  0.00000000000E+00  0.00000000000E+00 -0.16853760700E+04  0.16853760700E+04  0.50400001928E-02 0.  1.
    10030    2    1    2    0    0  0.00000000000E+00  0.00000000000E+00 -0.96786656733E+03  0.24028855727E+04  0.21993393060E+04 0.  0.
        1    1    3    3  502    0 -0.96921077385E+03 -0.51775231421E+03 -0.43711450380E+03  0.11825844885E+04  0.50400001928E-02 0. -1.
       -1    1    3    3    0  502  0.96921077385E+03  0.51775231421E+03 -0.53075206353E+03  0.12203010841E+04  0.50400001928E-02 0.  1.
</event>
<event>
 5   0  0.5533705E-07  0.3906467E+04  0.7818609E-02  0.8023685E-01
       -2   -1    0    0    0  501  0.00000000000E+00  0.00000000000E+00  0.19816590692E+04  0.19816590692E+04  0.25500000920E-02 0. -1.
        2   -1    0    0  501    0  0.00000000000E+00  0.00000000000E+00 -0.19252161165E+04  0.19252161165E+04  0.25500000920E-02 0.  1.
    10030    2    1    2    0    0  0.00000000000E+00  0.00000000000E+00  0.56442952683E+02  0.39068751857E+04  0.39064674464E+04 0.  0.
        1    1    3    3  502    0 -0.32073007774E+03 -0.54069102743E+03 -0.18212707117E+04  0.19267178245E+04  0.50400001928E-02 0.  1.
       -1    1    3    3    0  502  0.32073007774E+03  0.54069102743E+03  0.18777136644E+04  0.19801573612E+04  0.50400001928E-02 0. -1.
</event>
<event>
 5   0  0.1035864E-06  0.3756357E+04  0.7818609E-02  0.8055586E-01
       -2   -1    0    0    0  501  0.00000000000E+00  0.00000000000E+00  0.13096652196E+04  0.13096652196E+04  0.25500000920E-02 0. -1.
        2   -1    0    0  501    0  0.00000000000E+00  0.00000000000E+00 -0.26934786444E+04  0.26934786444E+04  0.25500000920E-02 0.  1.
    10030    2    1    2    0    0  0.00000000000E+00  0.00000000000E+00 -0.13838134247E+04  0.40031438640E+04  0.37563574379E+04 0.  0.
        5    1    3    3  502    0  0.93136938435E+03 -0.16234768609E+04 -0.85839854379E+03  0.20591251050E+04  0.46999998093E+01 0. -1.
       -5    1    3    3    0  502 -0.93136938435E+03  0.16234768609E+04 -0.52541488095E+03  0.19440187590E+04  0.46999998093E+01 0.  1.
</event>
<event>
 5   0  0.5385714E-07  0.3811337E+04  0.7818609E-02  0.8043726E-01
        1   -1    0    0  501    0  0.00000000000E+00  0.00000000000E+00  0.28795364107E+04  0.28795364107E+04  0.50400001928E-02 0. -1.
       -1   -1    0    0    0  501  0.00000000000E+00  0.00000000000E+00 -0.12611658407E+04  0.12611658407E+04  0.50400001928E-02 0.  1.
    10030    2    1    2    0    0  0.00000000000E+00  0.00000000000E+00  0.16183705700E+04  0.41407022513E+04  0.38113372761E+04 0.  0.
        3    1    3    3  502    0 -0.11237467971E+03  0.18986157321E+04  0.67970923804E+03  0.20197461289E+04  0.10100000352E+00 0.  1.
       -3    1    3    3    0  502  0.11237467971E+03 -0.18986157321E+04  0.93866133198E+03  0.21209561224E+04  0.10100000352E+00 0. -1.
</event>
<event>
 5   0  0.4316671E-07  0.3038542E+04  0.7818609E-02  0.8232810E-01
        1   -1    0    0  501    0  0.00000000000E+00  0.00000000000E+00  0.10880390292E+04  0.10880390292E+04  0.50400001928E-02 0.  1.
       -1   -1    0    0    0  501  0.00000000000E+00  0.00000000000E+00 -0.21214168710E+04  0.21214168711E+04  0.50400001928E-02 0. -1.
    10030    2    1    2    0    0  0.00000000000E+00  0.00000000000E+00 -0.10333778418E+04  0.32094559003E+04  0.30385419878E+04 0.  0.
        2    1    3    3  502    0  0.11717967890E+03 -0.22994639233E+03  0.10647160218E+04  0.10955485510E+04  0.25500000920E-02 0.  1.
       -2    1    3    3    0  502 -0.11717967890E+03  0.22994639233E+03 -0.20980938637E+04  0.21139073493E+04  0.25500000920E-02 0. -1.
</event>
<event>
 5   0  0.7268013E-07  0.2359638E+04  0.7818609E-02  0.8454771E-01
        2   -1    0    0  501    0  0.00000000000E+00  0.00000000000E+00  0.96559743772E+03  0.96559743772E+03  0.25500000920E-02 0.  1.
       -2   -1    0    0    0  501  0.00000000000E+00  0.00000000000E+00 -0.14415659507E+04  0.14415659507E+04  0.25500000920E-02 0. -1.
    10030    2    1    2    0    0  0.00000000000E+00  0.00000000000E+00 -0.47596851298E+03  0.24071633884E+04  0.23596375894E+04 0.  0.
        4    1    3    3  502    0 -0.56690097764E+03 -0.95758286022E+03 -0.63783419986E+03  0.12826440395E+04  0.12699999809E+01 0.  1.
       -4    1    3    3    0  502  0.56690097764E+03  0.95758286022E+03  0.16186568688E+03  0.11245193489E+04  0.12699999809E+01 0. -1.
</event>
<event>
 5   0  0.1035864E-06  0.3861116E+04  0.7818609E-02  0.8033165E-01
       -2   -1    0    0    0  501  0.00000000000E+00  0.00000000000E+00  0.24216509108E+04  0.24216509108E+04  0.25500000920E-02 0.  1.
        2   -1    0    0  501    0  0.00000000000E+00  0.00000000000E+00 -0.15390554118E+04  0.15390554118E+04  0.25500000920E-02 0. -1.
    10030    2    1    2    0    0  0.00000000000E+00  0.00000000000E+00  0.88259549897E+03  0.39607063226E+04  0.38611163876E+04 0.  0.
        5    1    3    3  502    0  0.25789557276E+03 -0.17357852058E+04 -0.38417725676E+03  0.17964060403E+04  0.46999998093E+01 0. -1.
       -5    1    3    3    0  502 -0.25789557276E+03  0.17357852058E+04  0.12667727557E+04  0.21643002823E+04  0.46999998093E+01 0.  1.
</event>
<event>
 5   0  0.3471602E-07  0.3965645E+04  0.7818609E-02  0.8011513E-01
       -1   -1    0    0    0  501  0.00000000000E+00  0.00000000000E+00  0.23067714678E+04  0.23067714678E+04  0.50400001928E-02 0. -1.
        1   -1    0    0  501    0  0.00000000000E+00  0.00000000000E+00 -0.17043669422E+04  0.17043669422E+04  0.50400001928E-02 0.  1.
    10030    2    1    2    0    0  0.00000000000E+00  0.00000000000E+00  0.60240452557E+03  0.40111384100E+04  0.39656449831E+04 0.  0.
        5    1    3    3  502    0 -0.59679595128E+03 -0.28544272532E+03 -0.15894440563E+04  0.17216263982E+04  0.46999998093E+01 0.  1.
       -5    1    3    3    0  502  0.59679595128E+03  0.28544272532E+03  0.21918485818E+04  0.22895120119E+04  0.46999998093E+01 0. -1.
</event>
<event>
 5   0  0.3471602E-07  0.2049249E+04  0.7818609E-02  0.8583935E-01
       -1   -1    0    0    0  501  0.00000000000E+00  0.00000000000E+00  0.55424384272E+03  0.55424384274E+03  0.50400001928E-02 0.  1.
        1   -1    0    0  501    0  0.00000000000E+00  0.00000000000E+00 -0.18942115464E+04  0.18942115464E+04  0.50400001928E-02 0. -1.
    10030    2    1    2    0    0  0.00000000000E+00  0.00000000000E+00 -0.13399677036E+04  0.24484553891E+04  0.20492487271E+04 0.  0.
        5    1    3    3  502    0  0.88829428307E+03  0.38591006072E+03 -0.10695562638E+04  0.14429019370E+04  0.46999998093E+01 0. -1.
       -5    1    3    3    0  502 -0.88829428307E+03 -0.38591006072E+03 -0.27041143984E+03  0.10055534521E+04  0.46999998093E+01 0.  1.
</event>
<event>
 5   0  0.5533705E-07  0.3888125E+04  0.7818609E-02  0.8027504E-01
        2   -1    0    0  501    0  0.00000000000E+00  0.00000000000E+00  0.14561855265E+04  0.14561855265E+04  0.25500000920E-02 0. -1.
       -2   -1    0    0    0  501  0.00000000000E+00  0.00000000000E+00 -0.25953961176E+04  0.25953961176E+04  0.25500000920E-02 0.  1.
    10030    2    1    2    0    0  0.00000000000E+00  0.00000000000E+00 -0.11392105912E+04  0.40515816441E+04  0.38881246184E+04 0.  0.
        1    1    3    3  502    0  0.37872782610E+03  0.10412528481E+04 -0.22341761623E+04  0.24938294617E+04  0.50400001928E-02 0.  1.
       -1    1    3    3    0  502 -0.37872782610E+03 -0.10412528481E+04  0.10949655711E+04  0.15577521824E+04  0.50400001928E-02 0. -1.
</event>
<event>
 5   0  0.3471602E-07  0.2974864E+04  0.7818609E-02  0.8250945E-01
       -1   -1    0    0    0  501  0.00000000000E+00  0.00000000000E+00  0.19994575676E+04  0.19994575676E+04  0.50400001928E-02 0.  1.
        1   -1    0    0  501    0  0.00000000000E+00  0.00000000000E+00 -0.11065270010E+04  0.11065270010E+04  0.50400001928E-02 0. -1.
    10030    2    1    2    0    0  0.00000000000E+00  0.00000000000E+00  0.89293056667E+03  0.31059845686E+04  0.29748638866E+04 0.  0.
        5    1    3    3  502    0 -0.54861330679E+03  0.13825517552E+04  0.44897534738E+03  0.15537138954E+04  0.46999998093E+01 0.  1.
       -5    1    3    3    0  502  0.54861330679E+03 -0.13825517552E+04  0.44395521929E+03  0.15522706732E+04  0.46999998093E+01 0. -1.
</event>
<event>
 5   0  0.1034683E-06  0.3843623E+04  0.7818609E-02  0.8036858E-01
       -2   -1    0    0    0  501  0.00000000000E+00  0.00000000000E+00  0.20853092625E+04  0.20853092625E+04  0.25500000920E-02 0.  1.
        2   -1    0    0  501    0  0.00000000000E+00  0.00000000000E+00 -0.17711328934E+04  0.17711328934E+04  0.25500000920E-02 0. -1.
    10030    2    1    2    0    0  0.00000000000E+00  0.00000000000E+00  0.31417636907E+03  0.38564421560E+04  0.38436232010E+04 0.  0.
        2    1    3    3  502    0  0.74336365787E+02 -0.19144512014E+04  0.30829092068E+03  0.19405392523E+04  0.25500000920E-02 0.  1.
       -2    1    3    3    0  502 -0.74336365787E+02  0.19144512014E+04  0.58854483872E+01  0.19159029037E+04  0.25500000920E-02 0. -1.
</event>
<event>
 5   0  0.1035864E-06  0.2471470E+04  0.7818609E-02  0.8413220E-01
       -2   -1    0    0    0  501  0.00000000000E+00  0.00000000000E+00  0.79532101208E+03  0.79532101208E+03  0.25500000920E-02 0. -1.
        2   -1    0    0  501    0  0.00000000000E+00  0.00000000000E+00 -0.19200313766E+04  0.19200313766E+04  0.25500000920E-02 0.  1.
    10030    2    1    2    0    0  0.00000000000E+00  0.00000000000E+00 -0.11247103645E+04  0.27153523887E+04  0.24714702488E+04 0.  0.
        5    1    3    3  502    0  0.37508666616E+03 -0.79547568258E+03 -0.15160867740E+04  0.17527158256E+04  0.46999998093E+01 0.  1.
       -5    1    3    3    0  502 -0.37508666616E+03  0.79547568258E+03  0.39137640953E+03  0.96263656312E+03  0.46999998093E+01 0. -1.
</event>
<event>
 5   0  0.1015219E-06  0.3531208E+04  0.7818609E-02  0.8106434E-01
        2   -1    0    0  501    0  0.00000000000E+00  0.00000000000E+00  0.14846989530E+04  0.14846989530E+04  0.25500000920E-02 0. -1.
       -2   -1    0    0    0  501  0.00000000000E+00  0.00000000000E+00 -0.20996558319E+04  0.20996558319E+04  0.25500000920E-02 0.  1.
    10030    2    1    2    0    0  0.00000000000E+00  0.00000000000E+00 -0.61495687892E+03  0.35843547849E+04  0.35312076208E+04 0.  0.
        3    1    3    3  502    0 -0.75573843303E+03 -0.15188706790E+04  0.18901323876E+03  0.17069958211E+04  0.10100000352E+00 0. -1.
       -3    1    3    3    0  502  0.75573843303E+03  0.15188706790E+04 -0.80397011768E+03  0.18773589638E+04  0.10100000352E+00 0.  1.
</event>
<event>
 5   0  0.7268013E-07  0.3260224E+04  0.7818609E-02  0.8173091E-01
        2   -1    0    0  501    0  0.00000000000E+00  0.00000000000E+00  0.10666802307E+04  0.10666802307E+04  0.25500000920E-02 0.  1.
       -2   -1    0    0    0  501  0.00000000000E+00  0.00000000000E+00 -0.24911545730E+04  0.24911545730E+04  0.25500000920E-02 0. -1.
    10030    2    1    2    0    0  0.00000000000E+00  0.00000000000E+00 -0.14244743423E+04  0.35578348037E+04  0.32602241239E+04 0.  0.
        4    1    3    3  502    0  0.38068713024E+02  0.11165849155E+04 -0.20076313128E+04  0.22975631006E+04  0.12699999809E+01 0. -1.
       -4    1    3    3    0  502 -0.38068713024E+02 -0.11165849155E+04  0.58315697047E+03  0.12602717030E+04  0.12699999809E+01 0.  1.
</event>
<event>
 5   0  0.7268013E-07  0.3881505E+04  0.7818609E-02  0.8028887E-01
       -2   -1    0    0    0  501  0.00000000000E+00  0.00000000000E+00  0.22583735778E+04  0.22583735778E+04  0.25500000920E-02 0. -1.
        2   -1    0    0  501    0  0.00000000000E+00  0.00000000000E+00 -0.16678019147E+04  0.16678019147E+04  0.25500000920E-02 0.  1.
    10030    2    1    2    0    0  0.00000000000E+00  0.00000000000E+00  0.59057166309E+03  0.39261754925E+04  0.38815047480E+04 0.  0.
        4    1    3    3  502    0  0.18381671846E+04  0.51642748925E+03  0.64708470946E+03  0.20160050060E+04  0.12699999809E+01 0. -1.
       -4    1    3    3    0  502 -0.18381671846E+04 -0.51642748925E+03 -0.56513046368E+02  0.19101704865E+04  0.12699999809E+01 0.  1.
</event>
<event>
 5   0  0.3191750E-07  0.3836752E+04  0.7818609E-02  0.8038314E-01
       -3   -1    0    0    0  501  0.00000000000E+00  0.00000000000E+00  0.15457291187E+04  0.15457291220E+04  0.10100000352E+00 0. -1.
        3   -1    0    0  501    0  0.00000000000E+00  0.00000000000E+00 -0.23808606100E+04  0.23808606121E+04  0.10100000352E+00 0.  1.
    10030    2    1    2    0    0  0.00000000000E+00  0.00000000000E+00 -0.83513149131E+03  0.39265897341E+04  0.38367515338E+04 0.  0.
        1    1    3    3  502    0 -0.36278301867E+03  0.78695451521E+03 -0.21691481107E+04  0.23358322829E+04  0.50400001928E-02 0.  1.
       -1    1    3    3    0  502  0.36278301867E+03 -0.78695451521E+03  0.13340166194E+04  0.15907574512E+04  0.50400001928E-02 0. -1.
</event>
<event>
 5   0  0.3191750E-07  0.3836946E+04  0.7818609E-02  0.8038272E-01
       -3   -1    0    0    0  501  0.00000000000E+00  0.00000000000E+00  0.24749297332E+04  0.24749297352E+04  0.10100000352E+00 0. -1.
        3   -1    0    0  501    0  0.00000000000E+00  0.00000000000E+00 -0.14871287369E+04  0.14871287404E+04  0.10100000352E+00 0.  1.
    10030    2    1    2    0    0  0.00000000000E+00  0.00000000000E+00  0.98780099624E+03  0.39620584756E+04  0.38369462540E+04 0.  0.
        5    1    3    3  502    0 -0.54432520238E+03  0.13894481303E+04  0.17388930033E+04  0.22914246660E+04  0.46999998093E+01 0. -1.
       -5    1    3    3    0  502  0.54432520238E+03 -0.13894481303E+04 -0.75109200706E+03  0.16706338096E+04  0.46999998093E+01 0.  1.
</event>
<event>
 5   0  0.3471602E-07  0.3023482E+04  0.7818609E-02  0.8237057E-01
        1   -1    0    0  501    0  0.00000000000E+00  0.00000000000E+00  0.20535418264E+04  0.20535418264E+04  0.50400001928E-02 0.  1.
       -1   -1    0    0    0  501  0.00000000000E+00  0.00000000000E+00 -0.11128872555E+04  0.11128872555E+04  0.50400001928E-02 0. -1.
    10030    2    1    2    0    0  0.00000000000E+00  0.00000000000E+00  0.94065457094E+03  0.31664290820E+04  0.30234817858E+04 0.  0.
        5    1    3    3  502    0 -0.31146024960E+03  0.61080242978E+02 -0.10775922774E+04  0.11233723735E+04  0.46999998093E+01 0. -1.
       -5    1    3    3    0  502  0.31146024960E+03 -0.61080242978E+02  0.20182468484E+04  0.20430567085E+04  0.46999998093E+01 0.  1.
</event>
<event>
 5   0  0.7268013E-07  0.3694958E+04  0.7818609E-02  0.8069080E-01
        2   -1    0    0  501    0  0.00000000000E+00  0.00000000000E+00  0.23178588545E+04  0.23178588545E+04  0.25500000920E-02 0.  1.
       -2   -1    0    0    0  501  0.00000000000E+00  0.00000000000E+00 -0.14725568448E+04  0.14725568448E+04  0.25500000920E-02 0. -1.
    10030    2    1    2    0    0  0.00000000000E+00  0.00000000000E+00  0.84530200979E+03  0.37904156993E+04  0.36949581440E+04 0.  0.
        4    1    3    3  502    0  0.87384985242E+02 -0.95593417826E+03 -0.11966511672E+04  0.15340866722E+04  0.12699999809E+01 0. -1.
       -4    1    3    3    0  502 -0.87384985242E+02  0.95593417826E+03  0.20419531770E+04  0.22563290271E+04  0.12699999809E+01 0.  1.
</event>
<event>
 5   0  0.1015219E-06  0.3606486E+04  0.7818609E-02  0.8089008E-01
       -2   -1    0    0    0  501  0.00000000000E+00  0.00000000000E+00  0.12280706649E+04  0.12280706649E+04  0.25500000920E-02 0. -1.
        2   -1    0    0  501    0  0.00000000000E+00  0.00000000000E+00 -0.26477993454E+04  0.26477993454E+04  0.25500000920E-02 0.  1.
    10030    2    1    2    0    0  0.00000000000E+00  0.00000000000E+00 -0.14197286805E+04  0.38758700103E+04  0.36064856592E+04 0.  0.
        3    1    3    3  502    0  0.69963342466E+03  0.14044052423E+04 -0.16649791232E+04  0.22877929330E+04  0.10100000352E+00 0.  1.
       -3    1    3    3    0  502 -0.69963342466E+03 -0.14044052423E+04  0.24525044275E+03  0.15880770772E+04  0.10100000352E+00 0. -1.
</event>
<event>
 5   0  0.3471602E-07  0.3929710E+04  0.7818609E-02  0.8018878E-01
       -1   -1    0    0    0  501  0.00000000000E+00  0.00000000000E+00  0.24961290211E+04  0.24961290211E+04  0.50400001928E-02 0. -1.
        1   -1    0    0  501    0  0.00000000000E+00  0.00000000000E+00 -0.15466567264E+04  0.15466567264E+04  0.50400001928E-02 0.  1.
    10030    2    1    2    0    0  0.00000000000E+00  0.00000000000E+00  0.94947229476E+03  0.40427857475E+04  0.39297097808E+04 0.  0.
        5    1    3    3  502    0 -0.64683333603E+03 -0.14532653953E+01  0.23834491997E+04  0.24696654944E+04  0.46999998093E+01 0. -1.
       -5    1    3    3    0  502  0.64683333603E+03  0.14532653953E+01 -0.14339769050E+04  0.15731202531E+04  0.46999998093E+01 0.  1.
</event>
<event>
 5   0  0.7268013E-07  0.3455733E+04  0.7818609E-02  0.8124361E-01
        2   -1    0    0  501    0  0.00000000000E+00  0.00000000000E+00  0.15776324538E+04  0.15776324538E+04  0.25500000920E-02 0.  1.
       -2   -1    0    0    0  501  0.00000000000E+00  0.00000000000E+00 -0.18924071253E+04  0.18924071253E+04  0.25500000920E-02 0. -1.
    10030    2    1    2    0    0  0.00000000000E+00  0.00000000000E+00 -0.31477467154E+03  0.34700395790E+04  0.34557331474E+04 0.  0.
        4    1    3    3  502    0 -0.10609348454E+04  0.87384165343E+03  0.89400963442E+03  0.16396453339E+04  0.12699999809E+01 0.  1.
       -4    1    3    3    0  502  0.10609348454E+04 -0.87384165343E+03 -0.12087843060E+04  0.18303942452E+04  0.12699999809E+01 0. -1.
</event>
<event>
 5   0  0.5533705E-07  0.2076650E+04  0.7818609E-02  0.8571600E-01
       -2   -1    0    0    0  501  0.00000000000E+00  0.00000000000E+00  0.57442018637E+03  0.57442018637E+03  0.25500000920E-02 0. -1.
        2   -1    0    0  501    0  0.00000000000E+00  0.00000000000E+00 -0.18768817122E+04  0.18768817122E+04  0.25500000920E-02 0.  1.
    10030    2    1    2    0    0  0.00000000000E+00  0.00000000000E+00 -0.13024615259E+04  0.24513018986E+04  0.20766499396E+04 0.  0.
        1    1    3    3  502    0 -0.60140214125E+03  0.22184189639E+03  0.31297152914E+03  0.71333690537E+03  0.50400001928E-02 0. -1.
       -1    1    3    3    0  502  0.60140214125E+03 -0.22184189639E+03 -0.16154330550E+04  0.17379649932E+04  0.50400001928E-02 0.  1.
</event>
<event>
 5   0  0.4627905E-07  0.1986591E+04  0.7818609E-02  0.8612916E-01
        1   -1    0    0  501    0  0.00000000000E+00  0.00000000000E+00  0.12743656461E+04  0.12743656461E+04  0.50400001928E-02 0.  1.
       -1   -1    0    0    0  501  0.00000000000E+00  0.00000000000E+00 -0.77421720627E+03  0.77421720629E+03  0.50400001928E-02 0. -1.
    10030    2    1    2    0    0  0.00000000000E+00  0.00000000000E+00  0.50014843981E+03  0.20485828524E+04  0.19865908590E+04 0.  0.
        1    1    3    3  502    0  0.94290308683E+03  0.21324828285E+03  0.48543932490E+03  0.10817543157E+04  0.50400001928E-02 0.  1.
       -1    1    3    3    0  502 -0.94290308683E+03 -0.21324828285E+03  0.14709114910E+02  0.96682853670E+03  0.50400001928E-02 0. -1.
</event>
<event>
 5   0  0.5533705E-07  0.3773772E+04  0.7818609E-02  0.8051807E-01
       -2   -1    0    0    0  501  0.00000000000E+00  0.00000000000E+00  0.14027375307E+04  0.14027375307E+04  0.25500000920E-02 0. -1.
        2   -1    0    0  501    0  0.00000000000E+00  0.00000000000E+00 -0.25381364858E+04  0.25381364858E+04  0.25500000920E-02 0.  1.
    10030    2    1    2    0    0  0.00000000000E+00  0.00000000000E+00 -0.11353989551E+04  0.39408740164E+04  0.37737722807E+04 0.  0.
        1    1    3    3  502    0  0.81504518465E+02  0.18848018389E+04 -0.60414989848E+03  0.19809386811E+04  0.50400001928E-02 0.  1.
       -1    1    3    3    0  502 -0.81504518465E+02 -0.18848018389E+04 -0.53124905660E+03  0.19599353353E+04  0.50400001928E-02 0. -1.
</event>
<event>
 5   0  0.5385714E-07  0.3933902E+04  0.7818609E-02  0.8018015E-01
        1   -1    0    0  501    0  0.00000000000E+00  0.00000000000E+00  0.21291228723E+04  0.21291228723E+04  0.50400001928E-02 0. -1.
       -1   -1    0    0    0  501  0.00000000000E+00  0.00000000000E+00 -0.18171317615E+04  0.18171317615E+04  0.50400001928E-02 0.  1.
    10030    2    1    2    0    0  0.00000000000E+00  0.00000000000E+00  0.31199111074E+03  0.39462546338E+04  0.39339022842E+04 0.  0.
        3    1    3    3  502    0 -0.75453956254E+02  0.87120597020E+03  0.19234028328E+04  0.21128586345E+04  0.10100000352E+00 0. -1.
       -3    1    3    3    0  502  0.75453956254E+02 -0.87120597020E+03 -0.16114117221E+04  0.18333959993E+04  0.10100000352E+00 0.  1.
</event>
<event>
 5   0  0.3471602E-07  0.2023891E+04  0.7818609E-02  0.8595532E-01
       -1   -1    0    0    0  501  0.00000000000E+00  0.00000000000E+00  0.99572071803E+03  0.99572071805E+03  0.50400001928E-02 0.  1.
        1   -1    0    0  501    0  0.00000000000E+00  0.00000000000E+00 -0.10284345562E+04  0.10284345562E+04  0.50400001928E-02 0. -1.
    10030    2    1    2    0    0  0.00000000000E+00  0.00000000000E+00 -0.32713838152E+02  0.20241552742E+04  0.20238909010E+04 0.  0.
        5    1    3    3  502    0 -0.13959946606E+03 -0.61933010269E+03  0.77175218127E+03  0.99934043564E+03  0.46999998093E+01 0.  1.
       -5    1    3    3    0  502  0.13959946606E+03  0.61933010269E+03 -0.80446601942E+03  0.10248148386E+04  0.46999998093E+01 0. -1.
</event>
<event>
 5   0  0.4627905E-07  0.3901365E+04  0.7818609E-02  0.8024745E-01
       -1   -1    0    0    0  501  0.00000000000E+00  0.00000000000E+00  0.18562620828E+04  0.18562620828E+04  0.50400001928E-02 0.  1.
        1   -1    0    0  501    0  0.00000000000E+00  0.00000000000E+00 -0.20499060064E+04  0.20499060064E+04  0.50400001928E-02 0. -1.
    10030    2    1    2    0    0  0.00000000000E+00  0.00000000000E+00 -0.19364392366E+03  0.39061680892E+04  0.39013652959E+04 0.  0.
        1    1    3    3  502    0 -0.36809705790E+03 -0.19055196079E+04 -0.29369151848E+03  0.19628436332E+04  0.50400001928E-02 0.  1.
       -1    1    3    3    0  502  0.36809705790E+03  0.19055196079E+04  0.10004759482E+03  0.19433244560E+04  0.50400001928E-02 0. -1.
</event>
<event>
 5   0  0.3977376E-07  0.3861201E+04  0.7818609E-02  0.8033147E-01
        1   -1    0    0  501    0  0.00000000000E+00  0.00000000000E+00  0.10918914220E+04  0.10918914221E+04  0.50400001928E-02 0.  1.
       -1   -1    0    0    0  501  0.00000000000E+00  0.00000000000E+00 -0.34135428045E+04  0.34135428045E+04  0.50400001928E-02 0. -1.
    10030    2    1    2    0    0  0.00000000000E+00  0.00000000000E+00 -0.23216513824E+04  0.45054342266E+04  0.38612009049E+04 0.  0.
        4    1    3    3  502    0  0.74818484611E+03 -0.57636566131E+03 -0.31255836543E+04  0.32651573824E+04  0.12699999809E+01 0. -1.
       -4    1    3    3    0  502 -0.74818484611E+03  0.57636566131E+03  0.80393227181E+03  0.12402768441E+04  0.12699999809E+01 0.  1.
</event>
<event>
 5   0  0.5533705E-07  0.3981166E+04  0.7818609E-02  0.8008357E-01
        2   -1    0    0  501    0  0.00000000000E+00  0.00000000000E+00  0.28225643407E+04  0.28225643407E+04  0.25500000920E-02 0. -1.
       -2   -1    0    0    0  501  0.00000000000E+00  0.00000000000E+00 -0.14038374854E+04  0.14038374854E+04  0.25500000920E-02 0.  1.
    10030    2    1    2    0    0  0.00000000000E+00  0.00000000000E+00  0.14187268553E+04  0.42264018260E+04  0.39811664754E+04 0.  0.
        1    1    3    3  502    0 -0.17123809515E+04 -0.56603514963E+03 -0.18501538764E+03  0.18129740779E+04  0.50400001928E-02 0.  1.
       -1    1    3    3    0  502  0.17123809515E+04  0.56603514963E+03  0.16037422430E+04  0.24134277481E+04  0.50400001928E-02 0. -1.
</event>
<event>
 5   0  0.4627905E-07  0.3901096E+04  0.7818609E-02  0.8024801E-01
       -1   -1    0    0    0  501  0.00000000000E+00  0.00000000000E+00  0.16776076341E+04  0.16776076341E+04  0.50400001928E-02 0. -1.
        1   -1    0    0  501    0  0.00000000000E+00  0.00000000000E+00 -0.22678948592E+04  0.22678948592E+04  0.50400001928E-02 0.  1.
    10030    2    1    2    0    0  0.00000000000E+00  0.00000000000E+00 -0.59028722509E+03  0.39455024934E+04  0.39010961174E+04 0.  0.
        1    1    3    3  502    0  0.13744933466E+03  0.80713715227E+03 -0.20856844169E+04  0.22406343274E+04  0.50400001928E-02 0.  1.
       -1    1    3    3    0  502 -0.13744933466E+03 -0.80713715227E+03  0.14953971918E+04  0.17048681660E+04  0.50400001928E-02 0. -1.
</event>
<event>
 5   0  0.1035864E-06  0.3650643E+04  0.7818609E-02  0.8078989E-01
        2   -1    0    0  501    0  0.00000000000E+00  0.00000000000E+00  0.17407391374E+04  0.17407391374E+04  0.25500000920E-02 0. -1.
       -2   -1    0    0    0  501  0.00000000000E+00  0.00000000000E+00 -0.19140137771E+04  0.19140137771E+04  0.25500000920E-02 0.  1.
    10030    2    1    2    0    0  0.00000000000E+00  0.00000000000E+00 -0.17327463977E+03  0.36547529145E+04  0.36506430619E+04 0.  0.
        5    1    3    3  502    0 -0.31627475564E+03 -0.15271213490E+04 -0.10362025000E+04  0.18723960710E+04  0.46999998093E+01 0.  1.
       -5    1    3    3    0  502  0.31627475564E+03  0.15271213490E+04  0.86292786022E+03  0.17823568435E+04  0.46999998093E+01 0. -1.
</event>
<event>
 5   0  0.3471602E-07  0.2897573E+04  0.7818609E-02  0.8273600E-01
        1   -1    0    0  501    0  0.00000000000E+00  0.00000000000E+00  0.16937098778E+04  0.16937098778E+04  0.50400001928E-02 0. -1.
       -1   -1    0    0    0  501  0.00000000000E+00  0.00000000000E+00 -0.12392808922E+04  0.12392808922E+04  0.50400001928E-02 0.  1.
    10030    2    1    2    0    0  0.00000000000E+00  0.00000000000E+00  0.45442898561E+03  0.29329907700E+04  0.28975729765E+04 0.  0.
        5    1    3    3  502    0  0.66061895846E+02 -0.15002047456E+03  0.16842851375E+04  0.16922496362E+04  0.46999998093E+01 0. -1.
       -5    1    3    3    0  502 -0.66061895846E+02  0.15002047456E+03 -0.12298561519E+04  0.12407411338E+04  0.46999998093E+01 0.  1.
</event>
<event>
 5   0  0.7268013E-07  0.3490391E+04  0.7818609E-02  0.8116071E-01
        2   -1    0    0  501    0  0.00000000000E+00  0.00000000000E+00  0.20658181369E+04  0.20658181369E+04  0.25500000920E-02 0. -1.
       -2   -1    0    0    0  501  0.00000000000E+00  0.00000000000E+00 -0.14743343577E+04  0.14743343577E+04  0.25500000920E-02 0.  1.
    10030    2    1    2    0    0  0.00000000000E+00  0.00000000000E+00  0.59148377920E+03  0.35401524946E+04  0.34903906119E+04 0.  0.
        4    1    3    3  502    0 -0.15413802780E+04  0.79123881422E+03  0.83490574977E+02  0.17346135914E+04  0.12699999809E+01 0.  1.
       -4    1    3    3    0  502  0.15413802780E+04 -0.79123881422E+03  0.50799320423E+03  0.18055389032E+04  0.12699999809E+01 0. -1.
</event>
<event>
 5   0  0.5533705E-07  0.3432691E+04  0.7818609E-02  0.8129929E-01
       -2   -1    0    0    0  501  0.00000000000E+00  0.00000000000E+00  0.13323393006E+04  0.13323393006E+04  0.25500000920E-02 0.  1.
        2   -1    0    0  501    0  0.00000000000E+00  0.00000000000E+00 -0.22110294657E+04  0.22110294657E+04  0.25500000920E-02 0. -1.
    10030    2    1    2    0    0  0.00000000000E+00  0.00000000000E+00 -0.87869016513E+03  0.35433687663E+04  0.34326907533E+04 0.  0.
        1    1    3    3  502    0 -0.20892180340E+03  0.39996684341E+03 -0.21487021514E+04  0.21955734402E+04  0.50400001928E-02 0. -1.
       -1    1    3    3    0  502  0.20892180340E+03 -0.39996684341E+03  0.12700119863E+04  0.13477953261E+04  0.50400001928E-02 0.  1.
</event>
<event>
 5   0  0.3977376E-07  0.3385861E+04  0.7818609E-02  0.8141385E-01
       -1   -1    0    0    0  501  0.00000000000E+00  0.00000000000E+00  0.19770431203E+04  0.19770431203E+04  0.50400001928E-02 0.  1.
        1   -1    0    0  501    0  0.00000000000E+00  0.00000000000E+00 -0.14496467958E+04  0.14496467959E+04  0.50400001928E-02 0. -1.
    10030    2    1    2    0    0  0.00000000000E+00  0.00000000000E+00  0.52739632443E+03  0.34266899161E+04  0.33858613230E+04 0.  0.
        4    1    3    3  502    0 -0.14369697128E+04 -0.87669660305E+03  0.44624424553E+03  0.17414403317E+04  0.12699999809E+01 0.  1.
       -4    1    3    3    0  502  0.14369697128E+04  0.87669660305E+03  0.81152078897E+02  0.16852495845E+04  0.12699999809E+01 0. -1.
</event>
<event>
 5   0  0.1251833E-06  0.1931807E+04  0.7818609E-02  0.8639184E-01
        2   -1    0    0  501    0  0.00000000000E+00  0.00000000000E+00  0.12190648301E+04  0.12190648301E+04  0.25500000920E-02 0. -1.
       -2   -1    0    0    0  501  0.00000000000E+00  0.00000000000E+00 -0.76531576820E+03  0.76531576821E+03  0.25500000920E-02 0.  1.
    10030    2    1    2    0    0  0.00000000000E+00  0.00000000000E+00  0.45374906188E+03  0.19843805983E+04  0.19318069644E+04 0.  0.
        5    1    3    3  502    0  0.66008777739E+03 -0.51609508516E+03 -0.26669914628E+03  0.87932959430E+03  0.46999998093E+01 0.  1.
       -5    1    3    3    0  502 -0.66008777739E+03  0.51609508516E+03  0.72044820816E+03  0.11050510040E+04  0.46999998093E+01 0. -1.
</event>
<event>
 5   0  0.4316671E-07  0.3775454E+04  0.7818609E-02  0.8051443E-01
        1   -1    0    0  501    0  0.00000000000E+00  0.00000000000E+00  0.18400611569E+04  0.18400611569E+04  0.50400001928E-02 0.  1.
       -1   -1    0    0    0  501  0.00000000000E+00  0.00000000000E+00 -0.19366278831E+04  0.19366278831E+04  0.50400001928E-02 0. -1.
    10030    2    1    2    0    0  0.00000000000E+00  0.00000000000E+00 -0.96566726254E+02  0.37766890400E+04  0.37754542736E+04 0.  0.
        2    1    3    3  502    0  0.11303827557E+04  0.99008185512E+03  0.10946691949E+04  0.18591201953E+04  0.25500000920E-02 0.  1.
       -2    1    3    3    0  502 -0.11303827557E+04 -0.99008185512E+03 -0.11912359211E+04  0.19175688447E+04  0.25500000920E-02 0. -1.
</event>
<event>
 5   0  0.4627905E-07  0.3866847E+04  0.7818609E-02  0.8031960E-01
       -1   -1    0    0    0  501  0.00000000000E+00  0.00000000000E+00  0.17373267004E+04  0.17373267004E+04  0.50400001928E-02 0.  1.
        1   -1    0    0  501    0  0.00000000000E+00  0.00000000000E+00 -0.21516539384E+04  0.21516539384E+04  0.50400001928E-02 0. -1.
    10030    2    1    2    0    0  0.00000000000E+00  0.00000000000E+00 -0.41432723808E+03  0.38889806388E+04  0.38668466932E+04 0.  0.
        1    1    3    3  502    0 -0.10346089514E+04  0.14900334615E+04 -0.87995498880E+03  0.20161686886E+04  0.50400001928E-02 0.  1.
       -1    1    3    3    0  502  0.10346089514E+04 -0.14900334615E+04  0.46562775072E+03  0.18728119502E+04  0.50400001928E-02 0. -1.
</event>
<event>
 5   0  0.3977376E-07  0.3796758E+04  0.7818609E-02  0.8046851E-01
       -1   -1    0    0    0  501  0.00000000000E+00  0.00000000000E+00  0.18855879505E+04  0.18855879505E+04  0.50400001928E-02 0.  1.
        1   -1    0    0  501    0  0.00000000000E+00  0.00000000000E+00 -0.19112566381E+04  0.19112566381E+04  0.50400001928E-02 0. -1.
    10030    2    1    2    0    0  0.00000000000E+00  0.00000000000E+00 -0.25668687524E+02  0.37968445886E+04  0.37967578206E+04 0.  0.
        4    1    3    3  502    0 -0.40242024467E+03  0.11666223488E+04 -0.14553967262E+04  0.19081747828E+04  0.12699999809E+01 0. -1.
       -4    1    3    3    0  502  0.40242024467E+03 -0.11666223488E+04  0.14297280387E+04  0.18886698058E+04  0.12699999809E+01 0.  1.
</event>
<event>
 5   0  0.7425247E-07  0.1982377E+04  0.7818609E-02  0.8614904E-01
        2   -1    0    0  501    0  0.00000000000E+00  0.00000000000E+00  0.19134628098E+04  0.19134628098E+04  0.25500000920E-02 0.  1.
       -2   -1    0    0    0  501  0.00000000000E+00  0.00000000000E+00 -0.51344347611E+03  0.51344347611E+03  0.25500000920E-02 0. -1.
    10030    2    1    2    0    0  0.00000000000E+00  0.00000000000E+00  0.14000193337E+04  0.24269062859E+04  0.19823773571E+04 0.  0.
        4    1    3    3  502    0  0.67511520560E+03 -0.40326938722E+02  0.15870954014E+04  0.17251899110E+04  0.12699999809E+01 0.  1.
       -4    1    3    3    0  502 -0.67511520560E+03  0.40326938722E+02 -0.18707606774E+03  0.70171637493E+03  0.12699999809E+01 0. -1.
</event>
<event>
 5   0  0.7268013E-07  0.3673249E+04  0.7818609E-02  0.8073916E-01
        2   -1    0    0  501    0  0.00000000000E+00  0.00000000000E+00  0.21031270512E+04  0.21031270512E+04  0.25500000920E-02 0.  1.
       -2   -1    0    0    0  501  0.00000000000E+00  0.00000000000E+00 -0.16038921138E+04  0.16038921138E+04  0.25500000920E-02 0. -1.
    10030    2    1    2    0    0  0.00000000000E+00  0.00000000000E+00  0.49923493738E+03  0.37070191650E+04  0.36732486394E+04 0.  0.
        4    1    3    3  502    0  0.80590971378E+03 -0.13700288325E+04  0.11782499120E+04  0.19785711856E+04  0.12699999809E+01 0.  1.
       -4    1    3    3    0  502 -0.80590971378E+03  0.13700288325E+04 -0.67901497461E+03  0.17284479793E+04  0.12699999809E+01 0. -1.
</event>
<event>
 5   0  0.4627905E-07  0.2943645E+04  0.7818609E-02  0.8260009E-01
        1   -1    0    0  501    0  0.00000000000E+00  0.00000000000E+00  0.99744642880E+03  0.99744642881E+03  0.50400001928E-02 0. -1.
       -1   -1    0    0    0  501  0.00000000000E+00  0.00000000000E+00 -0.21718073318E+04  0.21718073318E+04  0.50400001928E-02 0.  1.
    10030    2    1    2    0    0  0.00000000000E+00  0.00000000000E+00 -0.11743609030E+04  0.31692537606E+04  0.29436449970E+04 0.  0.
        1    1    3    3  502    0  0.14789498853E+03  0.20574784486E+03  0.97378668478E+03  0.10062135016E+04  0.50400001928E-02 0. -1.
       -1    1    3    3    0  502 -0.14789498853E+03 -0.20574784486E+03 -0.21481475877E+04  0.21630402590E+04  0.50400001928E-02 0.  1.
</event>
<event>
 5   0  0.4316671E-07  0.3448084E+04  0.7818609E-02  0.8126205E-01
       -1   -1    0    0    0  501  0.00000000000E+00  0.00000000000E+00  0.17585926033E+04  0.17585926033E+04  0.50400001928E-02 0. -1.
        1   -1    0    0  501    0  0.00000000000E+00  0.00000000000E+00 -0.16901702301E+04  0.16901702302E+04  0.50400001928E-02 0.  1.
    10030    2    1    2    0    0  0.00000000000E+00  0.00000000000E+00  0.68422373162E+02  0.34487628335E+04  0.34480840275E+04 0.  0.
        2    1    3    3  502    0  0.12933987414E+04  0.73304804351E+03 -0.83893325159E+03  0.17070585049E+04  0.25500000920E-02 0.  1.
       -2    1    3    3    0  502 -0.12933987414E+04 -0.73304804351E+03  0.90735562476E+03  0.17417043286E+04  0.25500000920E-02 0. -1.
</event>
<event>
 5   0  0.7268013E-07  0.2369684E+04  0.7818609E-02  0.8450941E-01
        2   -1    0    0  501    0  0.00000000000E+00  0.00000000000E+00  0.14848002807E+04  0.14848002807E+04  0.25500000920E-02 0.  1.
       -2   -1    0    0    0  501  0.00000000000E+00  0.00000000000E+00 -0.94548131527E+03  0.94548131527E+03  0.25500000920E-02 0. -1.
    10030    2    1    2    0    0  0.00000000000E+00  0.00000000000E+00  0.53931896542E+03  0.24302815960E+04  0.23696843016E+04 0.  0.
        4    1    3    3  502    0  0.78540561342E+03 -0.30111257038E+03 -0.58613619683E+03  0.10252258345E+04  0.12699999809E+01 0. -1.
       -4    1    3    3    0  502 -0.78540561342E+03  0.30111257038E+03  0.11254551623E+04  0.14050557614E+04  0.12699999809E+01 0.  1.
</event>
<event>
 5   0  0.7268013E-07  0.3364385E+04  0.7818609E-02  0.8146703E-01
        2   -1    0    0  501    0  0.00000000000E+00  0.00000000000E+00  0.23165113603E+04  0.23165113604E+04  0.25500000920E-02 0.  1.
       -2   -1    0    0    0  501  0.00000000000E+00  0.00000000000E+00 -0.12215663027E+04  0.12215663027E+04  0.25500000920E-02 0. -1.
    10030    2    1    2    0    0  0.00000000000E+00  0.00000000000E+00  0.10949450577E+04  0.35380776630E+04  0.33643853629E+04 0.  0.
        4    1    3    3  502    0  0.57933963394E+03 -0.15767997405E+04  0.45436482255E+03  0.17402243643E+04  0.12699999809E+01 0. -1.
       -4    1    3    3    0  502 -0.57933963394E+03  0.15767997405E+04  0.64058023513E+03  0.17978532987E+04  0.12699999809E+01 0.  1.
</event>
<event>
 5   0  0.1015219E-06  0.3834334E+04  0.7818609E-02  0.8038827E-01
       -2   -1    0    0    0  501  0.00000000000E+00  0.00000000000E+00  0.24742756516E+04  0.24742756516E+04  0.25500000920E-02 0. -1.
        2   -1    0    0  501    0  0.00000000000E+00  0.00000000000E+00 -0.14854974716E+04  0.14854974716E+04  0.25500000920E-02 0.  1.
    10030    2    1    2    0    0  0.00000000000E+00  0.00000000000E+00  0.98877818004E+03  0.39597731232E+04  0.38343344791E+04 0.  0.
        3    1    3    3  502    0 -0.28989180374E+03 -0.51083767142E+03 -0.13902903557E+04  0.15092712373E+04  0.10100000352E+00 0.  1.
       -3    1    3    3    0  502  0.28989180374E+03  0.51083767142E+03  0.23790685358E+04  0.24505018858E+04  0.10100000352E+00 0. -1.
</event>
<event>
 5   0  0.5533705E-07  0.3995053E+04  0.7818609E-02  0.8005545E-01
        2   -1    0    0  501    0  0.00000000000E+00  0.00000000000E+00  0.27210997308E+04  0.27210997308E+04  0.25500000920E-02 0. -1.
       -2   -1    0    0    0  501  0.00000000000E+00  0.00000000000E+00 -0.14663601508E+04  0.14663601508E+04  0.25500000920E-02 0.  1.
    10030    2    1    2    0    0  0.00000000000E+00  0.00000000000E+00  0.12547395799E+04  0.41874598816E+04  0.39950530468E+04 0.  0.
        1    1    3    3  502    0 -0.91302807334E+03 -0.66000868332E+03  0.23563214143E+04  0.26117967632E+04  0.50400001928E-02 0. -1.
       -1    1    3    3    0  502  0.91302807334E+03  0.66000868332E+03 -0.11015818344E+04  0.15756631184E+04  0.50400001928E-02 0.  1.
</event>
<event>
 5   0  0.3191750E-07  0.2622102E+04  0.7818609E-02  0.8360732E-01
       -3   -1    0    0    0  501  0.00000000000E+00  0.00000000000E+00  0.10832288113E+04  0.10832288160E+04  0.10100000352E+00 0. -1.
        3   -1    0    0  501    0  0.00000000000E+00  0.00000000000E+00 -0.15867885013E+04  0.15867885045E+04  0.10100000352E+00 0.  1.
    10030    2    1    2    0    0  0.00000000000E+00  0.00000000000E+00 -0.50355969002E+03  0.26700173206E+04  0.26221022350E+04 0.  0.
        1    1    3    3  502    0 -0.75787655862E+03 -0.56750232427E+03  0.67166528625E+03  0.11608488372E+04  0.50400001928E-02 0. -1.
       -1    1    3    3    0  502  0.75787655862E+03  0.56750232427E+03 -0.11752249763E+04  0.15091684833E+04  0.50400001928E-02 0.  1.
</event>
<event>
 5   0  0.1015219E-06  0.2927961E+04  0.7818609E-02  0.8264606E-01
       -2   -1    0    0    0  501  0.00000000000E+00  0.00000000000E+00  0.13203383384E+04  0.13203383384E+04  0.25500000920E-02 0.  1.
        2   -1    0    0  501    0  0.00000000000E+00  0.00000000000E+00 -0.16232501383E+04  0.16232501383E+04  0.25500000920E-02 0. -1.
    10030    2    1    2    0    0  0.00000000000E+00  0.00000000000E+00 -0.30291179992E+03  0.29435884767E+04  0.29279613320E+04 0.  0.
        3    1    3    3  502    0 -0.10386058439E+04  0.20700221847E+03  0.86472439239E+03  0.13672235744E+04  0.10100000352E+00 0.  1.
       -3    1    3    3    0  502  0.10386058439E+04 -0.20700221847E+03 -0.11676361923E+04  0.15763649023E+04  0.10100000352E+00 0. -1.
</event>
<event>
 5   0  0.1035864E-06  0.3778976E+04  0.7818609E-02  0.8050682E-01
        2   -1    0    0  501    0  0.00000000000E+00  0.00000000000E+00  0.28694455335E+04  0.28694455335E+04  0.25500000920E-02 0. -1.
       -2   -1    0    0    0  501  0.00000000000E+00  0.00000000000E+00 -0.12442003704E+04  0.12442003704E+04  0.25500000920E-02 0.  1.
    10030    2    1    2    0    0  0.00000000000E+00  0.00000000000E+00  0.16252451631E+04  0.41136459039E+04  0.37789761553E+04 0.  0.
        5    1    3    3  502    0 -0.94188017282E+03 -0.16152832617E+04  0.11084726034E+04  0.21737092441E+04  0.46999998093E+01 0. -1.
       -5    1    3    3    0  502  0.94188017282E+03  0.16152832617E+04  0.51677255974E+03  0.19399366598E+04  0.46999998093E+01 0.  1.
</event>
<event>
 5   0  0.1015219E-06  0.3923139E+04  0.7818609E-02  0.8020234E-01
       -2   -1    0    0    0  501  0.00000000000E+00  0.00000000000E+00  0.18354603500E+04  0.18354603500E+04  0.25500000920E-02 0. -1.
        2   -1    0    0  501    0  0.00000000000E+00  0.00000000000E+00 -0.20963430793E+04  0.20963430793E+04  0.25500000920E-02 0.  1.
    10030    2    1    2    0    0  0.00000000000E+00  0.00000000000E+00 -0.26088272938E+03  0.39318034293E+04  0.39231388464E+04 0.  0.
        3    1    3    3  502    0  0.30942627466E+03  0.73100570454E+03  0.16672986579E+04  0.18466182021E+04  0.10100000352E+00 0. -1.
       -3    1    3    3    0  502 -0.30942627466E+03 -0.73100570454E+03 -0.19281813872E+04  0.20851852272E+04  0.10100000352E+00 0.  1.
</event>
<event>
 5   0  0.5385714E-07  0.3833753E+04  0.7818609E-02  0.8038950E-01
        1   -1    0    0  501    0  0.00000000000E+00  0.00000000000E+00  0.19676107246E+04  0.19676107246E+04  0.50400001928E-02 0.  1.
       -1   -1    0    0    0  501  0.00000000000E+00  0.00000000000E+00 -0.18674503543E+04  0.18674503544E+04  0.50400001928E-02 0. -1.
    10030    2    1    2    0    0  0.00000000000E+00  0.00000000000E+00  0.10016037029E+03  0.38350610790E+04  0.38337529106E+04 0.  0.
        3    1    3    3  502    0 -0.15991317400E+04  0.10325972102E+04  0.27584728082E+03  0.19234269034E+04  0.10100000352E+00 0.  1.
       -3    1    3    3    0  502  0.15991317400E+04 -0.10325972102E+04 -0.17568691053E+03  0.19116341755E+04  0.10100000352E+00 0. -1.
</event>
<event>
 5   0  0.4316671E-07  0.3527966E+04  0.7818609E-02  0.8107194E-01
        1   -1    0    0  501    0  0.00000000000E+00  0.00000000000E+00  0.16780230415E+04  0.16780230415E+04  0.50400001928E-02 0.  1.
       -1   -1    0    0    0  501  0.00000000000E+00  0.00000000000E+00 -0.18543468489E+04  0.18543468489E+04  0.50400001928E-02 0. -1.
    10030    2    1    2    0    0  0.00000000000E+00  0.00000000000E+00 -0.17632380747E+03  0.35323698904E+04  0.35279664054E+04 0.  0.
        2    1    3    3  502    0 -0.40429747839E+01  0.82426193758E+03 -0.16496637602E+04  0.18441297701E+04  0.25500000920E-02 0. -1.
       -2    1    3    3    0  502  0.40429747839E+01 -0.82426193758E+03  0.14733399527E+04  0.16882401203E+04  0.25500000920E-02 0.  1.
</event>
<event>
 5   0  0.5385714E-07  0.4060477E+04  0.7818609E-02  0.7992456E-01
       -1   -1    0    0    0  501  0.00000000000E+00  0.00000000000E+00  0.24543969590E+04  0.24543969590E+04  0.50400001928E-02 0.  1.
        1   -1    0    0  501    0  0.00000000000E+00  0.00000000000E+00 -0.16793816300E+04  0.16793816300E+04  0.50400001928E-02 0. -1.
    10030    2    1    2    0    0  0.00000000000E+00  0.00000000000E+00  0.77501532907E+03  0.41337785890E+04  0.40604773935E+04 0.  0.
        3    1    3    3  502    0  0.97071131732E+03  0.67612010181E+03  0.20672787249E+04  0.23818186728E+04  0.10100000352E+00 0.  1.
       -3    1    3    3    0  502 -0.97071131732E+03 -0.67612010181E+03 -0.12922633958E+04  0.17519599162E+04  0.10100000352E+00 0. -1.
</event>
<event>
 5   0  0.5385714E-07  0.4129387E+04  0.7818609E-02  0.7978942E-01
       -1   -1    0    0    0  501  0.00000000000E+00  0.00000000000E+00  0.18761332109E+04  0.18761332109E+04  0.50400001928E-02 0.  1.
        1   -1    0    0  501    0  0.00000000000E+00  0.00000000000E+00 -0.22722052091E+04  0.22722052091E+04  0.50400001928E-02 0. -1.
    10030    2    1    2    0    0  0.00000000000E+00  0.00000000000E+00 -0.39607199820E+03  0.41483384200E+04  0.41293871965E+04 0.  0.
        3    1    3    3  502    0 -0.48258884906E+03 -0.16949658488E+04 -0.12786858093E+04  0.21773466961E+04  0.10100000352E+00 0. -1.
       -3    1    3    3    0  502  0.48258884906E+03  0.16949658488E+04  0.88261381115E+03  0.19709917239E+04  0.10100000352E+00 0.  1.
</event>
<event>
 5   0  0.1034683E-06  0.3653336E+04  0.7818609E-02  0.8078382E-01
        2   -1    0    0  501    0  0.00000000000E+00  0.00000000000E+00  0.16711261173E+04  0.16711261173E+04  0.25500000920E-02 0. -1.
       -2   -1    0    0    0  501  0.00000000000E+00  0.00000000000E+00 -0.19966874316E+04  0.19966874316E+04  0.25500000920E-02 0.  1.
    10030    2    1    2    0    0  0.00000000000E+00  0.00000000000E+00 -0.32556131424E+03  0.36678135489E+04  0.36533362917E+04 0.  0.
        2    1    3    3  502    0 -0.11963470299E+04 -0.57311047303E+03  0.10979881869E+04  0.17219988063E+04  0.25500000920E-02 0. -1.
       -2    1    3    3    0  502  0.11963470299E+04  0.57311047303E+03 -0.14235495011E+04  0.19458147426E+04  0.25500000920E-02 0.  1.
</event>
<event>
 5   0  0.3471602E-07  0.4063548E+04  0.7818609E-02  0.7991848E-01
        1   -1    0    0  501    0  0.00000000000E+00  0.00000000000E+00  0.21118759757E+04  0.21118759757E+04  0.50400001928E-02 0.  1.
       -1   -1    0    0    0  501  0.00000000000E+00  0.00000000000E+00 -0.19547102692E+04  0.19547102692E+04  0.50400001928E-02 0. -1.
    10030    2    1    2    0    0  0.00000000000E+00  0.00000000000E+00  0.15716570644E+03  0.40665862449E+04  0.40635480344E+04 0.  0.
        5    1    3    3  502    0 -0.70251112157E+03  0.23269506275E+03  0.19721959786E+04  0.21064776135E+04  0.46999998093E+01 0.  1.
       -5    1    3    3    0  502  0.70251112157E+03 -0.23269506275E+03 -0.18150302721E+04  0.19601086314E+04  0.46999998093E+01 0. -1.
</event>
<event>
 5   0  0.1035864E-06  0.2768685E+04  0.7818609E-02  0.8313057E-01
       -2   -1    0    0    0  501  0.00000000000E+00  0.00000000000E+00  0.12776062288E+04  0.12776062288E+04  0.25500000920E-02 0.  1.
        2   -1    0    0  501    0  0.00000000000E+00  0.00000000000E+00 -0.14999956793E+04  0.14999956793E+04  0.25500000920E-02 0. -1.
    10030    2    1    2    0    0  0.00000000000E+00  0.00000000000E+00 -0.22238945044E+03  0.27776019081E+04  0.27686847585E+04 0.  0.
        5    1    3    3  502    0  0.10541271232E+03  0.78489749585E+03  0.10278941742E+04  0.12975994922E+04  0.46999998093E+01 0.  1.
       -5    1    3    3    0  502 -0.10541271232E+03 -0.78489749585E+03 -0.12502836246E+04  0.14800024158E+04  0.46999998093E+01 0. -1.
</event>
<event>
 5   0  0.4627905E-07  0.3645571E+04  0.7818609E-02  0.8080132E-01
        1   -1    0    0  501    0  0.00000000000E+00  0.00000000000E+00  0.33697359273E+04  0.33697359273E+04  0.50400001928E-02 0.  1.
       -1   -1    0    0    0  501  0.00000000000E+00  0.00000000000E+00 -0.98599612892E+03  0.98599612893E+03  0.50400001928E-02 0. -1.
    10030    2    1    2    0    0  0.00000000000E+00  0.00000000000E+00  0.23837397984E+04  0.43557320562E+04  0.36455707810E+04 0.  0.
        1    1    3    3  502    0 -0.60409208247E+03  0.20669500340E+03  0.32317619786E+04  0.32942276112E+04  0.50400001928E-02 0.  1.
       -1    1    3    3    0  502  0.60409208247E+03 -0.20669500340E+03 -0.84802218021E+03  0.10615044450E+04  0.50400001928E-02 0. -1.
</event>
<event>
 5   0  0.7268013E-07  0.2949174E+04  0.7818609E-02  0.8258395E-01
       -2   -1    0    0    0  501  0.00000000000E+00  0.00000000000E+00  0.11785981444E+04  0.11785981444E+04  0.25500000920E-02 0.  1.
        2   -1    0    0  501    0  0.00000000000E+00  0.00000000000E+00 -0.18449097990E+04  0.18449097990E+04  0.25500000920E-02 0. -1.
    10030    2    1    2    0    0  0.00000000000E+00  0.00000000000E+00 -0.66631165456E+03  0.30235079435E+04  0.29491743019E+04 0.  0.
        4    1    3    3  502    0  0.34801003173E+02  0.10645178261E+04  0.71235029102E+03  0.12813484545E+04  0.12699999809E+01 0.  1.
       -4    1    3    3    0  502 -0.34801003173E+02 -0.10645178261E+04 -0.13786619456E+04  0.17421594889E+04  0.12699999809E+01 0. -1.
</event>
<event>
 5   0  0.1034683E-06  0.2635786E+04  0.7818609E-02  0.8356146E-01
        2   -1    0    0  501    0  0.00000000000E+00  0.00000000000E+00  0.18588036295E+04  0.18588036295E+04  0.25500000920E-02 0. -1.
       -2   -1    0    0    0  501  0.00000000000E+00  0.00000000000E+00 -0.93438718312E+03  0.93438718313E+03  0.25500000920E-02 0.  1.
    10030    2    1    2    0    0  0.00000000000E+00  0.00000000000E+00  0.92441644635E+03  0.27931908126E+04  0.26357862488E+04 0.  0.
        2    1    3    3  502    0 -0.34763281479E+03 -0.10860403947E+04 -0.23793598901E+03  0.11648801860E+04  0.25500000920E-02 0.  1.
       -2    1    3    3    0  502  0.34763281479E+03  0.10860403947E+04  0.11623524354E+04  0.16283106266E+04  0.25500000920E-02 0. -1.
</event>
<event>
 5   0  0.5385714E-07  0.2817370E+04  0.7818609E-02  0.8297896E-01
       -1   -1    0    0    0  501  0.00000000000E+00  0.00000000000E+00  0.13044613453E+04  0.13044613453E+04  0.50400001928E-02 0. -1.
        1   -1    0    0  501    0  0.00000000000E+00  0.00000000000E+00 -0.15212354056E+04  0.15212354057E+04  0.50400001928E-02 0.  1.
    10030    2    1    2    0    0  0.00000000000E+00  0.00000000000E+00 -0.21677406032E+03  0.28256967510E+04  0.28173695419E+04 0.  0.
        3    1    3    3  502    0  0.71872172590E+03 -0.11943508744E+04  0.95580331369E+02  0.13972009664E+04  0.10100000352E+00 0. -1.
       -3    1    3    3    0  502 -0.71872172590E+03  0.11943508744E+04 -0.31235439169E+03  0.14284957846E+04  0.10100000352E+00 0.  1.
</event>
<event>
 5   0  0.5533705E-07  0.3118088E+04  0.7818609E-02  0.8210791E-01
       -2   -1    0    0    0  501  0.00000000000E+00  0.00000000000E+00  0.16060246186E+04  0.16060246186E+04  0.25500000920E-02 0.  1.
        2   -1    0    0  501    0  0.00000000000E+00  0.00000000000E+00 -0.15134379793E+04  0.15134379793E+04  0.25500000920E-02 0. -1.
    10030    2    1    2    0    0  0.00000000000E+00  0.00000000000E+00  0.92586639275E+02  0.31194625979E+04  0.31180882948E+04 0.  0.
        1    1    3    3  502    0 -0.34224807646E+03  0.95032549361E+03 -0.11418185778E+04  0.15244677610E+04  0.50400001928E-02 0. -1.
       -1    1    3    3    0  502  0.34224807646E+03 -0.95032549361E+03  0.12344052171E+04  0.15949948369E+04  0.50400001928E-02 0.  1.
</event>
<event>
 5   0  0.4627905E-07  0.3977661E+04  0.7818609E-02  0.8009068E-01
        1   -1    0    0  501    0  0.00000000000E+00  0.00000000000E+00  0.26708188394E+04  0.26708188395E+04  0.50400001928E-02 0.  1.
       -1   -1    0    0    0  501  0.00000000000E+00  0.00000000000E+00 -0.14809867624E+04  0.14809867624E+04  0.50400001928E-02 0. -1.
    10030    2    1    2    0    0  0.00000000000E+00  0.00000000000E+00  0.11898320771E+04  0.41518056019E+04  0.39776612958E+04 0.  0.
        1    1    3    3  502    0  0.67449962208E+03  0.90540122074E+02 -0.13556694491E+04  0.15169004283E+04  0.50400001928E-02 0. -1.
       -1    1    3    3    0  502 -0.67449962208E+03 -0.90540122074E+02  0.25455015262E+04  0.26349051736E+04  0.50400001928E-02 0.  1.
</event>
<event>
 5   0  0.5385714E-07  0.3883949E+04  0.7818609E-02  0.8028376E-01
       -1   -1    0    0    0  501  0.00000000000E+00  0.00000000000E+00  0.19143211375E+04  0.19143211375E+04  0.50400001928E-02 0.  1.
        1   -1    0    0  501    0  0.00000000000E+00  0.00000000000E+00 -0.19700274137E+04  0.19700274137E+04  0.50400001928E-02 0. -1.
    10030    2    1    2    0    0  0.00000000000E+00  0.00000000000E+00 -0.55706276272E+02  0.38843485512E+04  0.38839490828E+04 0.  0.
        3    1    3    3  502    0  0.44975559243E+03 -0.53583621180E+03 -0.18396311852E+04  0.19681573734E+04  0.10100000352E+00 0. -1.
       -3    1    3    3    0  502 -0.44975559243E+03  0.53583621180E+03  0.17839249089E+04  0.19161911778E+04  0.10100000352E+00 0.  1.
</event>
<event>
 5   0  0.7268013E-07  0.2741124E+04  0.7818609E-02  0.8321784E-01
       -2   -1    0    0    0  501  0.00000000000E+00  0.00000000000E+00  0.11303556461E+04  0.11303556461E+04  0.25500000920E-02 0. -1.
        2   -1    0    0  501    0  0.00000000000E+00  0.00000000000E+00 -0.16618128437E+04  0.16618128437E+04  0.25500000920E-02 0.  1.
    10030    2    1    2    0    0  0.00000000000E+00  0.00000000000E+00 -0.53145719769E+03  0.27921684898E+04  0.27411235146E+04 0.  0.
        4    1    3    3  502    0 -0.52135912665E+03 -0.26768728016E+03 -0.15277374780E+04  0.16362931380E+04  0.12699999809E+01 0.  1.
       -4    1    3    3    0  502  0.52135912665E+03  0.26768728016E+03  0.99628028035E+03  0.11558753518E+04  0.12699999809E+01 0. -1.
</event>
<event>
 5   0  0.1035864E-06  0.3396250E+04  0.7818609E-02  0.8138827E-01
        2   -1    0    0  501    0  0.00000000000E+00  0.00000000000E+00  0.20662117972E+04  0.20662117972E+04  0.25500000920E-02 0. -1.
       -2   -1    0    0    0  501  0.00000000000E+00  0.00000000000E+00 -0.13956115691E+04  0.13956115691E+04  0.25500000920E-02 0.  1.
    10030    2    1    2    0    0  0.00000000000E+00  0.00000000000E+00  0.67060022812E+03  0.34618233663E+04  0.33962503373E+04 0.  0.
        5    1    3    3  502    0 -0.66387315848E+03 -0.14365941070E+04 -0.29227947867E+03  0.16093413505E+04  0.46999998093E+01 0. -1.
       -5    1    3    3    0  502  0.66387315848E+03  0.14365941070E+04  0.96287970679E+03  0.18524820157E+04  0.46999998093E+01 0.  1.
</event>
<event>
 5   0  0.5533705E-07  0.3883947E+04  0.7818609E-02  0.8028376E-01
        2   -1    0    0  501    0  0.00000000000E+00  0.00000000000E+00  0.32297790470E+04  0.32297790470E+04  0.25500000920E-02 0. -1.
       -2   -1    0    0    0  501  0.00000000000E+00  0.00000000000E+00 -0.11676530651E+04  0.11676530651E+04  0.25500000920E-02 0.  1.
    10030    2    1    2    0    0  0.00000000000E+00  0.00000000000E+00  0.20621259819E+04  0.43974321121E+04  0.38839471695E+04 0.  0.
        1    1    3    3  502    0 -0.99032042824E+03  0.15554094779E+03  0.29141835570E+04  0.30817841165E+04  0.50400001928E-02 0. -1.
       -1    1    3    3    0  502  0.99032042824E+03 -0.15554094779E+03 -0.85205757512E+03  0.13156479956E+04  0.50400001928E-02 0.  1.
</event>
<event>
 5   0  0.1015219E-06  0.3931024E+04  0.7818609E-02  0.8018607E-01
       -2   -1    0    0    0  501  0.00000000000E+00  0.00000000000E+00  0.12671520636E+04  0.12671520636E+04  0.25500000920E-02 0.  1.
        2   -1    0    0  501    0  0.00000000000E+00  0.00000000000E+00 -0.30487565391E+04  0.30487565391E+04  0.25500000920E-02 0. -1.
    10030    2    1    2    0    0  0.00000000000E+00  0.00000000000E+00 -0.17816044755E+04  0.43159086026E+04  0.39310243651E+04 0.  0.
        3    1    3    3  502    0 -0.21676904464E+03 -0.15072160811E+04 -0.22552827839E+04  0.27212110501E+04  0.10100000352E+00 0. -1.
       -3    1    3    3    0  502  0.21676904464E+03  0.15072160811E+04  0.47367830838E+03  0.15946975525E+04  0.10100000352E+00 0.  1.
</event>
<event>
 5   0  0.7268013E-07  0.3933400E+04  0.7818609E-02  0.8018118E-01
       -2   -1    0    0    0  501  0.00000000000E+00  0.00000000000E+00  0.20664251179E+04  0.20664251179E+04  0.25500000920E-02 0.  1.
        2   -1    0    0  501    0  0.00000000000E+00  0.00000000000E+00 -0.18717879615E+04  0.18717879615E+04  0.25500000920E-02 0. -1.
    10030    2    1    2    0    0  0.00000000000E+00  0.00000000000E+00  0.19463715647E+03  0.39382130794E+04  0.39334003910E+04 0.  0.
        4    1    3    3  502    0  0.10933500598E+04 -0.94629170015E+03 -0.12373637471E+04  0.19031429244E+04  0.12699999809E+01 0. -1.
       -4    1    3    3    0  502 -0.10933500598E+04  0.94629170015E+03  0.14320009036E+04  0.20350701550E+04  0.12699999809E+01 0.  1.
</event>
<event>
 5   0  0.5385714E-07  0.2996162E+04  0.7818609E-02  0.8244828E-01
       -1   -1    0    0    0  501  0.00000000000E+00  0.00000000000E+00  0.15676723182E+04  0.15676723182E+04  0.50400001928E-02 0. -1.
        1   -1    0    0  501    0  0.00000000000E+00  0.00000000000E+00 -0.14315785961E+04  0.14315785961E+04  0.50400001928E-02 0.  1.
    10030    2    1    2    0    0  0.00000000000E+00  0.00000000000E+00  0.13609372211E+03  0.29992509143E+04  0.29961616354E+04 0.  0.
        3    1    3    3  502    0 -0.12941014388E+04 -0.43386428207E+03 -0.55009236477E+03  0.14715768309E+04  0.10100000352E+00 0.  1.
       -3    1    3    3    0  502  0.12941014388E+04  0.43386428207E+03  0.68618608688E+03  0.15276740834E+04  0.10100000352E+00 0. -1.
</event>
<event>
 5   0  0.5385714E-07  0.3877120E+04  0.7818609E-02  0.8029805E-01
        1   -1    0    0  501    0  0.00000000000E+00  0.00000000000E+00  0.26387144651E+04  0.26387144651E+04  0.50400001928E-02 0.  1.
       -1   -1    0    0    0  501  0.00000000000E+00  0.00000000000E+00 -0.14241841876E+04  0.14241841876E+04  0.50400001928E-02 0. -1.
    10030    2    1    2    0    0  0.00000000000E+00  0.00000000000E+00  0.12145302774E+04  0.40628986527E+04  0.38771202802E+04 0.  0.
        3    1    3    3  502    0 -0.58860251528E+03 -0.82708122283E+03 -0.11233839805E+04  0.15141029846E+04  0.10100000352E+00 0. -1.
       -3    1    3    3    0  502  0.58860251528E+03  0.82708122283E+03  0.23379142579E+04  0.25487956681E+04  0.10100000352E+00 0.  1.
</event>
<event>
 5   0  0.5533705E-07  0.2348315E+04  0.7818609E-02  0.8459111E-01
       -2   -1    0    0    0  501  0.00000000000E+00  0.00000000000E+00  0.26291761028E+04  0.26291761028E+04  0.25500000920E-02 0.  1.
        2   -1    0    0  501    0  0.00000000000E+00  0.00000000000E+00 -0.52436408447E+03  0.52436408448E+03  0.25500000920E-02 0. -1.
    10030    2    1    2    0    0  0.00000000000E+00  0.00000000000E+00  0.21048120183E+04  0.31535401873E+04  0.23483147319E+04 0.  0.
        1    1    3    3  502    0  0.15925682051E+03 -0.13219276557E+03 -0.49967385315E+03  0.54084343548E+03  0.50400001928E-02 0. -1.
       -1    1    3    3    0  502 -0.15925682051E+03  0.13219276557E+03  0.26044858715E+04  0.26126967518E+04  0.50400001928E-02 0.  1.
</event>
<event>
 5   0  0.7268013E-07  0.3883937E+04  0.7818609E-02  0.8028378E-01
       -2   -1    0    0    0  501  0.00000000000E+00  0.00000000000E+00  0.15818039800E+04  0.15818039800E+04  0.25500000920E-02 0.  1.
        2   -1    0    0  501    0  0.00000000000E+00  0.00000000000E+00 -0.23841395045E+04  0.23841395046E+04  0.25500000920E-02 0. -1.
    10030    2    1    2    0    0  0.00000000000E+00  0.00000000000E+00 -0.80233552458E+03  0.39659434845E+04  0.38839368466E+04 0.  0.
        4    1    3    3  502    0 -0.18260856333E+04  0.53161459522E+03 -0.80192999114E+03  0.20640484834E+04  0.12699999809E+01 0. -1.
       -4    1    3    3    0  502  0.18260856333E+04 -0.53161459522E+03 -0.40553344153E+00  0.19018950012E+04  0.12699999809E+01 0.  1.
</event>
<event>
 5   0  0.4316671E-07  0.3967520E+04  0.7818609E-02  0.8011131E-01
       -1   -1    0    0    0  501  0.00000000000E+00  0.00000000000E+00  0.29975648311E+04  0.29975648311E+04  0.50400001928E-02 0.  1.
        1   -1    0    0  501    0  0.00000000000E+00  0.00000000000E+00 -0.13128334127E+04  0.13128334128E+04  0.50400001928E-02 0. -1.
    10030    2    1    2    0    0  0.00000000000E+00  0.00000000000E+00  0.16847314183E+04  0.43103982438E+04  0.39675197628E+04 0.  0.
        2    1    3    3  502    0 -0.10145677330E+04 -0.17014479446E+04  0.95646826851E+03  0.21997964319E+04  0.25500000920E-02 0.  1.
       -2    1    3    3    0  502  0.10145677330E+04  0.17014479446E+04  0.72826314980E+03  0.21106018119E+04  0.25500000920E-02 0. -1.
</event>
<event>
 5   0  0.4627905E-07  0.2087905E+04  0.7818609E-02  0.8566590E-01
       -1   -1    0    0    0  501  0.00000000000E+00  0.00000000000E+00  0.99232320954E+03  0.99232320955E+03  0.50400001928E-02 0. -1.
        1   -1    0    0  501    0  0.00000000000E+00  0.00000000000E+00 -0.10982677789E+04  0.10982677789E+04  0.50400001928E-02 0.  1.
    10030    2    1    2    0    0  0.00000000000E+00  0.00000000000E+00 -0.10594456938E+03  0.20905909885E+04  0.20879047941E+04 0.  0.
        1    1    3    3  502    0 -0.16894001982E+03  0.86673747928E+03  0.50457623603E+03  0.10170406906E+04  0.50400001928E-02 0. -1.
       -1    1    3    3    0  502  0.16894001982E+03 -0.86673747928E+03 -0.61052080542E+03  0.10735502979E+04  0.50400001928E-02 0.  1.
</event>
<event>
 5   0  0.1035864E-06  0.4364396E+04  0.7818609E-02  0.7934817E-01
       -2   -1    0    0    0  501  0.00000000000E+00  0.00000000000E+00  0.29744741238E+04  0.29744741238E+04  0.25500000920E-02 0.  1.
        2   -1    0    0  501    0  0.00000000000E+00  0.00000000000E+00 -0.16009511513E+04  0.16009511513E+04  0.25500000920E-02 0. -1.
    10030    2    1    2    0    0  0.00000000000E+00  0.00000000000E+00  0.13735229725E+04  0.45754252750E+04  0.43643958450E+04 0.  0.
        5    1    3    3  502    0 -0.92006062257E+03 -0.17926398201E+04 -0.19154058207E+03  0.20240501373E+04  0.46999998093E+01 0. -1.
       -5    1    3    3    0  502  0.92006062257E+03  0.17926398201E+04  0.15650635546E+04  0.25513751378E+04  0.46999998093E+01 0.  1.
</event>
<event>
 5   0  0.7268013E-07  0.2947316E+04  0.7818609E-02  0.8258937E-01
        2   -1    0    0  501    0  0.00000000000E+00  0.00000000000E+00  0.13692170422E+04  0.13692170422E+04  0.25500000920E-02 0. -1.
       -2   -1    0    0    0  501  0.00000000000E+00  0.00000000000E+00 -0.15860654739E+04  0.15860654739E+04  0.25500000920E-02 0.  1.
    10030    2    1    2    0    0  0.00000000000E+00  0.00000000000E+00 -0.21684843172E+03  0.29552825161E+04  0.29473159836E+04 0.  0.
        4    1    3    3  502    0 -0.62717443277E+03 -0.12537543497E+04  0.34713689237E+03  0.14442137561E+04  0.12699999809E+01 0.  1.
       -4    1    3    3    0  502  0.62717443277E+03  0.12537543497E+04 -0.56398532408E+03  0.15110687599E+04  0.12699999809E+01 0. -1.
</event>
<event>
 5   0  0.7268013E-07  0.1969175E+04  0.7818609E-02  0.8621169E-01
       -2   -1    0    0    0  501  0.00000000000E+00  0.00000000000E+00  0.11125767847E+04  0.11125767847E+04  0.25500000920E-02 0. -1.
        2   -1    0    0  501    0  0.00000000000E+00  0.00000000000E+00 -0.87132189075E+03  0.87132189076E+03  0.25500000920E-02 0.  1.
    10030    2    1    2    0    0  0.00000000000E+00  0.00000000000E+00  0.24125489396E+03  0.19838986755E+04  0.19691749619E+04 0.  0.
        4    1    3    3  502    0 -0.70475568065E+03 -0.33278054607E+01 -0.57205921770E+03  0.90771416489E+03  0.12699999809E+01 0.  1.
       -4    1    3    3    0  502  0.70475568065E+03  0.33278054607E+01  0.81331411166E+03  0.10761845106E+04  0.12699999809E+01 0. -1.
</event>
<event>
 5   0  0.1015219E-06  0.2527643E+04  0.7818609E-02  0.8393203E-01
       -2   -1    0    0    0  501  0.00000000000E+00  0.00000000000E+00  0.18457983368E+04  0.18457983368E+04  0.25500000920E-02 0.  1.
        2   -1    0    0  501    0  0.00000000000E+00  0.00000000000E+00 -0.86534057472E+03  0.86534057473E+03  0.25500000920E-02 0. -1.
    10030    2    1    2    0    0  0.00000000000E+00  0.00000000000E+00  0.98045776209E+03  0.27111389115E+04  0.25276425330E+04 0.  0.
        3    1    3    3  502    0 -0.14558288448E+03  0.76453176593E+03  0.15582785530E+04  0.17418195246E+04  0.10100000352E+00 0.  1.
       -3    1    3    3    0  502  0.14558288448E+03 -0.76453176593E+03 -0.57782079088E+03  0.96931938696E+03  0.10100000352E+00 0. -1.
</event>
<event>
 5   0  0.5385714E-07  0.3424725E+04  0.7818609E-02  0.8131865E-01
        1   -1    0    0  501    0  0.00000000000E+00  0.00000000000E+00  0.10931898358E+04  0.10931898358E+04  0.50400001928E-02 0.  1.
       -1   -1    0    0    0  501  0.00000000000E+00  0.00000000000E+00 -0.26822285034E+04  0.26822285035E+04  0.50400001928E-02 0. -1.
    10030    2    1    2    0    0  0.00000000000E+00  0.00000000000E+00 -0.15890386677E+04  0.37754183392E+04  0.34247247698E+04 0.  0.
        3    1    3    3  502    0 -0.73921295517E+03  0.32956188846E+03  0.86902389404E+03  0.11875392078E+04  0.10100000352E+00 0.  1.
       -3    1    3    3    0  502  0.73921295517E+03 -0.32956188846E+03 -0.24580625617E+04  0.25878791314E+04  0.10100000352E+00 0. -1.
</event>
<event>
 5   0  0.1035864E-06  0.3793343E+04  0.7818609E-02  0.8047585E-01
       -2   -1    0    0    0  501  0.00000000000E+00  0.00000000000E+00  0.13572577160E+04  0.13572577160E+04  0.25500000920E-02 0.  1.
        2   -1    0    0  501    0  0.00000000000E+00  0.00000000000E+00 -0.26504645899E+04  0.26504645899E+04  0.25500000920E-02 0. -1.
    10030    2    1    2    0    0  0.00000000000E+00  0.00000000000E+00 -0.12932068739E+04  0.40077223059E+04  0.37933433885E+04 0.  0.
        5    1    3    3  502    0 -0.66036257372E+03 -0.27384444349E+03  0.12094588941E+04  0.14049492569E+04  0.46999998093E+01 0.  1.
       -5    1    3    3    0  502  0.66036257372E+03  0.27384444349E+03 -0.25026657680E+04  0.26027730490E+04  0.46999998093E+01 0. -1.
</event>
<event>
 5   0  0.5533705E-07  0.3829383E+04  0.7818609E-02  0.8039879E-01
        2   -1    0    0  501    0  0.00000000000E+00  0.00000000000E+00  0.26603002032E+04  0.26603002032E+04  0.25500000920E-02 0.  1.
       -2   -1    0    0    0  501  0.00000000000E+00  0.00000000000E+00 -0.13780559859E+04  0.13780559859E+04  0.25500000920E-02 0. -1.
    10030    2    1    2    0    0  0.00000000000E+00  0.00000000000E+00  0.12822442173E+04  0.40383561892E+04  0.38293825191E+04 0.  0.
        1    1    3    3  502    0 -0.50554589436E+03 -0.18132266776E+04  0.10104855228E+04  0.21364570268E+04  0.50400001928E-02 0.  1.
       -1    1    3    3    0  502  0.50554589436E+03  0.18132266776E+04  0.27175869449E+03  0.19018991623E+04  0.50400001928E-02 0. -1.
</event>
<event>
 5   0  0.4316671E-07  0.2275644E+04  0.7818609E-02  0.8487587E-01
       -1   -1    0    0    0  501  0.00000000000E+00  0.00000000000E+00  0.10311132950E+04  0.10311132950E+04  0.50400001928E-02 0. -1.
        1   -1    0    0  501    0  0.00000000000E+00  0.00000000000E+00 -0.12555736354E+04  0.12555736354E+04  0.50400001928E-02 0.  1.
    10030    2    1    2    0    0  0.00000000000E+00  0.00000000000E+00 -0.22446034039E+03  0.22866869304E+04  0.22756437931E+04 0.  0.
        2    1    3    3  502    0 -0.95294615230E+03  0.37009592987E+03 -0.61421552607E+03  0.11926181614E+04  0.25500000920E-02 0.  1.
       -2    1    3    3    0  502  0.95294615230E+03 -0.37009592987E+03  0.38975518567E+03  0.10940687690E+04  0.25500000920E-02 0. -1.
</event>
<event>
 5   0  0.7268013E-07  0.2755028E+04  0.7818609E-02  0.8317368E-01
       -2   -1    0    0    0  501  0.00000000000E+00  0.00000000000E+00  0.11966629215E+04  0.11966629215E+04  0.25500000920E-02 0.  1.
        2   -1    0    0  501    0  0.00000000000E+00  0.00000000000E+00 -0.15856974239E+04  0.15856974239E+04  0.25500000920E-02 0. -1.
    10030    2    1    2    0    0  0.00000000000E+00  0.00000000000E+00 -0.38903450242E+03  0.27823603454E+04  0.27550283570E+04 0.  0.
        4    1    3    3  502    0 -0.10570064270E+04 -0.68852866470E+03 -0.75336892258E+03  0.14693197934E+04  0.12699999809E+01 0. -1.
       -4    1    3    3    0  502  0.10570064270E+04  0.68852866470E+03  0.36433442016E+03  0.13130405521E+04  0.12699999809E+01 0.  1.
</event>
<event>
 5   0  0.1034683E-06  0.1947256E+04  0.7818609E-02  0.8631685E-01
       -2   -1    0    0    0  501  0.00000000000E+00  0.00000000000E+00  0.71820876251E+03  0.71820876252E+03  0.25500000920E-02 0.  1.
        2   -1    0    0  501    0  0.00000000000E+00  0.00000000000E+00 -0.13198830794E+04  0.13198830794E+04  0.25500000920E-02 0. -1.
    10030    2    1    2    0    0  0.00000000000E+00  0.00000000000E+00 -0.60167431692E+03  0.20380918420E+04  0.19472561138E+04 0.  0.
        2    1    3    3  502    0  0.55513308859E+03 -0.65369148926E+03  0.18160548187E+03  0.87662184563E+03  0.25500000920E-02 0.  1.
       -2    1    3    3    0  502 -0.55513308859E+03  0.65369148926E+03 -0.78327979879E+03  0.11614699963E+04  0.25500000920E-02 0. -1.
</event>
<event>
 5   0  0.3977376E-07  0.3973362E+04  0.7818609E-02  0.8009942E-01
        1   -1    0    0  501    0  0.00000000000E+00  0.00000000000E+00  0.23783594798E+04  0.23783594798E+04  0.50400001928E-02 0. -1.
       -1   -1    0    0    0  501  0.00000000000E+00  0.00000000000E+00 -0.16595058674E+04  0.16595058674E+04  0.50400001928E-02 0.  1.
    10030    2    1    2    0    0  0.00000000000E+00  0.00000000000E+00  0.71885361242E+03  0.40378653472E+04  0.39733620582E+04 0.  0.
        4    1    3    3  502    0 -0.51413798333E+03 -0.11078110190E+04  0.19518095319E+04  0.23024215907E+04  0.12699999809E+01 0. -1.
       -4    1    3    3    0  502  0.51413798333E+03  0.11078110190E+04 -0.12329559194E+04  0.17354437565E+04  0.12699999809E+01 0.  1.
</event>
<event>
 5   0  0.7268013E-07  0.3940040E+04  0.7818609E-02  0.8016753E-01
       -2   -1    0    0    0  501  0.00000000000E+00  0.00000000000E+00  0.17752658619E+04  0.17752658619E+04  0.25500000920E-02 0.  1.
        2   -1    0    0  501    0  0.00000000000E+00  0.00000000000E+00 -0.21861393305E+04  0.21861393305E+04  0.25500000920E-02 0. -1.
    10030    2    1    2    0    0  0.00000000000E+00  0.00000000000E+00 -0.41087346861E+03  0.39614051925E+04  0.39400398591E+04 0.  0.
        4    1    3    3  502    0  0.17344851714E+04 -0.43278457765E+03 -0.10377151140E+04  0.20670257791E+04  0.12699999809E+01 0.  1.
       -4    1    3    3    0  502 -0.17344851714E+04  0.43278457765E+03  0.62684164537E+03  0.18943794134E+04  0.12699999809E+01 0. -1.
</event>
<event>
 5   0  0.5385714E-07  0.3754000E+04  0.7818609E-02  0.8056099E-01
       -1   -1    0    0    0  501  0.00000000000E+00  0.00000000000E+00  0.15154527495E+04  0.15154527495E+04  0.50400001928E-02 0. -1.
        1   -1    0    0  501    0  0.00000000000E+00  0.00000000000E+00 -0.23248029830E+04  0.23248029830E+04  0.50400001928E-02 0.  1.
    10030    2    1    2    0    0  0.00000000000E+00  0.00000000000E+00 -0.80935023354E+03  0.38402557325E+04  0.37540000387E+04 0.  0.
        3    1    3    3  502    0 -0.18330589191E+04 -0.40185617322E+03 -0.44476325683E+03  0.19285766123E+04  0.10100000352E+00 0.  1.
       -3    1    3    3    0  502  0.18330589191E+04  0.40185617322E+03 -0.36458697671E+03  0.19116791202E+04  0.10100000352E+00 0. -1.
</event>
<event>
 5   0  0.1015219E-06  0.2207010E+04  0.7818609E-02  0.8515516E-01
       -2   -1    0    0    0  501  0.00000000000E+00  0.00000000000E+00  0.89963748238E+03  0.89963748238E+03  0.25500000920E-02 0.  1.
        2   -1    0    0  501    0  0.00000000000E+00  0.00000000000E+00 -0.13535708302E+04  0.13535708302E+04  0.25500000920E-02 0. -1.
    10030    2    1    2    0    0  0.00000000000E+00  0.00000000000E+00 -0.45393334781E+03  0.22532083126E+04  0.22070097906E+04 0.  0.
        3    1    3    3  502    0  0.26023595187E+03 -0.85900750636E+03 -0.88235962036E+03  0.12586402014E+04  0.10100000352E+00 0. -1.
       -3    1    3    3    0  502 -0.26023595187E+03  0.85900750636E+03  0.42842627255E+03  0.99456811122E+03  0.10100000352E+00 0.  1.
</event>
<event>
 5   0  0.1201343E-06  0.2100610E+04  0.7818609E-02  0.8560975E-01
       -2   -1    0    0    0  501  0.00000000000E+00  0.00000000000E+00  0.96379249325E+03  0.96379249325E+03  0.25500000920E-02 0.  1.
        2   -1    0    0  501    0  0.00000000000E+00  0.00000000000E+00 -0.11445826307E+04  0.11445826307E+04  0.25500000920E-02 0. -1.
    10030    2    1    2    0    0  0.00000000000E+00  0.00000000000E+00 -0.18079013747E+03  0.21083751240E+04  0.21006095757E+04 0.  0.
        3    1    3    3  502    0  0.92822533590E+03  0.23288075307E+03 -0.52478180217E+03  0.10914356002E+04  0.10100000352E+00 0. -1.
       -3    1    3    3    0  502 -0.92822533590E+03 -0.23288075307E+03  0.34399166470E+03  0.10169395237E+04  0.10100000352E+00 0.  1.
</event>
<event>
 5   0  0.5533705E-07  0.3985496E+04  0.7818609E-02  0.8007479E-01
       -2   -1    0    0    0  501  0.00000000000E+00  0.00000000000E+00  0.30970325362E+04  0.30970325362E+04  0.25500000920E-02 0. -1.
        2   -1    0    0  501    0  0.00000000000E+00  0.00000000000E+00 -0.12822096846E+04  0.12822096846E+04  0.25500000920E-02 0.  1.
    10030    2    1    2    0    0  0.00000000000E+00  0.00000000000E+00  0.18148228516E+04  0.43792422208E+04  0.39854962609E+04 0.  0.
        1    1    3    3  502    0  0.25601382118E+03 -0.69920466909E+03 -0.11236103241E+04  0.13479356091E+04  0.50400001928E-02 0.  1.
       -1    1    3    3    0  502 -0.25601382118E+03  0.69920466909E+03  0.29384331757E+04  0.30313066117E+04  0.50400001928E-02 0. -1.
</event>
<event>
 5   0  0.4316671E-07  0.2573418E+04  0.7818609E-02  0.8377287E-01
       -1   -1    0    0    0  501  0.00000000000E+00  0.00000000000E+00  0.63850224728E+03  0.63850224730E+03  0.50400001928E-02 0. -1.
        1   -1    0    0  501    0  0.00000000000E+00  0.00000000000E+00 -0.25929753578E+04  0.25929753578E+04  0.50400001928E-02 0.  1.
    10030    2    1    2    0    0  0.00000000000E+00  0.00000000000E+00 -0.19544731105E+04  0.32314776051E+04  0.25734184216E+04 0.  0.
        2    1    3    3  502    0 -0.41935026804E+03  0.12093751138E+04 -0.81265761434E+03  0.15161976162E+04  0.25500000920E-02 0. -1.
       -2    1    3    3    0  502  0.41935026804E+03 -0.12093751138E+04 -0.11418154962E+04  0.17152799889E+04  0.25500000920E-02 0.  1.
</event>
<event>
 5   0  0.5385714E-07  0.3928119E+04  0.7818609E-02  0.8019206E-01
        1   -1    0    0  501    0  0.00000000000E+00  0.00000000000E+00  0.22228185012E+04  0.22228185012E+04  0.50400001928E-02 0. -1.
       -1   -1    0    0    0  501  0.00000000000E+00  0.00000000000E+00 -0.17354226615E+04  0.17354226615E+04  0.50400001928E-02 0.  1.
    10030    2    1    2    0    0  0.00000000000E+00  0.00000000000E+00  0.48739583970E+03  0.39582411627E+04  0.39281189389E+04 0.  0.
        3    1    3    3  502    0  0.78253748796E+03 -0.28403579628E+02 -0.15713245276E+04  0.17556287946E+04  0.10100000352E+00 0.  1.
       -3    1    3    3    0  502 -0.78253748796E+03  0.28403579628E+02  0.20587203673E+04  0.22026123681E+04  0.10100000352E+00 0. -1.
</event>
<event>
 5   0  0.4627905E-07  0.3830619E+04  0.7818609E-02  0.8039616E-01
       -1   -1    0    0    0  501  0.00000000000E+00  0.00000000000E+00  0.11899922272E+04  0.11899922272E+04  0.50400001928E-02 0. -1.
        1   -1    0    0  501    0  0.00000000000E+00  0.00000000000E+00 -0.30827176469E+04  0.30827176469E+04  0.50400001928E-02 0.  1.
    10030    2    1    2    0    0  0.00000000000E+00  0.00000000000E+00 -0.18927254197E+04  0.42727098741E+04  0.38306187691E+04 0.  0.
        1    1    3    3  502    0 -0.83261017982E+03  0.14027243336E+04  0.17324142458E+03  0.16403925929E+04  0.50400001928E-02 0. -1.
       -1    1    3    3    0  502  0.83261017982E+03 -0.14027243336E+04 -0.20659668443E+04  0.26323172813E+04  0.50400001928E-02 0.  1.
</event>
<event>
 5   0  0.7268013E-07  0.3767537E+04  0.7818609E-02  0.8053157E-01
       -2   -1    0    0    0  501  0.00000000000E+00  0.00000000000E+00  0.13553183784E+04  0.13553183784E+04  0.25500000920E-02 0. -1.
        2   -1    0    0  501    0  0.00000000000E+00  0.00000000000E+00 -0.26182660549E+04  0.26182660549E+04  0.25500000920E-02 0.  1.
    10030    2    1    2    0    0  0.00000000000E+00  0.00000000000E+00 -0.12629476765E+04  0.39735844333E+04  0.37675371816E+04 0.  0.
        4    1    3    3  502    0  0.15409813125E+03 -0.16875986303E+04 -0.14991750244E+04  0.22625787805E+04  0.12699999809E+01 0.  1.
       -4    1    3    3    0  502 -0.15409813125E+03  0.16875986303E+04  0.23622734788E+03  0.17110056528E+04  0.12699999809E+01 0. -1.
</event>
<event>
 5   0  0.3471602E-07  0.3870724E+04  0.7818609E-02  0.8031146E-01
       -1   -1    0    0    0  501  0.00000000000E+00  0.00000000000E+00  0.16192944522E+04  0.16192944522E+04  0.50400001928E-02 0.  1.
        1   -1    0    0  501    0  0.00000000000E+00  0.00000000000E+00 -0.23131227860E+04  0.23131227860E+04  0.50400001928E-02 0. -1.
    10030    2    1    2    0    0  0.00000000000E+00  0.00000000000E+00 -0.69382833374E+03  0.39324172382E+04  0.38707244256E+04 0.  0.
        5    1    3    3  502    0 -0.34822904738E+03  0.23897900555E+03  0.15719000014E+04  0.16276566404E+04  0.46999998093E+01 0.  1.
       -5    1    3    3    0  502  0.34822904738E+03 -0.23897900555E+03 -0.22657283352E+04  0.23047605978E+04  0.46999998093E+01 0. -1.
</event>
<event>
 5   0  0.3977376E-07  0.3896871E+04  0.7818609E-02  0.8025680E-01
       -1   -1    0    0    0  501  0.00000000000E+00  0.00000000000E+00  0.13881898984E+04  0.13881898984E+04  0.50400001928E-02 0. -1.
        1   -1    0    0  501    0  0.00000000000E+00  0.00000000000E+00 -0.27347852386E+04  0.27347852386E+04  0.50400001928E-02 0.  1.
    10030    2    1    2    0    0  0.00000000000E+00  0.00000000000E+00 -0.13465953402E+04  0.41229751370E+04  0.38968711770E+04 0.  0.
        4    1    3    3  502    0 -0.37587861878E+03 -0.11093340399E+04  0.97412532412E+03  0.15234265680E+04  0.12699999809E+01 0. -1.
       -4    1    3    3    0  502  0.37587861878E+03  0.11093340399E+04 -0.23207206643E+04  0.25995485690E+04  0.12699999809E+01 0.  1.
</event>
<event>
 5   0  0.1035864E-06  0.4120020E+04  0.7818609E-02  0.7980763E-01
        2   -1    0    0  501    0  0.00000000000E+00  0.00000000000E+00  0.20202232778E+04  0.20202232778E+04  0.25500000920E-02 0.  1.
       -2   -1    0    0    0  501  0.00000000000E+00  0.00000000000E+00 -0.21005802930E+04  0.21005802930E+04  0.25500000920E-02 0. -1.
    10030    2    1    2    0    0  0.00000000000E+00  0.00000000000E+00 -0.80357015279E+02  0.41208035708E+04  0.41200200023E+04 0.  0.
        5    1    3    3  502    0 -0.15530048006E+04 -0.45307400464E+03 -0.13157716600E+04  0.20852762684E+04  0.46999998093E+01 0. -1.
       -5    1    3    3    0  502  0.15530048006E+04  0.45307400464E+03  0.12354146447E+04  0.20355273024E+04  0.46999998093E+01 0.  1.
</event>
<event>
 5   0  0.5533705E-07  0.3932711E+04  0.7818609E-02  0.8018260E-01
        2   -1    0    0  501    0  0.00000000000E+00  0.00000000000E+00  0.18185320399E+04  0.18185320399E+04  0.25500000920E-02 0. -1.
       -2   -1    0    0    0  501  0.00000000000E+00  0.00000000000E+00 -0.21261954918E+04  0.21261954918E+04  0.25500000920E-02 0.  1.
    10030    2    1    2    0    0  0.00000000000E+00  0.00000000000E+00 -0.30766345190E+03  0.39447275318E+04  0.39327113421E+04 0.  0.
        1    1    3    3  502    0 -0.62199086089E+03 -0.11022212158E+04 -0.16633519879E+04  0.20900966665E+04  0.50400001928E-02 0.  1.
       -1    1    3    3    0  502  0.62199086089E+03  0.11022212158E+04  0.13556885360E+04  0.18546308653E+04  0.50400001928E-02 0. -1.
</event>
<event>
 5   0  0.7268013E-07  0.2222139E+04  0.7818609E-02  0.8509270E-01
       -2   -1    0    0    0  501  0.00000000000E+00  0.00000000000E+00  0.53364299059E+03  0.53364299060E+03  0.25500000920E-02 0. -1.
        2   -1    0    0  501    0  0.00000000000E+00  0.00000000000E+00 -0.23132982474E+04  0.23132982474E+04  0.25500000920E-02 0.  1.
    10030    2    1    2    0    0  0.00000000000E+00  0.00000000000E+00 -0.17796552568E+04  0.28469412380E+04  0.22221389649E+04 0.  0.
        4    1    3    3  502    0  0.30840483986E+03  0.48176382609E+03 -0.21101486496E+04  0.21863071298E+04  0.12699999809E+01 0.  1.
       -4    1    3    3    0  502 -0.30840483986E+03 -0.48176382609E+03  0.33049339279E+03  0.66063410823E+03  0.12699999809E+01 0. -1.
</event>
<event>
 5   0  0.5533705E-07  0.1985449E+04  0.7818609E-02  0.8613454E-01
       -2   -1    0    0    0  501  0.00000000000E+00  0.00000000000E+00  0.44625188464E+03  0.44625188464E+03  0.25500000920E-02 0. -1.
        2   -1    0    0  501    0  0.00000000000E+00  0.00000000000E+00 -0.22083986095E+04  0.22083986095E+04  0.25500000920E-02 0.  1.
    10030    2    1    2    0    0  0.00000000000E+00  0.00000000000E+00 -0.17621467249E+04  0.26546504942E+04  0.19854491094E+04 0.  0.
        1    1    3    3  502    0  0.84983526815E+03  0.50617092604E+03 -0.76862528846E+03  0.12526826507E+04  0.50400001928E-02 0. -1.
       -1    1    3    3    0  502 -0.84983526815E+03 -0.50617092604E+03 -0.99352143645E+03  0.14019678435E+04  0.50400001928E-02 0.  1.
</event>
<event>
 5   0  0.5533705E-07  0.3795520E+04  0.7818609E-02  0.8047117E-01
        2   -1    0    0  501    0  0.00000000000E+00  0.00000000000E+00  0.15076181425E+04  0.15076181425E+04  0.25500000920E-02 0. -1.
       -2   -1    0    0    0  501  0.00000000000E+00  0.00000000000E+00 -0.23888631122E+04  0.23888631122E+04  0.25500000920E-02 0.  1.
    10030    2    1    2    0    0  0.00000000000E+00  0.00000000000E+00 -0.88124496968E+03  0.38964812547E+04  0.37955201846E+04 0.  0.
        1    1    3    3  502    0  0.46256440672E+03 -0.10452169524E+04 -0.19958619662E+04  0.22999802817E+04  0.50400001928E-02 0.  1.
       -1    1    3    3    0  502 -0.46256440672E+03  0.10452169524E+04  0.11146169965E+04  0.15965009730E+04  0.50400001928E-02 0. -1.
</event>
<event>
 5   0  0.3471602E-07  0.3940288E+04  0.7818609E-02  0.8016702E-01
        1   -1    0    0  501    0  0.00000000000E+00  0.00000000000E+00  0.26088925318E+04  0.26088925318E+04  0.50400001928E-02 0.  1.
       -1   -1    0    0    0  501  0.00000000000E+00  0.00000000000E+00 -0.14877835749E+04  0.14877835749E+04  0.50400001928E-02 0. -1.
    10030    2    1    2    0    0  0.00000000000E+00  0.00000000000E+00  0.11211089569E+04  0.40966761067E+04  0.39402880389E+04 0.  0.
        5    1    3    3  502    0  0.35039330018E+03 -0.53284141411E+03  0.24986065255E+04  0.25787113248E+04  0.46999998093E+01 0.  1.
       -5    1    3    3    0  502 -0.35039330018E+03  0.53284141411E+03 -0.13774975686E+04  0.15179647819E+04  0.46999998093E+01 0. -1.
</event>
<event>
 5   0  0.4316671E-07  0.3737507E+04  0.7818609E-02  0.8059700E-01
        1   -1    0    0  501    0  0.00000000000E+00  0.00000000000E+00  0.11556364616E+04  0.11556364616E+04  0.50400001928E-02 0.  1.
       -1   -1    0    0    0  501  0.00000000000E+00  0.00000000000E+00 -0.30219188228E+04  0.30219188228E+04  0.50400001928E-02 0. -1.
    10030    2    1    2    0    0  0.00000000000E+00  0.00000000000E+00 -0.18662823612E+04  0.41775552845E+04  0.37375069636E+04 0.  0.
        2    1    3    3  502    0 -0.78116433300E+02 -0.91387685214E+02  0.11513094020E+04  0.11575695336E+04  0.25500000920E-02 0.  1.
       -2    1    3    3    0  502  0.78116433300E+02  0.91387685214E+02 -0.30175917632E+04  0.30199857508E+04  0.25500000920E-02 0. -1.
</event>
<event>
 5   0  0.3471602E-07  0.3808058E+04  0.7818609E-02  0.8044428E-01
       -1   -1    0    0    0  501  0.00000000000E+00  0.00000000000E+00  0.19450417746E+04  0.19450417746E+04  0.50400001928E-02 0.  1.
        1   -1    0    0  501    0  0.00000000000E+00  0.00000000000E+00 -0.18638810025E+04  0.18638810025E+04  0.50400001928E-02 0. -1.
    10030    2    1    2    0    0  0.00000000000E+00  0.00000000000E+00  0.81160772082E+02  0.38089227772E+04  0.38080579895E+04 0.  0.
        5    1    3    3  502    0  0.40579879774E+03 -0.15222297753E+04  0.11101445821E+04  0.19272517314E+04  0.46999998093E+01 0.  1.
       -5    1    3    3    0  502 -0.40579879774E+03  0.15222297753E+04 -0.10289838100E+04  0.18816710457E+04  0.46999998093E+01 0. -1.
</event>
<event>
 5   0  0.4627905E-07  0.2941356E+04  0.7818609E-02  0.8260678E-01
        1   -1    0    0  501    0  0.00000000000E+00  0.00000000000E+00  0.10815166188E+04  0.10815166188E+04  0.50400001928E-02 0. -1.
       -1   -1    0    0    0  501  0.00000000000E+00  0.00000000000E+00 -0.19998704062E+04  0.19998704062E+04  0.50400001928E-02 0.  1.
    10030    2    1    2    0    0  0.00000000000E+00  0.00000000000E+00 -0.91835378736E+03  0.30813870250E+04  0.29413555241E+04 0.  0.
        1    1    3    3  502    0 -0.60503367823E+03  0.10354023970E+04 -0.13510408118E+04  0.18064980351E+04  0.50400001928E-02 0.  1.
       -1    1    3    3    0  502  0.60503367823E+03 -0.10354023970E+04  0.43268702447E+03  0.12748889899E+04  0.50400001928E-02 0. -1.
</event>
<event>
 5   0  0.7268013E-07  0.3894652E+04  0.7818609E-02  0.8026142E-01
        2   -1    0    0  501    0  0.00000000000E+00  0.00000000000E+00  0.14026065599E+04  0.14026065599E+04  0.25500000920E-02 0.  1.
       -2   -1    0    0    0  501  0.00000000000E+00  0.00000000000E+00 -0.27035933102E+04  0.27035933102E+04  0.25500000920E-02 0. -1.
    10030    2    1    2    0    0  0.00000000000E+00  0.00000000000E+00 -0.13009867504E+04  0.41061998701E+04  0.38946515696E+04 0.  0.
        4    1    3    3  502    0  0.17398442043E+03 -0.14684709233E+04  0.68537270941E+03  0.16298511573E+04  0.12699999809E+01 0.  1.
       -4    1    3    3    0  502 -0.17398442043E+03  0.14684709233E+04 -0.19863594598E+04  0.24763487128E+04  0.12699999809E+01 0. -1.
</event>
<event>
 5   0  0.5533705E-07  0.2329099E+04  0.7818609E-02  0.8466536E-01
        2   -1    0    0  501    0  0.00000000000E+00  0.00000000000E+00  0.14687449743E+04  0.14687449743E+04  0.25500000920E-02 0.  1.
       -2   -1    0    0    0  501  0.00000000000E+00  0.00000000000E+00 -0.92335632673E+03  0.92335632674E+03  0.25500000920E-02 0. -1.
    10030    2    1    2    0    0  0.00000000000E+00  0.00000000000E+00  0.54538864755E+03  0.23921013010E+04  0.23290985075E+04 0.  0.
        1    1    3    3  502    0  0.65847017336E+03 -0.41866370086E+03  0.11605510554E+04  0.13984781070E+04  0.50400001928E-02 0.  1.
       -1    1    3    3    0  502 -0.65847017336E+03  0.41866370086E+03 -0.61516240784E+03  0.99362319400E+03  0.50400001928E-02 0. -1.
</event>
<event>
 5   0  0.7268013E-07  0.3901145E+04  0.7818609E-02  0.8024791E-01
       -2   -1    0    0    0  501  0.00000000000E+00  0.00000000000E+00  0.12641605913E+04  0.12641605913E+04  0.25500000920E-02 0.  1.
        2   -1    0    0  501    0  0.00000000000E+00  0.00000000000E+00 -0.30096919694E+04  0.30096919694E+04  0.25500000920E-02 0. -1.
    10030    2    1    2    0    0  0.00000000000E+00  0.00000000000E+00 -0.17455313781E+04  0.42738525607E+04  0.39011454624E+04 0.  0.
        4    1    3    3  502    0 -0.70278612869E+03 -0.16479529993E+04 -0.27655727419E+02  0.17917655770E+04  0.12699999809E+01 0.  1.
       -4    1    3    3    0  502  0.70278612869E+03  0.16479529993E+04 -0.17178756507E+04  0.24820869837E+04  0.12699999809E+01 0. -1.
</event>
<event>
 5   0  0.5742977E-07  0.1980269E+04  0.7818609E-02  0.8615901E-01
       -1   -1    0    0    0  501  0.00000000000E+00  0.00000000000E+00  0.67684066103E+03  0.67684066105E+03  0.50400001928E-02 0. -1.
        1   -1    0    0  501    0  0.00000000000E+00  0.00000000000E+00 -0.14484449192E+04  0.14484449192E+04  0.50400001928E-02 0.  1.
    10030    2    1    2    0    0  0.00000000000E+00  0.00000000000E+00 -0.77160425816E+03  0.21252855803E+04  0.19802690894E+04 0.  0.
        1    1    3    3  502    0 -0.31102930614E+02 -0.90611196393E+03 -0.81288879859E+03  0.12177004896E+04  0.50400001928E-02 0.  1.
       -1    1    3    3    0  502  0.31102930614E+02  0.90611196393E+03  0.41284540427E+02  0.90758509066E+03  0.50400001928E-02 0. -1.
</event>
<event>
 5   0  0.5533705E-07  0.3964786E+04  0.7818609E-02  0.8011688E-01
       -2   -1    0    0    0  501  0.00000000000E+00  0.00000000000E+00  0.15279441064E+04  0.15279441064E+04  0.25500000920E-02 0.  1.
        2   -1    0    0  501    0  0.00000000000E+00  0.00000000000E+00 -0.25720066210E+04  0.25720066210E+04  0.25500000920E-02 0. -1.
    10030    2    1    2    0    0  0.00000000000E+00  0.00000000000E+00 -0.10440625146E+04  0.40999507274E+04  0.39647861774E+04 0.  0.
        1    1    3    3  502    0 -0.73258185723E+03 -0.57007934801E+03 -0.23333789075E+04  0.25112394881E+04  0.50400001928E-02 0. -1.
       -1    1    3    3    0  502  0.73258185723E+03  0.57007934801E+03  0.12893163929E+04  0.15887112392E+04  0.50400001928E-02 0.  1.
</event>
<event>
 5   0  0.1015219E-06  0.3009776E+04  0.7818609E-02  0.8240945E-01
        2   -1    0    0  501    0  0.00000000000E+00  0.00000000000E+00  0.15574116260E+04  0.15574116260E+04  0.25500000920E-02 0.  1.
       -2   -1    0    0    0  501  0.00000000000E+00  0.00000000000E+00 -0.14541359976E+04  0.14541359976E+04  0.25500000920E-02 0. -1.
    10030    2    1    2    0    0  0.00000000000E+00  0.00000000000E+00  0.10327562844E+03  0.30115476236E+04  0.30097762764E+04 0.  0.
        3    1    3    3  502    0 -0.13485287183E+04 -0.66349083394E+03 -0.25469251851E+02  0.15031295632E+04  0.10100000352E+00 0.  1.
       -3    1    3    3    0  502  0.13485287183E+04  0.66349083394E+03  0.12874488029E+03  0.15084180605E+04  0.10100000352E+00 0. -1.
</event>
<event>
 5   0  0.7268013E-07  0.3928690E+04  0.7818609E-02  0.8019089E-01
       -2   -1    0    0    0  501  0.00000000000E+00  0.00000000000E+00  0.27572185257E+04  0.27572185257E+04  0.25500000920E-02 0.  1.
        2   -1    0    0  501    0  0.00000000000E+00  0.00000000000E+00 -0.13994721696E+04  0.13994721696E+04  0.25500000920E-02 0. -1.
    10030    2    1    2    0    0  0.00000000000E+00  0.00000000000E+00  0.13577463561E+04  0.41566906954E+04  0.39286896504E+04 0.  0.
        4    1    3    3  502    0  0.74737773390E+03 -0.70037027924E+03 -0.10945766571E+04  0.14990635998E+04  0.12699999809E+01 0. -1.
       -4    1    3    3    0  502 -0.74737773390E+03  0.70037027924E+03  0.24523230132E+04  0.26576270956E+04  0.12699999809E+01 0.  1.
</event>
<event>
 5   0  0.4627905E-07  0.3989751E+04  0.7818609E-02  0.8006617E-01
        1   -1    0    0  501    0  0.00000000000E+00  0.00000000000E+00  0.17387886111E+04  0.17387886111E+04  0.50400001928E-02 0. -1.
       -1   -1    0    0    0  501  0.00000000000E+00  0.00000000000E+00 -0.22886786528E+04  0.22886786528E+04  0.50400001928E-02 0.  1.
    10030    2    1    2    0    0  0.00000000000E+00  0.00000000000E+00 -0.54989004163E+03  0.40274672639E+04  0.39897510579E+04 0.  0.
        1    1    3    3  502    0  0.14717756316E+04 -0.54098564281E+03 -0.15197852635E+04  0.21836978323E+04  0.50400001928E-02 0.  1.
       -1    1    3    3    0  502 -0.14717756316E+04  0.54098564281E+03  0.96989522192E+03  0.18437694316E+04  0.50400001928E-02 0. -1.
</event>
<event>
 5   0  0.4316671E-07  0.3150868E+04  0.7818609E-02  0.8201915E-01
       -1   -1    0    0    0  501  0.00000000000E+00  0.00000000000E+00  0.14708548309E+04  0.14708548309E+04  0.50400001928E-02 0.  1.
        1   -1    0    0  501    0  0.00000000000E+00  0.00000000000E+00 -0.16874487256E+04  0.16874487256E+04  0.50400001928E-02 0. -1.
    10030    2    1    2    0    0  0.00000000000E+00  0.00000000000E+00 -0.21659389474E+03  0.31583035565E+04  0.31508678867E+04 0.  0.
        2    1    3    3  502    0 -0.12635766194E+04  0.26940762896E+03  0.79537691321E+03  0.15171785583E+04  0.25500000920E-02 0.  1.
       -2    1    3    3    0  502  0.12635766194E+04 -0.26940762896E+03 -0.10119708079E+04  0.16411249982E+04  0.25500000920E-02 0. -1.
</event>
<event>
 5   0  0.5385714E-07  0.3889271E+04  0.7818609E-02  0.8027264E-01
       -1   -1    0    0    0  501  0.00000000000E+00  0.00000000000E+00  0.16918721822E+04  0.16918721822E+04  0.50400001928E-02 0. -1.
        1   -1    0    0  501    0  0.00000000000E+00  0.00000000000E+00 -0.22351618227E+04  0.22351618227E+04  0.50400001928E-02 0.  1.
    10030    2    1    2    0    0  0.00000000000E+00  0.00000000000E+00 -0.54328964043E+03  0.39270340049E+04  0.38892714539E+04 0.  0.
        3    1    3    3  502    0  0.26501687116E+03  0.76420982149E+03 -0.20572489074E+04  0.22105482737E+04  0.10100000352E+00 0.  1.
       -3    1    3    3    0  502 -0.26501687116E+03 -0.76420982149E+03  0.15139592669E+04  0.17164857312E+04  0.10100000352E+00 0. -1.
</event>
<event>
 5   0  0.7268013E-07  0.3886552E+04  0.7818609E-02  0.8027832E-01
        2   -1    0    0  501    0  0.00000000000E+00  0.00000000000E+00  0.27674864300E+04  0.27674864300E+04  0.25500000920E-02 0. -1.
       -2   -1    0    0    0  501  0.00000000000E+00  0.00000000000E+00 -0.13645310829E+04  0.13645310829E+04  0.25500000920E-02 0.  1.
    10030    2    1    2    0    0  0.00000000000E+00  0.00000000000E+00  0.14029553472E+04  0.41320175129E+04  0.38865518164E+04 0.  0.
        4    1    3    3  502    0 -0.76332129271E+03  0.17445983842E+04  0.28966806267E+03  0.19261858990E+04  0.12699999809E+01 0.  1.
       -4    1    3    3    0  502  0.76332129271E+03 -0.17445983842E+04  0.11132872845E+04  0.22058316139E+04  0.12699999809E+01 0. -1.
</event>
<event>
 5   0  0.1015219E-06  0.3838634E+04  0.7818609E-02  0.8037915E-01
        2   -1    0    0  501    0  0.00000000000E+00  0.00000000000E+00  0.30930900810E+04  0.30930900810E+04  0.25500000920E-02 0. -1.
       -2   -1    0    0    0  501  0.00000000000E+00  0.00000000000E+00 -0.11909701309E+04  0.11909701309E+04  0.25500000920E-02 0.  1.
    10030    2    1    2    0    0  0.00000000000E+00  0.00000000000E+00  0.19021199501E+04  0.42840602118E+04  0.38386340792E+04 0.  0.
        3    1    3    3  502    0 -0.35891461705E+03  0.87522072227E+03 -0.91273858662E+03  0.13145047557E+04  0.10100000352E+00 0.  1.
       -3    1    3    3    0  502  0.35891461705E+03 -0.87522072227E+03  0.28148585367E+04  0.29695554561E+04  0.10100000352E+00 0. -1.
</event>
<event>
 5   0  0.1034683E-06  0.3800844E+04  0.7818609E-02  0.8045974E-01
       -2   -1    0    0    0  501  0.00000000000E+00  0.00000000000E+00  0.15922117865E+04  0.15922117865E+04  0.25500000920E-02 0. -1.
        2   -1    0    0  501    0  0.00000000000E+00  0.00000000000E+00 -0.22682935513E+04  0.22682935513E+04  0.25500000920E-02 0.  1.
    10030    2    1    2    0    0  0.00000000000E+00  0.00000000000E+00 -0.67608176480E+03  0.38605053378E+04  0.38008439735E+04 0.  0.
        2    1    3    3  502    0 -0.48651450683E+03 -0.13469041551E+04 -0.16069534528E+04  0.21524745220E+04  0.25500000920E-02 0.  1.
       -2    1    3    3    0  502  0.48651450683E+03  0.13469041551E+04  0.93087168797E+03  0.17080308158E+04  0.25500000920E-02 0. -1.
</event>
<event>
 5   0  0.5533705E-07  0.3109621E+04  0.7818609E-02  0.8213103E-01
       -2   -1    0    0    0  501  0.00000000000E+00  0.00000000000E+00  0.14762200240E+04  0.14762200240E+04  0.25500000920E-02 0. -1.
        2   -1    0    0  501    0  0.00000000000E+00  0.00000000000E+00 -0.16375845730E+04  0.16375845730E+04  0.25500000920E-02 0.  1.
    10030    2    1    2    0    0  0.00000000000E+00  0.00000000000E+00 -0.16136454898E+03  0.31138045970E+04  0.31096206442E+04 0.  0.
        1    1    3    3  502    0  0.12819765454E+04  0.70985523574E+03 -0.60107066540E+03  0.15838700273E+04  0.50400001928E-02 0. -1.
       -1    1    3    3    0  502 -0.12819765454E+04 -0.70985523574E+03  0.43970611642E+03  0.15299345697E+04  0.50400001928E-02 0.  1.
</event>
<event>
 5   0  0.1034683E-06  0.2228804E+04  0.7818609E-02  0.8506534E-01
        2   -1    0    0  501    0  0.00000000000E+00  0.00000000000E+00  0.17413870123E+04  0.17413870123E+04  0.25500000920E-02 0.  1.
       -2   -1    0    0    0  501  0.00000000000E+00  0.00000000000E+00 -0.71316267063E+03  0.71316267064E+03  0.25500000920E-02 0. -1.
    10030    2    1    2    0    0  0.00000000000E+00  0.00000000000E+00  0.10282243417E+04  0.24545496829E+04  0.22288043542E+04 0.  0.
        2    1    3    3  502    0 -0.66036081666E+02  0.41313016903E+02  0.17383852848E+04  0.17401295722E+04  0.25500000920E-02 0.  1.
       -2    1    3    3    0  502  0.66036081666E+02 -0.41313016903E+02 -0.71016094317E+03  0.71442011076E+03  0.25500000920E-02 0. -1.
</event>
<event>
 5   0  0.5533705E-07  0.3325283E+04  0.7818609E-02  0.8156492E-01
       -2   -1    0    0    0  501  0.00000000000E+00  0.00000000000E+00  0.11528734005E+04  0.11528734005E+04  0.25500000920E-02 0.  1.
        2   -1    0    0  501    0  0.00000000000E+00  0.00000000000E+00 -0.23978141034E+04  0.23978141034E+04  0.25500000920E-02 0. -1.
    10030    2    1    2    0    0  0.00000000000E+00  0.00000000000E+00 -0.12449407029E+04  0.35506875039E+04  0.33252826040E+04 0.  0.
        1    1    3    3  502    0  0.15896853856E+04 -0.13524034171E+03 -0.11221510641E+04  0.19505416135E+04  0.50400001928E-02 0.  1.
       -1    1    3    3    0  502 -0.15896853856E+04  0.13524034171E+03 -0.12278963882E+03  0.16001458904E+04  0.50400001928E-02 0. -1.
</event>
<event>
 5   0  0.5533705E-07  0.2832140E+04  0.7818609E-02  0.8293359E-01
       -2   -1    0    0    0  501  0.00000000000E+00  0.00000000000E+00  0.24042386951E+04  0.24042386951E+04  0.25500000920E-02 0. -1.
        2   -1    0    0  501    0  0.00000000000E+00  0.00000000000E+00 -0.83404940205E+03  0.83404940205E+03  0.25500000920E-02 0.  1.
    10030    2    1    2    0    0  0.00000000000E+00  0.00000000000E+00  0.15701892930E+04  0.32382880971E+04  0.28321397183E+04 0.  0.
        1    1    3    3  502    0 -0.75524118574E+03 -0.10868059976E+04  0.20915646952E+03  0.13398816939E+04  0.50400001928E-02 0.  1.
       -1    1    3    3    0  502  0.75524118574E+03  0.10868059976E+04  0.13610328235E+04  0.18984064032E+04  0.50400001928E-02 0. -1.
</event>
<event>
 5   0  0.7268013E-07  0.2306449E+04  0.7818609E-02  0.8475383E-01
        2   -1    0    0  501    0  0.00000000000E+00  0.00000000000E+00  0.12509747068E+04  0.12509747068E+04  0.25500000920E-02 0. -1.
       -2   -1    0    0    0  501  0.00000000000E+00  0.00000000000E+00 -0.10631125659E+04  0.10631125659E+04  0.25500000920E-02 0.  1.
    10030    2    1    2    0    0  0.00000000000E+00  0.00000000000E+00  0.18786214087E+03  0.23140872728E+04  0.23064491588E+04 0.  0.
        4    1    3    3  502    0  0.90782834947E+03 -0.37009791973E+02 -0.61863444233E+03  0.10991961713E+04  0.12699999809E+01 0.  1.
       -4    1    3    3    0  502 -0.90782834947E+03  0.37009791973E+02  0.80649658321E+03  0.12148911015E+04  0.12699999809E+01 0. -1.
</event>
<event>
 5   0  0.3471602E-07  0.4079187E+04  0.7818609E-02  0.7988760E-01
       -1   -1    0    0    0  501  0.00000000000E+00  0.00000000000E+00  0.15611150163E+04  0.15611150163E+04  0.50400001928E-02 0.  1.
        1   -1    0    0  501    0  0.00000000000E+00  0.00000000000E+00 -0.26647247137E+04  0.26647247138E+04  0.50400001928E-02 0. -1.
    10030    2    1    2    0    0  0.00000000000E+00  0.00000000000E+00 -0.11036096975E+04  0.42258397300E+04  0.40791870587E+04 0.  0.
        5    1    3    3  502    0  0.72356297813E+03  0.72512410791E+03  0.12752832236E+04  0.16357621299E+04  0.46999998093E+01 0.  1.
       -5    1    3    3    0  502 -0.72356297813E+03 -0.72512410791E+03 -0.23788929210E+04  0.25900776002E+04  0.46999998093E+01 0. -1.
</event>
<event>
 5   0  0.3191750E-07  0.3352992E+04  0.7818609E-02  0.8149541E-01
       -4   -1    0    0    0  501  0.00000000000E+00  0.00000000000E+00  0.15670013688E+04  0.15670018835E+04  0.12699999809E+01 0. -1.
        4   -1    0    0  501    0  0.00000000000E+00  0.00000000000E+00 -0.17936410648E+04  0.17936415144E+04  0.12699999809E+01 0.  1.
    10030    2    1    2    0    0  0.00000000000E+00  0.00000000000E+00 -0.22663969599E+03  0.33606433979E+04  0.33529924688E+04 0.  0.
        4    1    3    3  502    0 -0.67551176084E+03  0.12773035181E+04 -0.96544662206E+03  0.17377885974E+04  0.12699999809E+01 0.  1.
       -4    1    3    3    0  502  0.67551176084E+03 -0.12773035181E+04  0.73880692607E+03  0.16228548004E+04  0.12699999809E+01 0. -1.
</event>
<event>
 5   0  0.1035864E-06  0.2129595E+04  0.7818609E-02  0.8548318E-01
       -2   -1    0    0    0  501  0.00000000000E+00  0.00000000000E+00  0.52660527966E+03  0.52660527967E+03  0.25500000920E-02 0. -1.
        2   -1    0    0  501    0  0.00000000000E+00  0.00000000000E+00 -0.21530232015E+04  0.21530232015E+04  0.25500000920E-02 0.  1.
    10030    2    1    2    0    0  0.00000000000E+00  0.00000000000E+00 -0.16264179218E+04  0.26796284812E+04  0.21295946893E+04 0.  0.
        5    1    3    3  502    0  0.15558085129E+03  0.10119097255E+03 -0.21325009803E+04  0.21405671059E+04  0.46999998093E+01 0.  1.
       -5    1    3    3    0  502 -0.15558085129E+03 -0.10119097255E+03  0.50608305844E+03  0.53906137522E+03  0.46999998093E+01 0. -1.
</event>
<event>
 5   0  0.5385714E-07  0.2277837E+04  0.7818609E-02  0.8486711E-01
        1   -1    0    0  501    0  0.00000000000E+00  0.00000000000E+00  0.10776488194E+04  0.10776488194E+04  0.50400001928E-02 0. -1.
       -1   -1    0    0    0  501  0.00000000000E+00  0.00000000000E+00 -0.12036712500E+04  0.12036712500E+04  0.50400001928E-02 0.  1.
    10030    2    1    2    0    0  0.00000000000E+00  0.00000000000E+00 -0.12602243063E+03  0.22813200694E+04  0.22778366065E+04 0.  0.
        3    1    3    3  502    0  0.36200185419E+03 -0.67293361613E+03  0.78282156423E+03  0.10939353755E+04  0.10100000352E+00 0. -1.
       -3    1    3    3    0  502 -0.36200185419E+03  0.67293361613E+03 -0.90884399486E+03  0.11873846939E+04  0.10100000352E+00 0.  1.
</event>
<event>
 5   0  0.5533705E-07  0.3733063E+04  0.7818609E-02  0.8060674E-01
       -2   -1    0    0    0  501  0.00000000000E+00  0.00000000000E+00  0.13392832558E+04  0.13392832558E+04  0.25500000920E-02 0.  1.
        2   -1    0    0  501    0  0.00000000000E+00  0.00000000000E+00 -0.26013464940E+04  0.26013464940E+04  0.25500000920E-02 0. -1.
    10030    2    1    2    0    0  0.00000000000E+00  0.00000000000E+00 -0.12620632381E+04  0.39406297498E+04  0.37330629794E+04 0.  0.
        1    1    3    3  502    0  0.40709825718E+02 -0.18385639338E+04 -0.96810638857E+03  0.20782696187E+04  0.50400001928E-02 0.  1.
       -1    1    3    3    0  502 -0.40709825718E+02  0.18385639338E+04 -0.29395684956E+03  0.18623601311E+04  0.50400001928E-02 0. -1.
</event>
<event>
 5   0  0.5385714E-07  0.2788317E+04  0.7818609E-02  0.8306905E-01
        1   -1    0    0  501    0  0.00000000000E+00  0.00000000000E+00  0.14476088291E+04  0.14476088291E+04  0.50400001928E-02 0. -1.
       -1   -1    0    0    0  501  0.00000000000E+00  0.00000000000E+00 -0.13426821569E+04  0.13426821570E+04  0.50400001928E-02 0.  1.
    10030    2    1    2    0    0  0.00000000000E+00  0.00000000000E+00  0.10492667212E+03  0.27902909860E+04  0.27883174461E+04 0.  0.
        3    1    3    3  502    0  0.51414248198E+03 -0.11942205049E+04 -0.45105621892E+03  0.13762110408E+04  0.10100000352E+00 0.  1.
       -3    1    3    3    0  502 -0.51414248198E+03  0.11942205049E+04  0.55598289104E+03  0.14140799452E+04  0.10100000352E+00 0. -1.
</event>
<event>
 5   0  0.5533705E-07  0.3928935E+04  0.7818609E-02  0.8019038E-01
        2   -1    0    0  501    0  0.00000000000E+00  0.00000000000E+00  0.20795999665E+04  0.20795999665E+04  0.25500000920E-02 0. -1.
       -2   -1    0    0    0  501  0.00000000000E+00  0.00000000000E+00 -0.18557093622E+04  0.18557093622E+04  0.25500000920E-02 0.  1.
    10030    2    1    2    0    0  0.00000000000E+00  0.00000000000E+00  0.22389060421E+03  0.39353093287E+04  0.39289352896E+04 0.  0.
        1    1    3    3  502    0  0.19132355503E+04 -0.37179474621E+03 -0.13428175264E+03  0.19536461279E+04  0.50400001928E-02 0.  1.
       -1    1    3    3    0  502 -0.19132355503E+04  0.37179474621E+03  0.35817235684E+03  0.19816632008E+04  0.50400001928E-02 0. -1.
</event>
<event>
 5   0  0.4627905E-07  0.2642777E+04  0.7818609E-02  0.8353814E-01
       -1   -1    0    0    0  501  0.00000000000E+00  0.00000000000E+00  0.12232644084E+04  0.12232644084E+04  0.50400001928E-02 0. -1.
        1   -1    0    0  501    0  0.00000000000E+00  0.00000000000E+00 -0.14273835009E+04  0.14273835009E+04  0.50400001928E-02 0.  1.
    10030    2    1    2    0    0  0.00000000000E+00  0.00000000000E+00 -0.20411909255E+03  0.26506479093E+04  0.26427768985E+04 0.  0.
        1    1    3    3  502    0 -0.10537773763E+04 -0.17092642190E+03  0.67897972054E+03  0.12651782726E+04  0.50400001928E-02 0. -1.
       -1    1    3    3    0  502  0.10537773763E+04  0.17092642190E+03 -0.88309881309E+03  0.13854696367E+04  0.50400001928E-02 0.  1.
</event>
<event>
 5   0  0.7268013E-07  0.2753290E+04  0.7818609E-02  0.8317918E-01
        2   -1    0    0  501    0  0.00000000000E+00  0.00000000000E+00  0.12071417774E+04  0.12071417774E+04  0.25500000920E-02 0. -1.
       -2   -1    0    0    0  501  0.00000000000E+00  0.00000000000E+00 -0.15699495806E+04  0.15699495806E+04  0.25500000920E-02 0.  1.
    10030    2    1    2    0    0  0.00000000000E+00  0.00000000000E+00 -0.36280780325E+03  0.27770913580E+04  0.27532901969E+04 0.  0.
        4    1    3    3  502    0  0.86880931440E+02 -0.34300815812E+02 -0.15667490288E+04  0.15695314506E+04  0.12699999809E+01 0.  1.
       -4    1    3    3    0  502 -0.86880931440E+02  0.34300815812E+02  0.12039412256E+04  0.12075599073E+04  0.12699999809E+01 0. -1.
</event>
<event>
 5   0  0.7268013E-07  0.3987020E+04  0.7818609E-02  0.8007170E-01
        2   -1    0    0  501    0  0.00000000000E+00  0.00000000000E+00  0.15088174341E+04  0.15088174341E+04  0.25500000920E-02 0.  1.
       -2   -1    0    0    0  501  0.00000000000E+00  0.00000000000E+00 -0.26339051387E+04  0.26339051387E+04  0.25500000920E-02 0. -1.
    10030    2    1    2    0    0  0.00000000000E+00  0.00000000000E+00 -0.11250877046E+04  0.41427225727E+04  0.39870199362E+04 0.  0.
        4    1    3    3  502    0 -0.18504234853E+03 -0.48480503002E+03  0.14374103454E+04  0.15282102937E+04  0.12699999809E+01 0.  1.
       -4    1    3    3    0  502  0.18504234853E+03  0.48480503002E+03 -0.25624980500E+04  0.26145122790E+04  0.12699999809E+01 0. -1.
</event>
<event>
 5   0  0.3471602E-07  0.3940625E+04  0.7818609E-02  0.8016633E-01
       -1   -1    0    0    0  501  0.00000000000E+00  0.00000000000E+00  0.15426501128E+04  0.15426501128E+04  0.50400001928E-02 0. -1.
        1   -1    0    0  501    0  0.00000000000E+00  0.00000000000E+00 -0.25165340062E+04  0.25165340062E+04  0.50400001928E-02 0.  1.
    10030    2    1    2    0    0  0.00000000000E+00  0.00000000000E+00 -0.97388389345E+03  0.40591841190E+04  0.39406250613E+04 0.  0.
        5    1    3    3  502    0 -0.49571827264E+03  0.29424012545E+03 -0.24277174611E+04  0.24952250436E+04  0.46999998093E+01 0.  1.
       -5    1    3    3    0  502  0.49571827264E+03 -0.29424012545E+03  0.14538335676E+04  0.15639590754E+04  0.46999998093E+01 0. -1.
</event>
<event>
 5   0  0.5385714E-07  0.3871809E+04  0.7818609E-02  0.8030918E-01
        1   -1    0    0  501    0  0.00000000000E+00  0.00000000000E+00  0.28703500934E+04  0.28703500934E+04  0.50400001928E-02 0. -1.
       -1   -1    0    0    0  501  0.00000000000E+00  0.00000000000E+00 -0.13056686450E+04  0.13056686450E+04  0.50400001928E-02 0.  1.
    10030    2    1    2    0    0  0.00000000000E+00  0.00000000000E+00  0.15646814483E+04  0.41760187384E+04  0.38718089401E+04 0.  0.
        3    1    3    3  502    0  0.11325192955E+04 -0.78286215159E+03 -0.68556672483E+03  0.15380100284E+04  0.10100000352E+00 0. -1.
       -3    1    3    3    0  502 -0.11325192955E+04  0.78286215159E+03  0.22502481732E+04  0.26380087100E+04  0.10100000352E+00 0.  1.
</event>
<event>
 5   0  0.1035864E-06  0.3738963E+04  0.7818609E-02  0.8059382E-01
       -2   -1    0    0    0  501  0.00000000000E+00  0.00000000000E+00  0.23230973067E+04  0.23230973067E+04  0.25500000920E-02 0.  1.
        2   -1    0    0  501    0  0.00000000000E+00  0.00000000000E+00 -0.15044400918E+04  0.15044400918E+04  0.25500000920E-02 0. -1.
    10030    2    1    2    0    0  0.00000000000E+00  0.00000000000E+00  0.81865721494E+03  0.38275373985E+04  0.37389628109E+04 0.  0.
        5    1    3    3  502    0  0.10380793516E+04 -0.14394667436E+04 -0.19218411844E+03  0.17851134618E+04  0.46999998093E+01 0. -1.
       -5    1    3    3    0  502 -0.10380793516E+04  0.14394667436E+04  0.10108413334E+04  0.20424239367E+04  0.46999998093E+01 0.  1.
</event>
<event>
 5   0  0.7268013E-07  0.4217731E+04  0.7818609E-02  0.7962008E-01
        2   -1    0    0  501    0  0.00000000000E+00  0.00000000000E+00  0.19780031681E+04  0.19780031681E+04  0.25500000920E-02 0.  1.
       -2   -1    0    0    0  501  0.00000000000E+00  0.00000000000E+00 -0.22483852236E+04  0.22483852236E+04  0.25500000920E-02 0. -1.
    10030    2    1    2    0    0  0.00000000000E+00  0.00000000000E+00 -0.27038205550E+03  0.42263883918E+04  0.42177307148E+04 0.  0.
        4    1    3    3  502    0  0.67742551430E+03 -0.17568890048E+04 -0.10867439624E+04  0.21740695378E+04  0.12699999809E+01 0. -1.
       -4    1    3    3    0  502 -0.67742551430E+03  0.17568890048E+04  0.81636190689E+03  0.20523188540E+04  0.12699999809E+01 0.  1.
</event>
<event>
 5   0  0.5385714E-07  0.3928759E+04  0.7818609E-02  0.8019074E-01
        1   -1    0    0  501    0  0.00000000000E+00  0.00000000000E+00  0.26904319120E+04  0.26904319120E+04  0.50400001928E-02 0.  1.
       -1   -1    0    0    0  501  0.00000000000E+00  0.00000000000E+00 -0.14342626642E+04  0.14342626642E+04  0.50400001928E-02 0. -1.
    10030    2    1    2    0    0  0.00000000000E+00  0.00000000000E+00  0.12561692479E+04  0.41246945762E+04  0.39287586039E+04 0.  0.
        3    1    3    3  502    0  0.40593427052E+03 -0.20479518382E+03  0.26344292875E+04  0.26733764008E+04  0.10100000352E+00 0.  1.
       -3    1    3    3    0  502 -0.40593427052E+03  0.20479518382E+03 -0.13782600396E+04  0.14513181754E+04  0.10100000352E+00 0. -1.
</event>
<event>
 5   0  0.1034683E-06  0.3891059E+04  0.7818609E-02  0.8026891E-01
       -2   -1    0    0    0  501  0.00000000000E+00  0.00000000000E+00  0.29412410485E+04  0.29412410485E+04  0.25500000920E-02 0. -1.
        2   -1    0    0  501    0  0.00000000000E+00  0.00000000000E+00 -0.12869003877E+04  0.12869003877E+04  0.25500000920E-02 0.  1.
    10030    2    1    2    0    0  0.00000000000E+00  0.00000000000E+00  0.16543406609E+04  0.42281414362E+04  0.38910585940E+04 0.  0.
        2    1    3    3  502    0 -0.18225254813E+04 -0.26227255022E+03  0.15098458389E+04  0.23811804799E+04  0.25500000920E-02 0. -1.
       -2    1    3    3    0  502  0.18225254813E+04  0.26227255022E+03  0.14449482201E+03  0.18469609563E+04  0.25500000920E-02 0.  1.
</event>
<event>
 5   0  0.7268013E-07  0.3936923E+04  0.7818609E-02  0.8017393E-01
       -2   -1    0    0    0  501  0.00000000000E+00  0.00000000000E+00  0.12328548563E+04  0.12328548563E+04  0.25500000920E-02 0.  1.
        2   -1    0    0  501    0  0.00000000000E+00  0.00000000000E+00 -0.31429817712E+04  0.31429817712E+04  0.25500000920E-02 0. -1.
    10030    2    1    2    0    0  0.00000000000E+00  0.00000000000E+00 -0.19101269149E+04  0.43758366275E+04  0.39369228287E+04 0.  0.
        4    1    3    3  502    0  0.21471764374E+03  0.18769702964E+04 -0.34050330920E+03  0.19196523843E+04  0.12699999809E+01 0.  1.
       -4    1    3    3    0  502 -0.21471764374E+03 -0.18769702964E+04 -0.15696236057E+04  0.24561842432E+04  0.12699999809E+01 0. -1.
</event>
<event>
 5   0  0.3471602E-07  0.2203504E+04  0.7818609E-02  0.8516971E-01
       -1   -1    0    0    0  501  0.00000000000E+00  0.00000000000E+00  0.56959910726E+03  0.56959910729E+03  0.50400001928E-02 0. -1.
        1   -1    0    0  501    0  0.00000000000E+00  0.00000000000E+00 -0.21310736896E+04  0.21310736896E+04  0.50400001928E-02 0.  1.
    10030    2    1    2    0    0  0.00000000000E+00  0.00000000000E+00 -0.15614745824E+04  0.27006727969E+04  0.22035041830E+04 0.  0.
        5    1    3    3  502    0 -0.68599404475E+03  0.17371713150E+03 -0.18156988203E+04  0.19487302962E+04  0.46999998093E+01 0.  1.
       -5    1    3    3    0  502  0.68599404475E+03 -0.17371713150E+03  0.25422423797E+03  0.75194250071E+03  0.46999998093E+01 0. -1.
</event>
<event>
 5   0  0.1035864E-06  0.3937728E+04  0.7818609E-02  0.8017228E-01
        2   -1    0    0  501    0  0.00000000000E+00  0.00000000000E+00  0.32553792047E+04  0.32553792047E+04  0.25500000920E-02 0. -1.
       -2   -1    0    0    0  501  0.00000000000E+00  0.00000000000E+00 -0.11907754751E+04  0.11907754751E+04  0.25500000920E-02 0.  1.
    10030    2    1    2    0    0  0.00000000000E+00  0.00000000000E+00  0.20646037296E+04  0.44461546798E+04  0.39377281364E+04 0.  0.
        5    1    3    3  502    0  0.97899432352E+03 -0.28588311369E+03  0.29338646915E+04  0.31060816407E+04  0.46999998093E+01 0.  1.
       -5    1    3    3    0  502 -0.97899432352E+03  0.28588311369E+03 -0.86926096198E+03  0.13400730391E+04  0.46999998093E+01 0. -1.
</event>
<event>
 5   0  0.1034683E-06  0.3959035E+04  0.7818609E-02  0.8012862E-01
       -2   -1    0    0    0  501  0.00000000000E+00  0.00000000000E+00  0.16855472745E+04  0.16855472745E+04  0.25500000920E-02 0. -1.
        2   -1    0    0  501    0  0.00000000000E+00  0.00000000000E+00 -0.23247577093E+04  0.23247577093E+04  0.25500000920E-02 0.  1.
    10030    2    1    2    0    0  0.00000000000E+00  0.00000000000E+00 -0.63921043484E+03  0.40103049838E+04  0.39590347413E+04 0.  0.
        2    1    3    3  502    0 -0.16290212824E+04  0.25170779832E+02  0.81929730390E+03  0.18236205688E+04  0.25500000920E-02 0.  1.
       -2    1    3    3    0  502  0.16290212824E+04 -0.25170779832E+02 -0.14585077387E+04  0.21866844150E+04  0.25500000920E-02 0. -1.
</event>
<event>
 5   0  0.5533705E-07  0.3765664E+04  0.7818609E-02  0.8053564E-01
        2   -1    0    0  501    0  0.00000000000E+00  0.00000000000E+00  0.18000279514E+04  0.18000279514E+04  0.25500000920E-02 0. -1.
       -2   -1    0    0    0  501  0.00000000000E+00  0.00000000000E+00 -0.19694454145E+04  0.19694454145E+04  0.25500000920E-02 0.  1.
    10030    2    1    2    0    0  0.00000000000E+00  0.00000000000E+00 -0.16941746315E+03  0.37694733659E+04  0.37656642415E+04 0.  0.
        1    1    3    3  502    0 -0.61327853134E+03 -0.15886382565E+04  0.71933145989E+03  0.18485994202E+04  0.50400001928E-02 0.  1.
       -1    1    3    3    0  502  0.61327853134E+03  0.15886382565E+04 -0.88874892304E+03  0.19208739457E+04  0.50400001928E-02 0. -1.
</event>
<event>
 5   0  0.1015219E-06  0.4087186E+04  0.7818609E-02  0.7987186E-01
       -2   -1    0    0    0  501  0.00000000000E+00  0.00000000000E+00  0.16311757955E+04  0.16311757955E+04  0.25500000920E-02 0.  1.
        2   -1    0    0  501    0  0.00000000000E+00  0.00000000000E+00 -0.25602832549E+04  0.25602832549E+04  0.25500000920E-02 0. -1.
    10030    2    1    2    0    0  0.00000000000E+00  0.00000000000E+00 -0.92910745940E+03  0.41914590504E+04  0.40871858656E+04 0.  0.
        3    1    3    3  502    0  0.18907320440E+04  0.24116179437E+03 -0.12204093822E+04  0.22632776550E+04  0.10100000352E+00 0. -1.
       -3    1    3    3    0  502 -0.18907320440E+04 -0.24116179437E+03  0.29130192280E+03  0.19281813954E+04  0.10100000352E+00 0.  1.
</event>
<event>
 5   0  0.1035864E-06  0.2132331E+04  0.7818609E-02  0.8547133E-01
        2   -1    0    0  501    0  0.00000000000E+00  0.00000000000E+00  0.95768382628E+03  0.95768382628E+03  0.25500000920E-02 0.  1.
       -2   -1    0    0    0  501  0.00000000000E+00  0.00000000000E+00 -0.11869359936E+04  0.11869359937E+04  0.25500000920E-02 0. -1.
    10030    2    1    2    0    0  0.00000000000E+00  0.00000000000E+00 -0.22925216737E+03  0.21446198199E+04  0.21323314976E+04 0.  0.
        5    1    3    3  502    0 -0.85558778805E+03 -0.30997340087E+03  0.44406892958E+03  0.10125874167E+04  0.46999998093E+01 0.  1.
       -5    1    3    3    0  502  0.85558778805E+03  0.30997340087E+03 -0.67332109695E+03  0.11320324032E+04  0.46999998093E+01 0. -1.
</event>
<event>
 5   0  0.1034683E-06  0.1925147E+04  0.7818609E-02  0.8642439E-01
       -2   -1    0    0    0  501  0.00000000000E+00  0.00000000000E+00  0.74074192662E+03  0.74074192662E+03  0.25500000920E-02 0.  1.
        2   -1    0    0  501    0  0.00000000000E+00  0.00000000000E+00 -0.12508379737E+04  0.12508379737E+04  0.25500000920E-02 0. -1.
    10030    2    1    2    0    0  0.00000000000E+00  0.00000000000E+00 -0.51009604705E+03  0.19915799003E+04  0.19251474027E+04 0.  0.
        2    1    3    3  502    0  0.59159407925E+03  0.65947241166E+03  0.13431836619E+03  0.89606296645E+03  0.25500000920E-02 0.  1.
       -2    1    3    3    0  502 -0.59159407925E+03 -0.65947241166E+03 -0.64441441324E+03  0.10955169338E+04  0.25500000920E-02 0. -1.
</event>
<event>
 5   0  0.1035864E-06  0.3932545E+04  0.7818609E-02  0.8018294E-01
       -2   -1    0    0    0  501  0.00000000000E+00  0.00000000000E+00  0.14863454348E+04  0.14863454348E+04  0.25500000920E-02 0.  1.
        2   -1    0    0  501    0  0.00000000000E+00  0.00000000000E+00 -0.26011641462E+04  0.26011641462E+04  0.25500000920E-02 0. -1.
    10030    2    1    2    0    0  0.00000000000E+00  0.00000000000E+00 -0.11148187114E+04  0.40875095810E+04  0.39325454626E+04 0.  0.
        5    1    3    3  502    0 -0.11809475924E+04 -0.10766516978E+04  0.63332951890E+03  0.17189951902E+04  0.46999998093E+01 0.  1.
       -5    1    3    3    0  502  0.11809475924E+04  0.10766516978E+04 -0.17481482303E+04  0.23685143908E+04  0.46999998093E+01 0. -1.
</event>
<event>
 5   0  0.1015219E-06  0.3301184E+04  0.7818609E-02  0.8162594E-01
       -2   -1    0    0    0  501  0.00000000000E+00  0.00000000000E+00  0.16970962328E+04  0.16970962328E+04  0.25500000920E-02 0.  1.
        2   -1    0    0  501    0  0.00000000000E+00  0.00000000000E+00 -0.16053623964E+04  0.16053623964E+04  0.25500000920E-02 0. -1.
    10030    2    1    2    0    0  0.00000000000E+00  0.00000000000E+00  0.91733836455E+02  0.33024586292E+04  0.33011843179E+04 0.  0.
        3    1    3    3  502    0 -0.45691521663E+03  0.12564310918E+04 -0.92252734286E+03  0.16243298040E+04  0.10100000352E+00 0. -1.
       -3    1    3    3    0  502  0.45691521663E+03 -0.12564310918E+04  0.10142611793E+04  0.16781288251E+04  0.10100000352E+00 0.  1.
</event>
<event>
 5   0  0.3977376E-07  0.3840708E+04  0.7818609E-02  0.8037475E-01
       -1   -1    0    0    0  501  0.00000000000E+00  0.00000000000E+00  0.27232465871E+04  0.27232465871E+04  0.50400001928E-02 0.  1.
        1   -1    0    0  501    0  0.00000000000E+00  0.00000000000E+00 -0.13541772837E+04  0.13541772837E+04  0.50400001928E-02 0. -1.
    10030    2    1    2    0    0  0.00000000000E+00  0.00000000000E+00  0.13690693034E+04  0.40774238708E+04  0.38407075734E+04 0.  0.
        4    1    3    3  502    0 -0.18054412134E+04 -0.23453227758E+03  0.13330299777E+04  0.22564560484E+04  0.12699999809E+01 0.  1.
       -4    1    3    3    0  502  0.18054412134E+04  0.23453227758E+03  0.36039325713E+02  0.18209678224E+04  0.12699999809E+01 0. -1.
</event>
<event>
 5   0  0.4316671E-07  0.3707622E+04  0.7818609E-02  0.8066275E-01
        1   -1    0    0  501    0  0.00000000000E+00  0.00000000000E+00  0.15954536639E+04  0.15954536639E+04  0.50400001928E-02 0. -1.
       -1   -1    0    0    0  501  0.00000000000E+00  0.00000000000E+00 -0.21540052067E+04  0.21540052067E+04  0.50400001928E-02 0.  1.
    10030    2    1    2    0    0  0.00000000000E+00  0.00000000000E+00 -0.55855154284E+03  0.37494588706E+04  0.37076221486E+04 0.  0.
        2    1    3    3  502    0  0.13513148464E+03  0.17942282285E+04 -0.73051703361E+03  0.19419502029E+04  0.25500000920E-02 0.  1.
       -2    1    3    3    0  502 -0.13513148464E+03 -0.17942282285E+04  0.17196549077E+03  0.18075086678E+04  0.25500000920E-02 0. -1.
</event>
<event>
 5   0  0.4627905E-07  0.3926825E+04  0.7818609E-02  0.8019473E-01
        1   -1    0    0  501    0  0.00000000000E+00  0.00000000000E+00  0.34245993892E+04  0.34245993892E+04  0.50400001928E-02 0.  1.
       -1   -1    0    0    0  501  0.00000000000E+00  0.00000000000E+00 -0.11256757217E+04  0.11256757217E+04  0.50400001928E-02 0. -1.
    10030    2    1    2    0    0  0.00000000000E+00  0.00000000000E+00  0.22989236675E+04  0.45502751109E+04  0.39268248696E+04 0.  0.
        1    1    3    3  502    0  0.18813008387E+04  0.54400621297E+03  0.13123202757E+04  0.23574181028E+04  0.50400001928E-02 0. -1.
       -1    1    3    3    0  502 -0.18813008387E+04 -0.54400621297E+03  0.98660339175E+03  0.21928570081E+04  0.50400001928E-02 0.  1.
</event>
<event>
 5   0  0.1238717E-06  0.2038890E+04  0.7818609E-02  0.8588651E-01
        2   -1    0    0  501    0  0.00000000000E+00  0.00000000000E+00  0.12033945950E+04  0.12033945950E+04  0.25500000920E-02 0.  1.
       -2   -1    0    0    0  501  0.00000000000E+00  0.00000000000E+00 -0.86361402604E+03  0.86361402605E+03  0.25500000920E-02 0. -1.
    10030    2    1    2    0    0  0.00000000000E+00  0.00000000000E+00  0.33978056894E+03  0.20670086210E+04  0.20388903365E+04 0.  0.
        3    1    3    3  502    0  0.17398787281E+02 -0.24777339628E+03 -0.83246862874E+03  0.86873379222E+03  0.10100000352E+00 0. -1.
       -3    1    3    3    0  502 -0.17398787281E+02  0.24777339628E+03  0.11722491977E+04  0.11982748288E+04  0.10100000352E+00 0.  1.
</event>
<event>
 5   0  0.3471602E-07  0.2688729E+04  0.7818609E-02  0.8338671E-01
       -1   -1    0    0    0  501  0.00000000000E+00  0.00000000000E+00  0.15326227572E+04  0.15326227572E+04  0.50400001928E-02 0.  1.
        1   -1    0    0  501    0  0.00000000000E+00  0.00000000000E+00 -0.11792308010E+04  0.11792308010E+04  0.50400001928E-02 0. -1.
    10030    2    1    2    0    0  0.00000000000E+00  0.00000000000E+00  0.35339195620E+03  0.27118535582E+04  0.26887290392E+04 0.  0.
        5    1    3    3  502    0  0.12283692087E+04  0.32686382966E+03  0.61813935554E+03  0.14134529454E+04  0.46999998093E+01 0. -1.
       -5    1    3    3    0  502 -0.12283692087E+04 -0.32686382966E+03 -0.26474739934E+03  0.12984006128E+04  0.46999998093E+01 0.  1.
</event>
<event>
 5   0  0.5385714E-07  0.3849349E+04  0.7818609E-02  0.8035647E-01
       -1   -1    0    0    0  501  0.00000000000E+00  0.00000000000E+00  0.19062181004E+04  0.19062181004E+04  0.50400001928E-02 0.  1.
        1   -1    0    0  501    0  0.00000000000E+00  0.00000000000E+00 -0.19433096580E+04  0.19433096580E+04  0.50400001928E-02 0. -1.
    10030    2    1    2    0    0  0.00000000000E+00  0.00000000000E+00 -0.37091557667E+02  0.38495277584E+04  0.38493490592E+04 0.  0.
        3    1    3    3  502    0 -0.15027771332E+04 -0.88098893118E+02 -0.12178810318E+04  0.19363198974E+04  0.10100000352E+00 0. -1.
       -3    1    3    3    0  502  0.15027771332E+04  0.88098893118E+02  0.11807894742E+04  0.19132078611E+04  0.10100000352E+00 0.  1.
</event>
<event>
 5   0  0.5533705E-07  0.3863809E+04  0.7818609E-02  0.8032599E-01
       -2   -1    0    0    0  501  0.00000000000E+00  0.00000000000E+00  0.24844409121E+04  0.24844409121E+04  0.25500000920E-02 0.  1.
        2   -1    0    0  501    0  0.00000000000E+00  0.00000000000E+00 -0.15022516197E+04  0.15022516197E+04  0.25500000920E-02 0. -1.
    10030    2    1    2    0    0  0.00000000000E+00  0.00000000000E+00  0.98218929238E+03  0.39866925318E+04  0.38638092004E+04 0.  0.
        1    1    3    3  502    0 -0.77361657016E+03 -0.82198436729E+03  0.21087951600E+04  0.23918942127E+04  0.50400001928E-02 0.  1.
       -1    1    3    3    0  502  0.77361657016E+03  0.82198436729E+03 -0.11266058676E+04  0.15947983191E+04  0.50400001928E-02 0. -1.
</event>
<event>
 5   0  0.4627905E-07  0.3870940E+04  0.7818609E-02  0.8031100E-01
        1   -1    0    0  501    0  0.00000000000E+00  0.00000000000E+00  0.26453284943E+04  0.26453284943E+04  0.50400001928E-02 0.  1.
       -1   -1    0    0    0  501  0.00000000000E+00  0.00000000000E+00 -0.14160977883E+04  0.14160977883E+04  0.50400001928E-02 0. -1.
    10030    2    1    2    0    0  0.00000000000E+00  0.00000000000E+00  0.12292307060E+04  0.40614262826E+04  0.38709398497E+04 0.  0.
        1    1    3    3  502    0  0.76122728416E+02 -0.17688441557E+04 -0.20580967848E+03  0.17824034170E+04  0.50400001928E-02 0. -1.
       -1    1    3    3    0  502 -0.76122728416E+02  0.17688441557E+04  0.14350403845E+04  0.22790228656E+04  0.50400001928E-02 0.  1.
</event>
<event>
 5   0  0.5533705E-07  0.3886779E+04  0.7818609E-02  0.8027785E-01
       -2   -1    0    0    0  501  0.00000000000E+00  0.00000000000E+00  0.14792909610E+04  0.14792909610E+04  0.25500000920E-02 0. -1.
        2   -1    0    0  501    0  0.00000000000E+00  0.00000000000E+00 -0.25530892784E+04  0.25530892784E+04  0.25500000920E-02 0.  1.
    10030    2    1    2    0    0  0.00000000000E+00  0.00000000000E+00 -0.10737983174E+04  0.40323802395E+04  0.38867785593E+04 0.  0.
        1    1    3    3  502    0  0.26977390978E+03  0.52664834917E+03  0.13835596532E+04  0.15047836257E+04  0.50400001928E-02 0. -1.
       -1    1    3    3    0  502 -0.26977390978E+03 -0.52664834917E+03 -0.24573579706E+04  0.25275966137E+04  0.50400001928E-02 0.  1.
</event>
<event>
 5   0  0.4627905E-07  0.2708148E+04  0.7818609E-02  0.8332366E-01
       -1   -1    0    0    0  501  0.00000000000E+00  0.00000000000E+00  0.13949164145E+04  0.13949164145E+04  0.50400001928E-02 0.  1.
        1   -1    0    0  501    0  0.00000000000E+00  0.00000000000E+00 -0.13144276942E+04  0.13144276942E+04  0.50400001928E-02 0. -1.
    10030    2    1    2    0    0  0.00000000000E+00  0.00000000000E+00  0.80488720348E+02  0.27093441087E+04  0.27081482724E+04 0.  0.
        1    1    3    3  502    0  0.86880256324E+03 -0.10369470822E+04  0.98918541224E+02  0.13564151367E+04  0.50400001928E-02 0. -1.
       -1    1    3    3    0  502 -0.86880256324E+03  0.10369470822E+04 -0.18429820876E+02  0.13529289721E+04  0.50400001928E-02 0.  1.
</event>
<event>
 5   0  0.3977376E-07  0.3820008E+04  0.7818609E-02  0.8041875E-01
       -1   -1    0    0    0  501  0.00000000000E+00  0.00000000000E+00  0.13896425177E+04  0.13896425177E+04  0.50400001928E-02 0. -1.
        1   -1    0    0  501    0  0.00000000000E+00  0.00000000000E+00 -0.26252186888E+04  0.26252186888E+04  0.50400001928E-02 0.  1.
    10030    2    1    2    0    0  0.00000000000E+00  0.00000000000E+00 -0.12355761711E+04  0.40148612065E+04  0.38200081194E+04 0.  0.
        4    1    3    3  502    0 -0.23682164480E+03 -0.87795289163E+03 -0.23831158537E+04  0.25507113824E+04  0.12699999809E+01 0.  1.
       -4    1    3    3    0  502  0.23682164480E+03  0.87795289163E+03  0.11475396826E+04  0.14641498241E+04  0.12699999809E+01 0. -1.
</event>
<event>
 5   0  0.7268013E-07  0.3934526E+04  0.7818609E-02  0.8017887E-01
        2   -1    0    0  501    0  0.00000000000E+00  0.00000000000E+00  0.26305821412E+04  0.26305821412E+04  0.25500000920E-02 0. -1.
       -2   -1    0    0    0  501  0.00000000000E+00  0.00000000000E+00 -0.14712042920E+04  0.14712042920E+04  0.25500000920E-02 0.  1.
    10030    2    1    2    0    0  0.00000000000E+00  0.00000000000E+00  0.11593778492E+04  0.41017864332E+04  0.39345260129E+04 0.  0.
        4    1    3    3  502    0  0.11497230622E+03  0.90394888258E+03 -0.12379252194E+04  0.15371410720E+04  0.12699999809E+01 0.  1.
       -4    1    3    3    0  502 -0.11497230622E+03 -0.90394888258E+03  0.23973030686E+04  0.25646453613E+04  0.12699999809E+01 0. -1.
</event>
<event>
 5   0  0.4627905E-07  0.2009134E+04  0.7818609E-02  0.8602362E-01
        1   -1    0    0  501    0  0.00000000000E+00  0.00000000000E+00  0.16727964517E+04  0.16727964517E+04  0.50400001928E-02 0. -1.
       -1   -1    0    0    0  501  0.00000000000E+00  0.00000000000E+00 -0.60327406345E+03  0.60327406347E+03  0.50400001928E-02 0.  1.
    10030    2    1    2    0    0  0.00000000000E+00  0.00000000000E+00  0.10695223883E+04  0.22760705152E+04  0.20091338560E+04 0.  0.
        1    1    3    3  502    0  0.86117304968E+03 -0.38252590254E+03  0.92916890311E+03  0.13233668948E+04  0.50400001928E-02 0. -1.
       -1    1    3    3    0  502 -0.86117304968E+03  0.38252590254E+03  0.14035348517E+03  0.95270362046E+03  0.50400001928E-02 0.  1.
</event>
<event>
 5   0  0.4627905E-07  0.3740025E+04  0.7818609E-02  0.8059149E-01
        1   -1    0    0  501    0  0.00000000000E+00  0.00000000000E+00  0.17512188197E+04  0.17512188197E+04  0.50400001928E-02 0.  1.
       -1   -1    0    0    0  501  0.00000000000E+00  0.00000000000E+00 -0.19968649900E+04  0.19968649900E+04  0.50400001928E-02 0. -1.
    10030    2    1    2    0    0  0.00000000000E+00  0.00000000000E+00 -0.24564617023E+03  0.37480838097E+04  0.37400254282E+04 0.  0.
        1    1    3    3  502    0 -0.14402989738E+04  0.11325619768E+04  0.25186722170E+03  0.18494850263E+04  0.50400001928E-02 0.  1.
       -1    1    3    3    0  502  0.14402989738E+04 -0.11325619768E+04 -0.49751339193E+03  0.18985987834E+04  0.50400001928E-02 0. -1.
</event>
<event>
 5   0  0.5533705E-07  0.3934482E+04  0.7818609E-02  0.8017896E-01
       -2   -1    0    0    0  501  0.00000000000E+00  0.00000000000E+00  0.14503910357E+04  0.14503910357E+04  0.25500000920E-02 0. -1.
        2   -1    0    0  501    0  0.00000000000E+00  0.00000000000E+00 -0.26682720308E+04  0.26682720308E+04  0.25500000920E-02 0.  1.
    10030    2    1    2    0    0  0.00000000000E+00  0.00000000000E+00 -0.12178809951E+04  0.41186630665E+04  0.39344823467E+04 0.  0.
        1    1    3    3  502    0 -0.46849598352E+03 -0.15686639382E+04  0.53292107320E+03  0.17216851942E+04  0.50400001928E-02 0. -1.
       -1    1    3    3    0  502  0.46849598352E+03  0.15686639382E+04 -0.17508020683E+04  0.23969778723E+04  0.50400001928E-02 0.  1.
</event>
<event>
 5   0  0.1015219E-06  0.2217780E+04  0.7818609E-02  0.8511064E-01
        2   -1    0    0  501    0  0.00000000000E+00  0.00000000000E+00  0.86131256630E+03  0.86131256630E+03  0.25500000920E-02 0. -1.
       -2   -1    0    0    0  501  0.00000000000E+00  0.00000000000E+00 -0.14276317307E+04  0.14276317307E+04  0.25500000920E-02 0.  1.
    10030    2    1    2    0    0  0.00000000000E+00  0.00000000000E+00 -0.56631916440E+03  0.22889442970E+04  0.22177801061E+04 0.  0.
        3    1    3    3  502    0  0.96895734690E+03 -0.12121514139E+03  0.25911963086E+03  0.10103041344E+04  0.10100000352E+00 0. -1.
       -3    1    3    3    0  502 -0.96895734690E+03  0.12121514139E+03 -0.82543879526E+03  0.12786401626E+04  0.10100000352E+00 0.  1.
</event>
<event>
 5   0  0.7268013E-07  0.2236215E+04  0.7818609E-02  0.8503504E-01
        2   -1    0    0  501    0  0.00000000000E+00  0.00000000000E+00  0.95427499226E+03  0.95427499226E+03  0.25500000920E-02 0. -1.
       -2   -1    0    0    0  501  0.00000000000E+00  0.00000000000E+00 -0.13100672623E+04  0.13100672623E+04  0.25500000920E-02 0.  1.
    10030    2    1    2    0    0  0.00000000000E+00  0.00000000000E+00 -0.35579227002E+03  0.22643422545E+04  0.22362150403E+04 0.  0.
        4    1    3    3  502    0  0.29468889905E+03 -0.69942524326E+03  0.65348260645E+03  0.10015379913E+04  0.12699999809E+01 0. -1.
       -4    1    3    3    0  502 -0.29468889905E+03  0.69942524326E+03 -0.10092748765E+04  0.12628042633E+04  0.12699999809E+01 0.  1.
</event>
<event>
 5   0  0.1034683E-06  0.3563546E+04  0.7818609E-02  0.8098893E-01
        2   -1    0    0  501    0  0.00000000000E+00  0.00000000000E+00  0.22860575635E+04  0.22860575635E+04  0.25500000920E-02 0.  1.
       -2   -1    0    0    0  501  0.00000000000E+00  0.00000000000E+00 -0.13887296039E+04  0.13887296039E+04  0.25500000920E-02 0. -1.
    10030    2    1    2    0    0  0.00000000000E+00  0.00000000000E+00  0.89732795967E+03  0.36747871674E+04  0.35635464440E+04 0.  0.
        2    1    3    3  502    0 -0.13178555343E+04  0.11542143040E+04  0.11330149110E+03  0.17555030894E+04  0.25500000920E-02 0. -1.
       -2    1    3    3    0  502  0.13178555343E+04 -0.11542143040E+04  0.78402646856E+03  0.19192840781E+04  0.25500000920E-02 0.  1.
</event>
<event>
 5   0  0.5533705E-07  0.3931649E+04  0.7818609E-02  0.8018479E-01
       -2   -1    0    0    0  501  0.00000000000E+00  0.00000000000E+00  0.32848490467E+04  0.32848490467E+04  0.25500000920E-02 0. -1.
        2   -1    0    0  501    0  0.00000000000E+00  0.00000000000E+00 -0.11764517885E+04  0.11764517885E+04  0.25500000920E-02 0.  1.
    10030    2    1    2    0    0  0.00000000000E+00  0.00000000000E+00  0.21083972581E+04  0.44613008352E+04  0.39316492906E+04 0.  0.
        1    1    3    3  502    0 -0.98169938389E+02  0.11051712546E+04 -0.78719770031E+03  0.13604120913E+04  0.50400001928E-02 0.  1.
       -1    1    3    3    0  502  0.98169938389E+02 -0.11051712546E+04  0.28955949585E+04  0.31008887439E+04  0.50400001928E-02 0. -1.
</event>
<event>
 5   0  0.1035864E-06  0.2621694E+04  0.7818609E-02  0.8360869E-01
        2   -1    0    0  501    0  0.00000000000E+00  0.00000000000E+00  0.24406510880E+04  0.24406510880E+04  0.25500000920E-02 0.  1.
       -2   -1    0    0    0  501  0.00000000000E+00  0.00000000000E+00 -0.70404145611E+03  0.70404145611E+03  0.25500000920E-02 0. -1.
    10030    2    1    2    0    0  0.00000000000E+00  0.00000000000E+00  0.17366096319E+04  0.31446925441E+04  0.26216937623E+04 0.  0.
        5    1    3    3  502    0 -0.43274932410E+03 -0.12307252096E+04  0.10216374889E+04  0.16570219575E+04  0.46999998093E+01 0.  1.
       -5    1    3    3    0  502  0.43274932410E+03  0.12307252096E+04  0.71497214301E+03  0.14876705866E+04  0.46999998093E+01 0. -1.
</event>
<event>
 5   0  0.7268013E-07  0.3698682E+04  0.7818609E-02  0.8068254E-01
        2   -1    0    0  501    0  0.00000000000E+00  0.00000000000E+00  0.20383306604E+04  0.20383306604E+04  0.25500000920E-02 0. -1.
       -2   -1    0    0    0  501  0.00000000000E+00  0.00000000000E+00 -0.16778744575E+04  0.16778744575E+04  0.25500000920E-02 0.  1.
    10030    2    1    2    0    0  0.00000000000E+00  0.00000000000E+00  0.36045620286E+03  0.37162051179E+04  0.36986824416E+04 0.  0.
        4    1    3    3  502    0  0.46188627162E+03 -0.12845117406E+04 -0.10733816087E+04  0.17365077111E+04  0.12699999809E+01 0.  1.
       -4    1    3    3    0  502 -0.46188627162E+03  0.12845117406E+04  0.14338378116E+04  0.19796974068E+04  0.12699999809E+01 0. -1.
</event>
<event>
 5   0  0.4627905E-07  0.2130921E+04  0.7818609E-02  0.8547743E-01
       -1   -1    0    0    0  501  0.00000000000E+00  0.00000000000E+00  0.11802068690E+04  0.11802068690E+04  0.50400001928E-02 0.  1.
        1   -1    0    0  501    0  0.00000000000E+00  0.00000000000E+00 -0.96187047798E+03  0.96187047799E+03  0.50400001928E-02 0. -1.
    10030    2    1    2    0    0  0.00000000000E+00  0.00000000000E+00  0.21833639098E+03  0.21420773470E+04  0.21309210639E+04 0.  0.
        1    1    3    3  502    0  0.35138741299E+03  0.60204729852E+03  0.91916098056E+03  0.11535991383E+04  0.50400001928E-02 0.  1.
       -1    1    3    3    0  502 -0.35138741299E+03 -0.60204729852E+03 -0.70082458957E+03  0.98847820868E+03  0.50400001928E-02 0. -1.
</event>
<event>
 5   0  0.5385714E-07  0.3901510E+04  0.7818609E-02  0.8024715E-01
       -1   -1    0    0    0  501  0.00000000000E+00  0.00000000000E+00  0.13476930187E+04  0.13476930187E+04  0.50400001928E-02 0. -1.
        1   -1    0    0  501    0  0.00000000000E+00  0.00000000000E+00 -0.28236740509E+04  0.28236740509E+04  0.50400001928E-02 0.  1.
    10030    2    1    2    0    0  0.00000000000E+00  0.00000000000E+00 -0.14759810323E+04  0.41713670696E+04  0.39015103770E+04 0.  0.
        3    1    3    3  502    0 -0.47746903448E+03  0.10165547116E+04 -0.24433325814E+04  0.26890954379E+04  0.10100000352E+00 0.  1.
       -3    1    3    3    0  502  0.47746903448E+03 -0.10165547116E+04  0.96735154911E+03  0.14822716318E+04  0.10100000352E+00 0. -1.
</event>
<event>
 5   0  0.4316671E-07  0.3120089E+04  0.7818609E-02  0.8210246E-01
       -1   -1    0    0    0  501  0.00000000000E+00  0.00000000000E+00  0.13594185068E+04  0.13594185068E+04  0.50400001928E-02 0. -1.
        1   -1    0    0  501    0  0.00000000000E+00  0.00000000000E+00 -0.17902797419E+04  0.17902797419E+04  0.50400001928E-02 0.  1.
    10030    2    1    2    0    0  0.00000000000E+00  0.00000000000E+00 -0.43086123509E+03  0.31496982486E+04  0.31200893663E+04 0.  0.
        2    1    3    3  502    0  0.15509644312E+04 -0.13857279658E+03 -0.31144538686E+03  0.15879834117E+04  0.25500000920E-02 0. -1.
       -2    1    3    3    0  502 -0.15509644312E+04  0.13857279658E+03 -0.11941584823E+03  0.15617148369E+04  0.25500000920E-02 0.  1.
</event>
<event>
 5   0  0.7268013E-07  0.3869590E+04  0.7818609E-02  0.8031384E-01
        2   -1    0    0  501    0  0.00000000000E+00  0.00000000000E+00  0.12485921762E+04  0.12485921762E+04  0.25500000920E-02 0. -1.
       -2   -1    0    0    0  501  0.00000000000E+00  0.00000000000E+00 -0.29981224001E+04  0.29981224001E+04  0.25500000920E-02 0.  1.
    10030    2    1    2    0    0  0.00000000000E+00  0.00000000000E+00 -0.17495302239E+04  0.42467145763E+04  0.38695902481E+04 0.  0.
        4    1    3    3  502    0 -0.13457796535E+04  0.13899771878E+04 -0.89283491782E+03  0.21308015538E+04  0.12699999809E+01 0.  1.
       -4    1    3    3    0  502  0.13457796535E+04 -0.13899771878E+04 -0.85669530611E+03  0.21159130225E+04  0.12699999809E+01 0. -1.
</event>
<event>
 5   0  0.5385714E-07  0.2185654E+04  0.7818609E-02  0.8524423E-01
       -1   -1    0    0    0  501  0.00000000000E+00  0.00000000000E+00  0.12536641973E+04  0.12536641973E+04  0.50400001928E-02 0.  1.
        1   -1    0    0  501    0  0.00000000000E+00  0.00000000000E+00 -0.95262460920E+03  0.95262460922E+03  0.50400001928E-02 0. -1.
    10030    2    1    2    0    0  0.00000000000E+00  0.00000000000E+00  0.30103958812E+03  0.22062888065E+04  0.21856544705E+04 0.  0.
        3    1    3    3  502    0  0.20467010379E+03  0.10521199065E+04  0.36566383082E+03  0.11324999763E+04  0.10100000352E+00 0.  1.
       -3    1    3    3    0  502 -0.20467010379E+03 -0.10521199065E+04 -0.64624242700E+02  0.10737888302E+04  0.10100000352E+00 0. -1.
</event>
<event>
 5   0  0.1015219E-06  0.1953577E+04  0.7818609E-02  0.8628638E-01
       -2   -1    0    0    0  501  0.00000000000E+00  0.00000000000E+00  0.73778997050E+03  0.73778997050E+03  0.25500000920E-02 0. -1.
        2   -1    0    0  501    0  0.00000000000E+00  0.00000000000E+00 -0.12932082477E+04  0.12932082477E+04  0.25500000920E-02 0.  1.
    10030    2    1    2    0    0  0.00000000000E+00  0.00000000000E+00 -0.55541827722E+03  0.20309982182E+04  0.19535773084E+04 0.  0.
        3    1    3    3  502    0 -0.73101437219E+03  0.57958257289E+03  0.23277924722E+02  0.93318799988E+03  0.10100000352E+00 0. -1.
       -3    1    3    3    0  502  0.73101437219E+03 -0.57958257289E+03 -0.57869620194E+03  0.10978102183E+04  0.10100000352E+00 0.  1.
</event>
<event>
 5   0  0.5385714E-07  0.2690222E+04  0.7818609E-02  0.8338185E-01
        1   -1    0    0  501    0  0.00000000000E+00  0.00000000000E+00  0.15237655106E+04  0.15237655106E+04  0.50400001928E-02 0. -1.
       -1   -1    0    0    0  501  0.00000000000E+00  0.00000000000E+00 -0.11874026263E+04  0.11874026263E+04  0.50400001928E-02 0.  1.
    10030    2    1    2    0    0  0.00000000000E+00  0.00000000000E+00  0.33636288427E+03  0.27111681369E+04  0.26902216780E+04 0.  0.
        3    1    3    3  502    0  0.15425625134E+03 -0.11124265562E+04  0.91423956008E+03  0.14481442668E+04  0.10100000352E+00 0. -1.
       -3    1    3    3    0  502 -0.15425625134E+03  0.11124265562E+04 -0.57787667581E+03  0.12630238702E+04  0.10100000352E+00 0.  1.
</event>
<event>
 5   0  0.5533705E-07  0.3926756E+04  0.7818609E-02  0.8019487E-01
       -2   -1    0    0    0  501  0.00000000000E+00  0.00000000000E+00  0.14078994907E+04  0.14078994907E+04  0.25500000920E-02 0.  1.
        2   -1    0    0  501    0  0.00000000000E+00  0.00000000000E+00 -0.27380175312E+04  0.27380175312E+04  0.25500000920E-02 0. -1.
    10030    2    1    2    0    0  0.00000000000E+00  0.00000000000E+00 -0.13301180406E+04  0.41459170219E+04  0.39267561613E+04 0.  0.
        1    1    3    3  502    0 -0.13449070743E+04  0.82933663600E+03 -0.18955578241E+04  0.24677345398E+04  0.50400001928E-02 0. -1.
       -1    1    3    3    0  502  0.13449070743E+04 -0.82933663600E+03  0.56543978359E+03  0.16781824821E+04  0.50400001928E-02 0.  1.
</event>
<event>
 5   0  0.5385714E-07  0.2118689E+04  0.7818609E-02  0.8553055E-01
        1   -1    0    0  501    0  0.00000000000E+00  0.00000000000E+00  0.15711204416E+04  0.15711204416E+04  0.50400001928E-02 0. -1.
       -1   -1    0    0    0  501  0.00000000000E+00  0.00000000000E+00 -0.71427421372E+03  0.71427421374E+03  0.50400001928E-02 0.  1.
    10030    2    1    2    0    0  0.00000000000E+00  0.00000000000E+00  0.85684622788E+03  0.22853946554E+04  0.21186890457E+04 0.  0.
        3    1    3    3  502    0 -0.88797073605E+03 -0.35493227138E+03  0.92007306106E+03  0.13270280303E+04  0.10100000352E+00 0. -1.
       -3    1    3    3    0  502  0.88797073605E+03  0.35493227138E+03 -0.63226833181E+02  0.95836662504E+03  0.10100000352E+00 0.  1.
</event>
<event>
 5   0  0.1015219E-06  0.2872312E+04  0.7818609E-02  0.8281163E-01
       -2   -1    0    0    0  501  0.00000000000E+00  0.00000000000E+00  0.85260222283E+03  0.85260222283E+03  0.25500000920E-02 0. -1.
        2   -1    0    0  501    0  0.00000000000E+00  0.00000000000E+00 -0.24191164082E+04  0.24191164082E+04  0.25500000920E-02 0.  1.
    10030    2    1    2    0    0  0.00000000000E+00  0.00000000000E+00 -0.15665141853E+04  0.32717186310E+04  0.28723119795E+04 0.  0.
        3    1    3    3  502    0  0.25878842907E+03  0.12260336479E+04 -0.15825566270E+04  0.20185676716E+04  0.10100000352E+00 0.  1.
       -3    1    3    3    0  502 -0.25878842907E+03 -0.12260336479E+04  0.16042441703E+02  0.12531509594E+04  0.10100000352E+00 0. -1.
</event>
<event>
 5   0  0.5533705E-07  0.2929905E+04  0.7818609E-02  0.8264035E-01
       -2   -1    0    0    0  501  0.00000000000E+00  0.00000000000E+00  0.95317824988E+03  0.95317824988E+03  0.25500000920E-02 0.  1.
        2   -1    0    0  501    0  0.00000000000E+00  0.00000000000E+00 -0.22515053321E+04  0.22515053321E+04  0.25500000920E-02 0. -1.
    10030    2    1    2    0    0  0.00000000000E+00  0.00000000000E+00 -0.12983270822E+04  0.32046835820E+04  0.29299050579E+04 0.  0.
        1    1    3    3  502    0  0.66864186002E+02  0.55508820774E+03 -0.21302183761E+04  0.22023678320E+04  0.50400001928E-02 0. -1.
       -1    1    3    3    0  502 -0.66864186002E+02 -0.55508820774E+03  0.83189129387E+03  0.10023157499E+04  0.50400001928E-02 0.  1.
</event>
<event>
 5   0  0.5533705E-07  0.3891441E+04  0.7818609E-02  0.8026812E-01
        2   -1    0    0  501    0  0.00000000000E+00  0.00000000000E+00  0.18032370108E+04  0.18032370108E+04  0.25500000920E-02 0.  1.
       -2   -1    0    0    0  501  0.00000000000E+00  0.00000000000E+00 -0.20994625227E+04  0.20994625227E+04  0.25500000920E-02 0. -1.
    10030    2    1    2    0    0  0.00000000000E+00  0.00000000000E+00 -0.29622551188E+03  0.39026995336E+04  0.38914411335E+04 0.  0.
        1    1    3    3  502    0 -0.12953676268E+04 -0.14361468839E+04 -0.36164507672E+03  0.19675574508E+04  0.50400001928E-02 0. -1.
       -1    1    3    3    0  502  0.12953676268E+04  0.14361468839E+04  0.65419564834E+02  0.19351420827E+04  0.50400001928E-02 0.  1.
</event>
<event>
 5   0  0.3977376E-07  0.2788153E+04  0.7818609E-02  0.8306956E-01
        1   -1    0    0  501    0  0.00000000000E+00  0.00000000000E+00  0.81135201625E+03  0.81135201626E+03  0.50400001928E-02 0. -1.
       -1   -1    0    0    0  501  0.00000000000E+00  0.00000000000E+00 -0.23953216537E+04  0.23953216537E+04  0.50400001928E-02 0.  1.
    10030    2    1    2    0    0  0.00000000000E+00  0.00000000000E+00 -0.15839696375E+04  0.32066736700E+04  0.27881528318E+04 0.  0.
        4    1    3    3  502    0  0.78337491925E+03 -0.79421858368E+03  0.16956780112E+03  0.11283679696E+04  0.12699999809E+01 0. -1.
       -4    1    3    3    0  502 -0.78337491925E+03  0.79421858368E+03 -0.17535374386E+04  0.20783057004E+04  0.12699999809E+01 0.  1.
</event>
<event>
 5   0  0.4316671E-07  0.3863448E+04  0.7818609E-02  0.8032675E-01
       -1   -1    0    0    0  501  0.00000000000E+00  0.00000000000E+00  0.20891557201E+04  0.20891557201E+04  0.50400001928E-02 0. -1.
        1   -1    0    0  501    0  0.00000000000E+00  0.00000000000E+00 -0.17861555014E+04  0.17861555014E+04  0.50400001928E-02 0.  1.
    10030    2    1    2    0    0  0.00000000000E+00  0.00000000000E+00  0.30300021870E+03  0.38753112215E+04  0.38634476741E+04 0.  0.
        2    1    3    3  502    0 -0.15542427025E+04  0.71308734389E+03  0.10528098261E+04  0.20081266067E+04  0.25500000920E-02 0. -1.
       -2    1    3    3    0  502  0.15542427025E+04 -0.71308734389E+03 -0.74980960742E+03  0.18671846148E+04  0.25500000920E-02 0.  1.
</event>
<event>
 5   0  0.4627905E-07  0.1942761E+04  0.7818609E-02  0.8633859E-01
        1   -1    0    0  501    0  0.00000000000E+00  0.00000000000E+00  0.17746582931E+04  0.17746582931E+04  0.50400001928E-02 0.  1.
       -1   -1    0    0    0  501  0.00000000000E+00  0.00000000000E+00 -0.53169675446E+03  0.53169675449E+03  0.50400001928E-02 0. -1.
    10030    2    1    2    0    0  0.00000000000E+00  0.00000000000E+00  0.12429615386E+04  0.23063550476E+04  0.19427609784E+04 0.  0.
        1    1    3    3  502    0 -0.33370030731E+03  0.12502996595E+03 -0.45129576416E+03  0.57502717697E+03  0.50400001928E-02 0. -1.
       -1    1    3    3    0  502  0.33370030731E+03 -0.12502996595E+03  0.16942573028E+04  0.17313278706E+04  0.50400001928E-02 0.  1.
</event>
<event>
 5   0  0.3191750E-07  0.3420041E+04  0.7818609E-02  0.8133005E-01
       -3   -1    0    0    0  501  0.00000000000E+00  0.00000000000E+00  0.16178557637E+04  0.16178557668E+04  0.10100000352E+00 0. -1.
        3   -1    0    0  501    0  0.00000000000E+00  0.00000000000E+00 -0.18074358565E+04  0.18074358593E+04  0.10100000352E+00 0.  1.
    10030    2    1    2    0    0  0.00000000000E+00  0.00000000000E+00 -0.18958009280E+03  0.34252916261E+04  0.34200412443E+04 0.  0.
        5    1    3    3  502    0  0.13452563093E+04 -0.39640076752E+03  0.88512925966E+03  0.16584100827E+04  0.46999998093E+01 0. -1.
       -5    1    3    3    0  502 -0.13452563093E+04  0.39640076752E+03 -0.10747093525E+04  0.17668815434E+04  0.46999998093E+01 0.  1.
</event>
<event>
 5   0  0.3471602E-07  0.3658389E+04  0.7818609E-02  0.8077246E-01
        1   -1    0    0  501    0  0.00000000000E+00  0.00000000000E+00  0.23492097902E+04  0.23492097902E+04  0.50400001928E-02 0. -1.
       -1   -1    0    0    0  501  0.00000000000E+00  0.00000000000E+00 -0.14242885535E+04  0.14242885536E+04  0.50400001928E-02 0.  1.
    10030    2    1    2    0    0  0.00000000000E+00  0.00000000000E+00  0.92492123661E+03  0.37734983437E+04  0.36583890520E+04 0.  0.
        5    1    3    3  502    0 -0.15886049106E+04  0.89282003969E+03  0.62599682654E+03  0.19268334910E+04  0.46999998093E+01 0. -1.
       -5    1    3    3    0  502  0.15886049106E+04 -0.89282003969E+03  0.29892441007E+03  0.18466648527E+04  0.46999998093E+01 0.  1.
</event>
<event>
 5   0  0.4316671E-07  0.4048658E+04  0.7818609E-02  0.7994802E-01
        1   -1    0    0  501    0  0.00000000000E+00  0.00000000000E+00  0.29307952657E+04  0.29307952658E+04  0.50400001928E-02 0. -1.
       -1   -1    0    0    0  501  0.00000000000E+00  0.00000000000E+00 -0.13982238003E+04  0.13982238003E+04  0.50400001928E-02 0.  1.
    10030    2    1    2    0    0  0.00000000000E+00  0.00000000000E+00  0.15325714654E+04  0.43290190661E+04  0.40486578984E+04 0.  0.
        2    1    3    3  502    0  0.16851454762E+04  0.19042470104E+03 -0.41567141715E+03  0.17460697494E+04  0.25500000920E-02 0.  1.
       -2    1    3    3    0  502 -0.16851454762E+04 -0.19042470104E+03  0.19482428826E+04  0.25829493166E+04  0.25500000920E-02 0. -1.
</event>
<event>
 5   0  0.1035864E-06  0.4012457E+04  0.7818609E-02  0.8002038E-01
        2   -1    0    0  501    0  0.00000000000E+00  0.00000000000E+00  0.16996579990E+04  0.16996579990E+04  0.25500000920E-02 0. -1.
       -2   -1    0    0    0  501  0.00000000000E+00  0.00000000000E+00 -0.23680957103E+04  0.23680957103E+04  0.25500000920E-02 0.  1.
    10030    2    1    2    0    0  0.00000000000E+00  0.00000000000E+00 -0.66843771137E+03  0.40677537093E+04  0.40124570110E+04 0.  0.
        5    1    3    3  502    0  0.12581520807E+03 -0.16937360507E+04  0.74837395900E+03  0.18559787037E+04  0.46999998093E+01 0. -1.
       -5    1    3    3    0  502 -0.12581520807E+03  0.16937360507E+04 -0.14168116704E+04  0.22117750056E+04  0.46999998093E+01 0.  1.
</event>
<event>
 5   0  0.1034683E-06  0.3044046E+04  0.7818609E-02  0.8231264E-01
       -2   -1    0    0    0  501  0.00000000000E+00  0.00000000000E+00  0.10079467211E+04  0.10079467211E+04  0.25500000920E-02 0.  1.
        2   -1    0    0  501    0  0.00000000000E+00  0.00000000000E+00 -0.22982893931E+04  0.22982893931E+04  0.25500000920E-02 0. -1.
    10030    2    1    2    0    0  0.00000000000E+00  0.00000000000E+00 -0.12903426719E+04  0.33062361142E+04  0.30440455042E+04 0.  0.
        2    1    3    3  502    0 -0.11206939036E+04  0.38521888816E+03 -0.16825299352E+04  0.20579736150E+04  0.25500000920E-02 0. -1.
       -2    1    3    3    0  502  0.11206939036E+04 -0.38521888816E+03  0.39218726325E+03  0.12482624992E+04  0.25500000920E-02 0.  1.
</event>
<event>
 5   0  0.3471602E-07  0.3788903E+04  0.7818609E-02  0.8048541E-01
        1   -1    0    0  501    0  0.00000000000E+00  0.00000000000E+00  0.18071852688E+04  0.18071852688E+04  0.50400001928E-02 0. -1.
       -1   -1    0    0    0  501  0.00000000000E+00  0.00000000000E+00 -0.19859312636E+04  0.19859312637E+04  0.50400001928E-02 0.  1.
    10030    2    1    2    0    0  0.00000000000E+00  0.00000000000E+00 -0.17874599484E+03  0.37931165325E+04  0.37889025981E+04 0.  0.
        5    1    3    3  502    0 -0.23164106917E+03  0.27575146706E+03 -0.19513413135E+04  0.19843012544E+04  0.46999998093E+01 0.  1.
       -5    1    3    3    0  502  0.23164106917E+03 -0.27575146706E+03  0.17725953186E+04  0.18088152781E+04  0.46999998093E+01 0. -1.
</event>
<event>
 5   0  0.4627905E-07  0.2570170E+04  0.7818609E-02  0.8378405E-01
       -1   -1    0    0    0  501  0.00000000000E+00  0.00000000000E+00  0.10552693850E+04  0.10552693850E+04  0.50400001928E-02 0.  1.
        1   -1    0    0  501    0  0.00000000000E+00  0.00000000000E+00 -0.15649494906E+04  0.15649494906E+04  0.50400001928E-02 0. -1.
    10030    2    1    2    0    0  0.00000000000E+00  0.00000000000E+00 -0.50968010556E+03  0.26202188756E+04  0.25701698671E+04 0.  0.
        1    1    3    3  502    0 -0.50058155303E+03 -0.80077918503E+03 -0.11433703680E+04  0.14829447032E+04  0.50400001928E-02 0. -1.
       -1    1    3    3    0  502  0.50058155303E+03  0.80077918503E+03  0.63369026243E+03  0.11372741724E+04  0.50400001928E-02 0.  1.
</event>
<event>
 5   0  0.1034683E-06  0.2003496E+04  0.7818609E-02  0.8604988E-01
        2   -1    0    0  501    0  0.00000000000E+00  0.00000000000E+00  0.12646948639E+04  0.12646948639E+04  0.25500000920E-02 0. -1.
       -2   -1    0    0    0  501  0.00000000000E+00  0.00000000000E+00 -0.79347092466E+03  0.79347092466E+03  0.25500000920E-02 0.  1.
    10030    2    1    2    0    0  0.00000000000E+00  0.00000000000E+00  0.47122393922E+03  0.20581657885E+04  0.20034955483E+04 0.  0.
        2    1    3    3  502    0 -0.56339697349E+03 -0.61242454527E+03 -0.33729641061E+03  0.89791360498E+03  0.25500000920E-02 0.  1.
       -2    1    3    3    0  502  0.56339697349E+03  0.61242454527E+03  0.80852034983E+03  0.11602521836E+04  0.25500000920E-02 0. -1.
</event>
<event>
 5   0  0.1035864E-06  0.2610404E+04  0.7818609E-02  0.8364676E-01
        2   -1    0    0  501    0  0.00000000000E+00  0.00000000000E+00  0.16678892178E+04  0.16678892178E+04  0.25500000920E-02 0.  1.
       -2   -1    0    0    0  501  0.00000000000E+00  0.00000000000E+00 -0.10213821666E+04  0.10213821666E+04  0.25500000920E-02 0. -1.
    10030    2    1    2    0    0  0.00000000000E+00  0.00000000000E+00  0.64650705123E+03  0.26892713844E+04  0.26104040322E+04 0.  0.
        5    1    3    3  502    0  0.29918102337E+03 -0.58591232394E+03  0.14845768366E+04  0.16238204980E+04  0.46999998093E+01 0.  1.
       -5    1    3    3    0  502 -0.29918102337E+03  0.58591232394E+03 -0.83806978535E+03  0.10654508863E+04  0.46999998093E+01 0. -1.
</event>
<event>
 5   0  0.3471602E-07  0.3808785E+04  0.7818609E-02  0.8044272E-01
        1   -1    0    0  501    0  0.00000000000E+00  0.00000000000E+00  0.21135288273E+04  0.21135288273E+04  0.50400001928E-02 0. -1.
       -1   -1    0    0    0  501  0.00000000000E+00  0.00000000000E+00 -0.17159504780E+04  0.17159504780E+04  0.50400001928E-02 0.  1.
    10030    2    1    2    0    0  0.00000000000E+00  0.00000000000E+00  0.39757834934E+03  0.38294793054E+04  0.38087850040E+04 0.  0.
        5    1    3    3  502    0 -0.14955930328E+04 -0.55020417433E+03 -0.84954830096E+03  0.18059007611E+04  0.46999998093E+01 0.  1.
       -5    1    3    3    0  502  0.14955930328E+04  0.55020417433E+03  0.12471266503E+04  0.20235785443E+04  0.46999998093E+01 0. -1.
</event>
<event>
 5   0  0.1040920E-06  0.1992295E+04  0.7818609E-02  0.8610231E-01
       -2   -1    0    0    0  501  0.00000000000E+00  0.00000000000E+00  0.63925376338E+03  0.63925376339E+03  0.25500000920E-02 0. -1.
        2   -1    0    0  501    0  0.00000000000E+00  0.00000000000E+00 -0.15522941215E+04  0.15522941215E+04  0.25500000920E-02 0.  1.
    10030    2    1    2    0    0  0.00000000000E+00  0.00000000000E+00 -0.91304035807E+03  0.21915478848E+04  0.19922950173E+04 0.  0.
        4    1    3    3  502    0 -0.31384113950E+02  0.19291234712E+03 -0.15309946695E+04  0.15434203664E+04  0.12699999809E+01 0.  1.
       -4    1    3    3    0  502  0.31384113950E+02 -0.19291234712E+03  0.61795431145E+03  0.64812751849E+03  0.12699999809E+01 0. -1.
</event>
<event>
 5   0  0.1034683E-06  0.2179345E+04  0.7818609E-02  0.8527075E-01
       -2   -1    0    0    0  501  0.00000000000E+00  0.00000000000E+00  0.58216905321E+03  0.58216905322E+03  0.25500000920E-02 0. -1.
        2   -1    0    0  501    0  0.00000000000E+00  0.00000000000E+00 -0.20395903923E+04  0.20395903923E+04  0.25500000920E-02 0.  1.
    10030    2    1    2    0    0  0.00000000000E+00  0.00000000000E+00 -0.14574213391E+04  0.26217594455E+04  0.21793452298E+04 0.  0.
        2    1    3    3  502    0 -0.24029867175E+03  0.17141006581E+03  0.53315979785E+03  0.60941302280E+03  0.25500000920E-02 0. -1.
       -2    1    3    3    0  502  0.24029867175E+03 -0.17141006581E+03 -0.19905811369E+04  0.20123464227E+04  0.25500000920E-02 0.  1.
</event>
<event>
 5   0  0.7268013E-07  0.2126171E+04  0.7818609E-02  0.8549802E-01
        2   -1    0    0  501    0  0.00000000000E+00  0.00000000000E+00  0.11140833550E+04  0.11140833550E+04  0.25500000920E-02 0.  1.
       -2   -1    0    0    0  501  0.00000000000E+00  0.00000000000E+00 -0.10144224582E+04  0.10144224582E+04  0.25500000920E-02 0. -1.
    10030    2    1    2    0    0  0.00000000000E+00  0.00000000000E+00  0.99660896772E+02  0.21285058132E+04  0.21261713718E+04 0.  0.
        4    1    3    3  502    0  0.54245683610E+03 -0.78742703215E+03  0.51493587474E+03  0.10860300723E+04  0.12699999809E+01 0.  1.
       -4    1    3    3    0  502 -0.54245683610E+03  0.78742703215E+03 -0.41527497797E+03  0.10424757408E+04  0.12699999809E+01 0. -1.
</event>
<event>
 5   0  0.1015219E-06  0.3885302E+04  0.7818609E-02  0.8028093E-01
       -2   -1    0    0    0  501  0.00000000000E+00  0.00000000000E+00  0.15069609684E+04  0.15069609684E+04  0.25500000920E-02 0.  1.
        2   -1    0    0  501    0  0.00000000000E+00  0.00000000000E+00 -0.25043072242E+04  0.25043072242E+04  0.25500000920E-02 0. -1.
    10030    2    1    2    0    0  0.00000000000E+00  0.00000000000E+00 -0.99734625578E+03  0.40112681926E+04  0.38853021709E+04 0.  0.
        3    1    3    3  502    0 -0.20372311652E+03 -0.10327996561E+04 -0.21843089663E+04  0.24247440913E+04  0.10100000352E+00 0. -1.
       -3    1    3    3    0  502  0.20372311652E+03  0.10327996561E+04  0.11869627105E+04  0.15865241013E+04  0.10100000352E+00 0.  1.
</event>
<event>
 5   0  0.7268013E-07  0.3302551E+04  0.7818609E-02  0.8162247E-01
       -2   -1    0    0    0  501  0.00000000000E+00  0.00000000000E+00  0.91241813988E+03  0.91241813989E+03  0.25500000920E-02 0.  1.
        2   -1    0    0  501    0  0.00000000000E+00  0.00000000000E+00 -0.29884435812E+04  0.29884435812E+04  0.25500000920E-02 0. -1.
    10030    2    1    2    0    0  0.00000000000E+00  0.00000000000E+00 -0.20760254414E+04  0.39008617211E+04  0.33025506104E+04 0.  0.
        4    1    3    3  502    0 -0.10904014552E+04  0.11264469426E+04 -0.42556859131E+03  0.16244901621E+04  0.12699999809E+01 0.  1.
       -4    1    3    3    0  502  0.10904014552E+04 -0.11264469426E+04 -0.16504568501E+04  0.22763715590E+04  0.12699999809E+01 0. -1.
</event>
<event>
 5   0  0.5533705E-07  0.3911893E+04  0.7818609E-02  0.8022560E-01
       -2   -1    0    0    0  501  0.00000000000E+00  0.00000000000E+00  0.15090527219E+04  0.15090527219E+04  0.25500000920E-02 0. -1.
        2   -1    0    0  501    0  0.00000000000E+00  0.00000000000E+00 -0.25351841987E+04  0.25351841987E+04  0.25500000920E-02 0.  1.
    10030    2    1    2    0    0  0.00000000000E+00  0.00000000000E+00 -0.10261314768E+04  0.40442369206E+04  0.39118929513E+04 0.  0.
        1    1    3    3  502    0 -0.45433296013E+03  0.12124773506E+04  0.10025487071E+04  0.16375663879E+04  0.50400001928E-02 0. -1.
       -1    1    3    3    0  502  0.45433296013E+03 -0.12124773506E+04 -0.20286801839E+04  0.24066705327E+04  0.50400001928E-02 0.  1.
</event>
<event>
 5   0  0.4316671E-07  0.2395265E+04  0.7818609E-02  0.8441278E-01
       -1   -1    0    0    0  501  0.00000000000E+00  0.00000000000E+00  0.22448463888E+04  0.22448463888E+04  0.50400001928E-02 0.  1.
        1   -1    0    0  501    0  0.00000000000E+00  0.00000000000E+00 -0.63894085146E+03  0.63894085148E+03  0.50400001928E-02 0. -1.
    10030    2    1    2    0    0  0.00000000000E+00  0.00000000000E+00  0.16059055374E+04  0.28837872403E+04  0.23952653825E+04 0.  0.
        2    1    3    3  502    0  0.75672807154E+03  0.65600270159E+03  0.12232189883E+02  0.10015620526E+04  0.25500000920E-02 0. -1.
       -2    1    3    3    0  502 -0.75672807154E+03 -0.65600270159E+03  0.15936733475E+04  0.18822251877E+04  0.25500000920E-02 0.  1.
</event>
<event>
 5   0  0.1034683E-06  0.3898742E+04  0.7818609E-02  0.8025291E-01
       -2   -1    0    0    0  501  0.00000000000E+00  0.00000000000E+00  0.20787106014E+04  0.20787106014E+04  0.25500000920E-02 0. -1.
        2   -1    0    0  501    0  0.00000000000E+00  0.00000000000E+00 -0.18280795003E+04  0.18280795003E+04  0.25500000920E-02 0.  1.
    10030    2    1    2    0    0  0.00000000000E+00  0.00000000000E+00  0.25063110107E+03  0.39067901017E+04  0.38987424831E+04 0.  0.
        2    1    3    3  502    0 -0.45148509926E+03  0.70282837319E+03 -0.16396382645E+04  0.18401685128E+04  0.25500000920E-02 0.  1.
       -2    1    3    3    0  502  0.45148509926E+03 -0.70282837319E+03  0.18902693656E+04  0.20666215889E+04  0.25500000920E-02 0. -1.
</event>
<event>
 5   0  0.5533705E-07  0.2178411E+04  0.7818609E-02  0.8527468E-01
       -2   -1    0    0    0  501  0.00000000000E+00  0.00000000000E+00  0.84568855244E+03  0.84568855244E+03  0.25500000920E-02 0.  1.
        2   -1    0    0  501    0  0.00000000000E+00  0.00000000000E+00 -0.14028435663E+04  0.14028435663E+04  0.25500000920E-02 0. -1.
    10030    2    1    2    0    0  0.00000000000E+00  0.00000000000E+00 -0.55715501388E+03  0.22485321188E+04  0.21784111135E+04 0.  0.
        1    1    3    3  502    0 -0.11394176652E+03 -0.10487406642E+04  0.13133382969E+01  0.10549129972E+04  0.50400001928E-02 0.  1.
       -1    1    3    3    0  502  0.11394176652E+03  0.10487406642E+04 -0.55846835218E+03  0.11936191215E+04  0.50400001928E-02 0. -1.
</event>
<event>
 5   0  0.1015219E-06  0.3990963E+04  0.7818609E-02  0.8006372E-01
        2   -1    0    0  501    0  0.00000000000E+00  0.00000000000E+00  0.22998525159E+04  0.22998525159E+04  0.25500000920E-02 0. -1.
       -2   -1    0    0    0  501  0.00000000000E+00  0.00000000000E+00 -0.17313921298E+04  0.17313921298E+04  0.25500000920E-02 0.  1.
    10030    2    1    2    0    0  0.00000000000E+00  0.00000000000E+00  0.56846038604E+03  0.40312446457E+04  0.39909630646E+04 0.  0.
        3    1    3    3  502    0 -0.52213019455E+03  0.51207419189E+03  0.21596081399E+04  0.22800761492E+04  0.10100000352E+00 0. -1.
       -3    1    3    3    0  502  0.52213019455E+03 -0.51207419189E+03 -0.15911477539E+04  0.17511684965E+04  0.10100000352E+00 0.  1.
</event>
<event>
 5   0  0.5533705E-07  0.3889220E+04  0.7818609E-02  0.8027275E-01
        2   -1    0    0  501    0  0.00000000000E+00  0.00000000000E+00  0.27575689426E+04  0.27575689426E+04  0.25500000920E-02 0.  1.
       -2   -1    0    0    0  501  0.00000000000E+00  0.00000000000E+00 -0.13713196918E+04  0.13713196918E+04  0.25500000920E-02 0. -1.
    10030    2    1    2    0    0  0.00000000000E+00  0.00000000000E+00  0.13862492508E+04  0.41288886344E+04  0.38892202779E+04 0.  0.
        1    1    3    3  502    0 -0.96636153209E+03 -0.16365033921E+03 -0.10899206044E+04  0.14657977242E+04  0.50400001928E-02 0. -1.
       -1    1    3    3    0  502  0.96636153209E+03  0.16365033921E+03  0.24761698552E+04  0.26630909102E+04  0.50400001928E-02 0.  1.
</event>
<event>
 5   0  0.3977376E-07  0.2749408E+04  0.7818609E-02  0.8319150E-01
       -1   -1    0    0    0  501  0.00000000000E+00  0.00000000000E+00  0.13579178468E+04  0.13579178468E+04  0.50400001928E-02 0.  1.
        1   -1    0    0  501    0  0.00000000000E+00  0.00000000000E+00 -0.13916975431E+04  0.13916975431E+04  0.50400001928E-02 0. -1.
    10030    2    1    2    0    0  0.00000000000E+00  0.00000000000E+00 -0.33779696329E+02  0.27496153899E+04  0.27494078862E+04 0.  0.
        4    1    3    3  502    0  0.42889275700E+03  0.10776228613E+04 -0.75490847643E+03  0.13838744340E+04  0.12699999809E+01 0. -1.
       -4    1    3    3    0  502 -0.42889275700E+03 -0.10776228613E+04  0.72112878010E+03  0.13657409559E+04  0.12699999809E+01 0.  1.
</event>
<event>
 5   0  0.1034683E-06  0.3957037E+04  0.7818609E-02  0.8013270E-01
        2   -1    0    0  501    0  0.00000000000E+00  0.00000000000E+00  0.21988766497E+04  0.21988766497E+04  0.25500000920E-02 0.  1.
       -2   -1    0    0    0  501  0.00000000000E+00  0.00000000000E+00 -0.17802432994E+04  0.17802432994E+04  0.25500000920E-02 0. -1.
    10030    2    1    2    0    0  0.00000000000E+00  0.00000000000E+00  0.41863335028E+03  0.39791199490E+04  0.39570369833E+04 0.  0.
        2    1    3    3  502    0 -0.12362397080E+04  0.24395827272E+03 -0.13245585236E+04  0.18281847655E+04  0.25500000920E-02 0. -1.
       -2    1    3    3    0  502  0.12362397080E+04 -0.24395827272E+03  0.17431918739E+04  0.21509351835E+04  0.25500000920E-02 0.  1.
</event>
<event>
 5   0  0.3471602E-07  0.3875419E+04  0.7818609E-02  0.8030161E-01
        1   -1    0    0  501    0  0.00000000000E+00  0.00000000000E+00  0.10773097822E+04  0.10773097822E+04  0.50400001928E-02 0.  1.
       -1   -1    0    0    0  501  0.00000000000E+00  0.00000000000E+00 -0.34852721559E+04  0.34852721559E+04  0.50400001928E-02 0. -1.
    10030    2    1    2    0    0  0.00000000000E+00  0.00000000000E+00 -0.24079623736E+04  0.45625819381E+04  0.38754188353E+04 0.  0.
        5    1    3    3  502    0  0.10581436436E+04  0.14930728006E+04 -0.19539226462E+04  0.26770823962E+04  0.46999998093E+01 0. -1.
       -5    1    3    3    0  502 -0.10581436436E+04 -0.14930728006E+04 -0.45403972745E+03  0.18854995419E+04  0.46999998093E+01 0.  1.
</event>
<event>
 5   0  0.1015219E-06  0.2736401E+04  0.7818609E-02  0.8323290E-01
       -2   -1    0    0    0  501  0.00000000000E+00  0.00000000000E+00  0.11652907699E+04  0.11652907699E+04  0.25500000920E-02 0. -1.
        2   -1    0    0  501    0  0.00000000000E+00  0.00000000000E+00 -0.16064425928E+04  0.16064425928E+04  0.25500000920E-02 0.  1.
    10030    2    1    2    0    0  0.00000000000E+00  0.00000000000E+00 -0.44115182284E+03  0.27717333627E+04  0.27364010859E+04 0.  0.
        3    1    3    3  502    0 -0.91773438842E+03 -0.17436453926E+03  0.79199833686E+03  0.12247043627E+04  0.10100000352E+00 0. -1.
       -3    1    3    3    0  502  0.91773438842E+03  0.17436453926E+03 -0.12331501597E+04  0.15470290000E+04  0.10100000352E+00 0.  1.
</event>
<event>
 5   0  0.4316671E-07  0.3031363E+04  0.7818609E-02  0.8234831E-01
        1   -1    0    0  501    0  0.00000000000E+00  0.00000000000E+00  0.13622893481E+04  0.13622893481E+04  0.50400001928E-02 0.  1.
       -1   -1    0    0    0  501  0.00000000000E+00  0.00000000000E+00 -0.16863458957E+04  0.16863458957E+04  0.50400001928E-02 0. -1.
    10030    2    1    2    0    0  0.00000000000E+00  0.00000000000E+00 -0.32405654760E+03  0.30486352438E+04  0.30313634233E+04 0.  0.
        2    1    3    3  502    0 -0.81219549815E+03  0.44583678223E+03  0.10443307910E+04  0.13960869474E+04  0.25500000920E-02 0.  1.
       -2    1    3    3    0  502  0.81219549815E+03 -0.44583678223E+03 -0.13683873386E+04  0.16525482964E+04  0.25500000920E-02 0. -1.
</event>
<event>
 5   0  0.7268013E-07  0.3844998E+04  0.7818609E-02  0.8036567E-01
        2   -1    0    0  501    0  0.00000000000E+00  0.00000000000E+00  0.15521380671E+04  0.15521380671E+04  0.25500000920E-02 0.  1.
       -2   -1    0    0    0  501  0.00000000000E+00  0.00000000000E+00 -0.23812333162E+04  0.23812333162E+04  0.25500000920E-02 0. -1.
    10030    2    1    2    0    0  0.00000000000E+00  0.00000000000E+00 -0.82909524913E+03  0.39333713833E+04  0.38449982454E+04 0.  0.
        4    1    3    3  502    0  0.70397602276E+03 -0.12701014313E+04 -0.17033698959E+04  0.22383499507E+04  0.12699999809E+01 0. -1.
       -4    1    3    3    0  502 -0.70397602276E+03  0.12701014313E+04  0.87427464678E+03  0.16950214327E+04  0.12699999809E+01 0.  1.
</event>
<event>
 5   0  0.3977376E-07  0.2567346E+04  0.7818609E-02  0.8379378E-01
       -1   -1    0    0    0  501  0.00000000000E+00  0.00000000000E+00  0.22783507687E+04  0.22783507687E+04  0.50400001928E-02 0.  1.
        1   -1    0    0  501    0  0.00000000000E+00  0.00000000000E+00 -0.72324990160E+03  0.72324990162E+03  0.50400001928E-02 0. -1.
    10030    2    1    2    0    0  0.00000000000E+00  0.00000000000E+00  0.15551008671E+04  0.30016006703E+04  0.25673464661E+04 0.  0.
        4    1    3    3  502    0 -0.32584815206E+03  0.10987792973E+04  0.14535573923E+04  0.18510331353E+04  0.12699999809E+01 0.  1.
       -4    1    3    3    0  502  0.32584815206E+03 -0.10987792973E+04  0.10154347481E+03  0.11505675350E+04  0.12699999809E+01 0. -1.
</event>
<event>
 5   0  0.5533705E-07  0.4143083E+04  0.7818609E-02  0.7976288E-01
        2   -1    0    0  501    0  0.00000000000E+00  0.00000000000E+00  0.18897893977E+04  0.18897893977E+04  0.25500000920E-02 0. -1.
       -2   -1    0    0    0  501  0.00000000000E+00  0.00000000000E+00 -0.22707733319E+04  0.22707733319E+04  0.25500000920E-02 0.  1.
    10030    2    1    2    0    0  0.00000000000E+00  0.00000000000E+00 -0.38098393419E+03  0.41605627295E+04  0.41430826046E+04 0.  0.
        1    1    3    3  502    0 -0.74935704250E+03  0.13662452115E+04  0.11802290143E+04  0.19547640475E+04  0.50400001928E-02 0. -1.
       -1    1    3    3    0  502  0.74935704250E+03 -0.13662452115E+04 -0.15612129485E+04  0.22057986820E+04  0.50400001928E-02 0.  1.
</event>
<event>
 5   0  0.4316671E-07  0.3882496E+04  0.7818609E-02  0.8028680E-01
        1   -1    0    0  501    0  0.00000000000E+00  0.00000000000E+00  0.14382407233E+04  0.14382407233E+04  0.50400001928E-02 0. -1.
       -1   -1    0    0    0  501  0.00000000000E+00  0.00000000000E+00 -0.26201757410E+04  0.26201757410E+04  0.50400001928E-02 0.  1.
    10030    2    1    2    0    0  0.00000000000E+00  0.00000000000E+00 -0.11819350177E+04  0.40584164642E+04  0.38824958224E+04 0.  0.
        2    1    3    3  502    0  0.29122559322E+03 -0.99270612284E+03 -0.23080055591E+04  0.25292622350E+04  0.25500000920E-02 0.  1.
       -2    1    3    3    0  502 -0.29122559322E+03  0.99270612284E+03  0.11260705414E+04  0.15291542292E+04  0.25500000920E-02 0. -1.
</event>
<event>
 5   0  0.5533705E-07  0.3731264E+04  0.7818609E-02  0.8061068E-01
       -2   -1    0    0    0  501  0.00000000000E+00  0.00000000000E+00  0.15275343007E+04  0.15275343007E+04  0.25500000920E-02 0.  1.
        2   -1    0    0  501    0  0.00000000000E+00  0.00000000000E+00 -0.22785630952E+04  0.22785630952E+04  0.25500000920E-02 0. -1.
    10030    2    1    2    0    0  0.00000000000E+00  0.00000000000E+00 -0.75102879447E+03  0.38060973959E+04  0.37312642813E+04 0.  0.
        1    1    3    3  502    0  0.40775338794E+03 -0.82379492074E+03 -0.20315528774E+04  0.22298224123E+04  0.50400001928E-02 0. -1.
       -1    1    3    3    0  502 -0.40775338794E+03  0.82379492074E+03  0.12805240829E+04  0.15762749836E+04  0.50400001928E-02 0.  1.
</event>
<event>
 5   0  0.5385714E-07  0.3802688E+04  0.7818609E-02  0.8045578E-01
        1   -1    0    0  501    0  0.00000000000E+00  0.00000000000E+00  0.14967372059E+04  0.14967372059E+04  0.50400001928E-02 0. -1.
       -1   -1    0    0    0  501  0.00000000000E+00  0.00000000000E+00 -0.24153268536E+04  0.24153268536E+04  0.50400001928E-02 0.  1.
    10030    2    1    2    0    0  0.00000000000E+00  0.00000000000E+00 -0.91858964768E+03  0.39120640595E+04  0.38026882945E+04 0.  0.
        3    1    3    3  502    0  0.15541296169E+04  0.35504790737E+03 -0.15253093238E+04  0.22063423184E+04  0.10100000352E+00 0.  1.
       -3    1    3    3    0  502 -0.15541296169E+04 -0.35504790737E+03  0.60671967611E+03  0.17057217411E+04  0.10100000352E+00 0. -1.
</event>
<event>
 5   0  0.5533705E-07  0.3151740E+04  0.7818609E-02  0.8201680E-01
        2   -1    0    0  501    0  0.00000000000E+00  0.00000000000E+00  0.16650183983E+04  0.16650183983E+04  0.25500000920E-02 0.  1.
       -2   -1    0    0    0  501  0.00000000000E+00  0.00000000000E+00 -0.14914946963E+04  0.14914946963E+04  0.25500000920E-02 0. -1.
    10030    2    1    2    0    0  0.00000000000E+00  0.00000000000E+00  0.17352370204E+03  0.31565130946E+04  0.31517399069E+04 0.  0.
        1    1    3    3  502    0 -0.14836213273E+04 -0.51908584251E+03 -0.26474652999E+02  0.15720315716E+04  0.50400001928E-02 0. -1.
       -1    1    3    3    0  502  0.14836213273E+04  0.51908584251E+03  0.19999835504E+03  0.15844815230E+04  0.50400001928E-02 0.  1.
</event>
<event>
 5   0  0.4316671E-07  0.3618085E+04  0.7818609E-02  0.8086362E-01
       -1   -1    0    0    0  501  0.00000000000E+00  0.00000000000E+00  0.17209306210E+04  0.17209306211E+04  0.50400001928E-02 0.  1.
        1   -1    0    0  501    0  0.00000000000E+00  0.00000000000E+00 -0.19016657360E+04  0.19016657360E+04  0.50400001928E-02 0. -1.
    10030    2    1    2    0    0  0.00000000000E+00  0.00000000000E+00 -0.18073511491E+03  0.36225963570E+04  0.36180850161E+04 0.  0.
        2    1    3    3  502    0  0.93995279916E+03 -0.11547177104E+04  0.93841083650E+03  0.17599713502E+04  0.25500000920E-02 0.  1.
       -2    1    3    3    0  502 -0.93995279916E+03  0.11547177104E+04 -0.11191459514E+04  0.18626250068E+04  0.25500000920E-02 0. -1.
</event>
<event>
 5   0  0.5533705E-07  0.4015921E+04  0.7818609E-02  0.8001343E-01
        2   -1    0    0  501    0  0.00000000000E+00  0.00000000000E+00  0.16930807414E+04  0.16930807414E+04  0.25500000920E-02 0.  1.
       -2   -1    0    0    0  501  0.00000000000E+00  0.00000000000E+00 -0.23814011984E+04  0.23814011984E+04  0.25500000920E-02 0. -1.
    10030    2    1    2    0    0  0.00000000000E+00  0.00000000000E+00 -0.68832045694E+03  0.40744819398E+04  0.40159205702E+04 0.  0.
        1    1    3    3  502    0 -0.10131010851E+04 -0.15789544726E+04  0.38212302019E+03  0.19145466925E+04  0.50400001928E-02 0. -1.
       -1    1    3    3    0  502  0.10131010851E+04  0.15789544726E+04 -0.10704434771E+04  0.21599352474E+04  0.50400001928E-02 0.  1.
</event>
<event>
 5   0  0.4316671E-07  0.3914088E+04  0.7818609E-02  0.8022106E-01
        1   -1    0    0  501    0  0.00000000000E+00  0.00000000000E+00  0.11402607334E+04  0.11402607334E+04  0.50400001928E-02 0.  1.
       -1   -1    0    0    0  501  0.00000000000E+00  0.00000000000E+00 -0.33588992306E+04  0.33588992306E+04  0.50400001928E-02 0. -1.
    10030    2    1    2    0    0  0.00000000000E+00  0.00000000000E+00 -0.22186384972E+04  0.44991599641E+04  0.39140878377E+04 0.  0.
        2    1    3    3  502    0 -0.11999741164E+04 -0.40501754967E+03  0.60569495014E+03  0.14038673257E+04  0.25500000920E-02 0.  1.
       -2    1    3    3    0  502  0.11999741164E+04  0.40501754967E+03 -0.28243334473E+04  0.30952926384E+04  0.25500000920E-02 0. -1.
</event>
<event>
 5   0  0.3191750E-07  0.2508946E+04  0.7818609E-02  0.8399805E-01
        3   -1    0    0  501    0  0.00000000000E+00  0.00000000000E+00  0.69866736127E+03  0.69866736857E+03  0.10100000352E+00 0.  1.
       -3   -1    0    0    0  501  0.00000000000E+00  0.00000000000E+00 -0.22524353357E+04  0.22524353380E+04  0.10100000352E+00 0. -1.
    10030    2    1    2    0    0  0.00000000000E+00  0.00000000000E+00 -0.15537679744E+04  0.29511027065E+04  0.25089464455E+04 0.  0.
        5    1    3    3  502    0 -0.99701092198E+03  0.58944028542E+03 -0.13436890461E+04  0.17739765983E+04  0.46999998093E+01 0. -1.
       -5    1    3    3    0  502  0.99701092198E+03 -0.58944028542E+03 -0.21007892833E+03  0.11771261083E+04  0.46999998093E+01 0.  1.
</event>
<event>
 5   0  0.4316671E-07  0.3233688E+04  0.7818609E-02  0.8179976E-01
        1   -1    0    0  501    0  0.00000000000E+00  0.00000000000E+00  0.28072037957E+04  0.28072037957E+04  0.50400001928E-02 0. -1.
       -1   -1    0    0    0  501  0.00000000000E+00  0.00000000000E+00 -0.93124162457E+03  0.93124162459E+03  0.50400001928E-02 0.  1.
    10030    2    1    2    0    0  0.00000000000E+00  0.00000000000E+00  0.18759621711E+04  0.37384454203E+04  0.32336883110E+04 0.  0.
        2    1    3    3  502    0 -0.87259521083E+03  0.13474706591E+04  0.11606166958E+04  0.19809418703E+04  0.25500000920E-02 0.  1.
       -2    1    3    3    0  502  0.87259521083E+03 -0.13474706591E+04  0.71534547537E+03  0.17575035500E+04  0.25500000920E-02 0. -1.
</event>
<event>
 5   0  0.3471602E-07  0.3010271E+04  0.7818609E-02  0.8240804E-01
       -1   -1    0    0    0  501  0.00000000000E+00  0.00000000000E+00  0.10868278897E+04  0.10868278897E+04  0.50400001928E-02 0.  1.
        1   -1    0    0  501    0  0.00000000000E+00  0.00000000000E+00 -0.20844444842E+04  0.20844444842E+04  0.50400001928E-02 0. -1.
    10030    2    1    2    0    0  0.00000000000E+00  0.00000000000E+00 -0.99761659443E+03  0.31712723739E+04  0.30102706855E+04 0.  0.
        5    1    3    3  502    0 -0.86401980683E+03  0.12193047975E+04 -0.30983810409E+03  0.15261900788E+04  0.46999998093E+01 0.  1.
       -5    1    3    3    0  502  0.86401980683E+03 -0.12193047975E+04 -0.68777849034E+03  0.16450822951E+04  0.46999998093E+01 0. -1.
</event>
<event>
 5   0  0.1034683E-06  0.2273361E+04  0.7818609E-02  0.8488499E-01
       -2   -1    0    0    0  501  0.00000000000E+00  0.00000000000E+00  0.17526487556E+04  0.17526487556E+04  0.25500000920E-02 0. -1.
        2   -1    0    0  501    0  0.00000000000E+00  0.00000000000E+00 -0.73719435270E+03  0.73719435271E+03  0.25500000920E-02 0.  1.
    10030    2    1    2    0    0  0.00000000000E+00  0.00000000000E+00  0.10154544029E+04  0.24898431083E+04  0.22733611811E+04 0.  0.
        2    1    3    3  502    0 -0.15991149547E+03  0.89055687119E+03 -0.24581621976E+03  0.93759737686E+03  0.25500000920E-02 0.  1.
       -2    1    3    3    0  502  0.15991149547E+03 -0.89055687119E+03  0.12612706226E+04  0.15522457314E+04  0.25500000920E-02 0. -1.
</event>
<event>
 5   0  0.7268013E-07  0.3884997E+04  0.7818609E-02  0.8028157E-01
        2   -1    0    0  501    0  0.00000000000E+00  0.00000000000E+00  0.21243720601E+04  0.21243720601E+04  0.25500000920E-02 0. -1.
       -2   -1    0    0    0  501  0.00000000000E+00  0.00000000000E+00 -0.17761955577E+04  0.17761955577E+04  0.25500000920E-02 0.  1.
    10030    2    1    2    0    0  0.00000000000E+00  0.00000000000E+00  0.34817650240E+03  0.39005676179E+04  0.38849968938E+04 0.  0.
        4    1    3    3  502    0  0.11372500429E+04  0.61559112528E+03 -0.12812067607E+04  0.18203797599E+04  0.12699999809E+01 0.  1.
       -4    1    3    3    0  502 -0.11372500429E+04 -0.61559112528E+03  0.16293832631E+04  0.20801878580E+04  0.12699999809E+01 0. -1.
</event>
<event>
 5   0  0.1015219E-06  0.4081028E+04  0.7818609E-02  0.7988397E-01
       -2   -1    0    0    0  501  0.00000000000E+00  0.00000000000E+00  0.15696606317E+04  0.15696606317E+04  0.25500000920E-02 0.  1.
        2   -1    0    0  501    0  0.00000000000E+00  0.00000000000E+00 -0.26526101588E+04  0.26526101588E+04  0.25500000920E-02 0. -1.
    10030    2    1    2    0    0  0.00000000000E+00  0.00000000000E+00 -0.10829495270E+04  0.42222707905E+04  0.40810281732E+04 0.  0.
        3    1    3    3  502    0 -0.11855653257E+04 -0.13918703579E+03  0.11707210972E+04  0.16719826764E+04  0.10100000352E+00 0.  1.
       -3    1    3    3    0  502  0.11855653257E+04  0.13918703579E+03 -0.22536706242E+04  0.25502881141E+04  0.10100000352E+00 0. -1.
</event>
<event>
 5   0  0.1015219E-06  0.2088114E+04  0.7818609E-02  0.8566498E-01
        2   -1    0    0  501    0  0.00000000000E+00  0.00000000000E+00  0.75765368796E+03  0.75765368797E+03  0.25500000920E-02 0. -1.
       -2   -1    0    0    0  501  0.00000000000E+00  0.00000000000E+00 -0.14387241042E+04  0.14387241042E+04  0.25500000920E-02 0.  1.
    10030    2    1    2    0    0  0.00000000000E+00  0.00000000000E+00 -0.68107041625E+03  0.21963777922E+04  0.20881136210E+04 0.  0.
        3    1    3    3  502    0 -0.29564835415E+03  0.68788643949E+03  0.42483058520E+03  0.86085814120E+03  0.10100000352E+00 0. -1.
       -3    1    3    3    0  502  0.29564835415E+03 -0.68788643949E+03 -0.11059010014E+04  0.13355196510E+04  0.10100000352E+00 0.  1.
</event>
<event>
 5   0  0.4316671E-07  0.3956349E+04  0.7818609E-02  0.8013411E-01
        1   -1    0    0  501    0  0.00000000000E+00  0.00000000000E+00  0.13952739048E+04  0.13952739048E+04  0.50400001928E-02 0. -1.
       -1   -1    0    0    0  501  0.00000000000E+00  0.00000000000E+00 -0.28045919806E+04  0.28045919806E+04  0.50400001928E-02 0.  1.
    10030    2    1    2    0    0  0.00000000000E+00  0.00000000000E+00 -0.14093180758E+04  0.41998658854E+04  0.39563488239E+04 0.  0.
        2    1    3    3  502    0 -0.15537531973E+04  0.70094408042E+03 -0.17702904003E+04  0.24575190138E+04  0.25500000920E-02 0.  1.
       -2    1    3    3    0  502  0.15537531973E+04 -0.70094408042E+03  0.36097232444E+03  0.17423468716E+04  0.25500000920E-02 0. -1.
</event>
<event>
 5   0  0.3977376E-07  0.3862000E+04  0.7818609E-02  0.8032979E-01
        1   -1    0    0  501    0  0.00000000000E+00  0.00000000000E+00  0.28467112456E+04  0.28467112456E+04  0.50400001928E-02 0.  1.
       -1   -1    0    0    0  501  0.00000000000E+00  0.00000000000E+00 -0.13098486384E+04  0.13098486384E+04  0.50400001928E-02 0. -1.
    10030    2    1    2    0    0  0.00000000000E+00  0.00000000000E+00  0.15368626073E+04  0.41565598840E+04  0.38619999218E+04 0.  0.
        4    1    3    3  502    0 -0.80408162403E+03  0.35626550365E+03  0.26186437717E+04  0.27623846914E+04  0.12699999809E+01 0.  1.
       -4    1    3    3    0  502  0.80408162403E+03 -0.35626550365E+03 -0.10817811644E+04  0.13941751926E+04  0.12699999809E+01 0. -1.
</event>
<event>
 5   0  0.5533705E-07  0.3751859E+04  0.7818609E-02  0.8056566E-01
        2   -1    0    0  501    0  0.00000000000E+00  0.00000000000E+00  0.19797971143E+04  0.19797971143E+04  0.25500000920E-02 0. -1.
       -2   -1    0    0    0  501  0.00000000000E+00  0.00000000000E+00 -0.17775107733E+04  0.17775107733E+04  0.25500000920E-02 0.  1.
    10030    2    1    2    0    0  0.00000000000E+00  0.00000000000E+00  0.20228634101E+03  0.37573078876E+04  0.37518585792E+04 0.  0.
        1    1    3    3  502    0  0.10617176109E+04  0.80275972093E+02 -0.14455812806E+04  0.17953812285E+04  0.50400001928E-02 0.  1.
       -1    1    3    3    0  502 -0.10617176109E+04 -0.80275972093E+02  0.16478676216E+04  0.19619266590E+04  0.50400001928E-02 0. -1.
</event>
<event>
 5   0  0.5533705E-07  0.2331701E+04  0.7818609E-02  0.8465526E-01
       -2   -1    0    0    0  501  0.00000000000E+00  0.00000000000E+00  0.96377843411E+03  0.96377843411E+03  0.25500000920E-02 0. -1.
        2   -1    0    0  501    0  0.00000000000E+00  0.00000000000E+00 -0.14102899553E+04  0.14102899553E+04  0.25500000920E-02 0.  1.
    10030    2    1    2    0    0  0.00000000000E+00  0.00000000000E+00 -0.44651152119E+03  0.23740683894E+04  0.23317007053E+04 0.  0.
        1    1    3    3  502    0 -0.10974451194E+04 -0.29486407218E+03 -0.48852074710E+03  0.12369248689E+04  0.50400001928E-02 0.  1.
       -1    1    3    3    0  502  0.10974451194E+04  0.29486407218E+03  0.42009225912E+02  0.11371435205E+04  0.50400001928E-02 0. -1.
</event>
<event>
 5   0  0.1015219E-06  0.2248028E+04  0.7818609E-02  0.8498700E-01
        2   -1    0    0  501    0  0.00000000000E+00  0.00000000000E+00  0.13424806157E+04  0.13424806157E+04  0.25500000920E-02 0.  1.
       -2   -1    0    0    0  501  0.00000000000E+00  0.00000000000E+00 -0.94109909749E+03  0.94109909749E+03  0.25500000920E-02 0. -1.
    10030    2    1    2    0    0  0.00000000000E+00  0.00000000000E+00  0.40138151823E+03  0.22835797132E+04  0.22480278431E+04 0.  0.
        3    1    3    3  502    0 -0.21276152050E+01 -0.61586517668E+03  0.11558336332E+04  0.13096739443E+04  0.10100000352E+00 0.  1.
       -3    1    3    3    0  502  0.21276152050E+01  0.61586517668E+03 -0.75445211500E+03  0.97390576886E+03  0.10100000352E+00 0. -1.
</event>
<event>
 5   0  0.5385714E-07  0.2415195E+04  0.7818609E-02  0.8433837E-01
       -1   -1    0    0    0  501  0.00000000000E+00  0.00000000000E+00  0.97539407028E+03  0.97539407029E+03  0.50400001928E-02 0.  1.
        1   -1    0    0  501    0  0.00000000000E+00  0.00000000000E+00 -0.14950794666E+04  0.14950794666E+04  0.50400001928E-02 0. -1.
    10030    2    1    2    0    0  0.00000000000E+00  0.00000000000E+00 -0.51968539634E+03  0.24704735369E+04  0.24151949374E+04 0.  0.
        3    1    3    3  502    0 -0.14126665222E+03 -0.10049797754E+03  0.96259837156E+03  0.97808575578E+03  0.10100000352E+00 0.  1.
       -3    1    3    3    0  502  0.14126665222E+03  0.10049797754E+03 -0.14822837679E+04  0.14923877811E+04  0.10100000352E+00 0. -1.
</event>
<event>
 5   0  0.1034683E-06  0.2039521E+04  0.7818609E-02  0.8588363E-01
       -2   -1    0    0    0  501  0.00000000000E+00  0.00000000000E+00  0.69695992367E+03  0.69695992368E+03  0.25500000920E-02 0. -1.
        2   -1    0    0  501    0  0.00000000000E+00  0.00000000000E+00 -0.14920682579E+04  0.14920682579E+04  0.25500000920E-02 0.  1.
    10030    2    1    2    0    0  0.00000000000E+00  0.00000000000E+00 -0.79510833419E+03  0.21890281815E+04  0.20395212959E+04 0.  0.
        2    1    3    3  502    0 -0.23806441984E+03 -0.91274835005E+03  0.18311743916E+02  0.94346146635E+03  0.25500000920E-02 0. -1.
       -2    1    3    3    0  502  0.23806441984E+03  0.91274835005E+03 -0.81342007810E+03  0.12455667152E+04  0.25500000920E-02 0.  1.
</event>
<event>
 5   0  0.4627905E-07  0.3915681E+04  0.7818609E-02  0.8021776E-01
       -1   -1    0    0    0  501  0.00000000000E+00  0.00000000000E+00  0.13789457883E+04  0.13789457883E+04  0.50400001928E-02 0. -1.
        1   -1    0    0  501    0  0.00000000000E+00  0.00000000000E+00 -0.27797603451E+04  0.27797603451E+04  0.50400001928E-02 0.  1.
    10030    2    1    2    0    0  0.00000000000E+00  0.00000000000E+00 -0.14008145568E+04  0.41587061334E+04  0.39156806920E+04 0.  0.
        1    1    3    3  502    0  0.23237452903E+03  0.19411089699E+04 -0.81299047008E+03  0.21172754802E+04  0.50400001928E-02 0. -1.
       -1    1    3    3    0  502 -0.23237452903E+03 -0.19411089699E+04 -0.58782408669E+03  0.20414306532E+04  0.50400001928E-02 0.  1.
</event>
<event>
 5   0  0.5533705E-07  0.2692719E+04  0.7818609E-02  0.8337371E-01
        2   -1    0    0  501    0  0.00000000000E+00  0.00000000000E+00  0.16660721784E+04  0.16660721784E+04  0.25500000920E-02 0. -1.
       -2   -1    0    0    0  501  0.00000000000E+00  0.00000000000E+00 -0.10879982310E+04  0.10879982310E+04  0.25500000920E-02 0.  1.
    10030    2    1    2    0    0  0.00000000000E+00  0.00000000000E+00  0.57807394738E+03  0.27540704094E+04  0.26927187621E+04 0.  0.
        1    1    3    3  502    0  0.94529355657E+03 -0.27293497701E+03  0.12290030861E+04  0.15743322379E+04  0.50400001928E-02 0. -1.
       -1    1    3    3    0  502 -0.94529355657E+03  0.27293497701E+03 -0.65092913867E+03  0.11797381715E+04  0.50400001928E-02 0.  1.
</event>
<event>
 5   0  0.1034683E-06  0.3795928E+04  0.7818609E-02  0.8047029E-01
       -2   -1    0    0    0  501  0.00000000000E+00  0.00000000000E+00  0.12840959546E+04  0.12840959546E+04  0.25500000920E-02 0. -1.
        2   -1    0    0  501    0  0.00000000000E+00  0.00000000000E+00 -0.28052950161E+04  0.28052950161E+04  0.25500000920E-02 0.  1.
    10030    2    1    2    0    0  0.00000000000E+00  0.00000000000E+00 -0.15211990615E+04  0.40893909707E+04  0.37959283353E+04 0.  0.
        2    1    3    3  502    0 -0.17693065327E+04 -0.68011954293E+03 -0.86426664723E+03  0.20832582742E+04  0.25500000920E-02 0. -1.
       -2    1    3    3    0  502  0.17693065327E+04  0.68011954293E+03 -0.65693241431E+03  0.20061326966E+04  0.25500000920E-02 0.  1.
</event>
<event>
 5   0  0.4627905E-07  0.2582566E+04  0.7818609E-02  0.8374147E-01
        1   -1    0    0  501    0  0.00000000000E+00  0.00000000000E+00  0.11082680506E+04  0.11082680506E+04  0.50400001928E-02 0.  1.
       -1   -1    0    0    0  501  0.00000000000E+00  0.00000000000E+00 -0.15045201374E+04  0.15045201374E+04  0.50400001928E-02 0. -1.
    10030    2    1    2    0    0  0.00000000000E+00  0.00000000000E+00 -0.39625208672E+03  0.26127881880E+04  0.25825658557E+04 0.  0.
        1    1    3    3  502    0  0.33607317113E+03  0.83714675876E+03 -0.11328710653E+04  0.14481563184E+04  0.50400001928E-02 0. -1.
       -1    1    3    3    0  502 -0.33607317113E+03 -0.83714675876E+03  0.73661897856E+03  0.11646318696E+04  0.50400001928E-02 0.  1.
</event>
<event>
 5   0  0.1015219E-06  0.3958341E+04  0.7818609E-02  0.8013004E-01
        2   -1    0    0  501    0  0.00000000000E+00  0.00000000000E+00  0.12531360184E+04  0.12531360185E+04  0.25500000920E-02 0.  1.
       -2   -1    0    0    0  501  0.00000000000E+00  0.00000000000E+00 -0.31258510798E+04  0.31258510798E+04  0.25500000920E-02 0. -1.
    10030    2    1    2    0    0  0.00000000000E+00  0.00000000000E+00 -0.18727150614E+04  0.43789870983E+04  0.39583413579E+04 0.  0.
        3    1    3    3  502    0  0.61773879184E+03  0.30656089049E+03 -0.29886373076E+04  0.30671703183E+04  0.10100000352E+00 0. -1.
       -3    1    3    3    0  502 -0.61773879184E+03 -0.30656089049E+03  0.11159222462E+04  0.13118167800E+04  0.10100000352E+00 0.  1.
</event>
<event>
 5   0  0.1034683E-06  0.3898482E+04  0.7818609E-02  0.8025345E-01
        2   -1    0    0  501    0  0.00000000000E+00  0.00000000000E+00  0.26008479975E+04  0.26008479975E+04  0.25500000920E-02 0. -1.
       -2   -1    0    0    0  501  0.00000000000E+00  0.00000000000E+00 -0.14608849601E+04  0.14608849601E+04  0.25500000920E-02 0.  1.
    10030    2    1    2    0    0  0.00000000000E+00  0.00000000000E+00  0.11399630375E+04  0.40617329576E+04  0.38984816137E+04 0.  0.
        2    1    3    3  502    0  0.81059866119E+03 -0.16908224966E+04  0.11248121481E+04  0.21865848424E+04  0.25500000920E-02 0. -1.
       -2    1    3    3    0  502 -0.81059866119E+03  0.16908224966E+04  0.15150889400E+02  0.18751481152E+04  0.25500000920E-02 0.  1.
</event>
<event>
 5   0  0.1015219E-06  0.3896430E+04  0.7818609E-02  0.8025772E-01
       -2   -1    0    0    0  501  0.00000000000E+00  0.00000000000E+00  0.24189886859E+04  0.24189886859E+04  0.25500000920E-02 0.  1.
        2   -1    0    0  501    0  0.00000000000E+00  0.00000000000E+00 -0.15690616840E+04  0.15690616840E+04  0.25500000920E-02 0. -1.
    10030    2    1    2    0    0  0.00000000000E+00  0.00000000000E+00  0.84992700190E+03  0.39880503699E+04  0.38964303978E+04 0.  0.
        3    1    3    3  502    0  0.50244676368E+03  0.44320089793E+03 -0.14474410218E+04  0.15949812876E+04  0.10100000352E+00 0. -1.
       -3    1    3    3    0  502 -0.50244676368E+03 -0.44320089793E+03  0.22973680237E+04  0.23930690823E+04  0.10100000352E+00 0.  1.
</event>
<event>
 5   0  0.3977376E-07  0.3562309E+04  0.7818609E-02  0.8099180E-01
       -1   -1    0    0    0  501  0.00000000000E+00  0.00000000000E+00  0.13340929935E+04  0.13340929936E+04  0.50400001928E-02 0.  1.
        1   -1    0    0  501    0  0.00000000000E+00  0.00000000000E+00 -0.23780281421E+04  0.23780281421E+04  0.50400001928E-02 0. -1.
    10030    2    1    2    0    0  0.00000000000E+00  0.00000000000E+00 -0.10439351485E+04  0.37121211356E+04  0.35623086238E+04 0.  0.
        4    1    3    3  502    0 -0.11155772218E+04  0.85805038402E+03  0.61561377186E+03  0.15361461286E+04  0.12699999809E+01 0. -1.
       -4    1    3    3    0  502  0.11155772218E+04 -0.85805038402E+03 -0.16595489204E+04  0.21759750071E+04  0.12699999809E+01 0.  1.
</event>
<event>
 5   0  0.7268013E-07  0.2205987E+04  0.7818609E-02  0.8515940E-01
        2   -1    0    0  501    0  0.00000000000E+00  0.00000000000E+00  0.84294222396E+03  0.84294222397E+03  0.25500000920E-02 0.  1.
       -2   -1    0    0    0  501  0.00000000000E+00  0.00000000000E+00 -0.14432715267E+04  0.14432715267E+04  0.25500000920E-02 0. -1.
    10030    2    1    2    0    0  0.00000000000E+00  0.00000000000E+00 -0.60032930270E+03  0.22862137506E+04  0.22059868635E+04 0.  0.
        4    1    3    3  502    0  0.93977161870E+03  0.31728916606E+03  0.19982216966E+03  0.10118169907E+04  0.12699999809E+01 0.  1.
       -4    1    3    3    0  502 -0.93977161870E+03 -0.31728916606E+03 -0.80015147236E+03  0.12743967600E+04  0.12699999809E+01 0. -1.
</event>
<event>
 5   0  0.6087596E-07  0.2035108E+04  0.7818609E-02  0.8590380E-01
        2   -1    0    0  501    0  0.00000000000E+00  0.00000000000E+00  0.16527927451E+04  0.16527927451E+04  0.25500000920E-02 0. -1.
       -2   -1    0    0    0  501  0.00000000000E+00  0.00000000000E+00 -0.62646442875E+03  0.62646442876E+03  0.25500000920E-02 0.  1.
    10030    2    1    2    0    0  0.00000000000E+00  0.00000000000E+00  0.10263283163E+04  0.22792571738E+04  0.20351077248E+04 0.  0.
        1    1    3    3  502    0  0.56478589931E+03  0.77594806054E+03  0.13446006054E+03  0.96910165237E+03  0.50400001928E-02 0.  1.
       -1    1    3    3    0  502 -0.56478589931E+03 -0.77594806054E+03  0.89186825576E+03  0.13101555214E+04  0.50400001928E-02 0. -1.
</event>
<event>
 5   0  0.1015219E-06  0.2322494E+04  0.7818609E-02  0.8469105E-01
        2   -1    0    0  501    0  0.00000000000E+00  0.00000000000E+00  0.20902216598E+04  0.20902216598E+04  0.25500000920E-02 0.  1.
       -2   -1    0    0    0  501  0.00000000000E+00  0.00000000000E+00 -0.64514421486E+03  0.64514421486E+03  0.25500000920E-02 0. -1.
    10030    2    1    2    0    0  0.00000000000E+00  0.00000000000E+00  0.14450774449E+04  0.27353658747E+04  0.23224938421E+04 0.  0.
        3    1    3    3  502    0  0.13993718676E+03  0.69264778432E+03 -0.36277007715E+03  0.79432078434E+03  0.10100000352E+00 0.  1.
       -3    1    3    3    0  502 -0.13993718676E+03 -0.69264778432E+03  0.18078475221E+04  0.19410450903E+04  0.10100000352E+00 0. -1.
</event>
<event>
 5   0  0.5533705E-07  0.3841408E+04  0.7818609E-02  0.8037327E-01
       -2   -1    0    0    0  501  0.00000000000E+00  0.00000000000E+00  0.26311669922E+04  0.26311669922E+04  0.25500000920E-02 0.  1.
        2   -1    0    0  501    0  0.00000000000E+00  0.00000000000E+00 -0.14020787105E+04  0.14020787105E+04  0.25500000920E-02 0. -1.
    10030    2    1    2    0    0  0.00000000000E+00  0.00000000000E+00  0.12290882817E+04  0.40332457027E+04  0.38414076709E+04 0.  0.
        1    1    3    3  502    0  0.11411974483E+04 -0.46309159216E+03 -0.93293911796E+03  0.15450439594E+04  0.50400001928E-02 0. -1.
       -1    1    3    3    0  502 -0.11411974483E+04  0.46309159216E+03  0.21620273996E+04  0.24882017433E+04  0.50400001928E-02 0.  1.
</event>
<event>
 5   0  0.5385714E-07  0.2141868E+04  0.7818609E-02  0.8543021E-01
       -1   -1    0    0    0  501  0.00000000000E+00  0.00000000000E+00  0.77391943864E+03  0.77391943865E+03  0.50400001928E-02 0. -1.
        1   -1    0    0  501    0  0.00000000000E+00  0.00000000000E+00 -0.14819368824E+04  0.14819368824E+04  0.50400001928E-02 0.  1.
    10030    2    1    2    0    0  0.00000000000E+00  0.00000000000E+00 -0.70801744376E+03  0.22558563211E+04  0.21418681193E+04 0.  0.
        3    1    3    3  502    0  0.97908674747E+03 -0.68983333538E+02 -0.80521222879E+03  0.12695417689E+04  0.10100000352E+00 0.  1.
       -3    1    3    3    0  502 -0.97908674747E+03  0.68983333538E+02  0.97194785030E+02  0.98631455216E+03  0.10100000352E+00 0. -1.
</event>
<event>
 5   0  0.5385714E-07  0.3941271E+04  0.7818609E-02  0.8016500E-01
        1   -1    0    0  501    0  0.00000000000E+00  0.00000000000E+00  0.21042237071E+04  0.21042237071E+04  0.50400001928E-02 0. -1.
       -1   -1    0    0    0  501  0.00000000000E+00  0.00000000000E+00 -0.18455281892E+04  0.18455281892E+04  0.50400001928E-02 0.  1.
    10030    2    1    2    0    0  0.00000000000E+00  0.00000000000E+00  0.25869551789E+03  0.39497518963E+04  0.39412709462E+04 0.  0.
        3    1    3    3  502    0 -0.15651647542E+04  0.42277894421E+03 -0.99329554289E+03  0.19013465726E+04  0.10100000352E+00 0.  1.
       -3    1    3    3    0  502  0.15651647542E+04 -0.42277894421E+03  0.12519910608E+04  0.20484053237E+04  0.10100000352E+00 0. -1.
</event>
<event>
 5   0  0.7268013E-07  0.3904857E+04  0.7818609E-02  0.8024020E-01
        2   -1    0    0  501    0  0.00000000000E+00  0.00000000000E+00  0.25642514255E+04  0.25642514255E+04  0.25500000920E-02 0. -1.
       -2   -1    0    0    0  501  0.00000000000E+00  0.00000000000E+00 -0.14865844802E+04  0.14865844802E+04  0.25500000920E-02 0.  1.
    10030    2    1    2    0    0  0.00000000000E+00  0.00000000000E+00  0.10776669453E+04  0.40508359057E+04  0.39048566542E+04 0.  0.
        4    1    3    3  502    0  0.12515887881E+04 -0.14755615909E+04  0.26788303111E+03  0.19533354638E+04  0.12699999809E+01 0.  1.
       -4    1    3    3    0  502 -0.12515887881E+04  0.14755615909E+04  0.80978391422E+03  0.20975004419E+04  0.12699999809E+01 0. -1.
</event>
<event>
 5   0  0.3471602E-07  0.2818097E+04  0.7818609E-02  0.8297672E-01
        1   -1    0    0  501    0  0.00000000000E+00  0.00000000000E+00  0.99722578963E+03  0.99722578965E+03  0.50400001928E-02 0. -1.
       -1   -1    0    0    0  501  0.00000000000E+00  0.00000000000E+00 -0.19909404772E+04  0.19909404772E+04  0.50400001928E-02 0.  1.
    10030    2    1    2    0    0  0.00000000000E+00  0.00000000000E+00 -0.99371468759E+03  0.29881662669E+04  0.28180966552E+04 0.  0.
        5    1    3    3  502    0  0.13826768705E+04  0.19148042379E+03 -0.29307430457E+03  0.14263150840E+04  0.46999998093E+01 0.  1.
       -5    1    3    3    0  502 -0.13826768705E+04 -0.19148042379E+03 -0.70064038302E+03  0.15618511828E+04  0.46999998093E+01 0. -1.
</event>
<event>
 5   0  0.3471602E-07  0.1952345E+04  0.7818609E-02  0.8629231E-01
       -1   -1    0    0    0  501  0.00000000000E+00  0.00000000000E+00  0.66452005201E+03  0.66452005203E+03  0.50400001928E-02 0. -1.
        1   -1    0    0  501    0  0.00000000000E+00  0.00000000000E+00 -0.14339862884E+04  0.14339862884E+04  0.50400001928E-02 0.  1.
    10030    2    1    2    0    0  0.00000000000E+00  0.00000000000E+00 -0.76946623638E+03  0.20985063404E+04  0.19523448906E+04 0.  0.
        5    1    3    3  502    0  0.76189997935E+03 -0.60776345920E+03 -0.32563949150E+03  0.10275851154E+04  0.46999998093E+01 0. -1.
       -5    1    3    3    0  502 -0.76189997935E+03  0.60776345920E+03 -0.44382674488E+03  0.10709212251E+04  0.46999998093E+01 0.  1.
</event>
<event>
 5   0  0.4627905E-07  0.3840807E+04  0.7818609E-02  0.8037454E-01
        1   -1    0    0  501    0  0.00000000000E+00  0.00000000000E+00  0.20721887927E+04  0.20721887927E+04  0.50400001928E-02 0. -1.
       -1   -1    0    0    0  501  0.00000000000E+00  0.00000000000E+00 -0.17797359315E+04  0.17797359316E+04  0.50400001928E-02 0.  1.
    10030    2    1    2    0    0  0.00000000000E+00  0.00000000000E+00  0.29245286115E+03  0.38519247243E+04  0.38408066087E+04 0.  0.
        1    1    3    3  502    0 -0.87795460672E+03 -0.16348496846E+04  0.64203700617E+03  0.19636061978E+04  0.50400001928E-02 0. -1.
       -1    1    3    3    0  502  0.87795460672E+03  0.16348496846E+04 -0.34958414502E+03  0.18883185264E+04  0.50400001928E-02 0.  1.
</event>
<event>
 5   0  0.5533705E-07  0.3949420E+04  0.7818609E-02  0.8014829E-01
       -2   -1    0    0    0  501  0.00000000000E+00  0.00000000000E+00  0.22012478304E+04  0.22012478304E+04  0.25500000920E-02 0. -1.
        2   -1    0    0  501    0  0.00000000000E+00  0.00000000000E+00 -0.17714856471E+04  0.17714856471E+04  0.25500000920E-02 0.  1.
    10030    2    1    2    0    0  0.00000000000E+00  0.00000000000E+00  0.42976218331E+03  0.39727334774E+04  0.39494196724E+04 0.  0.
        1    1    3    3  502    0 -0.13396359350E+03  0.12157150866E+03  0.21928951048E+04  0.22003442496E+04  0.50400001928E-02 0. -1.
       -1    1    3    3    0  502  0.13396359350E+03 -0.12157150866E+03 -0.17631329215E+04  0.17723892278E+04  0.50400001928E-02 0.  1.
</event>
<event>
 5   0  0.1035864E-06  0.3915353E+04  0.7818609E-02  0.8021844E-01
       -2   -1    0    0    0  501  0.00000000000E+00  0.00000000000E+00  0.17867538879E+04  0.17867538879E+04  0.25500000920E-02 0. -1.
        2   -1    0    0  501    0  0.00000000000E+00  0.00000000000E+00 -0.21449499978E+04  0.21449499978E+04  0.25500000920E-02 0.  1.
    10030    2    1    2    0    0  0.00000000000E+00  0.00000000000E+00 -0.35819610995E+03  0.39317038857E+04  0.39153532397E+04 0.  0.
        5    1    3    3  502    0  0.90918792372E+03 -0.11729202681E+04 -0.14611878514E+04  0.20826561557E+04  0.46999998093E+01 0.  1.
       -5    1    3    3    0  502 -0.90918792372E+03  0.11729202681E+04  0.11029917415E+04  0.18490477299E+04  0.46999998093E+01 0. -1.
</event>
<event>
 5   0  0.5385714E-07  0.2162571E+04  0.7818609E-02  0.8534170E-01
        1   -1    0    0  501    0  0.00000000000E+00  0.00000000000E+00  0.19125069071E+04  0.19125069071E+04  0.50400001928E-02 0. -1.
       -1   -1    0    0    0  501  0.00000000000E+00  0.00000000000E+00 -0.61133292950E+03  0.61133292952E+03  0.50400001928E-02 0.  1.
    10030    2    1    2    0    0  0.00000000000E+00  0.00000000000E+00  0.13011739776E+04  0.25238398366E+04  0.21625711089E+04 0.  0.
        3    1    3    3  502    0  0.36174578512E+03 -0.34042060612E+03 -0.47029174810E+03  0.68404717721E+03  0.10100000352E+00 0.  1.
       -3    1    3    3    0  502 -0.36174578512E+03  0.34042060612E+03  0.17714657257E+04  0.18397926594E+04  0.10100000352E+00 0. -1.
</event>
<event>
 5   0  0.1035864E-06  0.3891996E+04  0.7818609E-02  0.8026696E-01
       -2   -1    0    0    0  501  0.00000000000E+00  0.00000000000E+00  0.16518731726E+04  0.16518731726E+04  0.25500000920E-02 0.  1.
        2   -1    0    0  501    0  0.00000000000E+00  0.00000000000E+00 -0.22924938316E+04  0.22924938316E+04  0.25500000920E-02 0. -1.
    10030    2    1    2    0    0  0.00000000000E+00  0.00000000000E+00 -0.64062065901E+03  0.39443670041E+04  0.38919964330E+04 0.  0.
        5    1    3    3  502    0  0.15187422903E+04  0.74394500273E+03 -0.12959977413E+04  0.21306488558E+04  0.46999998093E+01 0. -1.
       -5    1    3    3    0  502 -0.15187422903E+04 -0.74394500273E+03  0.65537708229E+03  0.18137181483E+04  0.46999998093E+01 0.  1.
</event>
<event>
 5   0  0.5385714E-07  0.3618647E+04  0.7818609E-02  0.8086234E-01
       -1   -1    0    0    0  501  0.00000000000E+00  0.00000000000E+00  0.22747042109E+04  0.22747042109E+04  0.50400001928E-02 0.  1.
        1   -1    0    0  501    0  0.00000000000E+00  0.00000000000E+00 -0.14391551624E+04  0.14391551624E+04  0.50400001928E-02 0. -1.
    10030    2    1    2    0    0  0.00000000000E+00  0.00000000000E+00  0.83554904857E+03  0.37138593733E+04  0.36186474313E+04 0.  0.
        3    1    3    3  502    0 -0.13300088234E+04 -0.33941568009E+03 -0.79202245215E+03  0.15847479450E+04  0.10100000352E+00 0. -1.
       -3    1    3    3    0  502  0.13300088234E+04  0.33941568009E+03  0.16275715007E+04  0.21291114283E+04  0.10100000352E+00 0.  1.
</event>
<event>
 5   0  0.1015219E-06  0.2464495E+04  0.7818609E-02  0.8415745E-01
       -2   -1    0    0    0  501  0.00000000000E+00  0.00000000000E+00  0.15296227168E+04  0.15296227168E+04  0.25500000920E-02 0.  1.
        2   -1    0    0  501    0  0.00000000000E+00  0.00000000000E+00 -0.99268525489E+03  0.99268525489E+03  0.25500000920E-02 0. -1.
    10030    2    1    2    0    0  0.00000000000E+00  0.00000000000E+00  0.53693746195E+03  0.25223079717E+04  0.24644950124E+04 0.  0.
        3    1    3    3  502    0 -0.35187213548E+03 -0.11704787909E+04  0.42898963690E+03  0.12953249471E+04  0.10100000352E+00 0. -1.
       -3    1    3    3    0  502  0.35187213548E+03  0.11704787909E+04  0.10794782505E+03  0.12269830247E+04  0.10100000352E+00 0.  1.
</event>
<event>
 5   0  0.5533705E-07  0.2865464E+04  0.7818609E-02  0.8283228E-01
       -2   -1    0    0    0  501  0.00000000000E+00  0.00000000000E+00  0.14696773441E+04  0.14696773441E+04  0.25500000920E-02 0.  1.
        2   -1    0    0  501    0  0.00000000000E+00  0.00000000000E+00 -0.13967153369E+04  0.13967153369E+04  0.25500000920E-02 0. -1.
    10030    2    1    2    0    0  0.00000000000E+00  0.00000000000E+00  0.72962007217E+02  0.28663926810E+04  0.28654639322E+04 0.  0.
        1    1    3    3  502    0  0.10399132277E+04 -0.89602137667E+03 -0.37407504532E+03  0.14227459254E+04  0.50400001928E-02 0. -1.
       -1    1    3    3    0  502 -0.10399132277E+04  0.89602137667E+03  0.44703705254E+03  0.14436467556E+04  0.50400001928E-02 0.  1.
</event>
<event>
 5   0  0.4627905E-07  0.2380226E+04  0.7818609E-02  0.8446944E-01
        1   -1    0    0  501    0  0.00000000000E+00  0.00000000000E+00  0.13276078296E+04  0.13276078296E+04  0.50400001928E-02 0.  1.
       -1   -1    0    0    0  501  0.00000000000E+00  0.00000000000E+00 -0.10668580879E+04  0.10668580879E+04  0.50400001928E-02 0. -1.
    10030    2    1    2    0    0  0.00000000000E+00  0.00000000000E+00  0.26074974165E+03  0.23944659175E+04  0.23802261662E+04 0.  0.
        1    1    3    3  502    0  0.45910144077E+03 -0.81602738061E+03  0.86940877548E+03  0.12777114063E+04  0.50400001928E-02 0.  1.
       -1    1    3    3    0  502 -0.45910144077E+03  0.81602738061E+03 -0.60865903383E+03  0.11167545112E+04  0.50400001928E-02 0. -1.
</event>
<event>
 5   0  0.1034683E-06  0.2008999E+04  0.7818609E-02  0.8602425E-01
        2   -1    0    0  501    0  0.00000000000E+00  0.00000000000E+00  0.97822471527E+03  0.97822471527E+03  0.25500000920E-02 0.  1.
       -2   -1    0    0    0  501  0.00000000000E+00  0.00000000000E+00 -0.10314802976E+04  0.10314802976E+04  0.25500000920E-02 0. -1.
    10030    2    1    2    0    0  0.00000000000E+00  0.00000000000E+00 -0.53255582322E+02  0.20097050129E+04  0.20089992737E+04 0.  0.
        2    1    3    3  502    0 -0.70849661623E+03  0.46444344622E+03 -0.56658063957E+03  0.10191608269E+04  0.25500000920E-02 0. -1.
       -2    1    3    3    0  502  0.70849661623E+03 -0.46444344622E+03  0.51332505725E+03  0.99054418596E+03  0.25500000920E-02 0.  1.
</event>
<event>
 5   0  0.1015219E-06  0.3743096E+04  0.7818609E-02  0.8058478E-01
       -2   -1    0    0    0  501  0.00000000000E+00  0.00000000000E+00  0.14120335389E+04  0.14120335389E+04  0.25500000920E-02 0. -1.
        2   -1    0    0  501    0  0.00000000000E+00  0.00000000000E+00 -0.24806007257E+04  0.24806007257E+04  0.25500000920E-02 0.  1.
    10030    2    1    2    0    0  0.00000000000E+00  0.00000000000E+00 -0.10685671868E+04  0.38926342646E+04  0.37430957355E+04 0.  0.
        3    1    3    3  502    0  0.11698833571E+04  0.13102986749E+04 -0.12059835244E+04  0.21307055071E+04  0.10100000352E+00 0.  1.
       -3    1    3    3    0  502 -0.11698833571E+04 -0.13102986749E+04  0.13741633761E+03  0.17619287575E+04  0.10100000352E+00 0. -1.
</event>
<event>
 5   0  0.1035864E-06  0.2292463E+04  0.7818609E-02  0.8480899E-01
       -2   -1    0    0    0  501  0.00000000000E+00  0.00000000000E+00  0.58541791183E+03  0.58541791184E+03  0.25500000920E-02 0.  1.
        2   -1    0    0  501    0  0.00000000000E+00  0.00000000000E+00 -0.22442881892E+04  0.22442881892E+04  0.25500000920E-02 0. -1.
    10030    2    1    2    0    0  0.00000000000E+00  0.00000000000E+00 -0.16588702773E+04  0.28297061010E+04  0.22924628723E+04 0.  0.
        5    1    3    3  502    0 -0.47718628611E+03  0.29726024230E+03 -0.20624001763E+04  0.21376592293E+04  0.46999998093E+01 0. -1.
       -5    1    3    3    0  502  0.47718628611E+03 -0.29726024230E+03  0.40352989897E+03  0.69204687173E+03  0.46999998093E+01 0.  1.
</event>
<event>
 5   0  0.1034683E-06  0.3423350E+04  0.7818609E-02  0.8132199E-01
        2   -1    0    0  501    0  0.00000000000E+00  0.00000000000E+00  0.20865909147E+04  0.20865909147E+04  0.25500000920E-02 0. -1.
       -2   -1    0    0    0  501  0.00000000000E+00  0.00000000000E+00 -0.14041232427E+04  0.14041232427E+04  0.25500000920E-02 0.  1.
    10030    2    1    2    0    0  0.00000000000E+00  0.00000000000E+00  0.68246767191E+03  0.34907141574E+04  0.34233497054E+04 0.  0.
        2    1    3    3  502    0 -0.47210755778E+03 -0.15850146340E+04  0.79113472112E+03  0.18333169619E+04  0.25500000920E-02 0. -1.
       -2    1    3    3    0  502  0.47210755778E+03  0.15850146340E+04 -0.10866704922E+03  0.16573971955E+04  0.25500000920E-02 0.  1.
</event>
<event>
 5   0  0.5533705E-07  0.3741165E+04  0.7818609E-02  0.8058900E-01
        2   -1    0    0  501    0  0.00000000000E+00  0.00000000000E+00  0.20362618780E+04  0.20362618780E+04  0.25500000920E-02 0. -1.
       -2   -1    0    0    0  501  0.00000000000E+00  0.00000000000E+00 -0.17183835200E+04  0.17183835200E+04  0.25500000920E-02 0.  1.
    10030    2    1    2    0    0  0.00000000000E+00  0.00000000000E+00  0.31787835800E+03  0.37546453981E+04  0.37411649809E+04 0.  0.
        1    1    3    3  502    0  0.13533323671E+04  0.12730389226E+04  0.37638149295E+03  0.18957319490E+04  0.50400001928E-02 0. -1.
       -1    1    3    3    0  502 -0.13533323671E+04 -0.12730389226E+04 -0.58503134946E+02  0.18589134490E+04  0.50400001928E-02 0.  1.
</event>
<event>
 5   0  0.3191750E-07  0.3816263E+04  0.7818609E-02  0.8042674E-01
        3   -1    0    0  501    0  0.00000000000E+00  0.00000000000E+00  0.28046410918E+04  0.28046410936E+04  0.10100000352E+00 0.  1.
       -3   -1    0    0    0  501  0.00000000000E+00  0.00000000000E+00 -0.12981931220E+04  0.12981931259E+04  0.10100000352E+00 0. -1.
    10030    2    1    2    0    0  0.00000000000E+00  0.00000000000E+00  0.15064479698E+04  0.41028342196E+04  0.38162629820E+04 0.  0.
        5    1    3    3  502    0 -0.16017049383E+04 -0.35924999196E+03  0.17991203308E+04  0.24354415043E+04  0.46999998093E+01 0.  1.
       -5    1    3    3    0  502  0.16017049383E+04  0.35924999196E+03 -0.29267236098E+03  0.16673927153E+04  0.46999998093E+01 0. -1.
</event>
<event>
 5   0  0.3471602E-07  0.4009318E+04  0.7818609E-02  0.8002670E-01
        1   -1    0    0  501    0  0.00000000000E+00  0.00000000000E+00  0.13317607637E+04  0.13317607637E+04  0.50400001928E-02 0. -1.
       -1   -1    0    0    0  501  0.00000000000E+00  0.00000000000E+00 -0.30175515549E+04  0.30175515549E+04  0.50400001928E-02 0.  1.
    10030    2    1    2    0    0  0.00000000000E+00  0.00000000000E+00 -0.16857907912E+04  0.43493123186E+04  0.40093175296E+04 0.  0.
        5    1    3    3  502    0 -0.15817637357E+04 -0.13428289764E+03  0.48510074049E+03  0.16599256702E+04  0.46999998093E+01 0. -1.
       -5    1    3    3    0  502  0.15817637357E+04  0.13428289764E+03 -0.21708915317E+04  0.26893866484E+04  0.46999998093E+01 0.  1.
</event>
<event>
 5   0  0.7148949E-07  0.2000255E+04  0.7818609E-02  0.8606502E-01
        2   -1    0    0  501    0  0.00000000000E+00  0.00000000000E+00  0.12832356863E+04  0.12832356863E+04  0.25500000920E-02 0.  1.
       -2   -1    0    0    0  501  0.00000000000E+00  0.00000000000E+00 -0.77947856905E+03  0.77947856905E+03  0.25500000920E-02 0. -1.
    10030    2    1    2    0    0  0.00000000000E+00  0.00000000000E+00  0.50375711726E+03  0.20627142554E+04  0.20002547003E+04 0.  0.
        1    1    3    3  502    0  0.34990275408E+03 -0.32645586457E+03 -0.65375222266E+03  0.81018352087E+03  0.50400001928E-02 0. -1.
       -1    1    3    3    0  502 -0.34990275408E+03  0.32645586457E+03  0.11575093399E+04  0.12525307345E+04  0.50400001928E-02 0.  1.
</event>
<event>
 5   0  0.4316671E-07  0.2242546E+04  0.7818609E-02  0.8500925E-01
       -1   -1    0    0    0  501  0.00000000000E+00  0.00000000000E+00  0.14080343041E+04  0.14080343041E+04  0.50400001928E-02 0. -1.
        1   -1    0    0  501    0  0.00000000000E+00  0.00000000000E+00 -0.89291343082E+03  0.89291343083E+03  0.50400001928E-02 0.  1.
    10030    2    1    2    0    0  0.00000000000E+00  0.00000000000E+00  0.51512087327E+03  0.23009477349E+04  0.22425456439E+04 0.  0.
        2    1    3    3  502    0  0.19701503571E+03 -0.66395186171E+03  0.11623450203E+04  0.13530310215E+04  0.25500000920E-02 0. -1.
       -2    1    3    3    0  502 -0.19701503571E+03  0.66395186171E+03 -0.64722414706E+03  0.94791671339E+03  0.25500000920E-02 0.  1.
</event>
<event>
 5   0  0.1035864E-06  0.3327950E+04  0.7818609E-02  0.8155820E-01
        2   -1    0    0  501    0  0.00000000000E+00  0.00000000000E+00  0.26488731523E+04  0.26488731523E+04  0.25500000920E-02 0.  1.
       -2   -1    0    0    0  501  0.00000000000E+00  0.00000000000E+00 -0.10452797255E+04  0.10452797255E+04  0.25500000920E-02 0. -1.
    10030    2    1    2    0    0  0.00000000000E+00  0.00000000000E+00  0.16035934268E+04  0.36941528779E+04  0.33279503612E+04 0.  0.
        5    1    3    3  502    0 -0.93656430487E+03  0.27733139600E+03  0.22971490873E+04  0.24961933859E+04  0.46999998093E+01 0.  1.
       -5    1    3    3    0  502  0.93656430487E+03 -0.27733139600E+03 -0.69355566046E+03  0.11979594920E+04  0.46999998093E+01 0. -1.
</event>
<event>
 5   0  0.7268013E-07  0.2515759E+04  0.7818609E-02  0.8397393E-01
        2   -1    0    0  501    0  0.00000000000E+00  0.00000000000E+00  0.87202188586E+03  0.87202188587E+03  0.25500000920E-02 0.  1.
       -2   -1    0    0    0  501  0.00000000000E+00  0.00000000000E+00 -0.18144730643E+04  0.18144730643E+04  0.25500000920E-02 0. -1.
    10030    2    1    2    0    0  0.00000000000E+00  0.00000000000E+00 -0.94245117848E+03  0.26864949502E+04  0.25157585126E+04 0.  0.
        4    1    3    3  502    0 -0.10665713276E+04 -0.55221283736E+03 -0.72030195856E+02  0.12032054591E+04  0.12699999809E+01 0.  1.
       -4    1    3    3    0  502  0.10665713276E+04  0.55221283736E+03 -0.87042098263E+03  0.14832894912E+04  0.12699999809E+01 0. -1.
</event>
<event>
 5   0  0.1034683E-06  0.3846372E+04  0.7818609E-02  0.8036276E-01
        2   -1    0    0  501    0  0.00000000000E+00  0.00000000000E+00  0.19946423362E+04  0.19946423362E+04  0.25500000920E-02 0.  1.
       -2   -1    0    0    0  501  0.00000000000E+00  0.00000000000E+00 -0.18542897493E+04  0.18542897493E+04  0.25500000920E-02 0. -1.
    10030    2    1    2    0    0  0.00000000000E+00  0.00000000000E+00  0.14035258696E+03  0.38489320855E+04  0.38463722324E+04 0.  0.
        2    1    3    3  502    0  0.29385071491E+03 -0.13284606561E+04 -0.12899519338E+04  0.18748685152E+04  0.25500000920E-02 0. -1.
       -2    1    3    3    0  502 -0.29385071491E+03  0.13284606561E+04  0.14303045208E+04  0.19740635703E+04  0.25500000920E-02 0.  1.
</event>
<event>
 5   0  0.5533705E-07  0.2488644E+04  0.7818609E-02  0.8407042E-01
        2   -1    0    0  501    0  0.00000000000E+00  0.00000000000E+00  0.18019175648E+04  0.18019175648E+04  0.25500000920E-02 0.  1.
       -2   -1    0    0    0  501  0.00000000000E+00  0.00000000000E+00 -0.85927198858E+03  0.85927198858E+03  0.25500000920E-02 0. -1.
    10030    2    1    2    0    0  0.00000000000E+00  0.00000000000E+00  0.94264557622E+03  0.26611895534E+04  0.24886440398E+04 0.  0.
        1    1    3    3  502    0 -0.90961542047E+03  0.46165272283E+03  0.12333409001E+04  0.16005165496E+04  0.50400001928E-02 0. -1.
       -1    1    3    3    0  502  0.90961542047E+03 -0.46165272283E+03 -0.29069532387E+03  0.10606730038E+04  0.50400001928E-02 0.  1.
</event>
<event>
 5   0  0.1035864E-06  0.3806262E+04  0.7818609E-02  0.8044812E-01
        2   -1    0    0  501    0  0.00000000000E+00  0.00000000000E+00  0.22377803704E+04  0.22377803704E+04  0.25500000920E-02 0. -1.
       -2   -1    0    0    0  501  0.00000000000E+00  0.00000000000E+00 -0.16185269603E+04  0.16185269603E+04  0.25500000920E-02 0.  1.
    10030    2    1    2    0    0  0.00000000000E+00  0.00000000000E+00  0.61925341012E+03  0.38563073307E+04  0.38062621353E+04 0.  0.
        5    1    3    3  502    0  0.10425823936E+04  0.49122497019E+03 -0.12247511710E+04  0.16817602504E+04  0.46999998093E+01 0.  1.
       -5    1    3    3    0  502 -0.10425823936E+04 -0.49122497019E+03  0.18440045812E+04  0.21745470803E+04  0.46999998093E+01 0. -1.
</event>
<event>
 5   0  0.7268013E-07  0.3960072E+04  0.7818609E-02  0.8012650E-01
        2   -1    0    0  501    0  0.00000000000E+00  0.00000000000E+00  0.33012199517E+04  0.33012199517E+04  0.25500000920E-02 0. -1.
       -2   -1    0    0    0  501  0.00000000000E+00  0.00000000000E+00 -0.11876039015E+04  0.11876039015E+04  0.25500000920E-02 0.  1.
    10030    2    1    2    0    0  0.00000000000E+00  0.00000000000E+00  0.21136160503E+04  0.44888238532E+04  0.39600715621E+04 0.  0.
        4    1    3    3  502    0 -0.13661050690E+04 -0.64731275317E+03 -0.39271800861E+03  0.15618853694E+04  0.12699999809E+01 0.  1.
       -4    1    3    3    0  502  0.13661050690E+04  0.64731275317E+03  0.25063340589E+04  0.29269384838E+04  0.12699999809E+01 0. -1.
</event>
<event>
 5   0  0.5533705E-07  0.3664059E+04  0.7818609E-02  0.8075974E-01
       -2   -1    0    0    0  501  0.00000000000E+00  0.00000000000E+00  0.18318276459E+04  0.18318276459E+04  0.25500000920E-02 0. -1.
        2   -1    0    0  501    0  0.00000000000E+00  0.00000000000E+00 -0.18322313053E+04  0.18322313053E+04  0.25500000920E-02 0.  1.
    10030    2    1    2    0    0  0.00000000000E+00  0.00000000000E+00 -0.40365940059E+00  0.36640589511E+04  0.36640589289E+04 0.  0.
        1    1    3    3  502    0 -0.14037288278E+04 -0.46889775508E+03 -0.10800222991E+04  0.18321484364E+04  0.50400001928E-02 0.  1.
       -1    1    3    3    0  502  0.14037288278E+04  0.46889775508E+03  0.10796186397E+04  0.18319105147E+04  0.50400001928E-02 0. -1.
</event>
<event>
 5   0  0.5385714E-07  0.3944962E+04  0.7818609E-02  0.8015742E-01
        1   -1    0    0  501    0  0.00000000000E+00  0.00000000000E+00  0.16215991391E+04  0.16215991391E+04  0.50400001928E-02 0.  1.
       -1   -1    0    0    0  501  0.00000000000E+00  0.00000000000E+00 -0.23992865102E+04  0.23992865102E+04  0.50400001928E-02 0. -1.
    10030    2    1    2    0    0  0.00000000000E+00  0.00000000000E+00 -0.77768737109E+03  0.40208856494E+04  0.39449618196E+04 0.  0.
        3    1    3    3  502    0  0.16329489580E+03  0.49788450385E+03 -0.23270532793E+04  0.23853157395E+04  0.10100000352E+00 0. -1.
       -3    1    3    3    0  502 -0.16329489580E+03 -0.49788450385E+03  0.15493659082E+04  0.16355699098E+04  0.10100000352E+00 0.  1.
</event>
<event>
 5   0  0.5533705E-07  0.3680659E+04  0.7818609E-02  0.8072262E-01
        2   -1    0    0  501    0  0.00000000000E+00  0.00000000000E+00  0.17694644121E+04  0.17694644121E+04  0.25500000920E-02 0.  1.
       -2   -1    0    0    0  501  0.00000000000E+00  0.00000000000E+00 -0.19140321363E+04  0.19140321363E+04  0.25500000920E-02 0. -1.
    10030    2    1    2    0    0  0.00000000000E+00  0.00000000000E+00 -0.14456772417E+03  0.36834965484E+04  0.36806585002E+04 0.  0.
        1    1    3    3  502    0  0.82938381811E+03  0.51879313302E+01  0.15718180259E+04  0.17772215222E+04  0.50400001928E-02 0.  1.
       -1    1    3    3    0  502 -0.82938381811E+03 -0.51879313302E+01 -0.17163857501E+04  0.19062750262E+04  0.50400001928E-02 0. -1.
</event>
<event>
 5   0  0.1035864E-06  0.2996630E+04  0.7818609E-02  0.8244694E-01
        2   -1    0    0  501    0  0.00000000000E+00  0.00000000000E+00  0.15663592864E+04  0.15663592864E+04  0.25500000920E-02 0.  1.
       -2   -1    0    0    0  501  0.00000000000E+00  0.00000000000E+00 -0.14332263253E+04  0.14332263253E+04  0.25500000920E-02 0. -1.
    10030    2    1    2    0    0  0.00000000000E+00  0.00000000000E+00  0.13313296104E+03  0.29995856117E+04  0.29966296829E+04 0.  0.
        5    1    3    3  502    0 -0.29723357150E+02 -0.14216850919E+04 -0.40597258172E+03  0.14788197340E+04  0.46999998093E+01 0. -1.
       -5    1    3    3    0  502  0.29723357150E+02  0.14216850919E+04  0.53910554276E+03  0.15207658777E+04  0.46999998093E+01 0.  1.
</event>
<event>
 5   0  0.3977376E-07  0.3986253E+04  0.7818609E-02  0.8007325E-01
       -1   -1    0    0    0  501  0.00000000000E+00  0.00000000000E+00  0.20149262207E+04  0.20149262207E+04  0.50400001928E-02 0. -1.
        1   -1    0    0  501    0  0.00000000000E+00  0.00000000000E+00 -0.19715627399E+04  0.19715627399E+04  0.50400001928E-02 0.  1.
    10030    2    1    2    0    0  0.00000000000E+00  0.00000000000E+00  0.43363480845E+02  0.39864889606E+04  0.39862531081E+04 0.  0.
        4    1    3    3  502    0  0.79972133775E+03  0.15980317150E+04 -0.86114581128E+03  0.19836414246E+04  0.12699999809E+01 0.  1.
       -4    1    3    3    0  502 -0.79972133775E+03 -0.15980317150E+04  0.90450929212E+03  0.20028475360E+04  0.12699999809E+01 0. -1.
</event>
<event>
 5   0  0.7268013E-07  0.4117874E+04  0.7818609E-02  0.7981181E-01
        2   -1    0    0  501    0  0.00000000000E+00  0.00000000000E+00  0.17560262268E+04  0.17560262268E+04  0.25500000920E-02 0.  1.
       -2   -1    0    0    0  501  0.00000000000E+00  0.00000000000E+00 -0.24140998161E+04  0.24140998161E+04  0.25500000920E-02 0. -1.
    10030    2    1    2    0    0  0.00000000000E+00  0.00000000000E+00 -0.65807358931E+03  0.41701260429E+04  0.41178744959E+04 0.  0.
        4    1    3    3  502    0  0.14449722734E+03 -0.56642426752E+03 -0.23282974557E+04  0.24005596337E+04  0.12699999809E+01 0. -1.
       -4    1    3    3    0  502 -0.14449722734E+03  0.56642426752E+03  0.16702238664E+04  0.17695664092E+04  0.12699999809E+01 0.  1.
</event>
<event>
 5   0  0.7268013E-07  0.3545851E+04  0.7818609E-02  0.8103009E-01
        2   -1    0    0  501    0  0.00000000000E+00  0.00000000000E+00  0.19629239232E+04  0.19629239232E+04  0.25500000920E-02 0. -1.
       -2   -1    0    0    0  501  0.00000000000E+00  0.00000000000E+00 -0.16013176327E+04  0.16013176327E+04  0.25500000920E-02 0.  1.
    10030    2    1    2    0    0  0.00000000000E+00  0.00000000000E+00  0.36160629051E+03  0.35642415559E+04  0.35458509218E+04 0.  0.
        4    1    3    3  502    0  0.78163337573E+03  0.91914026909E+03 -0.11249699388E+04  0.16496449753E+04  0.12699999809E+01 0.  1.
       -4    1    3    3    0  502 -0.78163337573E+03 -0.91914026909E+03  0.14865762293E+04  0.19145965807E+04  0.12699999809E+01 0. -1.
</event>
<event>
 5   0  0.7268013E-07  0.3781943E+04  0.7818609E-02  0.8050041E-01
        2   -1    0    0  501    0  0.00000000000E+00  0.00000000000E+00  0.23030380611E+04  0.23030380611E+04  0.25500000920E-02 0. -1.
       -2   -1    0    0    0  501  0.00000000000E+00  0.00000000000E+00 -0.15526329222E+04  0.15526329222E+04  0.25500000920E-02 0.  1.
    10030    2    1    2    0    0  0.00000000000E+00  0.00000000000E+00  0.75040513885E+03  0.38556709833E+04  0.37819427361E+04 0.  0.
        4    1    3    3  502    0  0.15525000951E+04 -0.10795340027E+04  0.38641208461E+03  0.19300171295E+04  0.12699999809E+01 0. -1.
       -4    1    3    3    0  502 -0.15525000951E+04  0.10795340027E+04  0.36399305424E+03  0.19256538538E+04  0.12699999809E+01 0.  1.
</event>
<event>
 5   0  0.4627905E-07  0.2778881E+04  0.7818609E-02  0.8309855E-01
        1   -1    0    0  501    0  0.00000000000E+00  0.00000000000E+00  0.64524632600E+03  0.64524632602E+03  0.50400001928E-02 0.  1.
       -1   -1    0    0    0  501  0.00000000000E+00  0.00000000000E+00 -0.29919508991E+04  0.29919508991E+04  0.50400001928E-02 0. -1.
    10030    2    1    2    0    0  0.00000000000E+00  0.00000000000E+00 -0.23467045731E+04  0.36371972251E+04  0.27788813039E+04 0.  0.
        1    1    3    3  502    0 -0.13308316939E+04  0.30705895679E+03 -0.15074276744E+04  0.20341426680E+04  0.50400001928E-02 0.  1.
       -1    1    3    3    0  502  0.13308316939E+04 -0.30705895679E+03 -0.83927689869E+03  0.16030545571E+04  0.50400001928E-02 0. -1.
</event>
<event>
 5   0  0.5533705E-07  0.3891059E+04  0.7818609E-02  0.8026891E-01
       -2   -1    0    0    0  501  0.00000000000E+00  0.00000000000E+00  0.19029197303E+04  0.19029197303E+04  0.25500000920E-02 0. -1.
        2   -1    0    0  501    0  0.00000000000E+00  0.00000000000E+00 -0.19890932259E+04  0.19890932259E+04  0.25500000920E-02 0.  1.
    10030    2    1    2    0    0  0.00000000000E+00  0.00000000000E+00 -0.86173495609E+02  0.38920129561E+04  0.38910588507E+04 0.  0.
        1    1    3    3  502    0 -0.17020202556E+04  0.36293470378E+03 -0.91306446611E+03  0.19652687524E+04  0.50400001928E-02 0.  1.
       -1    1    3    3    0  502  0.17020202556E+04 -0.36293470378E+03  0.82689097050E+03  0.19267442038E+04  0.50400001928E-02 0. -1.
</event>
<event>
 5   0  0.5533705E-07  0.3891307E+04  0.7818609E-02  0.8026840E-01
       -2   -1    0    0    0  501  0.00000000000E+00  0.00000000000E+00  0.21204265526E+04  0.21204265526E+04  0.25500000920E-02 0. -1.
        2   -1    0    0  501    0  0.00000000000E+00  0.00000000000E+00 -0.17852861078E+04  0.17852861078E+04  0.25500000920E-02 0.  1.
    10030    2    1    2    0    0  0.00000000000E+00  0.00000000000E+00  0.33514044485E+03  0.39057126604E+04  0.38913072698E+04 0.  0.
        1    1    3    3  502    0 -0.12271120586E+04  0.11591491836E+04 -0.80355341122E+03  0.18695263889E+04  0.50400001928E-02 0.  1.
       -1    1    3    3    0  502  0.12271120586E+04 -0.11591491836E+04  0.11386938561E+04  0.20361862715E+04  0.50400001928E-02 0. -1.
</event>
<event>
 5   0  0.1035864E-06  0.2521777E+04  0.7818609E-02  0.8395268E-01
       -2   -1    0    0    0  501  0.00000000000E+00  0.00000000000E+00  0.10805274940E+04  0.10805274940E+04  0.25500000920E-02 0.  1.
        2   -1    0    0  501    0  0.00000000000E+00  0.00000000000E+00 -0.14713550511E+04  0.14713550511E+04  0.25500000920E-02 0. -1.
    10030    2    1    2    0    0  0.00000000000E+00  0.00000000000E+00 -0.39082755718E+03  0.25518825451E+04  0.25217768229E+04 0.  0.
        5    1    3    3  502    0 -0.64640453510E+03 -0.97657098953E+03  0.27737671990E+03  0.12035321580E+04  0.46999998093E+01 0.  1.
       -5    1    3    3    0  502  0.64640453510E+03  0.97657098953E+03 -0.66820427707E+03  0.13483503871E+04  0.46999998093E+01 0. -1.
</event>
<event>
 5   0  0.4627905E-07  0.2455192E+04  0.7818609E-02  0.8419125E-01
        1   -1    0    0  501    0  0.00000000000E+00  0.00000000000E+00  0.23217800076E+04  0.23217800076E+04  0.50400001928E-02 0. -1.
       -1   -1    0    0    0  501  0.00000000000E+00  0.00000000000E+00 -0.64906733862E+03  0.64906733864E+03  0.50400001928E-02 0.  1.
    10030    2    1    2    0    0  0.00000000000E+00  0.00000000000E+00  0.16727126690E+04  0.29708473463E+04  0.24551916996E+04 0.  0.
        1    1    3    3  502    0  0.10637459232E+04  0.22757302830E+03  0.15247399417E+04  0.18730127501E+04  0.50400001928E-02 0.  1.
       -1    1    3    3    0  502 -0.10637459232E+04 -0.22757302830E+03  0.14797272732E+03  0.10978345961E+04  0.50400001928E-02 0. -1.
</event>
<event>
 5   0  0.1035864E-06  0.3209225E+04  0.7818609E-02  0.8186385E-01
        2   -1    0    0  501    0  0.00000000000E+00  0.00000000000E+00  0.12669025203E+04  0.12669025203E+04  0.25500000920E-02 0. -1.
       -2   -1    0    0    0  501  0.00000000000E+00  0.00000000000E+00 -0.20323436866E+04  0.20323436866E+04  0.25500000920E-02 0.  1.
    10030    2    1    2    0    0  0.00000000000E+00  0.00000000000E+00 -0.76544116632E+03  0.32992462068E+04  0.32092250395E+04 0.  0.
        5    1    3    3  502    0 -0.10081472452E+04 -0.11590984756E+04  0.93843987200E+02  0.15390578053E+04  0.46999998093E+01 0. -1.
       -5    1    3    3    0  502  0.10081472452E+04  0.11590984756E+04 -0.85928515352E+03  0.17601884016E+04  0.46999998093E+01 0.  1.
</event>
<event>
 5   0  0.5533705E-07  0.3904639E+04  0.7818609E-02  0.8024065E-01
       -2   -1    0    0    0  501  0.00000000000E+00  0.00000000000E+00  0.23852254418E+04  0.23852254418E+04  0.25500000920E-02 0.  1.
        2   -1    0    0  501    0  0.00000000000E+00  0.00000000000E+00 -0.15979835965E+04  0.15979835965E+04  0.25500000920E-02 0. -1.
    10030    2    1    2    0    0  0.00000000000E+00  0.00000000000E+00  0.78724184534E+03  0.39832090383E+04  0.39046388463E+04 0.  0.
        1    1    3    3  502    0  0.15277436039E+04 -0.62070046216E+03  0.14597739059E+04  0.22023191048E+04  0.50400001928E-02 0.  1.
       -1    1    3    3    0  502 -0.15277436039E+04  0.62070046216E+03 -0.67253206052E+03  0.17808899336E+04  0.50400001928E-02 0. -1.
</event>
<event>
 5   0  0.1035864E-06  0.3905781E+04  0.7818609E-02  0.8023828E-01
        2   -1    0    0  501    0  0.00000000000E+00  0.00000000000E+00  0.14176681638E+04  0.14176681638E+04  0.25500000920E-02 0. -1.
       -2   -1    0    0    0  501  0.00000000000E+00  0.00000000000E+00 -0.26901795186E+04  0.26901795186E+04  0.25500000920E-02 0.  1.
    10030    2    1    2    0    0  0.00000000000E+00  0.00000000000E+00 -0.12725113548E+04  0.41078476824E+04  0.39057812835E+04 0.  0.
        5    1    3    3  502    0 -0.70310787523E+03 -0.92672600466E+03 -0.22860316712E+04  0.25649843399E+04  0.46999998093E+01 0.  1.
       -5    1    3    3    0  502  0.70310787523E+03  0.92672600466E+03  0.10135203165E+04  0.15428633426E+04  0.46999998093E+01 0. -1.
</event>
<event>
 5   0  0.7268013E-07  0.3734527E+04  0.7818609E-02  0.8060353E-01
        2   -1    0    0  501    0  0.00000000000E+00  0.00000000000E+00  0.27719683490E+04  0.27719683490E+04  0.25500000920E-02 0. -1.
       -2   -1    0    0    0  501  0.00000000000E+00  0.00000000000E+00 -0.12578328663E+04  0.12578328663E+04  0.25500000920E-02 0.  1.
    10030    2    1    2    0    0  0.00000000000E+00  0.00000000000E+00  0.15141354827E+04  0.40298012153E+04  0.37345269547E+04 0.  0.
        4    1    3    3  502    0  0.11187688907E+04 -0.14585328864E+04  0.11112074006E+04  0.21479631076E+04  0.12699999809E+01 0.  1.
       -4    1    3    3    0  502 -0.11187688907E+04  0.14585328864E+04  0.40292808215E+03  0.18818381078E+04  0.12699999809E+01 0. -1.
</event>
<event>
 5   0  0.5385714E-07  0.2055868E+04  0.7818609E-02  0.8580937E-01
        1   -1    0    0  501    0  0.00000000000E+00  0.00000000000E+00  0.19157090454E+04  0.19157090454E+04  0.50400001928E-02 0. -1.
       -1   -1    0    0    0  501  0.00000000000E+00  0.00000000000E+00 -0.55157024670E+03  0.55157024672E+03  0.50400001928E-02 0.  1.
    10030    2    1    2    0    0  0.00000000000E+00  0.00000000000E+00  0.13641387987E+04  0.24672792921E+04  0.20558678078E+04 0.  0.
        3    1    3    3  502    0  0.47379413123E+03  0.84035575860E+03  0.25612227178E+03  0.99813691851E+03  0.10100000352E+00 0.  1.
       -3    1    3    3    0  502 -0.47379413123E+03 -0.84035575860E+03  0.11080165269E+04  0.14691423736E+04  0.10100000352E+00 0. -1.
</event>
<event>
 5   0  0.3977376E-07  0.2141849E+04  0.7818609E-02  0.8543029E-01
        1   -1    0    0  501    0  0.00000000000E+00  0.00000000000E+00  0.11044508320E+04  0.11044508320E+04  0.50400001928E-02 0.  1.
       -1   -1    0    0    0  501  0.00000000000E+00  0.00000000000E+00 -0.10384159326E+04  0.10384159326E+04  0.50400001928E-02 0. -1.
    10030    2    1    2    0    0  0.00000000000E+00  0.00000000000E+00  0.66034899446E+02  0.21428667646E+04  0.21418490523E+04 0.  0.
        4    1    3    3  502    0  0.74587142124E+03  0.65308879192E+02 -0.73304102727E+03  0.10478264109E+04  0.12699999809E+01 0. -1.
       -4    1    3    3    0  502 -0.74587142124E+03 -0.65308879192E+02  0.79907592672E+03  0.10950403537E+04  0.12699999809E+01 0.  1.
</event>
<event>
 5   0  0.7268013E-07  0.3594705E+04  0.7818609E-02  0.8091706E-01
        2   -1    0    0  501    0  0.00000000000E+00  0.00000000000E+00  0.14857868004E+04  0.14857868004E+04  0.25500000920E-02 0.  1.
       -2   -1    0    0    0  501  0.00000000000E+00  0.00000000000E+00 -0.21742527967E+04  0.21742527967E+04  0.25500000920E-02 0. -1.
    10030    2    1    2    0    0  0.00000000000E+00  0.00000000000E+00 -0.68846599628E+03  0.36600395971E+04  0.35947050539E+04 0.  0.
        4    1    3    3  502    0 -0.42006760516E+03  0.55240401625E+03  0.13438718815E+04  0.15124814832E+04  0.12699999809E+01 0.  1.
       -4    1    3    3    0  502  0.42006760516E+03 -0.55240401625E+03 -0.20323378778E+04  0.21475581139E+04  0.12699999809E+01 0. -1.
</event>
<event>
 5   0  0.1015219E-06  0.3781485E+04  0.7818609E-02  0.8050140E-01
        2   -1    0    0  501    0  0.00000000000E+00  0.00000000000E+00  0.12065508676E+04  0.12065508676E+04  0.25500000920E-02 0.  1.
       -2   -1    0    0    0  501  0.00000000000E+00  0.00000000000E+00 -0.29629152890E+04  0.29629152890E+04  0.25500000920E-02 0. -1.
    10030    2    1    2    0    0  0.00000000000E+00  0.00000000000E+00 -0.17563644214E+04  0.41694661566E+04  0.37814854290E+04 0.  0.
        3    1    3    3  502    0  0.84283110785E+03 -0.14279639330E+04 -0.18799492933E+04  0.25067218885E+04  0.10100000352E+00 0. -1.
       -3    1    3    3    0  502 -0.84283110785E+03  0.14279639330E+04  0.12358487190E+03  0.16627442681E+04  0.10100000352E+00 0.  1.
</event>
<event>
 5   0  0.1035864E-06  0.2232214E+04  0.7818609E-02  0.8505138E-01
        2   -1    0    0  501    0  0.00000000000E+00  0.00000000000E+00  0.12252476361E+04  0.12252476361E+04  0.25500000920E-02 0. -1.
       -2   -1    0    0    0  501  0.00000000000E+00  0.00000000000E+00 -0.10166882088E+04  0.10166882088E+04  0.25500000920E-02 0.  1.
    10030    2    1    2    0    0  0.00000000000E+00  0.00000000000E+00  0.20855942726E+03  0.22419358449E+04  0.22322139902E+04 0.  0.
        5    1    3    3  502    0  0.10482098267E+04 -0.22666168500E+03 -0.20618365755E+03  0.10920866041E+04  0.46999998093E+01 0.  1.
       -5    1    3    3    0  502 -0.10482098267E+04  0.22666168500E+03  0.41474308481E+03  0.11498492408E+04  0.46999998093E+01 0. -1.
</event>
<event>
 5   0  0.4316671E-07  0.3003024E+04  0.7818609E-02  0.8242868E-01
       -1   -1    0    0    0  501  0.00000000000E+00  0.00000000000E+00  0.14589871599E+04  0.14589871599E+04  0.50400001928E-02 0. -1.
        1   -1    0    0  501    0  0.00000000000E+00  0.00000000000E+00 -0.15452759221E+04  0.15452759221E+04  0.50400001928E-02 0.  1.
    10030    2    1    2    0    0  0.00000000000E+00  0.00000000000E+00 -0.86288762185E+02  0.30042630820E+04  0.30030236289E+04 0.  0.
        2    1    3    3  502    0  0.16066257460E+03  0.14732141112E+04  0.19854475266E+03  0.14951897201E+04  0.25500000920E-02 0. -1.
       -2    1    3    3    0  502 -0.16066257460E+03 -0.14732141112E+04 -0.28483351485E+03  0.15090733619E+04  0.25500000920E-02 0.  1.
</event>
<event>
 5   0  0.3977376E-07  0.2289258E+04  0.7818609E-02  0.8482169E-01
       -1   -1    0    0    0  501  0.00000000000E+00  0.00000000000E+00  0.10439050167E+04  0.10439050167E+04  0.50400001928E-02 0. -1.
        1   -1    0    0  501    0  0.00000000000E+00  0.00000000000E+00 -0.12550716022E+04  0.12550716022E+04  0.50400001928E-02 0.  1.
    10030    2    1    2    0    0  0.00000000000E+00  0.00000000000E+00 -0.21116658546E+03  0.22989766189E+04  0.22892579949E+04 0.  0.
        4    1    3    3  502    0  0.44068248605E+03  0.89733635392E+03 -0.66540870828E+03  0.12009096334E+04  0.12699999809E+01 0.  1.
       -4    1    3    3    0  502 -0.44068248605E+03 -0.89733635392E+03  0.45424212282E+03  0.10980669855E+04  0.12699999809E+01 0. -1.
</event>
<event>
 5   0  0.3471602E-07  0.3689343E+04  0.7818609E-02  0.8070328E-01
       -1   -1    0    0    0  501  0.00000000000E+00  0.00000000000E+00  0.26197886283E+04  0.26197886283E+04  0.50400001928E-02 0. -1.
        1   -1    0    0  501    0  0.00000000000E+00  0.00000000000E+00 -0.12988885360E+04  0.12988885360E+04  0.50400001928E-02 0.  1.
    10030    2    1    2    0    0  0.00000000000E+00  0.00000000000E+00  0.13209000923E+04  0.39186771642E+04  0.36893432564E+04 0.  0.
        5    1    3    3  502    0  0.68371601026E+03 -0.98054327020E+03  0.21527236107E+04  0.24623512587E+04  0.46999998093E+01 0. -1.
       -5    1    3    3    0  502 -0.68371601026E+03  0.98054327020E+03 -0.83182351835E+03  0.14563259055E+04  0.46999998093E+01 0.  1.
</event>
<event>
 5   0  0.5385714E-07  0.3066882E+04  0.7818609E-02  0.8224886E-01
        1   -1    0    0  501    0  0.00000000000E+00  0.00000000000E+00  0.17845236443E+04  0.17845236443E+04  0.50400001928E-02 0.  1.
       -1   -1    0    0    0  501  0.00000000000E+00  0.00000000000E+00 -0.13176860101E+04  0.13176860101E+04  0.50400001928E-02 0. -1.
    10030    2    1    2    0    0  0.00000000000E+00  0.00000000000E+00  0.46683763422E+03  0.31022096544E+04  0.30668823524E+04 0.  0.
        3    1    3    3  502    0 -0.49447698762E+03 -0.10268108571E+02  0.17016304566E+04  0.17720494198E+04  0.10100000352E+00 0.  1.
       -3    1    3    3    0  502  0.49447698762E+03  0.10268108571E+02 -0.12347928224E+04  0.13301602346E+04  0.10100000352E+00 0. -1.
</event>
<event>
 5   0  0.7268013E-07  0.3925395E+04  0.7818609E-02  0.8019768E-01
       -2   -1    0    0    0  501  0.00000000000E+00  0.00000000000E+00  0.20780681532E+04  0.20780681532E+04  0.25500000920E-02 0. -1.
        2   -1    0    0  501    0  0.00000000000E+00  0.00000000000E+00 -0.18537324403E+04  0.18537324403E+04  0.25500000920E-02 0.  1.
    10030    2    1    2    0    0  0.00000000000E+00  0.00000000000E+00  0.22433571287E+03  0.39318005935E+04  0.39253954444E+04 0.  0.
        4    1    3    3  502    0  0.11794511405E+04  0.10613586034E+04 -0.10449633287E+04  0.18998781669E+04  0.12699999809E+01 0. -1.
       -4    1    3    3    0  502 -0.11794511405E+04 -0.10613586034E+04  0.12692990416E+04  0.20319224266E+04  0.12699999809E+01 0.  1.
</event>
<event>
 5   0  0.4136803E-07  0.2143934E+04  0.7818609E-02  0.8542133E-01
       -1   -1    0    0    0  501  0.00000000000E+00  0.00000000000E+00  0.74339837090E+03  0.74339837092E+03  0.50400001928E-02 0. -1.
        1   -1    0    0  501    0  0.00000000000E+00  0.00000000000E+00 -0.15457563014E+04  0.15457563014E+04  0.50400001928E-02 0.  1.
    10030    2    1    2    0    0  0.00000000000E+00  0.00000000000E+00 -0.80235793053E+03  0.22891546724E+04  0.21439335030E+04 0.  0.
        5    1    3    3  502    0  0.62701803905E+03 -0.56126333808E+03 -0.11101768555E+04  0.13930839517E+04  0.46999998093E+01 0.  1.
       -5    1    3    3    0  502 -0.62701803905E+03  0.56126333808E+03  0.30781892492E+03  0.89607072070E+03  0.46999998093E+01 0. -1.
</event>
<event>
 5   0  0.4627905E-07  0.2024239E+04  0.7818609E-02  0.8595371E-01
       -1   -1    0    0    0  501  0.00000000000E+00  0.00000000000E+00  0.64262365768E+03  0.64262365770E+03  0.50400001928E-02 0. -1.
        1   -1    0    0  501    0  0.00000000000E+00  0.00000000000E+00 -0.15940685343E+04  0.15940685343E+04  0.50400001928E-02 0.  1.
    10030    2    1    2    0    0  0.00000000000E+00  0.00000000000E+00 -0.95144487665E+03  0.22366921920E+04  0.20242392666E+04 0.  0.
        1    1    3    3  502    0 -0.69060361027E+03 -0.54613592349E+03 -0.10273021091E+04  0.13529772418E+04  0.50400001928E-02 0.  1.
       -1    1    3    3    0  502  0.69060361027E+03  0.54613592349E+03  0.75857232496E+02  0.88371495019E+03  0.50400001928E-02 0. -1.
</event>
<event>
 5   0  0.4627905E-07  0.2759702E+04  0.7818609E-02  0.8315890E-01
       -1   -1    0    0    0  501  0.00000000000E+00  0.00000000000E+00  0.15558436554E+04  0.15558436554E+04  0.50400001928E-02 0.  1.
        1   -1    0    0  501    0  0.00000000000E+00  0.00000000000E+00 -0.12237660844E+04  0.12237660844E+04  0.50400001928E-02 0. -1.
    10030    2    1    2    0    0  0.00000000000E+00  0.00000000000E+00  0.33207757106E+03  0.27796097398E+04  0.27597019391E+04 0.  0.
        1    1    3    3  502    0 -0.74310975269E+03 -0.36426188222E+03  0.12781276911E+04  0.15226651694E+04  0.50400001928E-02 0.  1.
       -1    1    3    3    0  502  0.74310975269E+03  0.36426188222E+03 -0.94605012005E+03  0.12569445704E+04  0.50400001928E-02 0. -1.
</event>
<event>
 5   0  0.4316671E-07  0.3950606E+04  0.7818609E-02  0.8014586E-01
        1   -1    0    0  501    0  0.00000000000E+00  0.00000000000E+00  0.13320520159E+04  0.13320520159E+04  0.50400001928E-02 0.  1.
       -1   -1    0    0    0  501  0.00000000000E+00  0.00000000000E+00 -0.29291806663E+04  0.29291806663E+04  0.50400001928E-02 0. -1.
    10030    2    1    2    0    0  0.00000000000E+00  0.00000000000E+00 -0.15971286504E+04  0.42612326822E+04  0.39506055290E+04 0.  0.
        2    1    3    3  502    0 -0.17547520180E+04  0.16542894118E+03 -0.17604799359E+04  0.24911465200E+04  0.25500000920E-02 0. -1.
       -2    1    3    3    0  502  0.17547520180E+04 -0.16542894118E+03  0.16335128549E+03  0.17700861622E+04  0.25500000920E-02 0.  1.
</event>
<event>
 5   0  0.5385714E-07  0.2346730E+04  0.7818609E-02  0.8459721E-01
        1   -1    0    0  501    0  0.00000000000E+00  0.00000000000E+00  0.28652113785E+04  0.28652113785E+04  0.50400001928E-02 0.  1.
       -1   -1    0    0    0  501  0.00000000000E+00  0.00000000000E+00 -0.48051780868E+03  0.48051780871E+03  0.50400001928E-02 0. -1.
    10030    2    1    2    0    0  0.00000000000E+00  0.00000000000E+00  0.23846935698E+04  0.33457291872E+04  0.23467297186E+04 0.  0.
        3    1    3    3  502    0 -0.57318294261E+02 -0.76360214493E+03 -0.75171771423E+02  0.76943123670E+03  0.10100000352E+00 0. -1.
       -3    1    3    3    0  502  0.57318294261E+02  0.76360214493E+03  0.24598653412E+04  0.25762979505E+04  0.10100000352E+00 0.  1.
</event>
<event>
 5   0  0.7268013E-07  0.3796500E+04  0.7818609E-02  0.8046906E-01
       -2   -1    0    0    0  501  0.00000000000E+00  0.00000000000E+00  0.17729779921E+04  0.17729779921E+04  0.25500000920E-02 0. -1.
        2   -1    0    0  501    0  0.00000000000E+00  0.00000000000E+00 -0.20323736015E+04  0.20323736015E+04  0.25500000920E-02 0.  1.
    10030    2    1    2    0    0  0.00000000000E+00  0.00000000000E+00 -0.25939560941E+03  0.38053515935E+04  0.37965003185E+04 0.  0.
        4    1    3    3  502    0  0.10862050268E+04  0.11666928093E+04 -0.11627989098E+04  0.19730981701E+04  0.12699999809E+01 0.  1.
       -4    1    3    3    0  502 -0.10862050268E+04 -0.11666928093E+04  0.90340330039E+03  0.18322534234E+04  0.12699999809E+01 0. -1.
</event>
<event>
 5   0  0.5533705E-07  0.2549206E+04  0.7818609E-02  0.8385662E-01
        2   -1    0    0  501    0  0.00000000000E+00  0.00000000000E+00  0.19341340516E+04  0.19341340516E+04  0.25500000920E-02 0. -1.
       -2   -1    0    0    0  501  0.00000000000E+00  0.00000000000E+00 -0.83996939856E+03  0.83996939857E+03  0.25500000920E-02 0.  1.
    10030    2    1    2    0    0  0.00000000000E+00  0.00000000000E+00  0.10941646530E+04  0.27741034502E+04  0.25492064774E+04 0.  0.
        1    1    3    3  502    0 -0.12457221372E+03 -0.39965054693E+01  0.19274867764E+04  0.19315122267E+04  0.50400001928E-02 0. -1.
       -1    1    3    3    0  502  0.12457221372E+03  0.39965054693E+01 -0.83332212341E+03  0.84259122347E+03  0.50400001928E-02 0.  1.
</event>
<event>
 5   0  0.5385714E-07  0.3904829E+04  0.7818609E-02  0.8024026E-01
        1   -1    0    0  501    0  0.00000000000E+00  0.00000000000E+00  0.22292308535E+04  0.22292308535E+04  0.50400001928E-02 0. -1.
       -1   -1    0    0    0  501  0.00000000000E+00  0.00000000000E+00 -0.17099716948E+04  0.17099716948E+04  0.50400001928E-02 0.  1.
    10030    2    1    2    0    0  0.00000000000E+00  0.00000000000E+00  0.51925915864E+03  0.39392025483E+04  0.39048286317E+04 0.  0.
        3    1    3    3  502    0  0.74638031594E+01  0.15583087167E+04 -0.92696449449E+03  0.18131864077E+04  0.10100000352E+00 0.  1.
       -3    1    3    3    0  502 -0.74638031594E+01 -0.15583087167E+04  0.14462236531E+04  0.21260161406E+04  0.10100000352E+00 0. -1.
</event>
<event>
 5   0  0.1035864E-06  0.3925257E+04  0.7818609E-02  0.8019797E-01
        2   -1    0    0  501    0  0.00000000000E+00  0.00000000000E+00  0.21748691553E+04  0.21748691553E+04  0.25500000920E-02 0.  1.
       -2   -1    0    0    0  501  0.00000000000E+00  0.00000000000E+00 -0.17710997056E+04  0.17710997056E+04  0.25500000920E-02 0. -1.
    10030    2    1    2    0    0  0.00000000000E+00  0.00000000000E+00  0.40376944973E+03  0.39459688609E+04  0.39252567410E+04 0.  0.
        5    1    3    3  502    0  0.10203281262E+04  0.96827744626E+03  0.15777766006E+04  0.21137719342E+04  0.46999998093E+01 0.  1.
       -5    1    3    3    0  502 -0.10203281262E+04 -0.96827744626E+03 -0.11740071509E+04  0.18321969268E+04  0.46999998093E+01 0. -1.
</event>
<event>
 5   0  0.4316671E-07  0.3968195E+04  0.7818609E-02  0.8010993E-01
        1   -1    0    0  501    0  0.00000000000E+00  0.00000000000E+00  0.20619088465E+04  0.20619088465E+04  0.50400001928E-02 0.  1.
       -1   -1    0    0    0  501  0.00000000000E+00  0.00000000000E+00 -0.19092229768E+04  0.19092229768E+04  0.50400001928E-02 0. -1.
    10030    2    1    2    0    0  0.00000000000E+00  0.00000000000E+00  0.15268586976E+03  0.39711318233E+04  0.39681954316E+04 0.  0.
        2    1    3    3  502    0 -0.13794912475E+04  0.12958207021E+04 -0.51949360941E+03  0.19626566190E+04  0.25500000920E-02 0. -1.
       -2    1    3    3    0  502  0.13794912475E+04 -0.12958207021E+04  0.67217947918E+03  0.20084752043E+04  0.25500000920E-02 0.  1.
</event>
<event>
 5   0  0.1035864E-06  0.4115953E+04  0.7818609E-02  0.7981555E-01
        2   -1    0    0  501    0  0.00000000000E+00  0.00000000000E+00  0.27135230738E+04  0.27135230738E+04  0.25500000920E-02 0. -1.
       -2   -1    0    0    0  501  0.00000000000E+00  0.00000000000E+00 -0.15607999255E+04  0.15607999255E+04  0.25500000920E-02 0.  1.
    10030    2    1    2    0    0  0.00000000000E+00  0.00000000000E+00  0.11527231483E+04  0.42743229993E+04  0.41159526778E+04 0.  0.
        5    1    3    3  502    0  0.87814211050E+03  0.17307311884E+04 -0.13458245474E+03  0.19454301683E+04  0.46999998093E+01 0.  1.
       -5    1    3    3    0  502 -0.87814211050E+03 -0.17307311884E+04  0.12873056031E+04  0.23288928310E+04  0.46999998093E+01 0. -1.
</event>
<event>
 5   0  0.4627905E-07  0.3885358E+04  0.7818609E-02  0.8028081E-01
        1   -1    0    0  501    0  0.00000000000E+00  0.00000000000E+00  0.24495550257E+04  0.24495550257E+04  0.50400001928E-02 0.  1.
       -1   -1    0    0    0  501  0.00000000000E+00  0.00000000000E+00 -0.15406885398E+04  0.15406885398E+04  0.50400001928E-02 0. -1.
    10030    2    1    2    0    0  0.00000000000E+00  0.00000000000E+00  0.90886648583E+03  0.39902435655E+04  0.38853578243E+04 0.  0.
        1    1    3    3  502    0 -0.82339166682E+03 -0.12882992900E+04 -0.77638194895E+03  0.17147763202E+04  0.50400001928E-02 0. -1.
       -1    1    3    3    0  502  0.82339166682E+03  0.12882992900E+04  0.16852484348E+04  0.22754672453E+04  0.50400001928E-02 0.  1.
</event>
<event>
 5   0  0.3471602E-07  0.2719834E+04  0.7818609E-02  0.8328598E-01
       -1   -1    0    0    0  501  0.00000000000E+00  0.00000000000E+00  0.13613822941E+04  0.13613822941E+04  0.50400001928E-02 0.  1.
        1   -1    0    0  501    0  0.00000000000E+00  0.00000000000E+00 -0.13584528605E+04  0.13584528605E+04  0.50400001928E-02 0. -1.
    10030    2    1    2    0    0  0.00000000000E+00  0.00000000000E+00  0.29294335705E+01  0.27198351546E+04  0.27198335770E+04 0.  0.
        5    1    3    3  502    0  0.11823019155E+03 -0.27194968326E+03  0.13286491865E+04  0.13613470384E+04  0.46999998093E+01 0.  1.
       -5    1    3    3    0  502 -0.11823019155E+03  0.27194968326E+03 -0.13257197529E+04  0.13584881161E+04  0.46999998093E+01 0. -1.
</event>
<event>
 5   0  0.1015219E-06  0.3936057E+04  0.7818609E-02  0.8017572E-01
        2   -1    0    0  501    0  0.00000000000E+00  0.00000000000E+00  0.21822430131E+04  0.21822430131E+04  0.25500000920E-02 0. -1.
       -2   -1    0    0    0  501  0.00000000000E+00  0.00000000000E+00 -0.17748415058E+04  0.17748415058E+04  0.25500000920E-02 0.  1.
    10030    2    1    2    0    0  0.00000000000E+00  0.00000000000E+00  0.40740150728E+03  0.39570845189E+04  0.39360566435E+04 0.  0.
        3    1    3    3  502    0 -0.12233269866E+04 -0.59017475183E+03  0.16354933597E+04  0.21259524204E+04  0.10100000352E+00 0. -1.
       -3    1    3    3    0  502  0.12233269866E+04  0.59017475183E+03 -0.12280918524E+04  0.18311320985E+04  0.10100000352E+00 0.  1.
</event>
<event>
 5   0  0.7268013E-07  0.3694247E+04  0.7818609E-02  0.8069238E-01
        2   -1    0    0  501    0  0.00000000000E+00  0.00000000000E+00  0.27212923360E+04  0.27212923360E+04  0.25500000920E-02 0. -1.
       -2   -1    0    0    0  501  0.00000000000E+00  0.00000000000E+00 -0.12537661948E+04  0.12537661948E+04  0.25500000920E-02 0.  1.
    10030    2    1    2    0    0  0.00000000000E+00  0.00000000000E+00  0.14675261411E+04  0.39750585308E+04  0.36942465197E+04 0.  0.
        4    1    3    3  502    0 -0.14932506347E+04  0.10759827580E+04  0.56593820276E+03  0.19255710883E+04  0.12699999809E+01 0.  1.
       -4    1    3    3    0  502  0.14932506347E+04 -0.10759827580E+04  0.90158793838E+03  0.20494874426E+04  0.12699999809E+01 0. -1.
</event>
<event>
 5   0  0.3471602E-07  0.2919119E+04  0.7818609E-02  0.8267212E-01
        1   -1    0    0  501    0  0.00000000000E+00  0.00000000000E+00  0.17280155345E+04  0.17280155345E+04  0.50400001928E-02 0. -1.
       -1   -1    0    0    0  501  0.00000000000E+00  0.00000000000E+00 -0.12328097521E+04  0.12328097521E+04  0.50400001928E-02 0.  1.
    10030    2    1    2    0    0  0.00000000000E+00  0.00000000000E+00  0.49520578242E+03  0.29608252866E+04  0.29191193211E+04 0.  0.
        5    1    3    3  502    0  0.12285549772E+04 -0.56929952556E+03 -0.30501426329E+03  0.13879859771E+04  0.46999998093E+01 0. -1.
       -5    1    3    3    0  502 -0.12285549772E+04  0.56929952556E+03  0.80022004571E+03  0.15728393095E+04  0.46999998093E+01 0.  1.
</event>
<event>
 5   0  0.5533705E-07  0.2991122E+04  0.7818609E-02  0.8246271E-01
        2   -1    0    0  501    0  0.00000000000E+00  0.00000000000E+00  0.95046183357E+03  0.95046183357E+03  0.25500000920E-02 0. -1.
       -2   -1    0    0    0  501  0.00000000000E+00  0.00000000000E+00 -0.23532797533E+04  0.23532797533E+04  0.25500000920E-02 0.  1.
    10030    2    1    2    0    0  0.00000000000E+00  0.00000000000E+00 -0.14028179197E+04  0.33037415868E+04  0.29911219228E+04 0.  0.
        1    1    3    3  502    0 -0.10908385019E+04 -0.20921244450E+03  0.40476469144E+03  0.11821729737E+04  0.50400001928E-02 0. -1.
       -1    1    3    3    0  502  0.10908385019E+04  0.20921244450E+03 -0.18075826111E+04  0.21215686132E+04  0.50400001928E-02 0.  1.
</event>
<event>
 5   0  0.7268013E-07  0.3707574E+04  0.7818609E-02  0.8066285E-01
        2   -1    0    0  501    0  0.00000000000E+00  0.00000000000E+00  0.29235107797E+04  0.29235107798E+04  0.25500000920E-02 0. -1.
       -2   -1    0    0    0  501  0.00000000000E+00  0.00000000000E+00 -0.11754791062E+04  0.11754791062E+04  0.25500000920E-02 0.  1.
    10030    2    1    2    0    0  0.00000000000E+00  0.00000000000E+00  0.17480316735E+04  0.40989898860E+04  0.37075737826E+04 0.  0.
        4    1    3    3  502    0  0.73169762246E+03  0.51226525076E+03 -0.92189299089E+03  0.12836219838E+04  0.12699999809E+01 0.  1.
       -4    1    3    3    0  502 -0.73169762246E+03 -0.51226525076E+03  0.26699246644E+04  0.28153679021E+04  0.12699999809E+01 0. -1.
</event>
<event>
 5   0  0.7268013E-07  0.3918802E+04  0.7818609E-02  0.8021130E-01
       -2   -1    0    0    0  501  0.00000000000E+00  0.00000000000E+00  0.14647232238E+04  0.14647232238E+04  0.25500000920E-02 0.  1.
        2   -1    0    0  501    0  0.00000000000E+00  0.00000000000E+00 -0.26211448770E+04  0.26211448770E+04  0.25500000920E-02 0. -1.
    10030    2    1    2    0    0  0.00000000000E+00  0.00000000000E+00 -0.11564216532E+04  0.40858681008E+04  0.39188017426E+04 0.  0.
        4    1    3    3  502    0  0.80322163378E+03  0.16467988308E+04  0.14575335898E+03  0.18380307497E+04  0.12699999809E+01 0.  1.
       -4    1    3    3    0  502 -0.80322163378E+03 -0.16467988308E+04 -0.13021750121E+04  0.22478373512E+04  0.12699999809E+01 0. -1.
</event>
<event>
 5   0  0.3977376E-07  0.3950545E+04  0.7818609E-02  0.8014598E-01
       -1   -1    0    0    0  501  0.00000000000E+00  0.00000000000E+00  0.19958422191E+04  0.19958422191E+04  0.50400001928E-02 0.  1.
        1   -1    0    0  501    0  0.00000000000E+00  0.00000000000E+00 -0.19549152271E+04  0.19549152271E+04  0.50400001928E-02 0. -1.
    10030    2    1    2    0    0  0.00000000000E+00  0.00000000000E+00  0.40926992008E+02  0.39507574462E+04  0.39505454535E+04 0.  0.
        4    1    3    3  502    0 -0.19268264871E+04  0.43156337178E+03 -0.32392693616E+02  0.19748311712E+04  0.12699999809E+01 0. -1.
       -4    1    3    3    0  502  0.19268264871E+04 -0.43156337178E+03  0.73319685624E+02  0.19759262751E+04  0.12699999809E+01 0.  1.
</event>
<event>
 5   0  0.3471602E-07  0.2183122E+04  0.7818609E-02  0.8525486E-01
        1   -1    0    0  501    0  0.00000000000E+00  0.00000000000E+00  0.13035859156E+04  0.13035859156E+04  0.50400001928E-02 0. -1.
       -1   -1    0    0    0  501  0.00000000000E+00  0.00000000000E+00 -0.91402137038E+03  0.91402137039E+03  0.50400001928E-02 0.  1.
    10030    2    1    2    0    0  0.00000000000E+00  0.00000000000E+00  0.38956454526E+03  0.22176072860E+04  0.21831219710E+04 0.  0.
        5    1    3    3  502    0  0.89313611835E+03  0.61922131402E+03  0.29815487688E+03  0.11269629906E+04  0.46999998093E+01 0.  1.
       -5    1    3    3    0  502 -0.89313611835E+03 -0.61922131402E+03  0.91409668376E+02  0.10906442954E+04  0.46999998093E+01 0. -1.
</event>
<event>
 5   0  0.4627905E-07  0.3886319E+04  0.7818609E-02  0.8027881E-01
        1   -1    0    0  501    0  0.00000000000E+00  0.00000000000E+00  0.16926063537E+04  0.16926063537E+04  0.50400001928E-02 0.  1.
       -1   -1    0    0    0  501  0.00000000000E+00  0.00000000000E+00 -0.22308010015E+04  0.22308010015E+04  0.50400001928E-02 0. -1.
    10030    2    1    2    0    0  0.00000000000E+00  0.00000000000E+00 -0.53819464782E+03  0.39234073552E+04  0.38863185402E+04 0.  0.
        1    1    3    3  502    0 -0.13276785501E+04 -0.11945559375E+04 -0.10420237974E+04  0.20677301116E+04  0.50400001928E-02 0. -1.
       -1    1    3    3    0  502  0.13276785501E+04  0.11945559375E+04  0.50382914956E+03  0.18556772435E+04  0.50400001928E-02 0.  1.
</event>
<event>
 5   0  0.7268013E-07  0.3940449E+04  0.7818609E-02  0.8016669E-01
        2   -1    0    0  501    0  0.00000000000E+00  0.00000000000E+00  0.16268817588E+04  0.16268817588E+04  0.25500000920E-02 0.  1.
       -2   -1    0    0    0  501  0.00000000000E+00  0.00000000000E+00 -0.23860278656E+04  0.23860278656E+04  0.25500000920E-02 0. -1.
    10030    2    1    2    0    0  0.00000000000E+00  0.00000000000E+00 -0.75914610683E+03  0.40129096244E+04  0.39404493199E+04 0.  0.
        4    1    3    3  502    0 -0.20387048416E+03  0.13965591776E+04  0.10204219413E+04  0.17416093885E+04  0.12699999809E+01 0.  1.
       -4    1    3    3    0  502  0.20387048416E+03 -0.13965591776E+04 -0.17795680481E+04  0.22713002359E+04  0.12699999809E+01 0. -1.
</event>
<event>
 5   0  0.3977376E-07  0.3491025E+04  0.7818609E-02  0.8115920E-01
       -1   -1    0    0    0  501  0.00000000000E+00  0.00000000000E+00  0.15993237197E+04  0.15993237197E+04  0.50400001928E-02 0. -1.
        1   -1    0    0  501    0  0.00000000000E+00  0.00000000000E+00 -0.19050633904E+04  0.19050633904E+04  0.50400001928E-02 0.  1.
    10030    2    1    2    0    0  0.00000000000E+00  0.00000000000E+00 -0.30573967068E+03  0.35043871102E+04  0.34910245304E+04 0.  0.
        4    1    3    3  502    0 -0.66490360597E+02  0.12655825396E+04 -0.13577521891E+04  0.18573133157E+04  0.12699999809E+01 0.  1.
       -4    1    3    3    0  502  0.66490360597E+02 -0.12655825396E+04  0.10520125184E+04  0.16470737945E+04  0.12699999809E+01 0. -1.
</event>
<event>
 5   0  0.5533705E-07  0.4013587E+04  0.7818609E-02  0.8001811E-01
       -2   -1    0    0    0  501  0.00000000000E+00  0.00000000000E+00  0.21090071989E+04  0.21090071989E+04  0.25500000920E-02 0.  1.
        2   -1    0    0  501    0  0.00000000000E+00  0.00000000000E+00 -0.19095340509E+04  0.19095340509E+04  0.25500000920E-02 0. -1.
    10030    2    1    2    0    0  0.00000000000E+00  0.00000000000E+00  0.19947314803E+03  0.40185412498E+04  0.40135874526E+04 0.  0.
        1    1    3    3  502    0  0.18454411971E+04  0.74464270754E+03 -0.15957166720E+03  0.19963990310E+04  0.50400001928E-02 0.  1.
       -1    1    3    3    0  502 -0.18454411971E+04 -0.74464270754E+03  0.35904481523E+03  0.20221422188E+04  0.50400001928E-02 0. -1.
</event>
<event>
 5   0  0.3471602E-07  0.2613478E+04  0.7818609E-02  0.8363638E-01
        1   -1    0    0  501    0  0.00000000000E+00  0.00000000000E+00  0.15161607677E+04  0.15161607677E+04  0.50400001928E-02 0. -1.
       -1   -1    0    0    0  501  0.00000000000E+00  0.00000000000E+00 -0.11262436537E+04  0.11262436537E+04  0.50400001928E-02 0.  1.
    10030    2    1    2    0    0  0.00000000000E+00  0.00000000000E+00  0.38991711400E+03  0.26424044215E+04  0.26134777158E+04 0.  0.
        5    1    3    3  502    0 -0.25599778977E+03  0.48349609780E+03 -0.10048694062E+04  0.11441538177E+04  0.46999998093E+01 0.  1.
       -5    1    3    3    0  502  0.25599778977E+03 -0.48349609780E+03  0.13947865202E+04  0.14982506038E+04  0.46999998093E+01 0. -1.
</event>
<event>
 5   0  0.5533705E-07  0.3902923E+04  0.7818609E-02  0.8024422E-01
        2   -1    0    0  501    0  0.00000000000E+00  0.00000000000E+00  0.20728172385E+04  0.20728172385E+04  0.25500000920E-02 0.  1.
       -2   -1    0    0    0  501  0.00000000000E+00  0.00000000000E+00 -0.18372106765E+04  0.18372106765E+04  0.25500000920E-02 0. -1.
    10030    2    1    2    0    0  0.00000000000E+00  0.00000000000E+00  0.23560656199E+03  0.39100279150E+04  0.39029229872E+04 0.  0.
        1    1    3    3  502    0  0.75689278192E+03 -0.14220677725E+04 -0.98558196803E+03  0.18885272698E+04  0.50400001928E-02 0. -1.
       -1    1    3    3    0  502 -0.75689278192E+03  0.14220677725E+04  0.12211885300E+04  0.20215006453E+04  0.50400001928E-02 0.  1.
</event>
<event>
 5   0  0.5533705E-07  0.2793243E+04  0.7818609E-02  0.8305369E-01
        2   -1    0    0  501    0  0.00000000000E+00  0.00000000000E+00  0.14535674940E+04  0.14535674940E+04  0.25500000920E-02 0. -1.
       -2   -1    0    0    0  501  0.00000000000E+00  0.00000000000E+00 -0.13419062220E+04  0.13419062220E+04  0.25500000920E-02 0.  1.
    10030    2    1    2    0    0  0.00000000000E+00  0.00000000000E+00  0.11166127209E+03  0.27954737160E+04  0.27932427494E+04 0.  0.
        1    1    3    3  502    0  0.12257157508E+04  0.35980446078E+03  0.62082818349E+03  0.14203048916E+04  0.50400001928E-02 0. -1.
       -1    1    3    3    0  502 -0.12257157508E+04 -0.35980446078E+03 -0.50916691140E+03  0.13751688244E+04  0.50400001928E-02 0.  1.
</event>
<event>
 5   0  0.3471602E-07  0.2272352E+04  0.7818609E-02  0.8488903E-01
        1   -1    0    0  501    0  0.00000000000E+00  0.00000000000E+00  0.15491183921E+04  0.15491183921E+04  0.50400001928E-02 0. -1.
       -1   -1    0    0    0  501  0.00000000000E+00  0.00000000000E+00 -0.83331011282E+03  0.83331011283E+03  0.50400001928E-02 0.  1.
    10030    2    1    2    0    0  0.00000000000E+00  0.00000000000E+00  0.71580827927E+03  0.23824285049E+04  0.22723521048E+04 0.  0.
        5    1    3    3  502    0 -0.59754459161E+03 -0.86120279394E+03  0.81748064944E+03  0.13292954876E+04  0.46999998093E+01 0. -1.
       -5    1    3    3    0  502  0.59754459161E+03  0.86120279394E+03 -0.10167237017E+03  0.10531330173E+04  0.46999998093E+01 0.  1.
</event>
<event>
 5   0  0.1035864E-06  0.3777019E+04  0.7818609E-02  0.8051105E-01
        2   -1    0    0  501    0  0.00000000000E+00  0.00000000000E+00  0.24105579749E+04  0.24105579749E+04  0.25500000920E-02 0. -1.
       -2   -1    0    0    0  501  0.00000000000E+00  0.00000000000E+00 -0.14795196809E+04  0.14795196809E+04  0.25500000920E-02 0.  1.
    10030    2    1    2    0    0  0.00000000000E+00  0.00000000000E+00  0.93103829406E+03  0.38900776558E+04  0.37770189122E+04 0.  0.
        5    1    3    3  502    0 -0.11263932936E+04  0.31450412585E+03  0.19927304493E+04  0.23105565197E+04  0.46999998093E+01 0. -1.
       -5    1    3    3    0  502  0.11263932936E+04 -0.31450412585E+03 -0.10616921553E+04  0.15795211361E+04  0.46999998093E+01 0.  1.
</event>
<event>
 5   0  0.1034683E-06  0.4072188E+04  0.7818609E-02  0.7990140E-01
        2   -1    0    0  501    0  0.00000000000E+00  0.00000000000E+00  0.16495461282E+04  0.16495461282E+04  0.25500000920E-02 0.  1.
       -2   -1    0    0    0  501  0.00000000000E+00  0.00000000000E+00 -0.25132244878E+04  0.25132244878E+04  0.25500000920E-02 0. -1.
    10030    2    1    2    0    0  0.00000000000E+00  0.00000000000E+00 -0.86367835956E+03  0.41627706160E+04  0.40721884648E+04 0.  0.
        2    1    3    3  502    0 -0.18343813165E+04  0.83467942584E+03 -0.13550268530E+03  0.20199023581E+04  0.25500000920E-02 0.  1.
       -2    1    3    3    0  502  0.18343813165E+04 -0.83467942584E+03 -0.72817567426E+03  0.21428682580E+04  0.25500000920E-02 0. -1.
</event>
<event>
 5   0  0.1034683E-06  0.3822934E+04  0.7818609E-02  0.8041251E-01
       -2   -1    0    0    0  501  0.00000000000E+00  0.00000000000E+00  0.12851377675E+04  0.12851377675E+04  0.25500000920E-02 0.  1.
        2   -1    0    0  501    0  0.00000000000E+00  0.00000000000E+00 -0.28430468195E+04  0.28430468195E+04  0.25500000920E-02 0. -1.
    10030    2    1    2    0    0  0.00000000000E+00  0.00000000000E+00 -0.15579090520E+04  0.41281845869E+04  0.38229343925E+04 0.  0.
        2    1    3    3  502    0 -0.13680301138E+04 -0.27316808017E+03  0.63212908690E+03  0.15315725170E+04  0.25500000920E-02 0.  1.
       -2    1    3    3    0  502  0.13680301138E+04  0.27316808017E+03 -0.21900381389E+04  0.25966120700E+04  0.25500000920E-02 0. -1.
</event>
<event>
 5   0  0.4627905E-07  0.2189814E+04  0.7818609E-02  0.8522680E-01
       -1   -1    0    0    0  501  0.00000000000E+00  0.00000000000E+00  0.78371540327E+03  0.78371540329E+03  0.50400001928E-02 0. -1.
        1   -1    0    0  501    0  0.00000000000E+00  0.00000000000E+00 -0.15296638655E+04  0.15296638655E+04  0.50400001928E-02 0.  1.
    10030    2    1    2    0    0  0.00000000000E+00  0.00000000000E+00 -0.74594846221E+03  0.23133792688E+04  0.21898138124E+04 0.  0.
        1    1    3    3  502    0  0.10351984910E+04 -0.26803720727E+03 -0.62149587678E+03  0.12368253657E+04  0.50400001928E-02 0.  1.
       -1    1    3    3    0  502 -0.10351984910E+04  0.26803720727E+03 -0.12445258543E+03  0.10765539031E+04  0.50400001928E-02 0. -1.
</event>
<event>
 5   0  0.1035864E-06  0.3848463E+04  0.7818609E-02  0.8035834E-01
       -2   -1    0    0    0  501  0.00000000000E+00  0.00000000000E+00  0.15082362343E+04  0.15082362343E+04  0.25500000920E-02 0.  1.
        2   -1    0    0  501    0  0.00000000000E+00  0.00000000000E+00 -0.24549652720E+04  0.24549652720E+04  0.25500000920E-02 0. -1.
    10030    2    1    2    0    0  0.00000000000E+00  0.00000000000E+00 -0.94672903767E+03  0.39632015064E+04  0.38484633699E+04 0.  0.
        5    1    3    3  502    0 -0.78375742117E+03 -0.17094534652E+04 -0.53611212694E+02  0.18813301404E+04  0.46999998093E+01 0.  1.
       -5    1    3    3    0  502  0.78375742117E+03  0.17094534652E+04 -0.89311782497E+03  0.20818713659E+04  0.46999998093E+01 0. -1.
</event>
<event>
 5   0  0.5533705E-07  0.4254509E+04  0.7818609E-02  0.7955084E-01
       -2   -1    0    0    0  501  0.00000000000E+00  0.00000000000E+00  0.20132342887E+04  0.20132342887E+04  0.25500000920E-02 0. -1.
        2   -1    0    0  501    0  0.00000000000E+00  0.00000000000E+00 -0.22477325424E+04  0.22477325424E+04  0.25500000920E-02 0.  1.
    10030    2    1    2    0    0  0.00000000000E+00  0.00000000000E+00 -0.23449825372E+03  0.42609668311E+04  0.42545092437E+04 0.  0.
        1    1    3    3  502    0 -0.42187345400E+03 -0.19774476977E+04  0.54476522738E+03  0.20940500857E+04  0.50400001928E-02 0. -1.
       -1    1    3    3    0  502  0.42187345400E+03  0.19774476977E+04 -0.77926348110E+03  0.21669167454E+04  0.50400001928E-02 0.  1.
</event>
<event>
 5   0  0.4316671E-07  0.2208311E+04  0.7818609E-02  0.8514977E-01
       -1   -1    0    0    0  501  0.00000000000E+00  0.00000000000E+00  0.12711445220E+04  0.12711445220E+04  0.50400001928E-02 0. -1.
        1   -1    0    0  501    0  0.00000000000E+00  0.00000000000E+00 -0.95910381254E+03  0.95910381255E+03  0.50400001928E-02 0.  1.
    10030    2    1    2    0    0  0.00000000000E+00  0.00000000000E+00  0.31204070949E+03  0.22302483346E+04  0.22083111714E+04 0.  0.
        2    1    3    3  502    0 -0.71237372894E+03  0.60816819971E+03  0.74647739100E+03  0.11977367758E+04  0.25500000920E-02 0. -1.
       -2    1    3    3    0  502  0.71237372894E+03 -0.60816819971E+03 -0.43443668151E+03  0.10325115588E+04  0.25500000920E-02 0.  1.
</event>
<event>
 5   0  0.5533705E-07  0.1955238E+04  0.7818609E-02  0.8627839E-01
        2   -1    0    0  501    0  0.00000000000E+00  0.00000000000E+00  0.27680077120E+04  0.27680077120E+04  0.25500000920E-02 0.  1.
       -2   -1    0    0    0  501  0.00000000000E+00  0.00000000000E+00 -0.34528056199E+03  0.34528056200E+03  0.25500000920E-02 0. -1.
    10030    2    1    2    0    0  0.00000000000E+00  0.00000000000E+00  0.24227271500E+04  0.31132882740E+04  0.19552383572E+04 0.  0.
        1    1    3    3  502    0 -0.40326912316E+03  0.74928498299E+01  0.26293493183E+04  0.26601052547E+04  0.50400001928E-02 0.  1.
       -1    1    3    3    0  502  0.40326912316E+03 -0.74928498299E+01 -0.20662216831E+03  0.45318301927E+03  0.50400001928E-02 0. -1.
</event>
<event>
 5   0  0.4627905E-07  0.3852680E+04  0.7818609E-02  0.8034943E-01
       -1   -1    0    0    0  501  0.00000000000E+00  0.00000000000E+00  0.17749649999E+04  0.17749649999E+04  0.50400001928E-02 0.  1.
        1   -1    0    0  501    0  0.00000000000E+00  0.00000000000E+00 -0.20906252129E+04  0.20906252129E+04  0.50400001928E-02 0. -1.
    10030    2    1    2    0    0  0.00000000000E+00  0.00000000000E+00 -0.31566021293E+03  0.38655902128E+04  0.38526804076E+04 0.  0.
        1    1    3    3  502    0 -0.39747943220E+03 -0.54176565603E+03 -0.19692290409E+04  0.20807121234E+04  0.50400001928E-02 0. -1.
       -1    1    3    3    0  502  0.39747943220E+03  0.54176565603E+03  0.16535688280E+04  0.17848780894E+04  0.50400001928E-02 0.  1.
</event>
<event>
 5   0  0.7268013E-07  0.3839680E+04  0.7818609E-02  0.8037693E-01
       -2   -1    0    0    0  501  0.00000000000E+00  0.00000000000E+00  0.18225962555E+04  0.18225962555E+04  0.25500000920E-02 0.  1.
        2   -1    0    0  501    0  0.00000000000E+00  0.00000000000E+00 -0.20222720331E+04  0.20222720331E+04  0.25500000920E-02 0. -1.
    10030    2    1    2    0    0  0.00000000000E+00  0.00000000000E+00 -0.19967577767E+03  0.38448682886E+04  0.38396799008E+04 0.  0.
        4    1    3    3  502    0 -0.84978776933E+03 -0.68232572234E+03  0.14828281582E+04  0.18402414526E+04  0.12699999809E+01 0.  1.
       -4    1    3    3    0  502  0.84978776933E+03  0.68232572234E+03 -0.16825039359E+04  0.20046268360E+04  0.12699999809E+01 0. -1.
</event>
<event>
 5   0  0.5533705E-07  0.3885294E+04  0.7818609E-02  0.8028095E-01
       -2   -1    0    0    0  501  0.00000000000E+00  0.00000000000E+00  0.22990027938E+04  0.22990027938E+04  0.25500000920E-02 0.  1.
        2   -1    0    0  501    0  0.00000000000E+00  0.00000000000E+00 -0.16415279231E+04  0.16415279231E+04  0.25500000920E-02 0. -1.
    10030    2    1    2    0    0  0.00000000000E+00  0.00000000000E+00  0.65747487065E+03  0.39405307169E+04  0.38852939561E+04 0.  0.
        1    1    3    3  502    0 -0.47282961508E+03 -0.99692993295E+03 -0.12928809111E+04  0.16996994400E+04  0.50400001928E-02 0. -1.
       -1    1    3    3    0  502  0.47282961508E+03  0.99692993295E+03  0.19503557817E+04  0.22408312769E+04  0.50400001928E-02 0.  1.
</event>
<event>
 5   0  0.1034683E-06  0.2693358E+04  0.7818609E-02  0.8337163E-01
        2   -1    0    0  501    0  0.00000000000E+00  0.00000000000E+00  0.21544698877E+04  0.21544698877E+04  0.25500000920E-02 0. -1.
       -2   -1    0    0    0  501  0.00000000000E+00  0.00000000000E+00 -0.84175901682E+03  0.84175901683E+03  0.25500000920E-02 0.  1.
    10030    2    1    2    0    0  0.00000000000E+00  0.00000000000E+00  0.13127108709E+04  0.29962289045E+04  0.26933580931E+04 0.  0.
        2    1    3    3  502    0 -0.60884545468E+03  0.36230422639E+03 -0.61767409516E+03  0.93993533181E+03  0.25500000920E-02 0.  1.
       -2    1    3    3    0  502  0.60884545468E+03 -0.36230422639E+03  0.19303849660E+04  0.20562935727E+04  0.25500000920E-02 0. -1.
</event>
<event>
 5   0  0.7784158E-07  0.1981580E+04  0.7818609E-02  0.8615282E-01
       -2   -1    0    0    0  501  0.00000000000E+00  0.00000000000E+00  0.53501446332E+03  0.53501446333E+03  0.25500000920E-02 0.  1.
        2   -1    0    0  501    0  0.00000000000E+00  0.00000000000E+00 -0.18348371767E+04  0.18348371767E+04  0.25500000920E-02 0. -1.
    10030    2    1    2    0    0  0.00000000000E+00  0.00000000000E+00 -0.12998227134E+04  0.23698516400E+04  0.19815795996E+04 0.  0.
        1    1    3    3  502    0 -0.83686950094E+03 -0.79710866666E+02 -0.22800340248E+02  0.84096625343E+03  0.50400001928E-02 0.  1.
       -1    1    3    3    0  502  0.83686950094E+03  0.79710866666E+02 -0.12770223731E+04  0.15288853866E+04  0.50400001928E-02 0. -1.
</event>
<event>
 5   0  0.4316671E-07  0.2349184E+04  0.7818609E-02  0.8458777E-01
        1   -1    0    0  501    0  0.00000000000E+00  0.00000000000E+00  0.20768428867E+04  0.20768428867E+04  0.50400001928E-02 0.  1.
       -1   -1    0    0    0  501  0.00000000000E+00  0.00000000000E+00 -0.66430938117E+03  0.66430938119E+03  0.50400001928E-02 0. -1.
    10030    2    1    2    0    0  0.00000000000E+00  0.00000000000E+00  0.14125335055E+04  0.27411522679E+04  0.23491838692E+04 0.  0.
        2    1    3    3  502    0  0.53114491476E+03  0.10433265114E+04  0.81709373007E+03  0.14276859927E+04  0.25500000920E-02 0. -1.
       -2    1    3    3    0  502 -0.53114491476E+03 -0.10433265114E+04  0.59543977546E+03  0.13134662752E+04  0.25500000920E-02 0.  1.
</event>
<event>
 5   0  0.1034683E-06  0.3943863E+04  0.7818609E-02  0.8015968E-01
       -2   -1    0    0    0  501  0.00000000000E+00  0.00000000000E+00  0.24279273342E+04  0.24279273342E+04  0.25500000920E-02 0. -1.
        2   -1    0    0  501    0  0.00000000000E+00  0.00000000000E+00 -0.16015775988E+04  0.16015775988E+04  0.25500000920E-02 0.  1.
    10030    2    1    2    0    0  0.00000000000E+00  0.00000000000E+00  0.82634973535E+03  0.40295049330E+04  0.39438630960E+04 0.  0.
        2    1    3    3  502    0 -0.16401994928E+04  0.66352426595E+03  0.13027099676E+04  0.21971736589E+04  0.25500000920E-02 0. -1.
       -2    1    3    3    0  502  0.16401994928E+04 -0.66352426595E+03 -0.47636023221E+03  0.18323312742E+04  0.25500000920E-02 0.  1.
</event>
<event>
 5   0  0.3471602E-07  0.3910406E+04  0.7818609E-02  0.8022869E-01
        1   -1    0    0  501    0  0.00000000000E+00  0.00000000000E+00  0.15812384375E+04  0.15812384375E+04  0.50400001928E-02 0. -1.
       -1   -1    0    0    0  501  0.00000000000E+00  0.00000000000E+00 -0.24176100541E+04  0.24176100541E+04  0.50400001928E-02 0.  1.
    10030    2    1    2    0    0  0.00000000000E+00  0.00000000000E+00 -0.83637161662E+03  0.39988484916E+04  0.39104055771E+04 0.  0.
        5    1    3    3  502    0  0.25345235370E+03  0.14241760934E+04 -0.17633378249E+04  0.22807669796E+04  0.46999998093E+01 0. -1.
       -5    1    3    3    0  502 -0.25345235370E+03 -0.14241760934E+04  0.92696620824E+03  0.17180815120E+04  0.46999998093E+01 0.  1.
</event>
<event>
 5   0  0.4316671E-07  0.3869977E+04  0.7818609E-02  0.8031303E-01
        1   -1    0    0  501    0  0.00000000000E+00  0.00000000000E+00  0.25489149331E+04  0.25489149331E+04  0.50400001928E-02 0.  1.
       -1   -1    0    0    0  501  0.00000000000E+00  0.00000000000E+00 -0.14689311053E+04  0.14689311053E+04  0.50400001928E-02 0. -1.
    10030    2    1    2    0    0  0.00000000000E+00  0.00000000000E+00  0.10799838279E+04  0.40178460384E+04  0.38699769663E+04 0.  0.
        2    1    3    3  502    0  0.17776817349E+03  0.18959990340E+04  0.89627558866E+03  0.21046909016E+04  0.25500000920E-02 0.  1.
       -2    1    3    3    0  502 -0.17776817349E+03 -0.18959990340E+04  0.18370823923E+03  0.19131551368E+04  0.25500000920E-02 0. -1.
</event>
<event>
 5   0  0.3191750E-07  0.2871187E+04  0.7818609E-02  0.8281502E-01
       -4   -1    0    0    0  501  0.00000000000E+00  0.00000000000E+00  0.96778982465E+03  0.96779065794E+03  0.12699999809E+01 0.  1.
        4   -1    0    0  501    0  0.00000000000E+00  0.00000000000E+00 -0.21295195812E+04  0.21295199599E+04  0.12699999809E+01 0. -1.
    10030    2    1    2    0    0  0.00000000000E+00  0.00000000000E+00 -0.11617297565E+04  0.30973106178E+04  0.28711873913E+04 0.  0.
        4    1    3    3  502    0 -0.67897260168E+03  0.11019760464E+02  0.78358126314E+03  0.10368830396E+04  0.12699999809E+01 0.  1.
       -4    1    3    3    0  502  0.67897260168E+03 -0.11019760464E+02 -0.19453110197E+04  0.20604275782E+04  0.12699999809E+01 0. -1.
</event>
<event>
 5   0  0.3471602E-07  0.4104479E+04  0.7818609E-02  0.7983795E-01
       -1   -1    0    0    0  501  0.00000000000E+00  0.00000000000E+00  0.30564922171E+04  0.30564922171E+04  0.50400001928E-02 0.  1.
        1   -1    0    0  501    0  0.00000000000E+00  0.00000000000E+00 -0.13779481019E+04  0.13779481020E+04  0.50400001928E-02 0. -1.
    10030    2    1    2    0    0  0.00000000000E+00  0.00000000000E+00  0.16785441151E+04  0.44344403190E+04  0.41044793332E+04 0.  0.
        5    1    3    3  502    0  0.17729863139E+04 -0.18631212118E+03 -0.25905146288E+03  0.18014778450E+04  0.46999998093E+01 0. -1.
       -5    1    3    3    0  502 -0.17729863139E+04  0.18631212118E+03  0.19375955780E+04  0.26329624740E+04  0.46999998093E+01 0.  1.
</event>
<event>
 5   0  0.5533705E-07  0.3305485E+04  0.7818609E-02  0.8161501E-01
        2   -1    0    0  501    0  0.00000000000E+00  0.00000000000E+00  0.24377244296E+04  0.24377244296E+04  0.25500000920E-02 0.  1.
       -2   -1    0    0    0  501  0.00000000000E+00  0.00000000000E+00 -0.11205362465E+04  0.11205362465E+04  0.25500000920E-02 0. -1.
    10030    2    1    2    0    0  0.00000000000E+00  0.00000000000E+00  0.13171881831E+04  0.35582606761E+04  0.33054854907E+04 0.  0.
        1    1    3    3  502    0  0.55457241969E+03  0.34156667709E+03 -0.97655863926E+03  0.11738335229E+04  0.50400001928E-02 0. -1.
       -1    1    3    3    0  502 -0.55457241969E+03 -0.34156667709E+03  0.22937468224E+04  0.23844271532E+04  0.50400001928E-02 0.  1.
</event>
<event>
 5   0  0.7268013E-07  0.3572180E+04  0.7818609E-02  0.8096894E-01
        2   -1    0    0  501    0  0.00000000000E+00  0.00000000000E+00  0.16304733165E+04  0.16304733165E+04  0.25500000920E-02 0.  1.
       -2   -1    0    0    0  501  0.00000000000E+00  0.00000000000E+00 -0.19565593735E+04  0.19565593735E+04  0.25500000920E-02 0. -1.
    10030    2    1    2    0    0  0.00000000000E+00  0.00000000000E+00 -0.32608605705E+03  0.35870326900E+04  0.35721802030E+04 0.  0.
        4    1    3    3  502    0 -0.17090694639E+03  0.76161588446E+03  0.14501384016E+04  0.16468670063E+04  0.12699999809E+01 0.  1.
       -4    1    3    3    0  502  0.17090694639E+03 -0.76161588446E+03 -0.17762244586E+04  0.19401656837E+04  0.12699999809E+01 0. -1.
</event>
<event>
 5   0  0.5533705E-07  0.2294379E+04  0.7818609E-02  0.8480141E-01
        2   -1    0    0  501    0  0.00000000000E+00  0.00000000000E+00  0.12593794905E+04  0.12593794905E+04  0.25500000920E-02 0.  1.
       -2   -1    0    0    0  501  0.00000000000E+00  0.00000000000E+00 -0.10449938597E+04  0.10449938597E+04  0.25500000920E-02 0. -1.
    10030    2    1    2    0    0  0.00000000000E+00  0.00000000000E+00  0.21438563084E+03  0.23043733502E+04  0.22943790747E+04 0.  0.
        1    1    3    3  502    0 -0.74977588851E+03 -0.13881258907E+03 -0.75363519376E+03  0.10721001927E+04  0.50400001928E-02 0. -1.
       -1    1    3    3    0  502  0.74977588851E+03  0.13881258907E+03  0.96802082460E+03  0.12322731575E+04  0.50400001928E-02 0.  1.
</event>
<event>
 5   0  0.1035864E-06  0.3920432E+04  0.7818609E-02  0.8020793E-01
       -2   -1    0    0    0  501  0.00000000000E+00  0.00000000000E+00  0.19331989807E+04  0.19331989807E+04  0.25500000920E-02 0.  1.
        2   -1    0    0  501    0  0.00000000000E+00  0.00000000000E+00 -0.19876110913E+04  0.19876110913E+04  0.25500000920E-02 0. -1.
    10030    2    1    2    0    0  0.00000000000E+00  0.00000000000E+00 -0.54412110530E+02  0.39208100720E+04  0.39204324944E+04 0.  0.
        5    1    3    3  502    0  0.12737746352E+04 -0.74899428815E+03 -0.13153252035E+04  0.19782812606E+04  0.46999998093E+01 0. -1.
       -5    1    3    3    0  502 -0.12737746352E+04  0.74899428815E+03  0.12609130930E+04  0.19425288114E+04  0.46999998093E+01 0.  1.
</event>
<event>
 5   0  0.1035864E-06  0.3869763E+04  0.7818609E-02  0.8031347E-01
       -2   -1    0    0    0  501  0.00000000000E+00  0.00000000000E+00  0.13269408715E+04  0.13269408715E+04  0.25500000920E-02 0.  1.
        2   -1    0    0  501    0  0.00000000000E+00  0.00000000000E+00 -0.28213517064E+04  0.28213517064E+04  0.25500000920E-02 0. -1.
    10030    2    1    2    0    0  0.00000000000E+00  0.00000000000E+00 -0.14944108349E+04  0.41482925778E+04  0.38697632444E+04 0.  0.
        5    1    3    3  502    0 -0.11569176159E+04  0.77285147963E+03  0.69418834573E+03  0.15548882046E+04  0.46999998093E+01 0.  1.
       -5    1    3    3    0  502  0.11569176159E+04 -0.77285147963E+03 -0.21885991806E+04  0.25934043732E+04  0.46999998093E+01 0. -1.
</event>
<event>
 5   0  0.3977376E-07  0.3929021E+04  0.7818609E-02  0.8019020E-01
       -1   -1    0    0    0  501  0.00000000000E+00  0.00000000000E+00  0.21304015692E+04  0.21304015692E+04  0.50400001928E-02 0.  1.
        1   -1    0    0  501    0  0.00000000000E+00  0.00000000000E+00 -0.18115368521E+04  0.18115368521E+04  0.50400001928E-02 0. -1.
    10030    2    1    2    0    0  0.00000000000E+00  0.00000000000E+00  0.31886471704E+03  0.39419384213E+04  0.39290207189E+04 0.  0.
        4    1    3    3  502    0  0.33816010253E+02  0.49044298687E+03  0.20676903041E+04  0.21253288340E+04  0.12699999809E+01 0.  1.
       -4    1    3    3    0  502 -0.33816010253E+02 -0.49044298687E+03 -0.17488255871E+04  0.18166095874E+04  0.12699999809E+01 0. -1.
</event>
<event>
 5   0  0.4627905E-07  0.2855160E+04  0.7818609E-02  0.8286345E-01
        1   -1    0    0  501    0  0.00000000000E+00  0.00000000000E+00  0.89155770850E+03  0.89155770851E+03  0.50400001928E-02 0. -1.
       -1   -1    0    0    0  501  0.00000000000E+00  0.00000000000E+00 -0.22858689949E+04  0.22858689949E+04  0.50400001928E-02 0.  1.
    10030    2    1    2    0    0  0.00000000000E+00  0.00000000000E+00 -0.13943112864E+04  0.31774267034E+04  0.28551596264E+04 0.  0.
        1    1    3    3  502    0 -0.86650365625E+03  0.37842173399E+03  0.49312439007E+03  0.10663973271E+04  0.50400001928E-02 0. -1.
       -1    1    3    3    0  502  0.86650365625E+03 -0.37842173399E+03 -0.18874356765E+04  0.21110293764E+04  0.50400001928E-02 0.  1.
</event>
<event>
 5   0  0.7268013E-07  0.2588974E+04  0.7818609E-02  0.8371956E-01
        2   -1    0    0  501    0  0.00000000000E+00  0.00000000000E+00  0.15894818529E+04  0.15894818529E+04  0.25500000920E-02 0.  1.
       -2   -1    0    0    0  501  0.00000000000E+00  0.00000000000E+00 -0.10542406444E+04  0.10542406444E+04  0.25500000920E-02 0. -1.
    10030    2    1    2    0    0  0.00000000000E+00  0.00000000000E+00  0.53524120847E+03  0.26437224973E+04  0.25889738298E+04 0.  0.
        4    1    3    3  502    0 -0.61783511164E+03  0.17778883800E+03 -0.87968943278E+03  0.10895798306E+04  0.12699999809E+01 0. -1.
       -4    1    3    3    0  502  0.61783511164E+03 -0.17778883800E+03  0.14149306413E+04  0.15541426667E+04  0.12699999809E+01 0.  1.
</event>
<event>
 5   0  0.1015219E-06  0.3586306E+04  0.7818609E-02  0.8093636E-01
       -2   -1    0    0    0  501  0.00000000000E+00  0.00000000000E+00  0.13872704762E+04  0.13872704763E+04  0.25500000920E-02 0. -1.
        2   -1    0    0  501    0  0.00000000000E+00  0.00000000000E+00 -0.23177865439E+04  0.23177865439E+04  0.25500000920E-02 0.  1.
    10030    2    1    2    0    0  0.00000000000E+00  0.00000000000E+00 -0.93051606764E+03  0.37050570201E+04  0.35863055322E+04 0.  0.
        3    1    3    3  502    0  0.82590292264E+03  0.22946029289E+03  0.11618954972E+04  0.14438728546E+04  0.10100000352E+00 0. -1.
       -3    1    3    3    0  502 -0.82590292264E+03 -0.22946029289E+03 -0.20924115648E+04  0.22611841655E+04  0.10100000352E+00 0.  1.
</event>
<event>
 5   0  0.3471602E-07  0.2202795E+04  0.7818609E-02  0.8517266E-01
        1   -1    0    0  501    0  0.00000000000E+00  0.00000000000E+00  0.97198764241E+03  0.97198764242E+03  0.50400001928E-02 0. -1.
       -1   -1    0    0    0  501  0.00000000000E+00  0.00000000000E+00 -0.12480364789E+04  0.12480364789E+04  0.50400001928E-02 0.  1.
    10030    2    1    2    0    0  0.00000000000E+00  0.00000000000E+00 -0.27604883650E+03  0.22200241213E+04  0.22027946203E+04 0.  0.
        5    1    3    3  502    0  0.10323278355E+04  0.35313795564E+03 -0.28968992246E+03  0.11288709035E+04  0.46999998093E+01 0.  1.
       -5    1    3    3    0  502 -0.10323278355E+04 -0.35313795564E+03  0.13641085962E+02  0.10911532178E+04  0.46999998093E+01 0. -1.
</event>
<event>
 5   0  0.5533705E-07  0.3915415E+04  0.7818609E-02  0.8021831E-01
        2   -1    0    0  501    0  0.00000000000E+00  0.00000000000E+00  0.19671239463E+04  0.19671239464E+04  0.25500000920E-02 0. -1.
       -2   -1    0    0    0  501  0.00000000000E+00  0.00000000000E+00 -0.19483357157E+04  0.19483357157E+04  0.25500000920E-02 0.  1.
    10030    2    1    2    0    0  0.00000000000E+00  0.00000000000E+00  0.18788230602E+02  0.39154596621E+04  0.39154145844E+04 0.  0.
        1    1    3    3  502    0  0.16933343234E+04  0.58896875612E+03 -0.77696887572E+03  0.19539564888E+04  0.50400001928E-02 0.  1.
       -1    1    3    3    0  502 -0.16933343234E+04 -0.58896875612E+03  0.79575710633E+03  0.19615031733E+04  0.50400001928E-02 0. -1.
</event>
<event>
 5   0  0.1034683E-06  0.3996541E+04  0.7818609E-02  0.8005245E-01
        2   -1    0    0  501    0  0.00000000000E+00  0.00000000000E+00  0.22845395090E+04  0.22845395090E+04  0.25500000920E-02 0.  1.
       -2   -1    0    0    0  501  0.00000000000E+00  0.00000000000E+00 -0.17478732443E+04  0.17478732443E+04  0.25500000920E-02 0. -1.
    10030    2    1    2    0    0  0.00000000000E+00  0.00000000000E+00  0.53666626471E+03  0.40324127533E+04  0.39965412463E+04 0.  0.
        2    1    3    3  502    0 -0.14921786666E+04  0.59152316519E+03 -0.93255501900E+03  0.18563824206E+04  0.25500000920E-02 0. -1.
       -2    1    3    3    0  502  0.14921786666E+04 -0.59152316519E+03  0.14692212837E+04  0.21760303327E+04  0.25500000920E-02 0.  1.
</event>
<event>
 5   0  0.1034683E-06  0.3791060E+04  0.7818609E-02  0.8048076E-01
       -2   -1    0    0    0  501  0.00000000000E+00  0.00000000000E+00  0.19824498434E+04  0.19824498434E+04  0.25500000920E-02 0. -1.
        2   -1    0    0  501    0  0.00000000000E+00  0.00000000000E+00 -0.18124212069E+04  0.18124212069E+04  0.25500000920E-02 0.  1.
    10030    2    1    2    0    0  0.00000000000E+00  0.00000000000E+00  0.17002863654E+03  0.37948710503E+04  0.37910600828E+04 0.  0.
        2    1    3    3  502    0 -0.36471829687E+03  0.11323752728E+04  0.15622148791E+04  0.19636212779E+04  0.25500000920E-02 0. -1.
       -2    1    3    3    0  502  0.36471829687E+03 -0.11323752728E+04 -0.13921862426E+04  0.18312497723E+04  0.25500000920E-02 0.  1.
</event>
<event>
 5   0  0.4316671E-07  0.3855653E+04  0.7818609E-02  0.8034316E-01
        1   -1    0    0  501    0  0.00000000000E+00  0.00000000000E+00  0.25194700713E+04  0.25194700713E+04  0.50400001928E-02 0. -1.
       -1   -1    0    0    0  501  0.00000000000E+00  0.00000000000E+00 -0.14751179474E+04  0.14751179475E+04  0.50400001928E-02 0.  1.
    10030    2    1    2    0    0  0.00000000000E+00  0.00000000000E+00  0.10443521239E+04  0.39945880188E+04  0.38556532626E+04 0.  0.
        2    1    3    3  502    0  0.35982165147E+03 -0.13025926779E+04  0.19465989925E+04  0.23696976480E+04  0.25500000920E-02 0. -1.
       -2    1    3    3    0  502 -0.35982165147E+03  0.13025926779E+04 -0.90224686859E+03  0.16248903708E+04  0.25500000920E-02 0.  1.
</event>
<event>
 5   0  0.3977376E-07  0.3532527E+04  0.7818609E-02  0.8106124E-01
        1   -1    0    0  501    0  0.00000000000E+00  0.00000000000E+00  0.18269223174E+04  0.18269223174E+04  0.50400001928E-02 0. -1.
       -1   -1    0    0    0  501  0.00000000000E+00  0.00000000000E+00 -0.17076191579E+04  0.17076191579E+04  0.50400001928E-02 0.  1.
    10030    2    1    2    0    0  0.00000000000E+00  0.00000000000E+00  0.11930315944E+03  0.35345414753E+04  0.35325274517E+04 0.  0.
        4    1    3    3  502    0  0.17159219851E+04 -0.38812431018E+03 -0.97464049950E+02  0.17619675346E+04  0.12699999809E+01 0.  1.
       -4    1    3    3    0  502 -0.17159219851E+04  0.38812431018E+03  0.21676720939E+03  0.17725739407E+04  0.12699999809E+01 0. -1.
</event>
<event>
 5   0  0.1015219E-06  0.2102569E+04  0.7818609E-02  0.8560113E-01
       -2   -1    0    0    0  501  0.00000000000E+00  0.00000000000E+00  0.55609941886E+03  0.55609941887E+03  0.25500000920E-02 0.  1.
        2   -1    0    0  501    0  0.00000000000E+00  0.00000000000E+00 -0.19874118874E+04  0.19874118874E+04  0.25500000920E-02 0. -1.
    10030    2    1    2    0    0  0.00000000000E+00  0.00000000000E+00 -0.14313124685E+04  0.25435113062E+04  0.21025685203E+04 0.  0.
        3    1    3    3  502    0 -0.41111241599E+03 -0.37532188702E+03  0.36317645507E+03  0.66466313661E+03  0.10100000352E+00 0.  1.
       -3    1    3    3    0  502  0.41111241599E+03  0.37532188702E+03 -0.17944889236E+04  0.18788481696E+04  0.10100000352E+00 0. -1.
</event>
<event>
 5   0  0.3471602E-07  0.3882544E+04  0.7818609E-02  0.8028670E-01
       -1   -1    0    0    0  501  0.00000000000E+00  0.00000000000E+00  0.22297572036E+04  0.22297572036E+04  0.50400001928E-02 0. -1.
        1   -1    0    0  501    0  0.00000000000E+00  0.00000000000E+00 -0.16901108340E+04  0.16901108340E+04  0.50400001928E-02 0.  1.
    10030    2    1    2    0    0  0.00000000000E+00  0.00000000000E+00  0.53964636961E+03  0.39198680376E+04  0.38825439120E+04 0.  0.
        5    1    3    3  502    0 -0.78017737288E+03 -0.14304416136E+04  0.13352760992E+04  0.21066144151E+04  0.46999998093E+01 0. -1.
       -5    1    3    3    0  502  0.78017737288E+03  0.14304416136E+04 -0.79562972955E+03  0.18132536225E+04  0.46999998093E+01 0.  1.
</event>
<event>
 5   0  0.1034683E-06  0.3918504E+04  0.7818609E-02  0.8021192E-01
       -2   -1    0    0    0  501  0.00000000000E+00  0.00000000000E+00  0.15036546370E+04  0.15036546370E+04  0.25500000920E-02 0. -1.
        2   -1    0    0  501    0  0.00000000000E+00  0.00000000000E+00 -0.25528925871E+04  0.25528925871E+04  0.25500000920E-02 0.  1.
    10030    2    1    2    0    0  0.00000000000E+00  0.00000000000E+00 -0.10492379501E+04  0.40565472241E+04  0.39185041924E+04 0.  0.
        2    1    3    3  502    0 -0.82179474701E+03 -0.13347338908E+04 -0.17415333201E+04  0.23430321104E+04  0.25500000920E-02 0.  1.
       -2    1    3    3    0  502  0.82179474701E+03  0.13347338908E+04  0.69229536997E+03  0.17135151137E+04  0.25500000920E-02 0. -1.
</event>
<event>
 5   0  0.7268013E-07  0.2144720E+04  0.7818609E-02  0.8541796E-01
       -2   -1    0    0    0  501  0.00000000000E+00  0.00000000000E+00  0.10220278963E+04  0.10220278963E+04  0.25500000920E-02 0.  1.
        2   -1    0    0  501    0  0.00000000000E+00  0.00000000000E+00 -0.11251711992E+04  0.11251711992E+04  0.25500000920E-02 0. -1.
    10030    2    1    2    0    0  0.00000000000E+00  0.00000000000E+00 -0.10314330293E+03  0.21471990955E+04  0.21447203581E+04 0.  0.
        4    1    3    3  502    0  0.46440680884E+03  0.88070782506E+03  0.34717849124E+03  0.10544451028E+04  0.12699999809E+01 0.  1.
       -4    1    3    3    0  502 -0.46440680884E+03 -0.88070782506E+03 -0.45032179417E+03  0.10927539926E+04  0.12699999809E+01 0. -1.
</event>
<event>
 5   0  0.4316671E-07  0.2072250E+04  0.7818609E-02  0.8573567E-01
       -1   -1    0    0    0  501  0.00000000000E+00  0.00000000000E+00  0.46627744817E+03  0.46627744820E+03  0.50400001928E-02 0.  1.
        1   -1    0    0  501    0  0.00000000000E+00  0.00000000000E+00 -0.23023961009E+04  0.23023961009E+04  0.50400001928E-02 0. -1.
    10030    2    1    2    0    0  0.00000000000E+00  0.00000000000E+00 -0.18361186527E+04  0.27686735491E+04  0.20722503504E+04 0.  0.
        2    1    3    3  502    0  0.10325589670E+04 -0.40960053375E+02 -0.81719143272E+03  0.13174435791E+04  0.25500000920E-02 0. -1.
       -2    1    3    3    0  502 -0.10325589670E+04  0.40960053375E+02 -0.10189272200E+04  0.14512299701E+04  0.25500000920E-02 0.  1.
</event>
<event>
 5   0  0.1015219E-06  0.3551401E+04  0.7818609E-02  0.8101715E-01
       -2   -1    0    0    0  501  0.00000000000E+00  0.00000000000E+00  0.13722802059E+04  0.13722802059E+04  0.25500000920E-02 0. -1.
        2   -1    0    0  501    0  0.00000000000E+00  0.00000000000E+00 -0.22977173915E+04  0.22977173915E+04  0.25500000920E-02 0.  1.
    10030    2    1    2    0    0  0.00000000000E+00  0.00000000000E+00 -0.92543718558E+03  0.36699975975E+04  0.35514009040E+04 0.  0.
        3    1    3    3  502    0  0.83736664336E+03  0.12964380616E+04  0.44477436985E+03  0.16061627543E+04  0.10100000352E+00 0. -1.
       -3    1    3    3    0  502 -0.83736664336E+03 -0.12964380616E+04 -0.13702115554E+04  0.20638348432E+04  0.10100000352E+00 0.  1.
</event>
<event>
 5   0  0.5533705E-07  0.2616954E+04  0.7818609E-02  0.8362465E-01
        2   -1    0    0  501    0  0.00000000000E+00  0.00000000000E+00  0.13888597254E+04  0.13888597254E+04  0.25500000920E-02 0. -1.
       -2   -1    0    0    0  501  0.00000000000E+00  0.00000000000E+00 -0.12327463001E+04  0.12327463001E+04  0.25500000920E-02 0.  1.
    10030    2    1    2    0    0  0.00000000000E+00  0.00000000000E+00  0.15611342532E+03  0.26216060255E+04  0.26169537159E+04 0.  0.
        1    1    3    3  502    0  0.26501161465E+03  0.75632323176E+03  0.11142338069E+04  0.13725060886E+04  0.50400001928E-02 0. -1.
       -1    1    3    3    0  502 -0.26501161465E+03 -0.75632323176E+03 -0.95812038154E+03  0.12490999369E+04  0.50400001928E-02 0.  1.
</event>
<event>
 5   0  0.7268013E-07  0.3942304E+04  0.7818609E-02  0.8016288E-01
       -2   -1    0    0    0  501  0.00000000000E+00  0.00000000000E+00  0.16716798842E+04  0.16716798842E+04  0.25500000920E-02 0.  1.
        2   -1    0    0  501    0  0.00000000000E+00  0.00000000000E+00 -0.23242728846E+04  0.23242728846E+04  0.25500000920E-02 0. -1.
    10030    2    1    2    0    0  0.00000000000E+00  0.00000000000E+00 -0.65259300049E+03  0.39959527688E+04  0.39423040099E+04 0.  0.
        4    1    3    3  502    0 -0.19449709955E+04  0.31347520210E+03 -0.26014165110E+03  0.19871724050E+04  0.12699999809E+01 0.  1.
       -4    1    3    3    0  502  0.19449709955E+04 -0.31347520210E+03 -0.39245134939E+03  0.20087803638E+04  0.12699999809E+01 0. -1.
</event>
<event>
 5   0  0.1035864E-06  0.3694215E+04  0.7818609E-02  0.8069245E-01
       -2   -1    0    0    0  501  0.00000000000E+00  0.00000000000E+00  0.14223414880E+04  0.14223414880E+04  0.25500000920E-02 0. -1.
        2   -1    0    0  501    0  0.00000000000E+00  0.00000000000E+00 -0.23987253480E+04  0.23987253480E+04  0.25500000920E-02 0.  1.
    10030    2    1    2    0    0  0.00000000000E+00  0.00000000000E+00 -0.97638385999E+03  0.38210668360E+04  0.36942152513E+04 0.  0.
        5    1    3    3  502    0 -0.18326532795E+04 -0.69179997717E+02 -0.26068325906E+03  0.18523989221E+04  0.46999998093E+01 0. -1.
       -5    1    3    3    0  502  0.18326532795E+04  0.69179997717E+02 -0.71570060093E+03  0.19686679139E+04  0.46999998093E+01 0.  1.
</event>
<event>
 5   0  0.5533705E-07  0.3917973E+04  0.7818609E-02  0.8021301E-01
       -2   -1    0    0    0  501  0.00000000000E+00  0.00000000000E+00  0.13403530795E+04  0.13403530795E+04  0.25500000920E-02 0.  1.
        2   -1    0    0  501    0  0.00000000000E+00  0.00000000000E+00 -0.28631477661E+04  0.28631477661E+04  0.25500000920E-02 0. -1.
    10030    2    1    2    0    0  0.00000000000E+00  0.00000000000E+00 -0.15227946865E+04  0.42035008456E+04  0.39179734176E+04 0.  0.
        1    1    3    3  502    0  0.16020151478E+04 -0.28094228103E+02 -0.19706517886E+04  0.25398248545E+04  0.50400001928E-02 0. -1.
       -1    1    3    3    0  502 -0.16020151478E+04  0.28094228103E+02  0.44785710202E+03  0.16636759911E+04  0.50400001928E-02 0.  1.
</event>
<event>
 5   0  0.3471602E-07  0.1969917E+04  0.7818609E-02  0.8620816E-01
       -1   -1    0    0    0  501  0.00000000000E+00  0.00000000000E+00  0.83471257962E+03  0.83471257963E+03  0.50400001928E-02 0.  1.
        1   -1    0    0  501    0  0.00000000000E+00  0.00000000000E+00 -0.11622483208E+04  0.11622483208E+04  0.50400001928E-02 0. -1.
    10030    2    1    2    0    0  0.00000000000E+00  0.00000000000E+00 -0.32753574119E+03  0.19969609004E+04  0.19699170480E+04 0.  0.
        5    1    3    3  502    0  0.73670903139E+03 -0.42833964310E+03 -0.66441646934E+03  0.10805953829E+04  0.46999998093E+01 0.  1.
       -5    1    3    3    0  502 -0.73670903139E+03  0.42833964310E+03  0.33688072815E+03  0.91636551756E+03  0.46999998093E+01 0. -1.
</event>
<event>
 5   0  0.7268013E-07  0.3863882E+04  0.7818609E-02  0.8032583E-01
        2   -1    0    0  501    0  0.00000000000E+00  0.00000000000E+00  0.30437902644E+04  0.30437902644E+04  0.25500000920E-02 0. -1.
       -2   -1    0    0    0  501  0.00000000000E+00  0.00000000000E+00 -0.12262329217E+04  0.12262329217E+04  0.25500000920E-02 0.  1.
    10030    2    1    2    0    0  0.00000000000E+00  0.00000000000E+00  0.18175573427E+04  0.42700231860E+04  0.38638818972E+04 0.  0.
        4    1    3    3  502    0  0.18552567399E+04 -0.51294509378E+03  0.10913864758E+04  0.22127395447E+04  0.12699999809E+01 0. -1.
       -4    1    3    3    0  502 -0.18552567399E+04  0.51294509378E+03  0.72617086691E+03  0.20572836414E+04  0.12699999809E+01 0.  1.
</event>
<event>
 5   0  0.4627905E-07  0.2836269E+04  0.7818609E-02  0.8292096E-01
       -1   -1    0    0    0  501  0.00000000000E+00  0.00000000000E+00  0.10954658637E+04  0.10954658637E+04  0.50400001928E-02 0. -1.
        1   -1    0    0  501    0  0.00000000000E+00  0.00000000000E+00 -0.18358448735E+04  0.18358448735E+04  0.50400001928E-02 0.  1.
    10030    2    1    2    0    0  0.00000000000E+00  0.00000000000E+00 -0.74037900977E+03  0.29313107373E+04  0.28362689506E+04 0.  0.
        1    1    3    3  502    0 -0.14426660982E+03  0.38160376568E+03 -0.17738882777E+04  0.18201961187E+04  0.50400001928E-02 0.  1.
       -1    1    3    3    0  502  0.14426660982E+03 -0.38160376568E+03  0.10335092679E+04  0.11111146186E+04  0.50400001928E-02 0. -1.
</event>
<event>
 5   0  0.1015219E-06  0.3885880E+04  0.7818609E-02  0.8027972E-01
       -2   -1    0    0    0  501  0.00000000000E+00  0.00000000000E+00  0.13274877396E+04  0.13274877396E+04  0.25500000920E-02 0. -1.
        2   -1    0    0  501    0  0.00000000000E+00  0.00000000000E+00 -0.28437298558E+04  0.28437298558E+04  0.25500000920E-02 0.  1.
    10030    2    1    2    0    0  0.00000000000E+00  0.00000000000E+00 -0.15162421162E+04  0.41712175955E+04  0.38858803474E+04 0.  0.
        3    1    3    3  502    0 -0.19603966448E+03 -0.91065054735E+03  0.10721625338E+04  0.14202987286E+04  0.10100000352E+00 0. -1.
       -3    1    3    3    0  502  0.19603966448E+03  0.91065054735E+03 -0.25884046500E+04  0.27509188668E+04  0.10100000352E+00 0.  1.
</event>
<event>
 5   0  0.3471602E-07  0.2688477E+04  0.7818609E-02  0.8338754E-01
       -1   -1    0    0    0  501  0.00000000000E+00  0.00000000000E+00  0.79319935299E+03  0.79319935301E+03  0.50400001928E-02 0.  1.
        1   -1    0    0  501    0  0.00000000000E+00  0.00000000000E+00 -0.22780863549E+04  0.22780863549E+04  0.50400001928E-02 0. -1.
    10030    2    1    2    0    0  0.00000000000E+00  0.00000000000E+00 -0.14848870019E+04  0.30712857079E+04  0.26884766116E+04 0.  0.
        5    1    3    3  502    0 -0.65589383469E+03 -0.11036072121E+04 -0.11976950356E+04  0.17557451664E+04  0.46999998093E+01 0.  1.
       -5    1    3    3    0  502  0.65589383469E+03  0.11036072121E+04 -0.28719196627E+03  0.13155405415E+04  0.46999998093E+01 0. -1.
</event>
<event>
 5   0  0.3471602E-07  0.2612340E+04  0.7818609E-02  0.8364021E-01
       -1   -1    0    0    0  501  0.00000000000E+00  0.00000000000E+00  0.69485784928E+03  0.69485784929E+03  0.50400001928E-02 0.  1.
        1   -1    0    0  501    0  0.00000000000E+00  0.00000000000E+00 -0.24552944731E+04  0.24552944731E+04  0.50400001928E-02 0. -1.
    10030    2    1    2    0    0  0.00000000000E+00  0.00000000000E+00 -0.17604366238E+04  0.31501523224E+04  0.26123404349E+04 0.  0.
        5    1    3    3  502    0 -0.11950026654E+04 -0.30840201446E+03 -0.36448297852E+03  0.12868617270E+04  0.46999998093E+01 0.  1.
       -5    1    3    3    0  502  0.11950026654E+04  0.30840201446E+03 -0.13959536453E+04  0.18632905953E+04  0.46999998093E+01 0. -1.
</event>
<event>
 5   0  0.1015219E-06  0.3887589E+04  0.7818609E-02  0.8027615E-01
        2   -1    0    0  501    0  0.00000000000E+00  0.00000000000E+00  0.11709828565E+04  0.11709828565E+04  0.25500000920E-02 0.  1.
       -2   -1    0    0    0  501  0.00000000000E+00  0.00000000000E+00 -0.32266372132E+04  0.32266372132E+04  0.25500000920E-02 0. -1.
    10030    2    1    2    0    0  0.00000000000E+00  0.00000000000E+00 -0.20556543567E+04  0.43976200697E+04  0.38875888984E+04 0.  0.
        3    1    3    3  502    0  0.30363934063E+03  0.11922653761E+04  0.67447742535E+03  0.14030728362E+04  0.10100000352E+00 0.  1.
       -3    1    3    3    0  502 -0.30363934063E+03 -0.11922653761E+04 -0.27301317820E+04  0.29945472335E+04  0.10100000352E+00 0. -1.
</event>
<event>
 5   0  0.3977376E-07  0.2538353E+04  0.7818609E-02  0.8389448E-01
       -1   -1    0    0    0  501  0.00000000000E+00  0.00000000000E+00  0.13222320794E+04  0.13222320795E+04  0.50400001928E-02 0. -1.
        1   -1    0    0  501    0  0.00000000000E+00  0.00000000000E+00 -0.12182501526E+04  0.12182501526E+04  0.50400001928E-02 0.  1.
    10030    2    1    2    0    0  0.00000000000E+00  0.00000000000E+00  0.10398192682E+03  0.25404822321E+04  0.25383533502E+04 0.  0.
        4    1    3    3  502    0 -0.68392183040E+03  0.49795239514E+03  0.99888283213E+03  0.13089973962E+04  0.12699999809E+01 0. -1.
       -4    1    3    3    0  502  0.68392183040E+03 -0.49795239514E+03 -0.89490090531E+03  0.12314848359E+04  0.12699999809E+01 0.  1.
</event>
<event>
 5   0  0.4316671E-07  0.2764916E+04  0.7818609E-02  0.8314244E-01
        1   -1    0    0  501    0  0.00000000000E+00  0.00000000000E+00  0.57372884392E+03  0.57372884394E+03  0.50400001928E-02 0.  1.
       -1   -1    0    0    0  501  0.00000000000E+00  0.00000000000E+00 -0.33311733612E+04  0.33311733612E+04  0.50400001928E-02 0. -1.
    10030    2    1    2    0    0  0.00000000000E+00  0.00000000000E+00 -0.27574445173E+04  0.39049022052E+04  0.27649160866E+04 0.  0.
        2    1    3    3  502    0  0.11642098498E+03 -0.50973834898E+03 -0.31861421839E+04  0.32287596762E+04  0.25500000920E-02 0. -1.
       -2    1    3    3    0  502 -0.11642098498E+03  0.50973834898E+03  0.42869766662E+03  0.67614252901E+03  0.25500000920E-02 0.  1.
</event>
<event>
 5   0  0.3471602E-07  0.3931137E+04  0.7818609E-02  0.8018584E-01
       -1   -1    0    0    0  501  0.00000000000E+00  0.00000000000E+00  0.34374631600E+04  0.34374631600E+04  0.50400001928E-02 0. -1.
        1   -1    0    0  501    0  0.00000000000E+00  0.00000000000E+00 -0.11239277893E+04  0.11239277893E+04  0.50400001928E-02 0.  1.
    10030    2    1    2    0    0  0.00000000000E+00  0.00000000000E+00  0.23135353707E+04  0.45613909493E+04  0.39311374284E+04 0.  0.
        5    1    3    3  502    0  0.17875290673E+04 -0.72498099936E+03  0.71863123323E+03  0.20584728697E+04  0.46999998093E+01 0.  1.
       -5    1    3    3    0  502 -0.17875290673E+04  0.72498099936E+03  0.15949041375E+04  0.25029180797E+04  0.46999998093E+01 0. -1.
</event>
<event>
 5   0  0.4316671E-07  0.3583287E+04  0.7818609E-02  0.8094331E-01
       -1   -1    0    0    0  501  0.00000000000E+00  0.00000000000E+00  0.28574194483E+04  0.28574194483E+04  0.50400001928E-02 0. -1.
        1   -1    0    0  501    0  0.00000000000E+00  0.00000000000E+00 -0.11233863403E+04  0.11233863404E+04  0.50400001928E-02 0.  1.
    10030    2    1    2    0    0  0.00000000000E+00  0.00000000000E+00  0.17340331079E+04  0.39808057886E+04  0.35832867465E+04 0.  0.
        2    1    3    3  502    0 -0.10655892339E+03 -0.97110616404E+03 -0.80145546873E+03  0.12636189514E+04  0.25500000920E-02 0.  1.
       -2    1    3    3    0  502  0.10655892339E+03  0.97110616404E+03  0.25354885766E+04  0.27171868372E+04  0.25500000920E-02 0. -1.
</event>
<event>
 5   0  0.4316671E-07  0.2496669E+04  0.7818609E-02  0.8404173E-01
        1   -1    0    0  501    0  0.00000000000E+00  0.00000000000E+00  0.16945005811E+04  0.16945005811E+04  0.50400001928E-02 0.  1.
       -1   -1    0    0    0  501  0.00000000000E+00  0.00000000000E+00 -0.91964514783E+03  0.91964514784E+03  0.50400001928E-02 0. -1.
    10030    2    1    2    0    0  0.00000000000E+00  0.00000000000E+00  0.77485543325E+03  0.26141457289E+04  0.24966691710E+04 0.  0.
        2    1    3    3  502    0  0.75992600573E+03  0.18779139974E+03 -0.63074002637E+03  0.10052791278E+04  0.25500000920E-02 0. -1.
       -2    1    3    3    0  502 -0.75992600573E+03 -0.18779139974E+03  0.14055954596E+04  0.16088666011E+04  0.25500000920E-02 0.  1.
</event>
<event>
 5   0  0.4316671E-07  0.3948594E+04  0.7818609E-02  0.8014998E-01
        1   -1    0    0  501    0  0.00000000000E+00  0.00000000000E+00  0.15883363856E+04  0.15883363856E+04  0.50400001928E-02 0.  1.
       -1   -1    0    0    0  501  0.00000000000E+00  0.00000000000E+00 -0.24540452375E+04  0.24540452375E+04  0.50400001928E-02 0. -1.
    10030    2    1    2    0    0  0.00000000000E+00  0.00000000000E+00 -0.86570885194E+03  0.40423816232E+04  0.39485943538E+04 0.  0.
        2    1    3    3  502    0  0.17699553037E+04  0.45676908744E+02 -0.13271129510E+04  0.22127035368E+04  0.25500000920E-02 0. -1.
       -2    1    3    3    0  502 -0.17699553037E+04 -0.45676908744E+02  0.46140409904E+03  0.18296780864E+04  0.25500000920E-02 0.  1.
</event>
<event>
 5   0  0.4627905E-07  0.3736601E+04  0.7818609E-02  0.8059899E-01
        1   -1    0    0  501    0  0.00000000000E+00  0.00000000000E+00  0.19326743370E+04  0.19326743370E+04  0.50400001928E-02 0.  1.
       -1   -1    0    0    0  501  0.00000000000E+00  0.00000000000E+00 -0.18060709478E+04  0.18060709478E+04  0.50400001928E-02 0. -1.
    10030    2    1    2    0    0  0.00000000000E+00  0.00000000000E+00  0.12660338916E+03  0.37387452848E+04  0.37366011142E+04 0.  0.
        1    1    3    3  502    0 -0.75227640816E+03  0.34263564175E+03  0.17397415704E+04  0.19261411446E+04  0.50400001928E-02 0.  1.
       -1    1    3    3    0  502  0.75227640816E+03 -0.34263564175E+03 -0.16131381812E+04  0.18126041402E+04  0.50400001928E-02 0. -1.
</event>
<event>
 5   0  0.1034683E-06  0.3409530E+04  0.7818609E-02  0.8135571E-01
        2   -1    0    0  501    0  0.00000000000E+00  0.00000000000E+00  0.11191968565E+04  0.11191968565E+04  0.25500000920E-02 0. -1.
       -2   -1    0    0    0  501  0.00000000000E+00  0.00000000000E+00 -0.25967051577E+04  0.25967051577E+04  0.25500000920E-02 0.  1.
    10030    2    1    2    0    0  0.00000000000E+00  0.00000000000E+00 -0.14775083012E+04  0.37159020143E+04  0.34095303195E+04 0.  0.
        2    1    3    3  502    0  0.10448435607E+04 -0.10519141058E+04 -0.16557919014E+04  0.22225814210E+04  0.25500000920E-02 0.  1.
       -2    1    3    3    0  502 -0.10448435607E+04  0.10519141058E+04  0.17828360015E+03  0.14933205933E+04  0.25500000920E-02 0. -1.
</event>
<event>
 5   0  0.4627905E-07  0.3909735E+04  0.7818609E-02  0.8023007E-01
        1   -1    0    0  501    0  0.00000000000E+00  0.00000000000E+00  0.22396991078E+04  0.22396991078E+04  0.50400001928E-02 0.  1.
       -1   -1    0    0    0  501  0.00000000000E+00  0.00000000000E+00 -0.17062594858E+04  0.17062594858E+04  0.50400001928E-02 0. -1.
    10030    2    1    2    0    0  0.00000000000E+00  0.00000000000E+00  0.53343962204E+03  0.39459585936E+04  0.39097354632E+04 0.  0.
        1    1    3    3  502    0  0.15621159584E+03  0.10255072490E+04  0.19390082271E+04  0.21990498141E+04  0.50400001928E-02 0.  1.
       -1    1    3    3    0  502 -0.15621159584E+03 -0.10255072490E+04 -0.14055686050E+04  0.17469087795E+04  0.50400001928E-02 0. -1.
</event>
<event>
 5   0  0.3977376E-07  0.2780154E+04  0.7818609E-02  0.8309456E-01
       -1   -1    0    0    0  501  0.00000000000E+00  0.00000000000E+00  0.95398439636E+03  0.95398439638E+03  0.50400001928E-02 0.  1.
        1   -1    0    0  501    0  0.00000000000E+00  0.00000000000E+00 -0.20255190696E+04  0.20255190696E+04  0.50400001928E-02 0. -1.
    10030    2    1    2    0    0  0.00000000000E+00  0.00000000000E+00 -0.10715346732E+04  0.29795034660E+04  0.27801536554E+04 0.  0.
        4    1    3    3  502    0 -0.75277792153E+03 -0.86320081160E+03 -0.13799833663E+04  0.17933616324E+04  0.12699999809E+01 0. -1.
       -4    1    3    3    0  502  0.75277792153E+03  0.86320081160E+03  0.30844869307E+03  0.11861418336E+04  0.12699999809E+01 0.  1.
</event>
<event>
 5   0  0.1015219E-06  0.3912312E+04  0.7818609E-02  0.8022473E-01
        2   -1    0    0  501    0  0.00000000000E+00  0.00000000000E+00  0.26002970168E+04  0.26002970168E+04  0.25500000920E-02 0.  1.
       -2   -1    0    0    0  501  0.00000000000E+00  0.00000000000E+00 -0.14715806381E+04  0.14715806381E+04  0.25500000920E-02 0. -1.
    10030    2    1    2    0    0  0.00000000000E+00  0.00000000000E+00  0.11287163786E+04  0.40718776549E+04  0.39123122285E+04 0.  0.
        3    1    3    3  502    0  0.42913798028E+03 -0.18613163328E+04  0.10033289165E+04  0.21576206390E+04  0.10100000352E+00 0.  1.
       -3    1    3    3    0  502 -0.42913798028E+03  0.18613163328E+04  0.12538746209E+03  0.19142570159E+04  0.10100000352E+00 0. -1.
</event>
<event>
 5   0  0.1035864E-06  0.3948244E+04  0.7818609E-02  0.8015070E-01
        2   -1    0    0  501    0  0.00000000000E+00  0.00000000000E+00  0.13810545528E+04  0.13810545528E+04  0.25500000920E-02 0. -1.
       -2   -1    0    0    0  501  0.00000000000E+00  0.00000000000E+00 -0.28218709051E+04  0.28218709051E+04  0.25500000920E-02 0.  1.
    10030    2    1    2    0    0  0.00000000000E+00  0.00000000000E+00 -0.14408163523E+04  0.42029254579E+04  0.39482439950E+04 0.  0.
        5    1    3    3  502    0 -0.17131866841E+04  0.59314566437E+03  0.11120474980E+03  0.18163752311E+04  0.46999998093E+01 0. -1.
       -5    1    3    3    0  502  0.17131866841E+04 -0.59314566437E+03 -0.15520211021E+04  0.23865502268E+04  0.46999998093E+01 0.  1.
</event>
<event>
 5   0  0.3471602E-07  0.1954425E+04  0.7818609E-02  0.8628230E-01
       -1   -1    0    0    0  501  0.00000000000E+00  0.00000000000E+00  0.42701815071E+03  0.42701815074E+03  0.50400001928E-02 0.  1.
        1   -1    0    0  501    0  0.00000000000E+00  0.00000000000E+00 -0.22363079187E+04  0.22363079187E+04  0.50400001928E-02 0. -1.
    10030    2    1    2    0    0  0.00000000000E+00  0.00000000000E+00 -0.18092897680E+04  0.26633260694E+04  0.19544247971E+04 0.  0.
        5    1    3    3  502    0  0.32635425448E+03 -0.67669867737E+03 -0.53090404929E+02  0.75317254362E+03  0.46999998093E+01 0.  1.
       -5    1    3    3    0  502 -0.32635425448E+03  0.67669867737E+03 -0.17561993631E+04  0.19101535258E+04  0.46999998093E+01 0. -1.
</event>
<event>
 5   0  0.4316671E-07  0.2161224E+04  0.7818609E-02  0.8534743E-01
       -1   -1    0    0    0  501  0.00000000000E+00  0.00000000000E+00  0.64501925484E+03  0.64501925486E+03  0.50400001928E-02 0.  1.
        1   -1    0    0  501    0  0.00000000000E+00  0.00000000000E+00 -0.18103678097E+04  0.18103678097E+04  0.50400001928E-02 0. -1.
    10030    2    1    2    0    0  0.00000000000E+00  0.00000000000E+00 -0.11653485549E+04  0.24553870646E+04  0.21612238159E+04 0.  0.
        2    1    3    3  502    0 -0.97094408504E+03  0.45791663424E+03 -0.44213593701E+03  0.11609927851E+04  0.25500000920E-02 0. -1.
       -2    1    3    3    0  502  0.97094408504E+03 -0.45791663424E+03 -0.72321261784E+03  0.12943942795E+04  0.25500000920E-02 0.  1.
</event>
<event>
 5   0  0.4316671E-07  0.2590700E+04  0.7818609E-02  0.8371367E-01
       -1   -1    0    0    0  501  0.00000000000E+00  0.00000000000E+00  0.79325474942E+03  0.79325474943E+03  0.50400001928E-02 0.  1.
        1   -1    0    0  501    0  0.00000000000E+00  0.00000000000E+00 -0.21152497945E+04  0.21152497945E+04  0.50400001928E-02 0. -1.
    10030    2    1    2    0    0  0.00000000000E+00  0.00000000000E+00 -0.13219950451E+04  0.29085045440E+04  0.25907002495E+04 0.  0.
        2    1    3    3  502    0  0.78548049523E+03  0.67183500681E+03  0.21554203131E+03  0.10558410165E+04  0.25500000920E-02 0.  1.
       -2    1    3    3    0  502 -0.78548049523E+03 -0.67183500681E+03 -0.15375370764E+04  0.18526635275E+04  0.25500000920E-02 0. -1.
</event>
<event>
 5   0  0.7268013E-07  0.3732406E+04  0.7818609E-02  0.8060818E-01
       -2   -1    0    0    0  501  0.00000000000E+00  0.00000000000E+00  0.24539699881E+04  0.24539699881E+04  0.25500000920E-02 0. -1.
        2   -1    0    0  501    0  0.00000000000E+00  0.00000000000E+00 -0.14192163949E+04  0.14192163949E+04  0.25500000920E-02 0.  1.
    10030    2    1    2    0    0  0.00000000000E+00  0.00000000000E+00  0.10347535932E+04  0.38731863830E+04  0.37324064300E+04 0.  0.
        4    1    3    3  502    0  0.13812328183E+04  0.99473622984E+03 -0.27660217835E+03  0.17244751791E+04  0.12699999809E+01 0.  1.
       -4    1    3    3    0  502 -0.13812328183E+04 -0.99473622984E+03  0.13113557716E+04  0.21487112039E+04  0.12699999809E+01 0. -1.
</event>
<event>
 5   0  0.5385714E-07  0.3866159E+04  0.7818609E-02  0.8032104E-01
       -1   -1    0    0    0  501  0.00000000000E+00  0.00000000000E+00  0.24967515822E+04  0.24967515822E+04  0.50400001928E-02 0. -1.
        1   -1    0    0  501    0  0.00000000000E+00  0.00000000000E+00 -0.14966636243E+04  0.14966636243E+04  0.50400001928E-02 0.  1.
    10030    2    1    2    0    0  0.00000000000E+00  0.00000000000E+00  0.10000879579E+04  0.39934152066E+04  0.38661594753E+04 0.  0.
        3    1    3    3  502    0  0.67429519462E+03 -0.32040861779E+03  0.23418398418E+04  0.24579563761E+04  0.10100000352E+00 0. -1.
       -3    1    3    3    0  502 -0.67429519462E+03  0.32040861779E+03 -0.13417518839E+04  0.15354588305E+04  0.10100000352E+00 0.  1.
</event>
<event>
 5   0  0.1034683E-06  0.3121875E+04  0.7818609E-02  0.8209760E-01
        2   -1    0    0  501    0  0.00000000000E+00  0.00000000000E+00  0.12533705797E+04  0.12533705797E+04  0.25500000920E-02 0. -1.
       -2   -1    0    0    0  501  0.00000000000E+00  0.00000000000E+00 -0.19439794253E+04  0.19439794253E+04  0.25500000920E-02 0.  1.
    10030    2    1    2    0    0  0.00000000000E+00  0.00000000000E+00 -0.69060884560E+03  0.31973500049E+04  0.31218754742E+04 0.  0.
        2    1    3    3  502    0 -0.12338159864E+03  0.90014282853E+03  0.95465153963E+03  0.13178921400E+04  0.25500000920E-02 0. -1.
       -2    1    3    3    0  502  0.12338159864E+03 -0.90014282853E+03 -0.16452603852E+04  0.18794578649E+04  0.25500000920E-02 0.  1.
</event>
<event>
 5   0  0.1015219E-06  0.3974888E+04  0.7818609E-02  0.8009632E-01
       -2   -1    0    0    0  501  0.00000000000E+00  0.00000000000E+00  0.20356320120E+04  0.20356320120E+04  0.25500000920E-02 0. -1.
        2   -1    0    0  501    0  0.00000000000E+00  0.00000000000E+00 -0.19403970467E+04  0.19403970467E+04  0.25500000920E-02 0.  1.
    10030    2    1    2    0    0  0.00000000000E+00  0.00000000000E+00  0.95234965263E+02  0.39760290587E+04  0.39748883478E+04 0.  0.
        3    1    3    3  502    0  0.10210844072E+04 -0.71459781887E+03  0.15961802719E+04  0.20251061404E+04  0.10100000352E+00 0. -1.
       -3    1    3    3    0  502 -0.10210844072E+04  0.71459781887E+03 -0.15009453066E+04  0.19509229183E+04  0.10100000352E+00 0.  1.
</event>
<event>
 5   0  0.5533705E-07  0.3524792E+04  0.7818609E-02  0.8107939E-01
        2   -1    0    0  501    0  0.00000000000E+00  0.00000000000E+00  0.18991882926E+04  0.18991882926E+04  0.25500000920E-02 0. -1.
       -2   -1    0    0    0  501  0.00000000000E+00  0.00000000000E+00 -0.16354567074E+04  0.16354567074E+04  0.25500000920E-02 0.  1.
    10030    2    1    2    0    0  0.00000000000E+00  0.00000000000E+00  0.26373158520E+03  0.35346450001E+04  0.35247923240E+04 0.  0.
        1    1    3    3  502    0  0.11191259655E+04  0.13596432725E+04  0.20254313185E+03  0.17725959707E+04  0.50400001928E-02 0.  1.
       -1    1    3    3    0  502 -0.11191259655E+04 -0.13596432725E+04  0.61188453354E+02  0.17620490294E+04  0.50400001928E-02 0. -1.
</event>
<event>
 5   0  0.1035864E-06  0.3704351E+04  0.7818609E-02  0.8066998E-01
        2   -1    0    0  501    0  0.00000000000E+00  0.00000000000E+00  0.15628886624E+04  0.15628886624E+04  0.25500000920E-02 0.  1.
       -2   -1    0    0    0  501  0.00000000000E+00  0.00000000000E+00 -0.21950087807E+04  0.21950087807E+04  0.25500000920E-02 0. -1.
    10030    2    1    2    0    0  0.00000000000E+00  0.00000000000E+00 -0.63212011834E+03  0.37578974431E+04  0.37043511374E+04 0.  0.
        5    1    3    3  502    0  0.29844284887E+03 -0.13327359095E+04 -0.15852559901E+04  0.20924415840E+04  0.46999998093E+01 0. -1.
       -5    1    3    3    0  502 -0.29844284887E+03  0.13327359095E+04  0.95313587178E+03  0.16654558591E+04  0.46999998093E+01 0.  1.
</event>
<event>
 5   0  0.5533705E-07  0.1935667E+04  0.7818609E-02  0.8637303E-01
       -2   -1    0    0    0  501  0.00000000000E+00  0.00000000000E+00  0.36409847860E+03  0.36409847861E+03  0.25500000920E-02 0.  1.
        2   -1    0    0  501    0  0.00000000000E+00  0.00000000000E+00 -0.25726608285E+04  0.25726608285E+04  0.25500000920E-02 0. -1.
    10030    2    1    2    0    0  0.00000000000E+00  0.00000000000E+00 -0.22085623499E+04  0.29367593071E+04  0.19356672169E+04 0.  0.
        1    1    3    3  502    0  0.95588993139E+03  0.24262936659E+02 -0.13312895298E+04  0.16390991621E+04  0.50400001928E-02 0. -1.
       -1    1    3    3    0  502 -0.95588993139E+03 -0.24262936659E+02 -0.87727282011E+03  0.12976601450E+04  0.50400001928E-02 0.  1.
</event>
<event>
 5   0  0.3471602E-07  0.3842324E+04  0.7818609E-02  0.8037133E-01
        1   -1    0    0  501    0  0.00000000000E+00  0.00000000000E+00  0.26185394835E+04  0.26185394835E+04  0.50400001928E-02 0. -1.
       -1   -1    0    0    0  501  0.00000000000E+00  0.00000000000E+00 -0.14095118667E+04  0.14095118667E+04  0.50400001928E-02 0.  1.
    10030    2    1    2    0    0  0.00000000000E+00  0.00000000000E+00  0.12090276168E+04  0.40280513502E+04  0.38423235030E+04 0.  0.
        5    1    3    3  502    0  0.99502457389E+02 -0.11267190745E+04  0.22324584820E+04  0.25026565037E+04  0.46999998093E+01 0. -1.
       -5    1    3    3    0  502 -0.99502457389E+02  0.11267190745E+04 -0.10234308652E+04  0.15253948465E+04  0.46999998093E+01 0.  1.
</event>
<event>
 5   0  0.5385714E-07  0.3037574E+04  0.7818609E-02  0.8233082E-01
        1   -1    0    0  501    0  0.00000000000E+00  0.00000000000E+00  0.11576008255E+04  0.11576008255E+04  0.50400001928E-02 0.  1.
       -1   -1    0    0    0  501  0.00000000000E+00  0.00000000000E+00 -0.19926682920E+04  0.19926682920E+04  0.50400001928E-02 0. -1.
    10030    2    1    2    0    0  0.00000000000E+00  0.00000000000E+00 -0.83506746648E+03  0.31502691175E+04  0.30375743347E+04 0.  0.
        3    1    3    3  502    0  0.43099571465E+03 -0.11637569965E+04  0.49052248936E+03  0.13344287076E+04  0.10100000352E+00 0.  1.
       -3    1    3    3    0  502 -0.43099571465E+03  0.11637569965E+04 -0.13255899558E+04  0.18158404099E+04  0.10100000352E+00 0. -1.
</event>
<event>
 5   0  0.3977376E-07  0.2349384E+04  0.7818609E-02  0.8458700E-01
       -1   -1    0    0    0  501  0.00000000000E+00  0.00000000000E+00  0.61165599576E+03  0.61165599578E+03  0.50400001928E-02 0.  1.
        1   -1    0    0  501    0  0.00000000000E+00  0.00000000000E+00 -0.22560081840E+04  0.22560081840E+04  0.50400001928E-02 0. -1.
    10030    2    1    2    0    0  0.00000000000E+00  0.00000000000E+00 -0.16443521882E+04  0.28676641798E+04  0.23493836913E+04 0.  0.
        4    1    3    3  502    0 -0.62581956174E+03 -0.47724437425E+02  0.38983484294E+03  0.73885083979E+03  0.12699999809E+01 0.  1.
       -4    1    3    3    0  502  0.62581956174E+03  0.47724437425E+02 -0.20341870312E+04  0.21288133400E+04  0.12699999809E+01 0. -1.
</event>
<event>
 5   0  0.7268013E-07  0.3196896E+04  0.7818609E-02  0.8189638E-01
        2   -1    0    0  501    0  0.00000000000E+00  0.00000000000E+00  0.17403876142E+04  0.17403876142E+04  0.25500000920E-02 0. -1.
       -2   -1    0    0    0  501  0.00000000000E+00  0.00000000000E+00 -0.14680841087E+04  0.14680841087E+04  0.25500000920E-02 0.  1.
    10030    2    1    2    0    0  0.00000000000E+00  0.00000000000E+00  0.27230350546E+03  0.32084717230E+04  0.31968956189E+04 0.  0.
        4    1    3    3  502    0  0.10034287557E+04 -0.12419476624E+04  0.60177422537E+02  0.15977879080E+04  0.12699999809E+01 0. -1.
       -4    1    3    3    0  502 -0.10034287557E+04  0.12419476624E+04  0.21212608292E+03  0.16106838150E+04  0.12699999809E+01 0.  1.
</event>
<event>
 5   0  0.3977376E-07  0.2127144E+04  0.7818609E-02  0.8549380E-01
       -1   -1    0    0    0  501  0.00000000000E+00  0.00000000000E+00  0.53160901344E+03  0.53160901347E+03  0.50400001928E-02 0. -1.
        1   -1    0    0  501    0  0.00000000000E+00  0.00000000000E+00 -0.21278516210E+04  0.21278516210E+04  0.50400001928E-02 0.  1.
    10030    2    1    2    0    0  0.00000000000E+00  0.00000000000E+00 -0.15962426076E+04  0.26594606345E+04  0.21271437197E+04 0.  0.
        4    1    3    3  502    0  0.40906562840E+02  0.49788078696E+03  0.37579908928E+03  0.62512814152E+03  0.12699999809E+01 0. -1.
       -4    1    3    3    0  502 -0.40906562840E+02 -0.49788078696E+03 -0.19720416968E+04  0.20343324930E+04  0.12699999809E+01 0.  1.
</event>
<event>
 5   0  0.1015219E-06  0.2248731E+04  0.7818609E-02  0.8498415E-01
       -2   -1    0    0    0  501  0.00000000000E+00  0.00000000000E+00  0.97563895845E+03  0.97563895845E+03  0.25500000920E-02 0. -1.
        2   -1    0    0  501    0  0.00000000000E+00  0.00000000000E+00 -0.12957640756E+04  0.12957640756E+04  0.25500000920E-02 0.  1.
    10030    2    1    2    0    0  0.00000000000E+00  0.00000000000E+00 -0.32012511717E+03  0.22714030341E+04  0.22487311205E+04 0.  0.
        3    1    3    3  502    0  0.10935491875E+04  0.23205132187E+03 -0.28169364569E+03  0.11528438583E+04  0.10100000352E+00 0.  1.
       -3    1    3    3    0  502 -0.10935491875E+04 -0.23205132187E+03 -0.38431471476E+02  0.11185591757E+04  0.10100000352E+00 0. -1.
</event>
<event>
 5   0  0.3471602E-07  0.3876913E+04  0.7818609E-02  0.8029848E-01
       -1   -1    0    0    0  501  0.00000000000E+00  0.00000000000E+00  0.16849154399E+04  0.16849154399E+04  0.50400001928E-02 0. -1.
        1   -1    0    0  501    0  0.00000000000E+00  0.00000000000E+00 -0.22301502050E+04  0.22301502050E+04  0.50400001928E-02 0.  1.
    10030    2    1    2    0    0  0.00000000000E+00  0.00000000000E+00 -0.54523476507E+03  0.39150656449E+04  0.38769134701E+04 0.  0.
        5    1    3    3  502    0 -0.15494369051E+03 -0.17315548294E+04  0.59331909626E+03  0.18369374824E+04  0.46999998093E+01 0. -1.
       -5    1    3    3    0  502  0.15494369051E+03  0.17315548294E+04 -0.11385538613E+04  0.20781281624E+04  0.46999998093E+01 0.  1.
</event>
<event>
 5   0  0.1034683E-06  0.3754154E+04  0.7818609E-02  0.8056065E-01
        2   -1    0    0  501    0  0.00000000000E+00  0.00000000000E+00  0.24070320476E+04  0.24070320476E+04  0.25500000920E-02 0. -1.
       -2   -1    0    0    0  501  0.00000000000E+00  0.00000000000E+00 -0.14638022287E+04  0.14638022287E+04  0.25500000920E-02 0.  1.
    10030    2    1    2    0    0  0.00000000000E+00  0.00000000000E+00  0.94322981886E+03  0.38708342763E+04  0.37541544325E+04 0.  0.
        2    1    3    3  502    0  0.16800514662E+04 -0.37180438589E+03  0.12449989072E+04  0.21238723382E+04  0.25500000920E-02 0. -1.
       -2    1    3    3    0  502 -0.16800514662E+04  0.37180438589E+03 -0.30176908829E+03  0.17469619380E+04  0.25500000920E-02 0.  1.
</event>
<event>
 5   0  0.7268013E-07  0.3205905E+04  0.7818609E-02  0.8187260E-01
        2   -1    0    0  501    0  0.00000000000E+00  0.00000000000E+00  0.19198989460E+04  0.19198989460E+04  0.25500000920E-02 0.  1.
       -2   -1    0    0    0  501  0.00000000000E+00  0.00000000000E+00 -0.13383287310E+04  0.13383287310E+04  0.25500000920E-02 0. -1.
    10030    2    1    2    0    0  0.00000000000E+00  0.00000000000E+00  0.58157021499E+03  0.32582276771E+04  0.32059045027E+04 0.  0.
        4    1    3    3  502    0 -0.44513548231E+03  0.86929875089E+03  0.15826038617E+04  0.18596941985E+04  0.12699999809E+01 0.  1.
       -4    1    3    3    0  502  0.44513548231E+03 -0.86929875089E+03 -0.10010336467E+04  0.13985334786E+04  0.12699999809E+01 0. -1.
</event>
<event>
 5   0  0.1034683E-06  0.4020390E+04  0.7818609E-02  0.8000446E-01
        2   -1    0    0  501    0  0.00000000000E+00  0.00000000000E+00  0.13949430288E+04  0.13949430288E+04  0.25500000920E-02 0.  1.
       -2   -1    0    0    0  501  0.00000000000E+00  0.00000000000E+00 -0.28968086917E+04  0.28968086917E+04  0.25500000920E-02 0. -1.
    10030    2    1    2    0    0  0.00000000000E+00  0.00000000000E+00 -0.15018656628E+04  0.42917517205E+04  0.40203895783E+04 0.  0.
        2    1    3    3  502    0 -0.80017687453E+03 -0.15975651728E+04  0.23231521012E+03  0.18017957345E+04  0.25500000920E-02 0. -1.
       -2    1    3    3    0  502  0.80017687453E+03  0.15975651728E+04 -0.17341808730E+04  0.24899559860E+04  0.25500000920E-02 0.  1.
</event>
<event>
 5   0  0.3977376E-07  0.1934297E+04  0.7818609E-02  0.8637970E-01
        1   -1    0    0  501    0  0.00000000000E+00  0.00000000000E+00  0.19295638526E+04  0.19295638526E+04  0.50400001928E-02 0. -1.
       -1   -1    0    0    0  501  0.00000000000E+00  0.00000000000E+00 -0.48476058215E+03  0.48476058218E+03  0.50400001928E-02 0.  1.
    10030    2    1    2    0    0  0.00000000000E+00  0.00000000000E+00  0.14448032705E+04  0.24143244348E+04  0.19342972849E+04 0.  0.
        4    1    3    3  502    0 -0.29068319792E+03 -0.48647816750E+03  0.17006145190E+04  0.17925537884E+04  0.12699999809E+01 0. -1.
       -4    1    3    3    0  502  0.29068319792E+03  0.48647816750E+03 -0.25581124854E+03  0.62177064645E+03  0.12699999809E+01 0.  1.
</event>
<event>
 5   0  0.1349864E-06  0.2073900E+04  0.7818609E-02  0.8572828E-01
       -2   -1    0    0    0  501  0.00000000000E+00  0.00000000000E+00  0.79541294402E+03  0.79541294402E+03  0.25500000920E-02 0. -1.
        2   -1    0    0  501    0  0.00000000000E+00  0.00000000000E+00 -0.13518330398E+04  0.13518330398E+04  0.25500000920E-02 0.  1.
    10030    2    1    2    0    0  0.00000000000E+00  0.00000000000E+00 -0.55642009578E+03  0.21472459838E+04  0.20739001885E+04 0.  0.
        3    1    3    3  502    0 -0.22499904611E+03  0.14447493220E+03  0.75910481817E+03  0.80482154043E+03  0.10100000352E+00 0. -1.
       -3    1    3    3    0  502  0.22499904611E+03 -0.14447493220E+03 -0.13155249139E+04  0.13424244434E+04  0.10100000352E+00 0.  1.
</event>
<event>
 5   0  0.1035864E-06  0.2318187E+04  0.7818609E-02  0.8470785E-01
       -2   -1    0    0    0  501  0.00000000000E+00  0.00000000000E+00  0.10899570614E+04  0.10899570614E+04  0.25500000920E-02 0. -1.
        2   -1    0    0  501    0  0.00000000000E+00  0.00000000000E+00 -0.12326152368E+04  0.12326152368E+04  0.25500000920E-02 0.  1.
    10030    2    1    2    0    0  0.00000000000E+00  0.00000000000E+00 -0.14265817535E+03  0.23225722982E+04  0.23181869479E+04 0.  0.
        5    1    3    3  502    0  0.91431851668E+03  0.52366464053E+03 -0.55522576174E+03  0.11910082880E+04  0.46999998093E+01 0.  1.
       -5    1    3    3    0  502 -0.91431851668E+03 -0.52366464053E+03  0.41256758639E+03  0.11315640101E+04  0.46999998093E+01 0. -1.
</event>
<event>
 5   0  0.3977376E-07  0.3752623E+04  0.7818609E-02  0.8056399E-01
        1   -1    0    0  501    0  0.00000000000E+00  0.00000000000E+00  0.22399784425E+04  0.22399784425E+04  0.50400001928E-02 0.  1.
       -1   -1    0    0    0  501  0.00000000000E+00  0.00000000000E+00 -0.15716870413E+04  0.15716870413E+04  0.50400001928E-02 0. -1.
    10030    2    1    2    0    0  0.00000000000E+00  0.00000000000E+00  0.66829140124E+03  0.38116654838E+04  0.37526231310E+04 0.  0.
        4    1    3    3  502    0  0.34654147857E+03 -0.15279209003E+04  0.13828188253E+04  0.20896944252E+04  0.12699999809E+01 0.  1.
       -4    1    3    3    0  502 -0.34654147857E+03  0.15279209003E+04 -0.71452742410E+03  0.17219710586E+04  0.12699999809E+01 0. -1.
</event>
<event>
 5   0  0.3471602E-07  0.3909996E+04  0.7818609E-02  0.8022953E-01
        1   -1    0    0  501    0  0.00000000000E+00  0.00000000000E+00  0.16295147961E+04  0.16295147961E+04  0.50400001928E-02 0.  1.
       -1   -1    0    0    0  501  0.00000000000E+00  0.00000000000E+00 -0.23454944962E+04  0.23454944962E+04  0.50400001928E-02 0. -1.
    10030    2    1    2    0    0  0.00000000000E+00  0.00000000000E+00 -0.71597970015E+03  0.39750092923E+04  0.39099964122E+04 0.  0.
        5    1    3    3  502    0 -0.12743126327E+04  0.55085670624E+03  0.10413710535E+04  0.17354513989E+04  0.46999998093E+01 0.  1.
       -5    1    3    3    0  502  0.12743126327E+04 -0.55085670624E+03 -0.17573507536E+04  0.22395578935E+04  0.46999998093E+01 0. -1.
</event>
<event>
 5   0  0.4813618E-07  0.2132076E+04  0.7818609E-02  0.8547244E-01
        1   -1    0    0  501    0  0.00000000000E+00  0.00000000000E+00  0.11573433231E+04  0.11573433231E+04  0.50400001928E-02 0.  1.
       -1   -1    0    0    0  501  0.00000000000E+00  0.00000000000E+00 -0.98193556277E+03  0.98193556278E+03  0.50400001928E-02 0. -1.
    10030    2    1    2    0    0  0.00000000000E+00  0.00000000000E+00  0.17540776036E+03  0.21392788859E+04  0.21320755778E+04 0.  0.
        2    1    3    3  502    0  0.87832247808E+03  0.41697982849E+03  0.52634675272E+03  0.11056054708E+04  0.25500000920E-02 0.  1.
       -2    1    3    3    0  502 -0.87832247808E+03 -0.41697982849E+03 -0.35093899236E+03  0.10336734152E+04  0.25500000920E-02 0. -1.
</event>
<event>
 5   0  0.5533705E-07  0.2073023E+04  0.7818609E-02  0.8573221E-01
       -2   -1    0    0    0  501  0.00000000000E+00  0.00000000000E+00  0.46335589120E+03  0.46335589121E+03  0.25500000920E-02 0.  1.
        2   -1    0    0  501    0  0.00000000000E+00  0.00000000000E+00 -0.23186409196E+04  0.23186409196E+04  0.25500000920E-02 0. -1.
    10030    2    1    2    0    0  0.00000000000E+00  0.00000000000E+00 -0.18552850284E+04  0.27819968109E+04  0.20730228457E+04 0.  0.
        1    1    3    3  502    0  0.42144844311E+03  0.47854959292E+03  0.16896734732E+03  0.65968057996E+03  0.50400001928E-02 0.  1.
       -1    1    3    3    0  502 -0.42144844311E+03 -0.47854959292E+03 -0.20242523758E+04  0.21223162309E+04  0.50400001928E-02 0. -1.
</event>
<event>
 5   0  0.3977376E-07  0.3716624E+04  0.7818609E-02  0.8064288E-01
        1   -1    0    0  501    0  0.00000000000E+00  0.00000000000E+00  0.20908440284E+04  0.20908440284E+04  0.50400001928E-02 0. -1.
       -1   -1    0    0    0  501  0.00000000000E+00  0.00000000000E+00 -0.16516404464E+04  0.16516404464E+04  0.50400001928E-02 0.  1.
    10030    2    1    2    0    0  0.00000000000E+00  0.00000000000E+00  0.43920358205E+03  0.37424844748E+04  0.37166235023E+04 0.  0.
        4    1    3    3  502    0 -0.13238336699E+04  0.12646175426E+04  0.54045324041E+03  0.19088961293E+04  0.12699999809E+01 0. -1.
       -4    1    3    3    0  502  0.13238336699E+04 -0.12646175426E+04 -0.10124965836E+03  0.18335883455E+04  0.12699999809E+01 0.  1.
</event>
<event>
 5   0  0.5533705E-07  0.3967973E+04  0.7818609E-02  0.8011039E-01
        2   -1    0    0  501    0  0.00000000000E+00  0.00000000000E+00  0.21734452716E+04  0.21734452716E+04  0.25500000920E-02 0. -1.
       -2   -1    0    0    0  501  0.00000000000E+00  0.00000000000E+00 -0.18110425623E+04  0.18110425623E+04  0.25500000920E-02 0.  1.
    10030    2    1    2    0    0  0.00000000000E+00  0.00000000000E+00  0.36240270932E+03  0.39844878339E+04  0.39679727286E+04 0.  0.
        1    1    3    3  502    0 -0.13311775111E+04 -0.11184290923E+03  0.16541601508E+04  0.21262145251E+04  0.50400001928E-02 0. -1.
       -1    1    3    3    0  502  0.13311775111E+04  0.11184290923E+03 -0.12917574415E+04  0.18582733088E+04  0.50400001928E-02 0.  1.
</event>
<event>
 5   0  0.5533705E-07  0.3895050E+04  0.7818609E-02  0.8026060E-01
        2   -1    0    0  501    0  0.00000000000E+00  0.00000000000E+00  0.20749332063E+04  0.20749332063E+04  0.25500000920E-02 0. -1.
       -2   -1    0    0    0  501  0.00000000000E+00  0.00000000000E+00 -0.18279399143E+04  0.18279399143E+04  0.25500000920E-02 0.  1.
    10030    2    1    2    0    0  0.00000000000E+00  0.00000000000E+00  0.24699329196E+03  0.39028731206E+04  0.38950497955E+04 0.  0.
        1    1    3    3  502    0  0.14727410020E+04 -0.29741178168E+03 -0.11181182393E+04  0.18728609730E+04  0.50400001928E-02 0.  1.
       -1    1    3    3    0  502 -0.14727410020E+04  0.29741178168E+03  0.13651115313E+04  0.20300121477E+04  0.50400001928E-02 0. -1.
</event>
<event>
 5   0  0.7268013E-07  0.2078985E+04  0.7818609E-02  0.8570558E-01
        2   -1    0    0  501    0  0.00000000000E+00  0.00000000000E+00  0.78937378359E+03  0.78937378359E+03  0.25500000920E-02 0. -1.
       -2   -1    0    0    0  501  0.00000000000E+00  0.00000000000E+00 -0.13688626189E+04  0.13688626189E+04  0.25500000920E-02 0.  1.
    10030    2    1    2    0    0  0.00000000000E+00  0.00000000000E+00 -0.57948883534E+03  0.21582364025E+04  0.20789846221E+04 0.  0.
        4    1    3    3  502    0  0.11072499218E+03 -0.45862859141E+02  0.78217674363E+03  0.79130619669E+03  0.12699999809E+01 0. -1.
       -4    1    3    3    0  502 -0.11072499218E+03  0.45862859141E+02 -0.13616655790E+04  0.13669302058E+04  0.12699999809E+01 0.  1.
</event>
<event>
 5   0  0.1015219E-06  0.1996840E+04  0.7818609E-02  0.8608099E-01
        2   -1    0    0  501    0  0.00000000000E+00  0.00000000000E+00  0.25006644367E+04  0.25006644367E+04  0.25500000920E-02 0. -1.
       -2   -1    0    0    0  501  0.00000000000E+00  0.00000000000E+00 -0.39863117310E+03  0.39863117311E+03  0.25500000920E-02 0.  1.
    10030    2    1    2    0    0  0.00000000000E+00  0.00000000000E+00  0.21020332636E+04  0.28992956098E+04  0.19968403020E+04 0.  0.
        3    1    3    3  502    0  0.91414421132E+03 -0.14523234326E+03  0.50757383004E+03  0.10556435363E+04  0.10100000352E+00 0.  1.
       -3    1    3    3    0  502 -0.91414421132E+03  0.14523234326E+03  0.15944594335E+04  0.18436520735E+04  0.10100000352E+00 0. -1.
</event>
<event>
 5   0  0.3471602E-07  0.3588239E+04  0.7818609E-02  0.8093191E-01
       -1   -1    0    0    0  501  0.00000000000E+00  0.00000000000E+00  0.13296561636E+04  0.13296561636E+04  0.50400001928E-02 0.  1.
        1   -1    0    0  501    0  0.00000000000E+00  0.00000000000E+00 -0.24208250843E+04  0.24208250843E+04  0.50400001928E-02 0. -1.
    10030    2    1    2    0    0  0.00000000000E+00  0.00000000000E+00 -0.10911689208E+04  0.37504812479E+04  0.35882391193E+04 0.  0.
        5    1    3    3  502    0 -0.35363870255E+03  0.13972885308E+04 -0.16622377282E+04  0.22001208888E+04  0.46999998093E+01 0. -1.
       -5    1    3    3    0  502  0.35363870255E+03 -0.13972885308E+04  0.57106880747E+03  0.15503603591E+04  0.46999998093E+01 0.  1.
</event>
<event>
 5   0  0.5533705E-07  0.3814962E+04  0.7818609E-02  0.8042952E-01
       -2   -1    0    0    0  501  0.00000000000E+00  0.00000000000E+00  0.17929154134E+04  0.17929154134E+04  0.25500000920E-02 0. -1.
        2   -1    0    0  501    0  0.00000000000E+00  0.00000000000E+00 -0.20293671364E+04  0.20293671364E+04  0.25500000920E-02 0.  1.
    10030    2    1    2    0    0  0.00000000000E+00  0.00000000000E+00 -0.23645172298E+03  0.38222825497E+04  0.38149619228E+04 0.  0.
        1    1    3    3  502    0 -0.14699785973E+04  0.11976535517E+04 -0.32664549691E+03  0.19240344038E+04  0.50400001928E-02 0.  1.
       -1    1    3    3    0  502  0.14699785973E+04 -0.11976535517E+04  0.90193773926E+02  0.18982481459E+04  0.50400001928E-02 0. -1.
</event>
<event>
 5   0  0.4316671E-07  0.2069289E+04  0.7818609E-02  0.8574894E-01
       -1   -1    0    0    0  501  0.00000000000E+00  0.00000000000E+00  0.57095382647E+03  0.57095382649E+03  0.50400001928E-02 0.  1.
        1   -1    0    0  501    0  0.00000000000E+00  0.00000000000E+00 -0.18749129627E+04  0.18749129627E+04  0.50400001928E-02 0. -1.
    10030    2    1    2    0    0  0.00000000000E+00  0.00000000000E+00 -0.13039591362E+04  0.24458667892E+04  0.20692885061E+04 0.  0.
        2    1    3    3  502    0  0.18330539404E+03 -0.86375098667E+03 -0.14559907685E+02  0.88310736911E+03  0.25500000920E-02 0.  1.
       -2    1    3    3    0  502 -0.18330539404E+03  0.86375098667E+03 -0.12893992285E+04  0.15627594200E+04  0.25500000920E-02 0. -1.
</event>
<event>
 5   0  0.4627905E-07  0.3814554E+04  0.7818609E-02  0.8043039E-01
       -1   -1    0    0    0  501  0.00000000000E+00  0.00000000000E+00  0.27137188881E+04  0.27137188881E+04  0.50400001928E-02 0.  1.
        1   -1    0    0  501    0  0.00000000000E+00  0.00000000000E+00 -0.13404870026E+04  0.13404870026E+04  0.50400001928E-02 0. -1.
    10030    2    1    2    0    0  0.00000000000E+00  0.00000000000E+00  0.13732318855E+04  0.40542058907E+04  0.38145536558E+04 0.  0.
        1    1    3    3  502    0  0.14421281007E+04  0.26819709216E+03  0.19822357508E+04  0.24659524957E+04  0.50400001928E-02 0.  1.
       -1    1    3    3    0  502 -0.14421281007E+04 -0.26819709216E+03 -0.60900386531E+03  0.15882533951E+04  0.50400001928E-02 0. -1.
</event>
<event>
 5   0  0.4627905E-07  0.3911820E+04  0.7818609E-02  0.8022575E-01
        1   -1    0    0  501    0  0.00000000000E+00  0.00000000000E+00  0.20102503040E+04  0.20102503040E+04  0.50400001928E-02 0.  1.
       -1   -1    0    0    0  501  0.00000000000E+00  0.00000000000E+00 -0.19030384434E+04  0.19030384434E+04  0.50400001928E-02 0. -1.
    10030    2    1    2    0    0  0.00000000000E+00  0.00000000000E+00  0.10721186065E+03  0.39132887474E+04  0.39118198371E+04 0.  0.
        1    1    3    3  502    0  0.56534013809E+03 -0.91968270883E+02 -0.18172610189E+04  0.19053884763E+04  0.50400001928E-02 0. -1.
       -1    1    3    3    0  502 -0.56534013809E+03  0.91968270883E+02  0.19244728796E+04  0.20079002711E+04  0.50400001928E-02 0.  1.
</event>
<event>
 5   0  0.6766820E-07  0.2042586E+04  0.7818609E-02  0.8586965E-01
        1   -1    0    0  501    0  0.00000000000E+00  0.00000000000E+00  0.14371350950E+04  0.14371350950E+04  0.50400001928E-02 0.  1.
       -1   -1    0    0    0  501  0.00000000000E+00  0.00000000000E+00 -0.72577714108E+03  0.72577714110E+03  0.50400001928E-02 0. -1.
    10030    2    1    2    0    0  0.00000000000E+00  0.00000000000E+00  0.71135795390E+03  0.21629122361E+04  0.20425864002E+04 0.  0.
        3    1    3    3  502    0 -0.35716920210E+03 -0.97878175356E+02 -0.65217160242E+03  0.74998519009E+03  0.10100000352E+00 0. -1.
       -3    1    3    3    0  502  0.35716920210E+03  0.97878175356E+02  0.13635295563E+04  0.14129270460E+04  0.10100000352E+00 0.  1.
</event>
<event>
 5   0  0.1034683E-06  0.3014083E+04  0.7818609E-02  0.8239721E-01
        2   -1    0    0  501    0  0.00000000000E+00  0.00000000000E+00  0.27368895310E+04  0.27368895310E+04  0.25500000920E-02 0. -1.
       -2   -1    0    0    0  501  0.00000000000E+00  0.00000000000E+00 -0.82983779223E+03  0.82983779223E+03  0.25500000920E-02 0.  1.
    10030    2    1    2    0    0  0.00000000000E+00  0.00000000000E+00  0.19070517388E+04  0.35667273232E+04  0.30140831880E+04 0.  0.
        2    1    3    3  502    0 -0.82779547454E+03 -0.11052573437E+04  0.23925119194E+03  0.14014564839E+04  0.25500000920E-02 0.  1.
       -2    1    3    3    0  502  0.82779547454E+03  0.11052573437E+04  0.16678005468E+04  0.21652708393E+04  0.25500000920E-02 0. -1.
</event>
<event>
 5   0  0.3471602E-07  0.3656789E+04  0.7818609E-02  0.8077606E-01
        1   -1    0    0  501    0  0.00000000000E+00  0.00000000000E+00  0.13511768678E+04  0.13511768678E+04  0.50400001928E-02 0. -1.
       -1   -1    0    0    0  501  0.00000000000E+00  0.00000000000E+00 -0.24741590299E+04  0.24741590299E+04  0.50400001928E-02 0.  1.
    10030    2    1    2    0    0  0.00000000000E+00  0.00000000000E+00 -0.11229821622E+04  0.38253358977E+04  0.36567890005E+04 0.  0.
        5    1    3    3  502    0  0.28411672188E+03 -0.98630544762E+03 -0.21443362811E+04  0.23773348363E+04  0.46999998093E+01 0.  1.
       -5    1    3    3    0  502 -0.28411672188E+03  0.98630544762E+03  0.10213541189E+04  0.14480010614E+04  0.46999998093E+01 0. -1.
</event>
<event>
 5   0  0.1015219E-06  0.3730987E+04  0.7818609E-02  0.8061129E-01
        2   -1    0    0  501    0  0.00000000000E+00  0.00000000000E+00  0.26157169278E+04  0.26157169278E+04  0.25500000920E-02 0. -1.
       -2   -1    0    0    0  501  0.00000000000E+00  0.00000000000E+00 -0.13304442896E+04  0.13304442896E+04  0.25500000920E-02 0.  1.
    10030    2    1    2    0    0  0.00000000000E+00  0.00000000000E+00  0.12852726382E+04  0.39461612174E+04  0.37309868130E+04 0.  0.
        3    1    3    3  502    0  0.71393067306E+03 -0.91574376277E+03  0.21869037242E+04  0.24760516057E+04  0.10100000352E+00 0. -1.
       -3    1    3    3    0  502 -0.71393067306E+03  0.91574376277E+03 -0.90163108598E+03  0.14701096117E+04  0.10100000352E+00 0.  1.
</event>
<event>
 5   0  0.1035864E-06  0.3817610E+04  0.7818609E-02  0.8042386E-01
       -2   -1    0    0    0  501  0.00000000000E+00  0.00000000000E+00  0.17376792323E+04  0.17376792323E+04  0.25500000920E-02 0. -1.
        2   -1    0    0  501    0  0.00000000000E+00  0.00000000000E+00 -0.20967829061E+04  0.20967829061E+04  0.25500000920E-02 0.  1.
    10030    2    1    2    0    0  0.00000000000E+00  0.00000000000E+00 -0.35910367381E+03  0.38344621385E+04  0.38176097814E+04 0.  0.
        5    1    3    3  502    0  0.14803345722E+04  0.97233572831E+03 -0.89451343740E+03  0.19841883968E+04  0.46999998093E+01 0.  1.
       -5    1    3    3    0  502 -0.14803345722E+04 -0.97233572831E+03  0.53540976359E+03  0.18502737417E+04  0.46999998093E+01 0. -1.
</event>
<event>
 5   0  0.1199360E-06  0.2041114E+04  0.7818609E-02  0.8587636E-01
        2   -1    0    0  501    0  0.00000000000E+00  0.00000000000E+00  0.12187719117E+04  0.12187719117E+04  0.25500000920E-02 0. -1.
       -2   -1    0    0    0  501  0.00000000000E+00  0.00000000000E+00 -0.85457904392E+03  0.85457904393E+03  0.25500000920E-02 0.  1.
    10030    2    1    2    0    0  0.00000000000E+00  0.00000000000E+00  0.36419286780E+03  0.20733509557E+04  0.20411143379E+04 0.  0.
        5    1    3    3  502    0  0.60486579001E+03  0.77503739493E+03 -0.96033090390E+02  0.98782085011E+03  0.46999998093E+01 0.  1.
       -5    1    3    3    0  502 -0.60486579001E+03 -0.77503739493E+03  0.46022595819E+03  0.10855301055E+04  0.46999998093E+01 0. -1.
</event>
<event>
 5   0  0.4627905E-07  0.2545777E+04  0.7818609E-02  0.8386856E-01
        1   -1    0    0  501    0  0.00000000000E+00  0.00000000000E+00  0.15915478695E+04  0.15915478695E+04  0.50400001928E-02 0.  1.
       -1   -1    0    0    0  501  0.00000000000E+00  0.00000000000E+00 -0.10180308741E+04  0.10180308741E+04  0.50400001928E-02 0. -1.
    10030    2    1    2    0    0  0.00000000000E+00  0.00000000000E+00  0.57351699547E+03  0.26095787436E+04  0.25457767921E+04 0.  0.
        1    1    3    3  502    0 -0.10719356309E+04 -0.64985735106E+03  0.60119436720E+02  0.12549800477E+04  0.50400001928E-02 0. -1.
       -1    1    3    3    0  502  0.10719356309E+04  0.64985735106E+03  0.51339755875E+03  0.13545986959E+04  0.50400001928E-02 0.  1.
</event>
<event>
 5   0  0.1035864E-06  0.3817655E+04  0.7818609E-02  0.8042377E-01
        2   -1    0    0  501    0  0.00000000000E+00  0.00000000000E+00  0.13059253216E+04  0.13059253216E+04  0.25500000920E-02 0.  1.
       -2   -1    0    0    0  501  0.00000000000E+00  0.00000000000E+00 -0.27900688983E+04  0.27900688983E+04  0.25500000920E-02 0. -1.
    10030    2    1    2    0    0  0.00000000000E+00  0.00000000000E+00 -0.14841435767E+04  0.40959942200E+04  0.38176545802E+04 0.  0.
        5    1    3    3  502    0 -0.19705682036E+03 -0.18824113485E+04 -0.47644152057E+03  0.19517485719E+04  0.46999998093E+01 0.  1.
       -5    1    3    3    0  502  0.19705682036E+03  0.18824113485E+04 -0.10077020561E+04  0.21442456481E+04  0.46999998093E+01 0. -1.
</event>
<event>
 5   0  0.5533705E-07  0.3472458E+04  0.7818609E-02  0.8120348E-01
        2   -1    0    0  501    0  0.00000000000E+00  0.00000000000E+00  0.16205719546E+04  0.16205719546E+04  0.25500000920E-02 0. -1.
       -2   -1    0    0    0  501  0.00000000000E+00  0.00000000000E+00 -0.18601404425E+04  0.18601404425E+04  0.25500000920E-02 0.  1.
    10030    2    1    2    0    0  0.00000000000E+00  0.00000000000E+00 -0.23956848790E+03  0.34807123971E+04  0.34724581683E+04 0.  0.
        1    1    3    3  502    0  0.10427554037E+04  0.64670817797E+03  0.11115171978E+04  0.16556088851E+04  0.50400001928E-02 0. -1.
       -1    1    3    3    0  502 -0.10427554037E+04 -0.64670817797E+03 -0.13510856857E+04  0.18251035120E+04  0.50400001928E-02 0.  1.
</event>
<event>
 5   0  0.5533705E-07  0.3768206E+04  0.7818609E-02  0.8053012E-01
       -2   -1    0    0    0  501  0.00000000000E+00  0.00000000000E+00  0.23811173231E+04  0.23811173231E+04  0.25500000920E-02 0.  1.
        2   -1    0    0  501    0  0.00000000000E+00  0.00000000000E+00 -0.14908315739E+04  0.14908315739E+04  0.25500000920E-02 0. -1.
    10030    2    1    2    0    0  0.00000000000E+00  0.00000000000E+00  0.89028574922E+03  0.38719488971E+04  0.37682064097E+04 0.  0.
        1    1    3    3  502    0 -0.74706475473E+03  0.16812243256E+04  0.27474708879E+02  0.18399390861E+04  0.50400001928E-02 0. -1.
       -1    1    3    3    0  502  0.74706475473E+03 -0.16812243256E+04  0.86281104034E+03  0.20320098110E+04  0.50400001928E-02 0.  1.
</event>
<event>
 5   0  0.4316671E-07  0.3640735E+04  0.7818609E-02  0.8081224E-01
       -1   -1    0    0    0  501  0.00000000000E+00  0.00000000000E+00  0.11439346446E+04  0.11439346446E+04  0.50400001928E-02 0. -1.
        1   -1    0    0  501    0  0.00000000000E+00  0.00000000000E+00 -0.28967889799E+04  0.28967889799E+04  0.50400001928E-02 0.  1.
    10030    2    1    2    0    0  0.00000000000E+00  0.00000000000E+00 -0.17528543353E+04  0.40407236245E+04  0.36407346908E+04 0.  0.
        2    1    3    3  502    0 -0.50420729027E+03  0.15380092422E+04  0.48190779303E+02  0.16192651951E+04  0.25500000920E-02 0. -1.
       -2    1    3    3    0  502  0.50420729027E+03 -0.15380092422E+04 -0.18010451146E+04  0.24214584295E+04  0.25500000920E-02 0.  1.
</event>
<event>
 5   0  0.1015219E-06  0.2997101E+04  0.7818609E-02  0.8244559E-01
        2   -1    0    0  501    0  0.00000000000E+00  0.00000000000E+00  0.10341314335E+04  0.10341314336E+04  0.25500000920E-02 0.  1.
       -2   -1    0    0    0  501  0.00000000000E+00  0.00000000000E+00 -0.21715363215E+04  0.21715363215E+04  0.25500000920E-02 0. -1.
    10030    2    1    2    0    0  0.00000000000E+00  0.00000000000E+00 -0.11374048879E+04  0.32056677550E+04  0.29971012456E+04 0.  0.
        3    1    3    3  502    0 -0.23922625716E+03  0.52503046083E+03 -0.20479750591E+04  0.21276954763E+04  0.10100000352E+00 0. -1.
       -3    1    3    3    0  502  0.23922625716E+03 -0.52503046083E+03  0.91057017117E+03  0.10779722787E+04  0.10100000352E+00 0.  1.
</event>
<event>
 5   0  0.3471602E-07  0.4339373E+04  0.7818609E-02  0.7939378E-01
       -1   -1    0    0    0  501  0.00000000000E+00  0.00000000000E+00  0.21399515542E+04  0.21399515542E+04  0.50400001928E-02 0.  1.
        1   -1    0    0  501    0  0.00000000000E+00  0.00000000000E+00 -0.21998341806E+04  0.21998341806E+04  0.50400001928E-02 0. -1.
    10030    2    1    2    0    0  0.00000000000E+00  0.00000000000E+00 -0.59882626410E+02  0.43397857348E+04  0.43393725692E+04 0.  0.
        5    1    3    3  502    0  0.12530979031E+04  0.10783489383E+04  0.13753350642E+04  0.21505021312E+04  0.46999998093E+01 0.  1.
       -5    1    3    3    0  502 -0.12530979031E+04 -0.10783489383E+04 -0.14352176906E+04  0.21892836036E+04  0.46999998093E+01 0. -1.
</event>
<event>
 5   0  0.1035864E-06  0.3784585E+04  0.7818609E-02  0.8049471E-01
        2   -1    0    0  501    0  0.00000000000E+00  0.00000000000E+00  0.12568179225E+04  0.12568179225E+04  0.25500000920E-02 0.  1.
       -2   -1    0    0    0  501  0.00000000000E+00  0.00000000000E+00 -0.28490765157E+04  0.28490765157E+04  0.25500000920E-02 0. -1.
    10030    2    1    2    0    0  0.00000000000E+00  0.00000000000E+00 -0.15922585932E+04  0.41058944382E+04  0.37845847474E+04 0.  0.
        5    1    3    3  502    0  0.95791361187E+03 -0.37719782590E+03  0.92639323672E+03  0.13849560306E+04  0.46999998093E+01 0.  1.
       -5    1    3    3    0  502 -0.95791361187E+03  0.37719782590E+03 -0.25186518300E+04  0.27209384076E+04  0.46999998093E+01 0. -1.
</event>
<event>
 5   0  0.1015219E-06  0.1989767E+04  0.7818609E-02  0.8611420E-01
       -2   -1    0    0    0  501  0.00000000000E+00  0.00000000000E+00  0.92091705735E+03  0.92091705735E+03  0.25500000920E-02 0.  1.
        2   -1    0    0  501    0  0.00000000000E+00  0.00000000000E+00 -0.10747910078E+04  0.10747910078E+04  0.25500000920E-02 0. -1.
    10030    2    1    2    0    0  0.00000000000E+00  0.00000000000E+00 -0.15387395043E+03  0.19957080651E+04  0.19897671946E+04 0.  0.
        3    1    3    3  502    0  0.84580966611E+03 -0.45482194300E+03  0.18371655172E+03  0.97775701107E+03  0.10100000352E+00 0. -1.
       -3    1    3    3    0  502 -0.84580966611E+03  0.45482194300E+03 -0.33759050214E+03  0.10179510541E+04  0.10100000352E+00 0.  1.
</event>
<event>
 5   0  0.5533705E-07  0.4508069E+04  0.7818609E-02  0.7909226E-01
       -2   -1    0    0    0  501  0.00000000000E+00  0.00000000000E+00  0.21328181851E+04  0.21328181851E+04  0.25500000920E-02 0. -1.
        2   -1    0    0  501    0  0.00000000000E+00  0.00000000000E+00 -0.23821399874E+04  0.23821399874E+04  0.25500000920E-02 0.  1.
    10030    2    1    2    0    0  0.00000000000E+00  0.00000000000E+00 -0.24932180226E+03  0.45149581725E+04  0.45080689811E+04 0.  0.
        1    1    3    3  502    0  0.96634539725E+02  0.29920397919E+03 -0.23600687343E+04  0.23809211844E+04  0.50400001928E-02 0.  1.
       -1    1    3    3    0  502 -0.96634539725E+02 -0.29920397919E+03  0.21107469321E+04  0.21340369881E+04  0.50400001928E-02 0. -1.
</event>
<event>
 5   0  0.4316671E-07  0.2319764E+04  0.7818609E-02  0.8470169E-01
        1   -1    0    0  501    0  0.00000000000E+00  0.00000000000E+00  0.16837332147E+04  0.16837332147E+04  0.50400001928E-02 0. -1.
       -1   -1    0    0    0  501  0.00000000000E+00  0.00000000000E+00 -0.79901368887E+03  0.79901368888E+03  0.50400001928E-02 0.  1.
    10030    2    1    2    0    0  0.00000000000E+00  0.00000000000E+00  0.88471952586E+03  0.24827469036E+04  0.23197636836E+04 0.  0.
        2    1    3    3  502    0 -0.43245852156E+02  0.74898134761E+03  0.13890895791E+04  0.15787378255E+04  0.25500000920E-02 0. -1.
       -2    1    3    3    0  502  0.43245852156E+02 -0.74898134761E+03 -0.50437005323E+03  0.90400907816E+03  0.25500000920E-02 0.  1.
</event>
<event>
 5   0  0.3191750E-07  0.2502444E+04  0.7818609E-02  0.8402116E-01
        3   -1    0    0  501    0  0.00000000000E+00  0.00000000000E+00  0.90512061366E+03  0.90512061929E+03  0.10100000352E+00 0.  1.
       -3   -1    0    0    0  501  0.00000000000E+00  0.00000000000E+00 -0.17296655031E+04  0.17296655061E+04  0.10100000352E+00 0. -1.
    10030    2    1    2    0    0  0.00000000000E+00  0.00000000000E+00 -0.82454488946E+03  0.26347861254E+04  0.25024435362E+04 0.  0.
        1    1    3    3  502    0  0.59796011807E+02  0.20918782162E+03 -0.17095967362E+04  0.17233850725E+04  0.50400001928E-02 0. -1.
       -1    1    3    3    0  502 -0.59796011807E+02 -0.20918782162E+03  0.88505184672E+03  0.91140105286E+03  0.50400001928E-02 0.  1.
</event>
<event>
 5   0  0.5385714E-07  0.2825695E+04  0.7818609E-02  0.8295335E-01
       -1   -1    0    0    0  501  0.00000000000E+00  0.00000000000E+00  0.13683512368E+04  0.13683512368E+04  0.50400001928E-02 0.  1.
        1   -1    0    0  501    0  0.00000000000E+00  0.00000000000E+00 -0.14587907826E+04  0.14587907826E+04  0.50400001928E-02 0. -1.
    10030    2    1    2    0    0  0.00000000000E+00  0.00000000000E+00 -0.90439545778E+02  0.28271420195E+04  0.28256950803E+04 0.  0.
        3    1    3    3  502    0 -0.10446775255E+04  0.19791784393E+03 -0.97608081834E+03  0.14433490151E+04  0.10100000352E+00 0. -1.
       -3    1    3    3    0  502  0.10446775255E+04 -0.19791784393E+03  0.88564127256E+03  0.13837930044E+04  0.10100000352E+00 0.  1.
</event>
<event>
 5   0  0.5385714E-07  0.3885345E+04  0.7818609E-02  0.8028084E-01
       -1   -1    0    0    0  501  0.00000000000E+00  0.00000000000E+00  0.15604946918E+04  0.15604946918E+04  0.50400001928E-02 0. -1.
        1   -1    0    0  501    0  0.00000000000E+00  0.00000000000E+00 -0.24184483078E+04  0.24184483078E+04  0.50400001928E-02 0.  1.
    10030    2    1    2    0    0  0.00000000000E+00  0.00000000000E+00 -0.85795361594E+03  0.39789429996E+04  0.38853446420E+04 0.  0.
        3    1    3    3  502    0  0.13628041614E+04 -0.11521374069E+04 -0.12151418732E+04  0.21589871628E+04  0.10100000352E+00 0.  1.
       -3    1    3    3    0  502 -0.13628041614E+04  0.11521374069E+04  0.35718825726E+03  0.18199558368E+04  0.10100000352E+00 0. -1.
</event>
<event>
 5   0  0.3471602E-07  0.2621475E+04  0.7818609E-02  0.8360943E-01
        1   -1    0    0  501    0  0.00000000000E+00  0.00000000000E+00  0.20538077305E+04  0.20538077305E+04  0.50400001928E-02 0. -1.
       -1   -1    0    0    0  501  0.00000000000E+00  0.00000000000E+00 -0.83651112266E+03  0.83651112268E+03  0.50400001928E-02 0.  1.
    10030    2    1    2    0    0  0.00000000000E+00  0.00000000000E+00  0.12172966078E+04  0.28903188531E+04  0.26214751651E+04 0.  0.
        5    1    3    3  502    0 -0.42674502102E+03 -0.84997313111E+03  0.16030553222E+04  0.18639672992E+04  0.46999998093E+01 0. -1.
       -5    1    3    3    0  502  0.42674502102E+03  0.84997313111E+03 -0.38575871437E+03  0.10263515539E+04  0.46999998093E+01 0.  1.
</event>
<event>
 5   0  0.4316671E-07  0.3777691E+04  0.7818609E-02  0.8050959E-01
       -1   -1    0    0    0  501  0.00000000000E+00  0.00000000000E+00  0.17286887434E+04  0.17286887434E+04  0.50400001928E-02 0. -1.
        1   -1    0    0  501    0  0.00000000000E+00  0.00000000000E+00 -0.20638397834E+04  0.20638397834E+04  0.50400001928E-02 0.  1.
    10030    2    1    2    0    0  0.00000000000E+00  0.00000000000E+00 -0.33515104001E+03  0.37925285268E+04  0.37776906182E+04 0.  0.
        2    1    3    3  502    0  0.16432226016E+03  0.60896107657E+03 -0.19549902473E+04  0.20542205980E+04  0.25500000920E-02 0.  1.
       -2    1    3    3    0  502 -0.16432226016E+03 -0.60896107657E+03  0.16198392073E+04  0.17383079288E+04  0.25500000920E-02 0. -1.
</event>
<event>
 5   0  0.3471602E-07  0.3909718E+04  0.7818609E-02  0.8023011E-01
       -1   -1    0    0    0  501  0.00000000000E+00  0.00000000000E+00  0.22815848578E+04  0.22815848578E+04  0.50400001928E-02 0. -1.
        1   -1    0    0  501    0  0.00000000000E+00  0.00000000000E+00 -0.16749202843E+04  0.16749202843E+04  0.50400001928E-02 0.  1.
    10030    2    1    2    0    0  0.00000000000E+00  0.00000000000E+00  0.60666457344E+03  0.39565051421E+04  0.39097175135E+04 0.  0.
        5    1    3    3  502    0 -0.10205790905E+04 -0.56697327128E+03 -0.12833630234E+04  0.17349591091E+04  0.46999998093E+01 0.  1.
       -5    1    3    3    0  502  0.10205790905E+04  0.56697327128E+03  0.18900275968E+04  0.22215460331E+04  0.46999998093E+01 0. -1.
</event>
<event>
 5   0  0.7268013E-07  0.3871990E+04  0.7818609E-02  0.8030880E-01
       -2   -1    0    0    0  501  0.00000000000E+00  0.00000000000E+00  0.18505557821E+04  0.18505557821E+04  0.25500000920E-02 0.  1.
        2   -1    0    0  501    0  0.00000000000E+00  0.00000000000E+00 -0.20253789775E+04  0.20253789775E+04  0.25500000920E-02 0. -1.
    10030    2    1    2    0    0  0.00000000000E+00  0.00000000000E+00 -0.17482319540E+03  0.38759347595E+04  0.38719900711E+04 0.  0.
        4    1    3    3  502    0 -0.14625702218E+04 -0.56901088308E+03 -0.12222288078E+04  0.19891530635E+04  0.12699999809E+01 0. -1.
       -4    1    3    3    0  502  0.14625702218E+04  0.56901088308E+03  0.10474056124E+04  0.18867816960E+04  0.12699999809E+01 0.  1.
</event>
<event>
 5   0  0.3471602E-07  0.2606854E+04  0.7818609E-02  0.8365877E-01
       -1   -1    0    0    0  501  0.00000000000E+00  0.00000000000E+00  0.83982432356E+03  0.83982432357E+03  0.50400001928E-02 0. -1.
        1   -1    0    0  501    0  0.00000000000E+00  0.00000000000E+00 -0.20229489596E+04  0.20229489596E+04  0.50400001928E-02 0.  1.
    10030    2    1    2    0    0  0.00000000000E+00  0.00000000000E+00 -0.11831246360E+04  0.28627732831E+04  0.26068538445E+04 0.  0.
        5    1    3    3  502    0  0.65222127827E+03 -0.96645564044E+03  0.48277591394E+02  0.11669541193E+04  0.46999998093E+01 0. -1.
       -5    1    3    3    0  502 -0.65222127827E+03  0.96645564044E+03 -0.12314022274E+04  0.16958191638E+04  0.46999998093E+01 0.  1.
</event>
<event>
 5   0  0.5533705E-07  0.1924272E+04  0.7818609E-02  0.8642868E-01
       -2   -1    0    0    0  501  0.00000000000E+00  0.00000000000E+00  0.37201398725E+03  0.37201398726E+03  0.25500000920E-02 0.  1.
        2   -1    0    0  501    0  0.00000000000E+00  0.00000000000E+00 -0.24883630505E+04  0.24883630505E+04  0.25500000920E-02 0. -1.
    10030    2    1    2    0    0  0.00000000000E+00  0.00000000000E+00 -0.21163490633E+04  0.28603770378E+04  0.19242721847E+04 0.  0.
        1    1    3    3  502    0  0.34922412032E+03 -0.13650889128E+03 -0.23752875966E+04  0.24047002579E+04  0.50400001928E-02 0. -1.
       -1    1    3    3    0  502 -0.34922412032E+03  0.13650889128E+03  0.25893853338E+03  0.45567677986E+03  0.50400001928E-02 0.  1.
</event>
<event>
 5   0  0.5533705E-07  0.2917780E+04  0.7818609E-02  0.8267607E-01
        2   -1    0    0  501    0  0.00000000000E+00  0.00000000000E+00  0.12705413286E+04  0.12705413286E+04  0.25500000920E-02 0.  1.
       -2   -1    0    0    0  501  0.00000000000E+00  0.00000000000E+00 -0.16751604954E+04  0.16751604954E+04  0.25500000920E-02 0. -1.
    10030    2    1    2    0    0  0.00000000000E+00  0.00000000000E+00 -0.40461916678E+03  0.29457018240E+04  0.29177804177E+04 0.  0.
        1    1    3    3  502    0  0.62181926417E+03 -0.28461111226E+03  0.10987030218E+04  0.12941448963E+04  0.50400001928E-02 0.  1.
       -1    1    3    3    0  502 -0.62181926417E+03  0.28461111226E+03 -0.15033221886E+04  0.16515569277E+04  0.50400001928E-02 0. -1.
</event>
<event>
 5   0  0.1035864E-06  0.3188383E+04  0.7818609E-02  0.8191892E-01
       -2   -1    0    0    0  501  0.00000000000E+00  0.00000000000E+00  0.10396148389E+04  0.10396148389E+04  0.25500000920E-02 0. -1.
        2   -1    0    0  501    0  0.00000000000E+00  0.00000000000E+00 -0.24446041082E+04  0.24446041082E+04  0.25500000920E-02 0.  1.
    10030    2    1    2    0    0  0.00000000000E+00  0.00000000000E+00 -0.14049892693E+04  0.34842189471E+04  0.31883831051E+04 0.  0.
        5    1    3    3  502    0  0.10808738910E+04 -0.39191602073E+03  0.50429791939E+03  0.12554780034E+04  0.46999998093E+01 0. -1.
       -5    1    3    3    0  502 -0.10808738910E+04  0.39191602073E+03 -0.19092871887E+04  0.22287409438E+04  0.46999998093E+01 0.  1.
</event>
<event>
 5   0  0.1015219E-06  0.3835976E+04  0.7818609E-02  0.8038478E-01
        2   -1    0    0  501    0  0.00000000000E+00  0.00000000000E+00  0.11393928839E+04  0.11393928839E+04  0.25500000920E-02 0. -1.
       -2   -1    0    0    0  501  0.00000000000E+00  0.00000000000E+00 -0.32286304275E+04  0.32286304275E+04  0.25500000920E-02 0.  1.
    10030    2    1    2    0    0  0.00000000000E+00  0.00000000000E+00 -0.20892375436E+04  0.43680233113E+04  0.38359762948E+04 0.  0.
        3    1    3    3  502    0  0.10047269754E+04  0.12708591604E+02  0.81569684806E+03  0.12942175866E+04  0.10100000352E+00 0. -1.
       -3    1    3    3    0  502 -0.10047269754E+04 -0.12708591604E+02 -0.29049343917E+04  0.30738057247E+04  0.10100000352E+00 0.  1.
</event>
<event>
 5   0  0.3471602E-07  0.3819602E+04  0.7818609E-02  0.8041961E-01
       -1   -1    0    0    0  501  0.00000000000E+00  0.00000000000E+00  0.17882263756E+04  0.17882263756E+04  0.50400001928E-02 0.  1.
        1   -1    0    0  501    0  0.00000000000E+00  0.00000000000E+00 -0.20396414546E+04  0.20396414546E+04  0.50400001928E-02 0. -1.
    10030    2    1    2    0    0  0.00000000000E+00  0.00000000000E+00 -0.25141507898E+03  0.38278678302E+04  0.38196024117E+04 0.  0.
        5    1    3    3  502    0 -0.17100344237E+03  0.15286731476E+04 -0.12600733691E+04  0.19884392761E+04  0.46999998093E+01 0. -1.
       -5    1    3    3    0  502  0.17100344237E+03 -0.15286731476E+04  0.10086582901E+04  0.18394285541E+04  0.46999998093E+01 0.  1.
</event>
<event>
 5   0  0.1035864E-06  0.3824404E+04  0.7818609E-02  0.8040938E-01
       -2   -1    0    0    0  501  0.00000000000E+00  0.00000000000E+00  0.17958769824E+04  0.17958769824E+04  0.25500000920E-02 0. -1.
        2   -1    0    0  501    0  0.00000000000E+00  0.00000000000E+00 -0.20360617655E+04  0.20360617655E+04  0.25500000920E-02 0.  1.
    10030    2    1    2    0    0  0.00000000000E+00  0.00000000000E+00 -0.24018478313E+03  0.38319387480E+04  0.38244039847E+04 0.  0.
        5    1    3    3  502    0  0.27569367322E+03  0.30370978193E+03  0.17512724116E+04  0.17986727837E+04  0.46999998093E+01 0. -1.
       -5    1    3    3    0  502 -0.27569367322E+03 -0.30370978193E+03 -0.19914571947E+04  0.20332659643E+04  0.46999998093E+01 0.  1.
</event>
<event>
 5   0  0.1015219E-06  0.2071719E+04  0.7818609E-02  0.8573805E-01
        2   -1    0    0  501    0  0.00000000000E+00  0.00000000000E+00  0.12094088973E+04  0.12094088973E+04  0.25500000920E-02 0.  1.
       -2   -1    0    0    0  501  0.00000000000E+00  0.00000000000E+00 -0.88721464343E+03  0.88721464344E+03  0.25500000920E-02 0. -1.
    10030    2    1    2    0    0  0.00000000000E+00  0.00000000000E+00  0.32219425385E+03  0.20966235407E+04  0.20717193667E+04 0.  0.
        3    1    3    3  502    0 -0.84224426845E+03 -0.15161369271E+03 -0.42956532557E+03  0.95754294875E+03  0.10100000352E+00 0. -1.
       -3    1    3    3    0  502  0.84224426845E+03  0.15161369271E+03  0.75175957943E+03  0.11390805920E+04  0.10100000352E+00 0.  1.
</event>
<event>
 5   0  0.5533705E-07  0.3425933E+04  0.7818609E-02  0.8131571E-01
       -2   -1    0    0    0  501  0.00000000000E+00  0.00000000000E+00  0.19369394247E+04  0.19369394247E+04  0.25500000920E-02 0. -1.
        2   -1    0    0  501    0  0.00000000000E+00  0.00000000000E+00 -0.15148922012E+04  0.15148922012E+04  0.25500000920E-02 0.  1.
    10030    2    1    2    0    0  0.00000000000E+00  0.00000000000E+00  0.42204722354E+03  0.34518316259E+04  0.34259331159E+04 0.  0.
        1    1    3    3  502    0 -0.68295511982E+03  0.15098260993E+04 -0.22613635844E+03  0.16724653056E+04  0.50400001928E-02 0.  1.
       -1    1    3    3    0  502  0.68295511982E+03 -0.15098260993E+04  0.64818358199E+03  0.17793663203E+04  0.50400001928E-02 0. -1.
</event>
<event>
 5   0  0.1035864E-06  0.2541963E+04  0.7818609E-02  0.8388187E-01
        2   -1    0    0  501    0  0.00000000000E+00  0.00000000000E+00  0.20315468230E+04  0.20315468230E+04  0.25500000920E-02 0. -1.
       -2   -1    0    0    0  501  0.00000000000E+00  0.00000000000E+00 -0.79515493250E+03  0.79515493251E+03  0.25500000920E-02 0.  1.
    10030    2    1    2    0    0  0.00000000000E+00  0.00000000000E+00  0.12363918905E+04  0.28267017555E+04  0.25419633962E+04 0.  0.
        5    1    3    3  502    0  0.10446068039E+04 -0.63292062906E+03  0.22727796004E+03  0.12423643823E+04  0.46999998093E+01 0.  1.
       -5    1    3    3    0  502 -0.10446068039E+04  0.63292062906E+03  0.10091139304E+04  0.15843373731E+04  0.46999998093E+01 0. -1.
</event>
<event>
 5   0  0.5533705E-07  0.3749942E+04  0.7818609E-02  0.8056983E-01
       -2   -1    0    0    0  501  0.00000000000E+00  0.00000000000E+00  0.13933155418E+04  0.13933155418E+04  0.25500000920E-02 0.  1.
        2   -1    0    0  501    0  0.00000000000E+00  0.00000000000E+00 -0.25231296707E+04  0.25231296707E+04  0.25500000920E-02 0. -1.
    10030    2    1    2    0    0  0.00000000000E+00  0.00000000000E+00 -0.11298141289E+04  0.39164452125E+04  0.37499417511E+04 0.  0.
        1    1    3    3  502    0 -0.18666462820E+04  0.51085152952E+02 -0.38847505010E+03  0.19073255882E+04  0.50400001928E-02 0.  1.
       -1    1    3    3    0  502  0.18666462820E+04 -0.51085152952E+02 -0.74133907878E+03  0.20091196243E+04  0.50400001928E-02 0. -1.
</event>
<event>
 5   0  0.4316671E-07  0.2231885E+04  0.7818609E-02  0.8505273E-01
        1   -1    0    0  501    0  0.00000000000E+00  0.00000000000E+00  0.13624049098E+04  0.13624049098E+04  0.50400001928E-02 0.  1.
       -1   -1    0    0    0  501  0.00000000000E+00  0.00000000000E+00 -0.91406614597E+03  0.91406614599E+03  0.50400001928E-02 0. -1.
    10030    2    1    2    0    0  0.00000000000E+00  0.00000000000E+00  0.44833876380E+03  0.22764710558E+04  0.22318854856E+04 0.  0.
        2    1    3    3  502    0 -0.52005432494E+03 -0.98024054732E+03  0.34485539380E+03  0.11620039906E+04  0.25500000920E-02 0.  1.
       -2    1    3    3    0  502  0.52005432494E+03  0.98024054732E+03  0.10348337000E+03  0.11144670652E+04  0.25500000920E-02 0. -1.
</event>
<event>
 5   0  0.5533705E-07  0.2141461E+04  0.7818609E-02  0.8543196E-01
        2   -1    0    0  501    0  0.00000000000E+00  0.00000000000E+00  0.91936689497E+03  0.91936689497E+03  0.25500000920E-02 0. -1.
       -2   -1    0    0    0  501  0.00000000000E+00  0.00000000000E+00 -0.12470145371E+04  0.12470145371E+04  0.25500000920E-02 0.  1.
    10030    2    1    2    0    0  0.00000000000E+00  0.00000000000E+00 -0.32764764214E+03  0.21663814321E+04  0.21414610741E+04 0.  0.
        1    1    3    3  502    0  0.12141608296E+03  0.10214407065E+04 -0.46457265511E+03  0.11286765409E+04  0.50400001928E-02 0. -1.
       -1    1    3    3    0  502 -0.12141608296E+03 -0.10214407065E+04  0.13692501297E+03  0.10377048912E+04  0.50400001928E-02 0.  1.
</event>
<event>
 5   0  0.3977376E-07  0.3912102E+04  0.7818609E-02  0.8022517E-01
        1   -1    0    0  501    0  0.00000000000E+00  0.00000000000E+00  0.19128934856E+04  0.19128934856E+04  0.50400001928E-02 0. -1.
       -1   -1    0    0    0  501  0.00000000000E+00  0.00000000000E+00 -0.20001824961E+04  0.20001824961E+04  0.50400001928E-02 0.  1.
    10030    2    1    2    0    0  0.00000000000E+00  0.00000000000E+00 -0.87289010543E+02  0.39130759817E+04  0.39121022823E+04 0.  0.
        4    1    3    3  502    0  0.11832346757E+04  0.77889721907E+03  0.13055460193E+04  0.19264415893E+04  0.12699999809E+01 0. -1.
       -4    1    3    3    0  502 -0.11832346757E+04 -0.77889721907E+03 -0.13928350299E+04  0.19866343924E+04  0.12699999809E+01 0.  1.
</event>
<event>
 5   0  0.5533705E-07  0.3952699E+04  0.7818609E-02  0.8014157E-01
       -2   -1    0    0    0  501  0.00000000000E+00  0.00000000000E+00  0.19452575518E+04  0.19452575518E+04  0.25500000920E-02 0. -1.
        2   -1    0    0  501    0  0.00000000000E+00  0.00000000000E+00 -0.20079387792E+04  0.20079387792E+04  0.25500000920E-02 0.  1.
    10030    2    1    2    0    0  0.00000000000E+00  0.00000000000E+00 -0.62681227477E+02  0.39531963310E+04  0.39526993682E+04 0.  0.
        1    1    3    3  502    0 -0.14369323921E+04  0.60280219789E+03 -0.12471467295E+04  0.19958757863E+04  0.50400001928E-02 0.  1.
       -1    1    3    3    0  502  0.14369323921E+04 -0.60280219789E+03  0.11844655021E+04  0.19573205447E+04  0.50400001928E-02 0. -1.
</event>
<event>
 5   0  0.7268013E-07  0.3902118E+04  0.7818609E-02  0.8024589E-01
       -2   -1    0    0    0  501  0.00000000000E+00  0.00000000000E+00  0.20041238369E+04  0.20041238369E+04  0.25500000920E-02 0. -1.
        2   -1    0    0  501    0  0.00000000000E+00  0.00000000000E+00 -0.18993988622E+04  0.18993988622E+04  0.25500000920E-02 0.  1.
    10030    2    1    2    0    0  0.00000000000E+00  0.00000000000E+00  0.10472497469E+03  0.39035226990E+04  0.39021176483E+04 0.  0.
        4    1    3    3  502    0 -0.10277847448E+04 -0.13895140872E+04 -0.85324688593E+03  0.19274653671E+04  0.12699999809E+01 0.  1.
       -4    1    3    3    0  502  0.10277847448E+04  0.13895140872E+04  0.95797186062E+03  0.19760573319E+04  0.12699999809E+01 0. -1.
</event>
<event>
 5   0  0.1034683E-06  0.2593124E+04  0.7818609E-02  0.8370541E-01
        2   -1    0    0  501    0  0.00000000000E+00  0.00000000000E+00  0.13649014422E+04  0.13649014422E+04  0.25500000920E-02 0.  1.
       -2   -1    0    0    0  501  0.00000000000E+00  0.00000000000E+00 -0.12316439041E+04  0.12316439041E+04  0.25500000920E-02 0. -1.
    10030    2    1    2    0    0  0.00000000000E+00  0.00000000000E+00  0.13325753804E+03  0.25965453463E+04  0.25931236307E+04 0.  0.
        2    1    3    3  502    0 -0.99885979180E+03 -0.14188339634E+02 -0.76099096157E+03  0.12557983263E+04  0.25500000920E-02 0. -1.
       -2    1    3    3    0  502  0.99885979180E+03  0.14188339634E+02  0.89424849962E+03  0.13407470200E+04  0.25500000920E-02 0.  1.
</event>
<event>
 5   0  0.1034683E-06  0.4202272E+04  0.7818609E-02  0.7964940E-01
       -2   -1    0    0    0  501  0.00000000000E+00  0.00000000000E+00  0.16921867405E+04  0.16921867405E+04  0.25500000920E-02 0.  1.
        2   -1    0    0  501    0  0.00000000000E+00  0.00000000000E+00 -0.26089161518E+04  0.26089161518E+04  0.25500000920E-02 0. -1.
    10030    2    1    2    0    0  0.00000000000E+00  0.00000000000E+00 -0.91672941128E+03  0.43011028922E+04  0.42022723943E+04 0.  0.
        2    1    3    3  502    0 -0.83529620370E+03  0.33182152498E+03  0.14854979445E+04  0.17362400224E+04  0.25500000920E-02 0.  1.
       -2    1    3    3    0  502  0.83529620370E+03 -0.33182152498E+03 -0.24022273557E+04  0.25648628698E+04  0.25500000920E-02 0. -1.
</event>
<event>
 5   0  0.4316671E-07  0.3932181E+04  0.7818609E-02  0.8018369E-01
        1   -1    0    0  501    0  0.00000000000E+00  0.00000000000E+00  0.25176185477E+04  0.25176185477E+04  0.50400001928E-02 0. -1.
       -1   -1    0    0    0  501  0.00000000000E+00  0.00000000000E+00 -0.15353843227E+04  0.15353843227E+04  0.50400001928E-02 0.  1.
    10030    2    1    2    0    0  0.00000000000E+00  0.00000000000E+00  0.98223422496E+03  0.40530028704E+04  0.39321810990E+04 0.  0.
        2    1    3    3  502    0  0.10064174284E+04  0.15932839382E+04  0.10687675835E+04  0.21664934562E+04  0.25500000920E-02 0.  1.
       -2    1    3    3    0  502 -0.10064174284E+04 -0.15932839382E+04 -0.86533358579E+02  0.18865094143E+04  0.25500000920E-02 0. -1.
</event>
<event>
 5   0  0.1034683E-06  0.2600350E+04  0.7818609E-02  0.8368082E-01
       -2   -1    0    0    0  501  0.00000000000E+00  0.00000000000E+00  0.63350927501E+03  0.63350927501E+03  0.25500000920E-02 0. -1.
        2   -1    0    0  501    0  0.00000000000E+00  0.00000000000E+00 -0.26683982601E+04  0.26683982601E+04  0.25500000920E-02 0.  1.
    10030    2    1    2    0    0  0.00000000000E+00  0.00000000000E+00 -0.20348889851E+04  0.33019075352E+04  0.26003500128E+04 0.  0.
        2    1    3    3  502    0  0.12347423040E+04 -0.83411189679E+02 -0.15236273491E+04  0.19629025149E+04  0.25500000920E-02 0.  1.
       -2    1    3    3    0  502 -0.12347423040E+04  0.83411189679E+02 -0.51126163600E+03  0.13390050203E+04  0.25500000920E-02 0. -1.
</event>
<event>
 5   0  0.1015219E-06  0.3009072E+04  0.7818609E-02  0.8241145E-01
        2   -1    0    0  501    0  0.00000000000E+00  0.00000000000E+00  0.16408626496E+04  0.16408626496E+04  0.25500000920E-02 0.  1.
       -2   -1    0    0    0  501  0.00000000000E+00  0.00000000000E+00 -0.13795352523E+04  0.13795352523E+04  0.25500000920E-02 0. -1.
    10030    2    1    2    0    0  0.00000000000E+00  0.00000000000E+00  0.26132739733E+03  0.30203979020E+04  0.30090715308E+04 0.  0.
        3    1    3    3  502    0 -0.13222617539E+04  0.68950340944E+03 -0.69679065892E+02  0.14928651245E+04  0.10100000352E+00 0. -1.
       -3    1    3    3    0  502  0.13222617539E+04 -0.68950340944E+03  0.33100646322E+03  0.15275327775E+04  0.10100000352E+00 0.  1.
</event>
<event>
 5   0  0.1015219E-06  0.3020508E+04  0.7818609E-02  0.8237899E-01
       -2   -1    0    0    0  501  0.00000000000E+00  0.00000000000E+00  0.93005789503E+03  0.93005789503E+03  0.25500000920E-02 0.  1.
        2   -1    0    0  501    0  0.00000000000E+00  0.00000000000E+00 -0.24523930049E+04  0.24523930049E+04  0.25500000920E-02 0. -1.
    10030    2    1    2    0    0  0.00000000000E+00  0.00000000000E+00 -0.15223351098E+04  0.33824508999E+04  0.30205082194E+04 0.  0.
        3    1    3    3  502    0  0.75833865230E+03  0.64623582156E+03 -0.20321452750E+04  0.22632526765E+04  0.10100000352E+00 0. -1.
       -3    1    3    3    0  502 -0.75833865230E+03 -0.64623582156E+03  0.50981016516E+03  0.11191982234E+04  0.10100000352E+00 0.  1.
</event>
<event>
 5   0  0.5533705E-07  0.3970437E+04  0.7818609E-02  0.8010537E-01
        2   -1    0    0  501    0  0.00000000000E+00  0.00000000000E+00  0.22300601762E+04  0.22300601762E+04  0.25500000920E-02 0.  1.
       -2   -1    0    0    0  501  0.00000000000E+00  0.00000000000E+00 -0.17672587545E+04  0.17672587545E+04  0.25500000920E-02 0. -1.
    10030    2    1    2    0    0  0.00000000000E+00  0.00000000000E+00  0.46280142163E+03  0.39973189307E+04  0.39704374416E+04 0.  0.
        1    1    3    3  502    0  0.15089156591E+04  0.18858479178E+03  0.15162475134E+04  0.21474164040E+04  0.50400001928E-02 0.  1.
       -1    1    3    3    0  502 -0.15089156591E+04 -0.18858479178E+03 -0.10534460918E+04  0.18499025267E+04  0.50400001928E-02 0. -1.
</event>
<event>
 5   0  0.3471602E-07  0.3715095E+04  0.7818609E-02  0.8064625E-01
        1   -1    0    0  501    0  0.00000000000E+00  0.00000000000E+00  0.25456449487E+04  0.25456449487E+04  0.50400001928E-02 0.  1.
       -1   -1    0    0    0  501  0.00000000000E+00  0.00000000000E+00 -0.13554454945E+04  0.13554454945E+04  0.50400001928E-02 0. -1.
    10030    2    1    2    0    0  0.00000000000E+00  0.00000000000E+00  0.11901994542E+04  0.39010904432E+04  0.37150951408E+04 0.  0.
        5    1    3    3  502    0  0.50564454131E+03 -0.11836864110E+04  0.20014304610E+04  0.23796083505E+04  0.46999998093E+01 0.  1.
       -5    1    3    3    0  502 -0.50564454131E+03  0.11836864110E+04 -0.81123100680E+03  0.15214820926E+04  0.46999998093E+01 0. -1.
</event>
<event>
 5   0  0.3977376E-07  0.3986185E+04  0.7818609E-02  0.8007339E-01
       -1   -1    0    0    0  501  0.00000000000E+00  0.00000000000E+00  0.17524093681E+04  0.17524093681E+04  0.50400001928E-02 0. -1.
        1   -1    0    0  501    0  0.00000000000E+00  0.00000000000E+00 -0.22668321491E+04  0.22668321491E+04  0.50400001928E-02 0.  1.
    10030    2    1    2    0    0  0.00000000000E+00  0.00000000000E+00 -0.51442278097E+03  0.40192415172E+04  0.39861850906E+04 0.  0.
        4    1    3    3  502    0  0.14765059043E+04 -0.48731564639E+03 -0.15144962724E+04  0.21705406692E+04  0.12699999809E+01 0.  1.
       -4    1    3    3    0  502 -0.14765059043E+04  0.48731564639E+03  0.10000734914E+04  0.18487008481E+04  0.12699999809E+01 0. -1.
</event>
<event>
 5   0  0.5533705E-07  0.3930060E+04  0.7818609E-02  0.8018806E-01
       -2   -1    0    0    0  501  0.00000000000E+00  0.00000000000E+00  0.15949459435E+04  0.15949459435E+04  0.25500000920E-02 0.  1.
        2   -1    0    0  501    0  0.00000000000E+00  0.00000000000E+00 -0.24209867497E+04  0.24209867497E+04  0.25500000920E-02 0. -1.
    10030    2    1    2    0    0  0.00000000000E+00  0.00000000000E+00 -0.82604080620E+03  0.40159326931E+04  0.39300600482E+04 0.  0.
        1    1    3    3  502    0  0.13666351141E+04 -0.11805333964E+04 -0.12045371346E+04  0.21707741347E+04  0.50400001928E-02 0. -1.
       -1    1    3    3    0  502 -0.13666351141E+04  0.11805333964E+04  0.37849632840E+03  0.18451585584E+04  0.50400001928E-02 0.  1.
</event>
<event>
 5   0  0.1035864E-06  0.2377065E+04  0.7818609E-02  0.8448140E-01
       -2   -1    0    0    0  501  0.00000000000E+00  0.00000000000E+00  0.13280945671E+04  0.13280945671E+04  0.25500000920E-02 0. -1.
        2   -1    0    0  501    0  0.00000000000E+00  0.00000000000E+00 -0.10636366719E+04  0.10636366719E+04  0.25500000920E-02 0.  1.
    10030    2    1    2    0    0  0.00000000000E+00  0.00000000000E+00  0.26445789525E+03  0.23917312390E+04  0.23770654894E+04 0.  0.
        5    1    3    3  502    0  0.78475240882E+03  0.24585694395E+03 -0.73114790968E+03  0.11004005343E+04  0.46999998093E+01 0.  1.
       -5    1    3    3    0  502 -0.78475240882E+03 -0.24585694395E+03  0.99560580493E+03  0.12913307047E+04  0.46999998093E+01 0. -1.
</event>
<event>
 5   0  0.7268013E-07  0.2907155E+04  0.7818609E-02  0.8270752E-01
        2   -1    0    0  501    0  0.00000000000E+00  0.00000000000E+00  0.11363179893E+04  0.11363179893E+04  0.25500000920E-02 0. -1.
       -2   -1    0    0    0  501  0.00000000000E+00  0.00000000000E+00 -0.18594151239E+04  0.18594151239E+04  0.25500000920E-02 0.  1.
    10030    2    1    2    0    0  0.00000000000E+00  0.00000000000E+00 -0.72309713456E+03  0.29957331132E+04  0.29071545229E+04 0.  0.
        4    1    3    3  502    0 -0.26161802754E+02 -0.11506411184E+04  0.55332342381E+03  0.12770387024E+04  0.12699999809E+01 0. -1.
       -4    1    3    3    0  502  0.26161802754E+02  0.11506411184E+04 -0.12764205584E+04  0.17186944109E+04  0.12699999809E+01 0.  1.
</event>
<event>
 5   0  0.3977376E-07  0.3269451E+04  0.7818609E-02  0.8170712E-01
       -1   -1    0    0    0  501  0.00000000000E+00  0.00000000000E+00  0.11594096430E+04  0.11594096430E+04  0.50400001928E-02 0.  1.
        1   -1    0    0  501    0  0.00000000000E+00  0.00000000000E+00 -0.23049036748E+04  0.23049036748E+04  0.50400001928E-02 0. -1.
    10030    2    1    2    0    0  0.00000000000E+00  0.00000000000E+00 -0.11454940318E+04  0.34643133178E+04  0.32694510529E+04 0.  0.
        4    1    3    3  502    0 -0.11147905527E+04 -0.63631083650E+03 -0.16453418641E+04  0.20868159765E+04  0.12699999809E+01 0. -1.
       -4    1    3    3    0  502  0.11147905527E+04  0.63631083650E+03  0.49984783232E+03  0.13774973414E+04  0.12699999809E+01 0.  1.
</event>
<event>
 5   0  0.7268013E-07  0.3837251E+04  0.7818609E-02  0.8038208E-01
       -2   -1    0    0    0  501  0.00000000000E+00  0.00000000000E+00  0.19065066610E+04  0.19065066610E+04  0.25500000920E-02 0. -1.
        2   -1    0    0  501    0  0.00000000000E+00  0.00000000000E+00 -0.19308217719E+04  0.19308217719E+04  0.25500000920E-02 0.  1.
    10030    2    1    2    0    0  0.00000000000E+00  0.00000000000E+00 -0.24315110906E+02  0.38373284330E+04  0.38372513962E+04 0.  0.
        4    1    3    3  502    0  0.13487182825E+04  0.19350488432E+03  0.13386611127E+04  0.19101047965E+04  0.12699999809E+01 0. -1.
       -4    1    3    3    0  502 -0.13487182825E+04 -0.19350488432E+03 -0.13629762236E+04  0.19272236365E+04  0.12699999809E+01 0.  1.
</event>
<event>
 5   0  0.7268013E-07  0.2897621E+04  0.7818609E-02  0.8273586E-01
       -2   -1    0    0    0  501  0.00000000000E+00  0.00000000000E+00  0.95272789235E+03  0.95272789236E+03  0.25500000920E-02 0. -1.
        2   -1    0    0  501    0  0.00000000000E+00  0.00000000000E+00 -0.22032014213E+04  0.22032014213E+04  0.25500000920E-02 0.  1.
    10030    2    1    2    0    0  0.00000000000E+00  0.00000000000E+00 -0.12504735289E+04  0.31559293136E+04  0.28976207112E+04 0.  0.
        4    1    3    3  502    0 -0.52294163022E+03  0.12530668615E+04 -0.11756650008E+04  0.17960607771E+04  0.12699999809E+01 0.  1.
       -4    1    3    3    0  502  0.52294163022E+03 -0.12530668615E+04 -0.74808528083E+02  0.13598685365E+04  0.12699999809E+01 0. -1.
</event>
<event>
 5   0  0.1034683E-06  0.4096848E+04  0.7818609E-02  0.7985289E-01
        2   -1    0    0  501    0  0.00000000000E+00  0.00000000000E+00  0.27380186148E+04  0.27380186148E+04  0.25500000920E-02 0. -1.
       -2   -1    0    0    0  501  0.00000000000E+00  0.00000000000E+00 -0.15325097982E+04  0.15325097982E+04  0.25500000920E-02 0.  1.
    10030    2    1    2    0    0  0.00000000000E+00  0.00000000000E+00  0.12055088165E+04  0.42705284130E+04  0.40968477418E+04 0.  0.
        2    1    3    3  502    0 -0.77471650757E+03 -0.13564645605E+04 -0.77850916710E+03  0.17453533437E+04  0.25500000920E-02 0.  1.
       -2    1    3    3    0  502  0.77471650757E+03  0.13564645605E+04  0.19840179836E+04  0.25251750693E+04  0.25500000920E-02 0. -1.
</event>
<event>
 5   0  0.5385714E-07  0.3886260E+04  0.7818609E-02  0.8027893E-01
        1   -1    0    0  501    0  0.00000000000E+00  0.00000000000E+00  0.18513522548E+04  0.18513522548E+04  0.50400001928E-02 0. -1.
       -1   -1    0    0    0  501  0.00000000000E+00  0.00000000000E+00 -0.20394577884E+04  0.20394577884E+04  0.50400001928E-02 0.  1.
    10030    2    1    2    0    0  0.00000000000E+00  0.00000000000E+00 -0.18810553362E+03  0.38908100433E+04  0.38862602976E+04 0.  0.
        3    1    3    3  502    0  0.32822732769E+03  0.28451800931E+03  0.18021210014E+04  0.18537323945E+04  0.10100000352E+00 0. -1.
       -3    1    3    3    0  502 -0.32822732769E+03 -0.28451800931E+03 -0.19902265351E+04  0.20370776488E+04  0.10100000352E+00 0.  1.
</event>
<event>
 5   0  0.3977376E-07  0.3932938E+04  0.7818609E-02  0.8018213E-01
       -1   -1    0    0    0  501  0.00000000000E+00  0.00000000000E+00  0.19804984438E+04  0.19804984438E+04  0.50400001928E-02 0.  1.
        1   -1    0    0  501    0  0.00000000000E+00  0.00000000000E+00 -0.19525393818E+04  0.19525393818E+04  0.50400001928E-02 0. -1.
    10030    2    1    2    0    0  0.00000000000E+00  0.00000000000E+00  0.27959062033E+02  0.39330378256E+04  0.39329384470E+04 0.  0.
        4    1    3    3  502    0 -0.11040267795E+04 -0.29384196599E+03 -0.15866174915E+04  0.19551406364E+04  0.12699999809E+01 0. -1.
       -4    1    3    3    0  502  0.11040267795E+04  0.29384196599E+03  0.16145765535E+04  0.19778971892E+04  0.12699999809E+01 0.  1.
</event>
<event>
 5   0  0.1035864E-06  0.3943938E+04  0.7818609E-02  0.8015952E-01
        2   -1    0    0  501    0  0.00000000000E+00  0.00000000000E+00  0.12401597643E+04  0.12401597643E+04  0.25500000920E-02 0.  1.
       -2   -1    0    0    0  501  0.00000000000E+00  0.00000000000E+00 -0.31356137138E+04  0.31356137138E+04  0.25500000920E-02 0. -1.
    10030    2    1    2    0    0  0.00000000000E+00  0.00000000000E+00 -0.18954539495E+04  0.43757734781E+04  0.39439381153E+04 0.  0.
        5    1    3    3  502    0  0.48021974062E+03 -0.15741984946E+04 -0.21529085645E+04  0.27099352902E+04  0.46999998093E+01 0. -1.
       -5    1    3    3    0  502 -0.48021974062E+03  0.15741984946E+04  0.25745461508E+03  0.16658381880E+04  0.46999998093E+01 0.  1.
</event>
<event>
 5   0  0.1034683E-06  0.1926767E+04  0.7818609E-02  0.8641646E-01
        2   -1    0    0  501    0  0.00000000000E+00  0.00000000000E+00  0.15280136447E+04  0.15280136447E+04  0.25500000920E-02 0. -1.
       -2   -1    0    0    0  501  0.00000000000E+00  0.00000000000E+00 -0.60739496704E+03  0.60739496704E+03  0.25500000920E-02 0.  1.
    10030    2    1    2    0    0  0.00000000000E+00  0.00000000000E+00  0.92061867768E+03  0.21354086118E+04  0.19267670304E+04 0.  0.
        2    1    3    3  502    0 -0.52399397419E+03  0.33481975073E+02 -0.43487905137E+03  0.68177013500E+03  0.25500000920E-02 0.  1.
       -2    1    3    3    0  502  0.52399397419E+03 -0.33481975073E+02  0.13554977290E+04  0.14536384768E+04  0.25500000920E-02 0. -1.
</event>
<event>
 5   0  0.1015219E-06  0.2814094E+04  0.7818609E-02  0.8298906E-01
       -2   -1    0    0    0  501  0.00000000000E+00  0.00000000000E+00  0.99707121136E+03  0.99707121136E+03  0.25500000920E-02 0. -1.
        2   -1    0    0  501    0  0.00000000000E+00  0.00000000000E+00 -0.19855967624E+04  0.19855967624E+04  0.25500000920E-02 0.  1.
    10030    2    1    2    0    0  0.00000000000E+00  0.00000000000E+00 -0.98852555103E+03  0.29826679737E+04  0.28140940774E+04 0.  0.
        3    1    3    3  502    0  0.26395948560E+03  0.13351609609E+04 -0.11587285969E+03  0.13659267664E+04  0.10100000352E+00 0. -1.
       -3    1    3    3    0  502 -0.26395948560E+03 -0.13351609609E+04 -0.87265269134E+03  0.16167412073E+04  0.10100000352E+00 0.  1.
</event>
<event>
 5   0  0.4627905E-07  0.3277997E+04  0.7818609E-02  0.8168517E-01
        1   -1    0    0  501    0  0.00000000000E+00  0.00000000000E+00  0.13906633027E+04  0.13906633027E+04  0.50400001928E-02 0. -1.
       -1   -1    0    0    0  501  0.00000000000E+00  0.00000000000E+00 -0.19316798111E+04  0.19316798111E+04  0.50400001928E-02 0.  1.
    10030    2    1    2    0    0  0.00000000000E+00  0.00000000000E+00 -0.54101650837E+03  0.33223431138E+04  0.32779970872E+04 0.  0.
        1    1    3    3  502    0 -0.71415652053E+03 -0.12206122183E+04 -0.11102105641E+04  0.17979102369E+04  0.50400001928E-02 0.  1.
       -1    1    3    3    0  502  0.71415652053E+03  0.12206122183E+04  0.56919405573E+03  0.15244328769E+04  0.50400001928E-02 0. -1.
</event>
<event>
 5   0  0.7268013E-07  0.3621840E+04  0.7818609E-02  0.8085507E-01
       -2   -1    0    0    0  501  0.00000000000E+00  0.00000000000E+00  0.13750110571E+04  0.13750110571E+04  0.25500000920E-02 0. -1.
        2   -1    0    0  501    0  0.00000000000E+00  0.00000000000E+00 -0.23850211110E+04  0.23850211110E+04  0.25500000920E-02 0.  1.
    10030    2    1    2    0    0  0.00000000000E+00  0.00000000000E+00 -0.10100100539E+04  0.37600321681E+04  0.36218395321E+04 0.  0.
        4    1    3    3  502    0 -0.24551095834E+03 -0.10739911616E+04 -0.19970969339E+04  0.22808179283E+04  0.12699999809E+01 0.  1.
       -4    1    3    3    0  502  0.24551095834E+03  0.10739911616E+04  0.98708687997E+03  0.14792142398E+04  0.12699999809E+01 0. -1.
</event>
<event>
 5   0  0.3977376E-07  0.2563620E+04  0.7818609E-02  0.8380665E-01
        1   -1    0    0  501    0  0.00000000000E+00  0.00000000000E+00  0.15095085507E+04  0.15095085507E+04  0.50400001928E-02 0. -1.
       -1   -1    0    0    0  501  0.00000000000E+00  0.00000000000E+00 -0.10884578538E+04  0.10884578539E+04  0.50400001928E-02 0.  1.
    10030    2    1    2    0    0  0.00000000000E+00  0.00000000000E+00  0.42105069684E+03  0.25979664045E+04  0.25636196578E+04 0.  0.
        4    1    3    3  502    0 -0.75562798525E+03  0.85066828182E+03  0.80870876902E+03  0.13959303936E+04  0.12699999809E+01 0. -1.
       -4    1    3    3    0  502  0.75562798525E+03 -0.85066828182E+03 -0.38765807218E+03  0.12020360109E+04  0.12699999809E+01 0.  1.
</event>
<event>
 5   0  0.1015219E-06  0.2603859E+04  0.7818609E-02  0.8366892E-01
        2   -1    0    0  501    0  0.00000000000E+00  0.00000000000E+00  0.25358186115E+04  0.25358186115E+04  0.25500000920E-02 0.  1.
       -2   -1    0    0    0  501  0.00000000000E+00  0.00000000000E+00 -0.66843123419E+03  0.66843123419E+03  0.25500000920E-02 0. -1.
    10030    2    1    2    0    0  0.00000000000E+00  0.00000000000E+00  0.18673873773E+04  0.32042498457E+04  0.26038589548E+04 0.  0.
        3    1    3    3  502    0  0.87786170712E+03 -0.16548638132E+03  0.20991702621E+04  0.22813466898E+04  0.10100000352E+00 0.  1.
       -3    1    3    3    0  502 -0.87786170712E+03  0.16548638132E+03 -0.23178288487E+03  0.92290315589E+03  0.10100000352E+00 0. -1.
</event>
<event>
 5   0  0.7268013E-07  0.4756070E+04  0.7818609E-02  0.7867278E-01
       -2   -1    0    0    0  501  0.00000000000E+00  0.00000000000E+00  0.23705415539E+04  0.23705415539E+04  0.25500000920E-02 0. -1.
        2   -1    0    0  501    0  0.00000000000E+00  0.00000000000E+00 -0.23855525550E+04  0.23855525550E+04  0.25500000920E-02 0.  1.
    10030    2    1    2    0    0  0.00000000000E+00  0.00000000000E+00 -0.15011001104E+02  0.47560941090E+04  0.47560704204E+04 0.  0.
        4    1    3    3  502    0  0.13453306050E+04 -0.11863569765E+04 -0.15688244361E+04  0.23829748292E+04  0.12699999809E+01 0.  1.
       -4    1    3    3    0  502 -0.13453306050E+04  0.11863569765E+04  0.15538134350E+04  0.23731192798E+04  0.12699999809E+01 0. -1.
</event>
<event>
 5   0  0.1015219E-06  0.1947125E+04  0.7818609E-02  0.8631748E-01
        2   -1    0    0  501    0  0.00000000000E+00  0.00000000000E+00  0.25875812459E+04  0.25875812459E+04  0.25500000920E-02 0.  1.
       -2   -1    0    0    0  501  0.00000000000E+00  0.00000000000E+00 -0.36629724060E+03  0.36629724061E+03  0.25500000920E-02 0. -1.
    10030    2    1    2    0    0  0.00000000000E+00  0.00000000000E+00  0.22212840053E+04  0.29538784865E+04  0.19471249269E+04 0.  0.
        3    1    3    3  502    0  0.57313506202E+03  0.23624776064E+03  0.22494649127E+04  0.23333214968E+04  0.10100000352E+00 0.  1.
       -3    1    3    3    0  502 -0.57313506202E+03 -0.23624776064E+03 -0.28180907411E+02  0.62055698970E+03  0.10100000352E+00 0. -1.
</event>
<event>
 5   0  0.1015219E-06  0.3977387E+04  0.7818609E-02  0.8009124E-01
        2   -1    0    0  501    0  0.00000000000E+00  0.00000000000E+00  0.24813033221E+04  0.24813033221E+04  0.25500000920E-02 0.  1.
       -2   -1    0    0    0  501  0.00000000000E+00  0.00000000000E+00 -0.15938805506E+04  0.15938805506E+04  0.25500000920E-02 0. -1.
    10030    2    1    2    0    0  0.00000000000E+00  0.00000000000E+00  0.88742277150E+03  0.40751838727E+04  0.39773866321E+04 0.  0.
        3    1    3    3  502    0 -0.12592176770E+04  0.49833206033E+03  0.19358641682E+04  0.23625270556E+04  0.10100000352E+00 0.  1.
       -3    1    3    3    0  502  0.12592176770E+04 -0.49833206033E+03 -0.10484413967E+04  0.17126568171E+04  0.10100000352E+00 0. -1.
</event>
<event>
 5   0  0.1035864E-06  0.3646465E+04  0.7818609E-02  0.8079931E-01
       -2   -1    0    0    0  501  0.00000000000E+00  0.00000000000E+00  0.18149813237E+04  0.18149813237E+04  0.25500000920E-02 0. -1.
        2   -1    0    0  501    0  0.00000000000E+00  0.00000000000E+00 -0.18315208128E+04  0.18315208128E+04  0.25500000920E-02 0.  1.
    10030    2    1    2    0    0  0.00000000000E+00  0.00000000000E+00 -0.16539489143E+02  0.36465021366E+04  0.36464646272E+04 0.  0.
        5    1    3    3  502    0 -0.95325059869E+03 -0.13668375025E+04 -0.74802225398E+03  0.18266063738E+04  0.46999998093E+01 0.  1.
       -5    1    3    3    0  502  0.95325059869E+03  0.13668375025E+04  0.73148276484E+03  0.18198957628E+04  0.46999998093E+01 0. -1.
</event>
<event>
 5   0  0.5533705E-07  0.3903886E+04  0.7818609E-02  0.8024221E-01
       -2   -1    0    0    0  501  0.00000000000E+00  0.00000000000E+00  0.15437913365E+04  0.15437913365E+04  0.25500000920E-02 0. -1.
        2   -1    0    0  501    0  0.00000000000E+00  0.00000000000E+00 -0.24680032648E+04  0.24680032648E+04  0.25500000920E-02 0.  1.
    10030    2    1    2    0    0  0.00000000000E+00  0.00000000000E+00 -0.92421192832E+03  0.40117946014E+04  0.39038862989E+04 0.  0.
        1    1    3    3  502    0 -0.95199259747E+03  0.16969043497E+04 -0.62232502711E+03  0.20428075575E+04  0.50400001928E-02 0.  1.
       -1    1    3    3    0  502  0.95199259747E+03 -0.16969043497E+04 -0.30188690122E+03  0.19689870438E+04  0.50400001928E-02 0. -1.
</event>
<event>
 5   0  0.1035864E-06  0.3800108E+04  0.7818609E-02  0.8046132E-01
        2   -1    0    0  501    0  0.00000000000E+00  0.00000000000E+00  0.22925341644E+04  0.22925341644E+04  0.25500000920E-02 0.  1.
       -2   -1    0    0    0  501  0.00000000000E+00  0.00000000000E+00 -0.15747662419E+04  0.15747662419E+04  0.25500000920E-02 0. -1.
    10030    2    1    2    0    0  0.00000000000E+00  0.00000000000E+00  0.71776792256E+03  0.38673004063E+04  0.38001081093E+04 0.  0.
        5    1    3    3  502    0 -0.77737845594E+03  0.16334755186E+04 -0.23244408136E+03  0.18239001822E+04  0.46999998093E+01 0.  1.
       -5    1    3    3    0  502  0.77737845594E+03 -0.16334755186E+04  0.95021200392E+03  0.20434002241E+04  0.46999998093E+01 0. -1.
</event>
<event>
 5   0  0.7268013E-07  0.2730394E+04  0.7818609E-02  0.8325210E-01
        2   -1    0    0  501    0  0.00000000000E+00  0.00000000000E+00  0.17627806970E+04  0.17627806970E+04  0.25500000920E-02 0.  1.
       -2   -1    0    0    0  501  0.00000000000E+00  0.00000000000E+00 -0.10572859599E+04  0.10572859599E+04  0.25500000920E-02 0. -1.
    10030    2    1    2    0    0  0.00000000000E+00  0.00000000000E+00  0.70549473712E+03  0.28200666569E+04  0.27303943168E+04 0.  0.
        4    1    3    3  502    0  0.96948126637E+03 -0.16448325146E+03 -0.62535644131E+03  0.11653415626E+04  0.12699999809E+01 0. -1.
       -4    1    3    3    0  502 -0.96948126637E+03  0.16448325146E+03  0.13308511784E+04  0.16547250944E+04  0.12699999809E+01 0.  1.
</event>
<event>
 5   0  0.5385714E-07  0.2231629E+04  0.7818609E-02  0.8505377E-01
        1   -1    0    0  501    0  0.00000000000E+00  0.00000000000E+00  0.11687620591E+04  0.11687620591E+04  0.50400001928E-02 0.  1.
       -1   -1    0    0    0  501  0.00000000000E+00  0.00000000000E+00 -0.10652660062E+04  0.10652660062E+04  0.50400001928E-02 0. -1.
    10030    2    1    2    0    0  0.00000000000E+00  0.00000000000E+00  0.10349605291E+03  0.22340280653E+04  0.22316294414E+04 0.  0.
        3    1    3    3  502    0 -0.78549812115E+03 -0.65696439511E+03  0.49543198747E+03  0.11375686261E+04  0.10100000352E+00 0.  1.
       -3    1    3    3    0  502  0.78549812115E+03  0.65696439511E+03 -0.39193593457E+03  0.10964594392E+04  0.10100000352E+00 0. -1.
</event>
<event>
 5   0  0.5533705E-07  0.2526380E+04  0.7818609E-02  0.8393647E-01
       -2   -1    0    0    0  501  0.00000000000E+00  0.00000000000E+00  0.11774738849E+04  0.11774738849E+04  0.25500000920E-02 0. -1.
        2   -1    0    0  501    0  0.00000000000E+00  0.00000000000E+00 -0.13551457755E+04  0.13551457755E+04  0.25500000920E-02 0.  1.
    10030    2    1    2    0    0  0.00000000000E+00  0.00000000000E+00 -0.17767189058E+03  0.25326196605E+04  0.25263798297E+04 0.  0.
        1    1    3    3  502    0 -0.12389050799E+04  0.10542408771E+03 -0.31220622152E+03  0.12819800155E+04  0.50400001928E-02 0. -1.
       -1    1    3    3    0  502  0.12389050799E+04 -0.10542408771E+03  0.13453433094E+03  0.12506396450E+04  0.50400001928E-02 0.  1.
</event>
<event>
 5   0  0.4316671E-07  0.3821635E+04  0.7818609E-02  0.8041528E-01
        1   -1    0    0  501    0  0.00000000000E+00  0.00000000000E+00  0.15157696417E+04  0.15157696417E+04  0.50400001928E-02 0.  1.
       -1   -1    0    0    0  501  0.00000000000E+00  0.00000000000E+00 -0.24088246926E+04  0.24088246926E+04  0.50400001928E-02 0. -1.
    10030    2    1    2    0    0  0.00000000000E+00  0.00000000000E+00 -0.89305505093E+03  0.39245943343E+04  0.38216349073E+04 0.  0.
        2    1    3    3  502    0  0.11239675082E+04  0.15302540965E+04 -0.66736234627E+03  0.20125488964E+04  0.25500000920E-02 0. -1.
       -2    1    3    3    0  502 -0.11239675082E+04 -0.15302540965E+04 -0.22569270466E+03  0.19120454378E+04  0.25500000920E-02 0.  1.
</event>
<event>
 5   0  0.5533705E-07  0.2303550E+04  0.7818609E-02  0.8476523E-01
       -2   -1    0    0    0  501  0.00000000000E+00  0.00000000000E+00  0.94892644221E+03  0.94892644222E+03  0.25500000920E-02 0. -1.
        2   -1    0    0  501    0  0.00000000000E+00  0.00000000000E+00 -0.13979853691E+04  0.13979853691E+04  0.25500000920E-02 0.  1.
    10030    2    1    2    0    0  0.00000000000E+00  0.00000000000E+00 -0.44905892690E+03  0.23469118113E+04  0.23035496805E+04 0.  0.
        1    1    3    3  502    0  0.64495971402E+03  0.48857283998E+03 -0.10596599958E+04  0.13332500738E+04  0.50400001928E-02 0.  1.
       -1    1    3    3    0  502 -0.64495971402E+03 -0.48857283998E+03  0.61060106891E+03  0.10136617375E+04  0.50400001928E-02 0. -1.
</event>
<event>
 5   0  0.3471602E-07  0.3626380E+04  0.7818609E-02  0.8084476E-01
       -1   -1    0    0    0  501  0.00000000000E+00  0.00000000000E+00  0.13771503113E+04  0.13771503113E+04  0.50400001928E-02 0.  1.
        1   -1    0    0  501    0  0.00000000000E+00  0.00000000000E+00 -0.23872911436E+04  0.23872911436E+04  0.50400001928E-02 0. -1.
    10030    2    1    2    0    0  0.00000000000E+00  0.00000000000E+00 -0.10101408323E+04  0.37644414549E+04  0.36263804222E+04 0.  0.
        5    1    3    3  502    0 -0.10800604133E+03  0.12872118726E+04  0.81579402102E+03  0.15277832584E+04  0.46999998093E+01 0.  1.
       -5    1    3    3    0  502  0.10800604133E+03 -0.12872118726E+04 -0.18259348533E+04  0.22366581966E+04  0.46999998093E+01 0. -1.
</event>
<event>
 5   0  0.4316671E-07  0.2402555E+04  0.7818609E-02  0.8438548E-01
       -1   -1    0    0    0  501  0.00000000000E+00  0.00000000000E+00  0.90578608450E+03  0.90578608451E+03  0.50400001928E-02 0.  1.
        1   -1    0    0  501    0  0.00000000000E+00  0.00000000000E+00 -0.15931662200E+04  0.15931662200E+04  0.50400001928E-02 0. -1.
    10030    2    1    2    0    0  0.00000000000E+00  0.00000000000E+00 -0.68738013553E+03  0.24989523045E+04  0.24025551335E+04 0.  0.
        2    1    3    3  502    0  0.10964543609E+03  0.93915308906E+03 -0.11143902626E+04  0.14614705963E+04  0.25500000920E-02 0. -1.
       -2    1    3    3    0  502 -0.10964543609E+03 -0.93915308906E+03  0.42701012709E+03  0.10374817083E+04  0.25500000920E-02 0.  1.
</event>
<event>
 5   0  0.5533705E-07  0.3638503E+04  0.7818609E-02  0.8081729E-01
        2   -1    0    0  501    0  0.00000000000E+00  0.00000000000E+00  0.12859471628E+04  0.12859471628E+04  0.25500000920E-02 0. -1.
       -2   -1    0    0    0  501  0.00000000000E+00  0.00000000000E+00 -0.25737258871E+04  0.25737258871E+04  0.25500000920E-02 0.  1.
    10030    2    1    2    0    0  0.00000000000E+00  0.00000000000E+00 -0.12877787242E+04  0.38596730499E+04  0.36385027153E+04 0.  0.
        1    1    3    3  502    0  0.14397636762E+04 -0.80357432742E+03  0.17162291691E+03  0.16577411043E+04  0.50400001928E-02 0. -1.
       -1    1    3    3    0  502 -0.14397636762E+04  0.80357432742E+03 -0.14594016411E+04  0.22019319456E+04  0.50400001928E-02 0.  1.
</event>
<event>
 5   0  0.3191750E-07  0.3752437E+04  0.7818609E-02  0.8056439E-01
        3   -1    0    0  501    0  0.00000000000E+00  0.00000000000E+00  0.27198997796E+04  0.27198997814E+04  0.10100000352E+00 0. -1.
       -3   -1    0    0    0  501  0.00000000000E+00  0.00000000000E+00 -0.12942376503E+04  0.12942376542E+04  0.10100000352E+00 0.  1.
    10030    2    1    2    0    0  0.00000000000E+00  0.00000000000E+00  0.14256621293E+04  0.40141374356E+04  0.37524374539E+04 0.  0.
        2    1    3    3  502    0 -0.25183489147E+03 -0.18288481616E+04  0.10709792811E+04  0.21342687345E+04  0.25500000920E-02 0. -1.
       -2    1    3    3    0  502  0.25183489147E+03  0.18288481616E+04  0.35468284816E+03  0.18798687011E+04  0.25500000920E-02 0.  1.
</event>
<event>
 5   0  0.5385714E-07  0.3825693E+04  0.7818609E-02  0.8040664E-01
       -1   -1    0    0    0  501  0.00000000000E+00  0.00000000000E+00  0.35501331738E+04  0.35501331738E+04  0.50400001928E-02 0.  1.
        1   -1    0    0  501    0  0.00000000000E+00  0.00000000000E+00 -0.10306606261E+04  0.10306606261E+04  0.50400001928E-02 0. -1.
    10030    2    1    2    0    0  0.00000000000E+00  0.00000000000E+00  0.25194725477E+04  0.45807937999E+04  0.38256933905E+04 0.  0.
        3    1    3    3  502    0 -0.22637296405E+03  0.10875087737E+04 -0.60489104499E+03  0.12648372379E+04  0.10100000352E+00 0.  1.
       -3    1    3    3    0  502  0.22637296405E+03 -0.10875087737E+04  0.31243635927E+04  0.33159565620E+04  0.10100000352E+00 0. -1.
</event>
<event>
 5   0  0.1035864E-06  0.4965411E+04  0.7818609E-02  0.7833865E-01
        2   -1    0    0  501    0  0.00000000000E+00  0.00000000000E+00  0.18425366735E+04  0.18425366735E+04  0.25500000920E-02 0.  1.
       -2   -1    0    0    0  501  0.00000000000E+00  0.00000000000E+00 -0.33452943985E+04  0.33452943985E+04  0.25500000920E-02 0. -1.
    10030    2    1    2    0    0  0.00000000000E+00  0.00000000000E+00 -0.15027577250E+04  0.51878310720E+04  0.49654114081E+04 0.  0.
        5    1    3    3  502    0  0.36150249316E+03  0.16966299495E+04  0.11042903169E+04  0.20563843104E+04  0.46999998093E+01 0.  1.
       -5    1    3    3    0  502 -0.36150249316E+03 -0.16966299495E+04 -0.26070480419E+04  0.31314467616E+04  0.46999998093E+01 0. -1.
</event>
<event>
 5   0  0.1034683E-06  0.3871061E+04  0.7818609E-02  0.8031075E-01
        2   -1    0    0  501    0  0.00000000000E+00  0.00000000000E+00  0.18202242440E+04  0.18202242440E+04  0.25500000920E-02 0. -1.
       -2   -1    0    0    0  501  0.00000000000E+00  0.00000000000E+00 -0.20581411682E+04  0.20581411682E+04  0.25500000920E-02 0.  1.
    10030    2    1    2    0    0  0.00000000000E+00  0.00000000000E+00 -0.23791692415E+03  0.38783654122E+04  0.38710610700E+04 0.  0.
        2    1    3    3  502    0  0.56674352321E+03 -0.18458872868E+04  0.14636141678E+02  0.19309873934E+04  0.25500000920E-02 0. -1.
       -2    1    3    3    0  502 -0.56674352321E+03  0.18458872868E+04 -0.25255306583E+03  0.19473780188E+04  0.25500000920E-02 0.  1.
</event>
<event>
 5   0  0.4316671E-07  0.3957906E+04  0.7818609E-02  0.8013092E-01
       -1   -1    0    0    0  501  0.00000000000E+00  0.00000000000E+00  0.18993633704E+04  0.18993633704E+04  0.50400001928E-02 0. -1.
        1   -1    0    0  501    0  0.00000000000E+00  0.00000000000E+00 -0.20618781462E+04  0.20618781462E+04  0.50400001928E-02 0.  1.
    10030    2    1    2    0    0  0.00000000000E+00  0.00000000000E+00 -0.16251477575E+03  0.39612415166E+04  0.39579064290E+04 0.  0.
        2    1    3    3  502    0 -0.15427963443E+04  0.34362937895E+03  0.11105247943E+04  0.19317264374E+04  0.25500000920E-02 0. -1.
       -2    1    3    3    0  502  0.15427963443E+04 -0.34362937895E+03 -0.12730395701E+04  0.20295150793E+04  0.25500000920E-02 0.  1.
</event>
<event>
 5   0  0.1035864E-06  0.2508628E+04  0.7818609E-02  0.8399918E-01
       -2   -1    0    0    0  501  0.00000000000E+00  0.00000000000E+00  0.15500401988E+04  0.15500401988E+04  0.25500000920E-02 0. -1.
        2   -1    0    0  501    0  0.00000000000E+00  0.00000000000E+00 -0.10150081316E+04  0.10150081316E+04  0.25500000920E-02 0.  1.
    10030    2    1    2    0    0  0.00000000000E+00  0.00000000000E+00  0.53503206727E+03  0.25650483304E+04  0.25086278370E+04 0.  0.
        5    1    3    3  502    0 -0.40062344707E+03 -0.41979348295E+03 -0.86949882439E+03  0.10453592733E+04  0.46999998093E+01 0.  1.
       -5    1    3    3    0  502  0.40062344707E+03  0.41979348295E+03  0.14045308917E+04  0.15196890571E+04  0.46999998093E+01 0. -1.
</event>
<event>
 5   0  0.5385714E-07  0.3574311E+04  0.7818609E-02  0.8096402E-01
        1   -1    0    0  501    0  0.00000000000E+00  0.00000000000E+00  0.19946765182E+04  0.19946765182E+04  0.50400001928E-02 0.  1.
       -1   -1    0    0    0  501  0.00000000000E+00  0.00000000000E+00 -0.16012242987E+04  0.16012242987E+04  0.50400001928E-02 0. -1.
    10030    2    1    2    0    0  0.00000000000E+00  0.00000000000E+00  0.39345221949E+03  0.35959008169E+04  0.35743108477E+04 0.  0.
        3    1    3    3  502    0  0.61707493140E+03 -0.37840800959E+03  0.18405942650E+04  0.19778173200E+04  0.10100000352E+00 0.  1.
       -3    1    3    3    0  502 -0.61707493140E+03  0.37840800959E+03 -0.14471420455E+04  0.16180834969E+04  0.10100000352E+00 0. -1.
</event>
<event>
 5   0  0.5533705E-07  0.3776954E+04  0.7818609E-02  0.8051119E-01
        2   -1    0    0  501    0  0.00000000000E+00  0.00000000000E+00  0.32557441355E+04  0.32557441355E+04  0.25500000920E-02 0.  1.
       -2   -1    0    0    0  501  0.00000000000E+00  0.00000000000E+00 -0.10954011922E+04  0.10954011922E+04  0.25500000920E-02 0. -1.
    10030    2    1    2    0    0  0.00000000000E+00  0.00000000000E+00  0.21603429433E+04  0.43511453277E+04  0.37769543325E+04 0.  0.
        1    1    3    3  502    0  0.18556425635E+04  0.26453481080E+03  0.81506049083E+03  0.20439451052E+04  0.50400001928E-02 0.  1.
       -1    1    3    3    0  502 -0.18556425635E+04 -0.26453481080E+03  0.13452824525E+04  0.23072002224E+04  0.50400001928E-02 0. -1.
</event>
<event>
 5   0  0.7268013E-07  0.3878375E+04  0.7818609E-02  0.8029542E-01
       -2   -1    0    0    0  501  0.00000000000E+00  0.00000000000E+00  0.21447575874E+04  0.21447575874E+04  0.25500000920E-02 0. -1.
        2   -1    0    0  501    0  0.00000000000E+00  0.00000000000E+00 -0.17533206081E+04  0.17533206081E+04  0.25500000920E-02 0.  1.
    10030    2    1    2    0    0  0.00000000000E+00  0.00000000000E+00  0.39143697937E+03  0.38980781955E+04  0.38783747511E+04 0.  0.
        4    1    3    3  502    0  0.10764839790E+04 -0.11652765835E+04  0.13166236222E+04  0.20615980813E+04  0.12699999809E+01 0. -1.
       -4    1    3    3    0  502 -0.10764839790E+04  0.11652765835E+04 -0.92518664286E+03  0.18364801143E+04  0.12699999809E+01 0.  1.
</event>
<event>
 5   0  0.4627905E-07  0.3876845E+04  0.7818609E-02  0.8029862E-01
        1   -1    0    0  501    0  0.00000000000E+00  0.00000000000E+00  0.18311405410E+04  0.18311405410E+04  0.50400001928E-02 0. -1.
       -1   -1    0    0    0  501  0.00000000000E+00  0.00000000000E+00 -0.20519897238E+04  0.20519897238E+04  0.50400001928E-02 0.  1.
    10030    2    1    2    0    0  0.00000000000E+00  0.00000000000E+00 -0.22084918279E+03  0.38831302648E+04  0.38768448888E+04 0.  0.
        1    1    3    3  502    0  0.10405363611E+04  0.24215802699E+03  0.15096417226E+04  0.18494254674E+04  0.50400001928E-02 0. -1.
       -1    1    3    3    0  502 -0.10405363611E+04 -0.24215802699E+03 -0.17304909054E+04  0.20337047973E+04  0.50400001928E-02 0.  1.
</event>
<event>
 5   0  0.7268013E-07  0.3862733E+04  0.7818609E-02  0.8032825E-01
       -2   -1    0    0    0  501  0.00000000000E+00  0.00000000000E+00  0.28303045283E+04  0.28303045283E+04  0.25500000920E-02 0.  1.
        2   -1    0    0  501    0  0.00000000000E+00  0.00000000000E+00 -0.13179419562E+04  0.13179419562E+04  0.25500000920E-02 0. -1.
    10030    2    1    2    0    0  0.00000000000E+00  0.00000000000E+00  0.15123625720E+04  0.41482464845E+04  0.38627332741E+04 0.  0.
        4    1    3    3  502    0 -0.30128439150E+03  0.12144800534E+04  0.23361291211E+04  0.26501386696E+04  0.12699999809E+01 0.  1.
       -4    1    3    3    0  502  0.30128439150E+03 -0.12144800534E+04 -0.82376654910E+03  0.14981078149E+04  0.12699999809E+01 0. -1.
</event>
<event>
 5   0  0.7268013E-07  0.3720695E+04  0.7818609E-02  0.8063391E-01
        2   -1    0    0  501    0  0.00000000000E+00  0.00000000000E+00  0.15382071529E+04  0.15382071529E+04  0.25500000920E-02 0. -1.
       -2   -1    0    0    0  501  0.00000000000E+00  0.00000000000E+00 -0.22499523594E+04  0.22499523594E+04  0.25500000920E-02 0.  1.
    10030    2    1    2    0    0  0.00000000000E+00  0.00000000000E+00 -0.71174520647E+03  0.37881595124E+04  0.37206949958E+04 0.  0.
        4    1    3    3  502    0 -0.60194428003E+03  0.12637714293E+04  0.89167638608E+03  0.16596817563E+04  0.12699999809E+01 0. -1.
       -4    1    3    3    0  502  0.60194428003E+03 -0.12637714293E+04 -0.16034215926E+04  0.21284777561E+04  0.12699999809E+01 0.  1.
</event>
<event>
 5   0  0.1015219E-06  0.2213530E+04  0.7818609E-02  0.8512818E-01
       -2   -1    0    0    0  501  0.00000000000E+00  0.00000000000E+00  0.83293355007E+03  0.83293355008E+03  0.25500000920E-02 0. -1.
        2   -1    0    0  501    0  0.00000000000E+00  0.00000000000E+00 -0.14706200745E+04  0.14706200745E+04  0.25500000920E-02 0.  1.
    10030    2    1    2    0    0  0.00000000000E+00  0.00000000000E+00 -0.63768652442E+03  0.23035536246E+04  0.22135300309E+04 0.  0.
        3    1    3    3  502    0 -0.91311547623E+03 -0.39958892797E+03  0.18184498632E+03  0.10131726376E+04  0.10100000352E+00 0. -1.
       -3    1    3    3    0  502  0.91311547623E+03  0.39958892797E+03 -0.81953151074E+03  0.12903809870E+04  0.10100000352E+00 0.  1.
</event>
<event>
 5   0  0.5533705E-07  0.3713202E+04  0.7818609E-02  0.8065042E-01
       -2   -1    0    0    0  501  0.00000000000E+00  0.00000000000E+00  0.33020648140E+04  0.33020648140E+04  0.25500000920E-02 0.  1.
        2   -1    0    0  501    0  0.00000000000E+00  0.00000000000E+00 -0.10438821478E+04  0.10438821478E+04  0.25500000920E-02 0. -1.
    10030    2    1    2    0    0  0.00000000000E+00  0.00000000000E+00  0.22581826661E+04  0.43459469618E+04  0.37132015890E+04 0.  0.
        1    1    3    3  502    0 -0.16265530960E+04 -0.47990095551E+03  0.20134915813E+04  0.26325136750E+04  0.50400001928E-02 0. -1.
       -1    1    3    3    0  502  0.16265530960E+04  0.47990095551E+03  0.24469108482E+03  0.17134332867E+04  0.50400001928E-02 0.  1.
</event>
<event>
 5   0  0.1015219E-06  0.3913035E+04  0.7818609E-02  0.8022324E-01
        2   -1    0    0  501    0  0.00000000000E+00  0.00000000000E+00  0.12395074878E+04  0.12395074878E+04  0.25500000920E-02 0. -1.
       -2   -1    0    0    0  501  0.00000000000E+00  0.00000000000E+00 -0.30882915268E+04  0.30882915268E+04  0.25500000920E-02 0.  1.
    10030    2    1    2    0    0  0.00000000000E+00  0.00000000000E+00 -0.18487840391E+04  0.43277990146E+04  0.39130348692E+04 0.  0.
        3    1    3    3  502    0 -0.75282862749E+03  0.16446545558E+03  0.10646051221E+04  0.13142236890E+04  0.10100000352E+00 0. -1.
       -3    1    3    3    0  502  0.75282862749E+03 -0.16446545558E+03 -0.29133891612E+04  0.30135753256E+04  0.10100000352E+00 0.  1.
</event>
<event>
 5   0  0.5533705E-07  0.3791049E+04  0.7818609E-02  0.8048078E-01
       -2   -1    0    0    0  501  0.00000000000E+00  0.00000000000E+00  0.19091032254E+04  0.19091032254E+04  0.25500000920E-02 0.  1.
        2   -1    0    0  501    0  0.00000000000E+00  0.00000000000E+00 -0.18820428295E+04  0.18820428295E+04  0.25500000920E-02 0. -1.
    10030    2    1    2    0    0  0.00000000000E+00  0.00000000000E+00  0.27060395977E+02  0.37911460549E+04  0.37910494780E+04 0.  0.
        1    1    3    3  502    0  0.27257050171E+03 -0.12366904297E+04 -0.13969369217E+04  0.18855054125E+04  0.50400001928E-02 0. -1.
       -1    1    3    3    0  502 -0.27257050171E+03  0.12366904297E+04  0.14239973177E+04  0.19056406424E+04  0.50400001928E-02 0.  1.
</event>
<event>
 5   0  0.4316671E-07  0.2131937E+04  0.7818609E-02  0.8547304E-01
       -1   -1    0    0    0  501  0.00000000000E+00  0.00000000000E+00  0.11245390109E+04  0.11245390109E+04  0.50400001928E-02 0.  1.
        1   -1    0    0  501    0  0.00000000000E+00  0.00000000000E+00 -0.10104490147E+04  0.10104490147E+04  0.50400001928E-02 0. -1.
    10030    2    1    2    0    0  0.00000000000E+00  0.00000000000E+00  0.11408999622E+03  0.21349880256E+04  0.21319374620E+04 0.  0.
        2    1    3    3  502    0 -0.45173438115E+03 -0.11974565587E+03 -0.90238974516E+03  0.10162235115E+04  0.25500000920E-02 0. -1.
       -2    1    3    3    0  502  0.45173438115E+03  0.11974565587E+03  0.10164797414E+04  0.11187645140E+04  0.25500000920E-02 0.  1.
</event>
<event>
 5   0  0.5385714E-07  0.2878685E+04  0.7818609E-02  0.8279248E-01
       -1   -1    0    0    0  501  0.00000000000E+00  0.00000000000E+00  0.84612717537E+03  0.84612717539E+03  0.50400001928E-02 0.  1.
        1   -1    0    0  501    0  0.00000000000E+00  0.00000000000E+00 -0.24484584798E+04  0.24484584798E+04  0.50400001928E-02 0. -1.
    10030    2    1    2    0    0  0.00000000000E+00  0.00000000000E+00 -0.16023313045E+04  0.32945856552E+04  0.28786852955E+04 0.  0.
        3    1    3    3  502    0 -0.69546994923E+03  0.71105413784E+03  0.38954622721E+03  0.10681866459E+04  0.10100000352E+00 0.  1.
       -3    1    3    3    0  502  0.69546994923E+03 -0.71105413784E+03 -0.19918775317E+04  0.22263990093E+04  0.10100000352E+00 0. -1.
</event>
<event>
 5   0  0.5533705E-07  0.3773248E+04  0.7818609E-02  0.8051920E-01
       -2   -1    0    0    0  501  0.00000000000E+00  0.00000000000E+00  0.17901986569E+04  0.17901986569E+04  0.25500000920E-02 0.  1.
        2   -1    0    0  501    0  0.00000000000E+00  0.00000000000E+00 -0.19882434820E+04  0.19882434820E+04  0.25500000920E-02 0. -1.
    10030    2    1    2    0    0  0.00000000000E+00  0.00000000000E+00 -0.19804482510E+03  0.37784421390E+04  0.37732483678E+04 0.  0.
        1    1    3    3  502    0  0.13905723908E+04  0.24381380296E+03 -0.13522297913E+04  0.19549071981E+04  0.50400001928E-02 0. -1.
       -1    1    3    3    0  502 -0.13905723908E+04 -0.24381380296E+03  0.11541849662E+04  0.18235349409E+04  0.50400001928E-02 0.  1.
</event>
<event>
 5   0  0.1035864E-06  0.2947019E+04  0.7818609E-02  0.8259024E-01
       -2   -1    0    0    0  501  0.00000000000E+00  0.00000000000E+00  0.13412236238E+04  0.13412236238E+04  0.25500000920E-02 0.  1.
        2   -1    0    0  501    0  0.00000000000E+00  0.00000000000E+00 -0.16188423178E+04  0.16188423178E+04  0.25500000920E-02 0. -1.
    10030    2    1    2    0    0  0.00000000000E+00  0.00000000000E+00 -0.27761869408E+03  0.29600659416E+04  0.29470185339E+04 0.  0.
        5    1    3    3  502    0  0.84043591072E+03 -0.10982206704E+04  0.37215331650E+03  0.14321107994E+04  0.46999998093E+01 0. -1.
       -5    1    3    3    0  502 -0.84043591072E+03  0.10982206704E+04 -0.64977201057E+03  0.15279551422E+04  0.46999998093E+01 0.  1.
</event>
<event>
 5   0  0.1034683E-06  0.3869119E+04  0.7818609E-02  0.8031483E-01
       -2   -1    0    0    0  501  0.00000000000E+00  0.00000000000E+00  0.20887007472E+04  0.20887007472E+04  0.25500000920E-02 0. -1.
        2   -1    0    0  501    0  0.00000000000E+00  0.00000000000E+00 -0.17917931522E+04  0.17917931522E+04  0.25500000920E-02 0.  1.
    10030    2    1    2    0    0  0.00000000000E+00  0.00000000000E+00  0.29690759506E+03  0.38804938994E+04  0.38691186055E+04 0.  0.
        2    1    3    3  502    0 -0.64480155720E+03  0.88905191888E+03  0.17457242918E+04  0.20624586458E+04  0.25500000920E-02 0. -1.
       -2    1    3    3    0  502  0.64480155720E+03 -0.88905191888E+03 -0.14488166967E+04  0.18180352536E+04  0.25500000920E-02 0.  1.
</event>
<event>
 5   0  0.4316671E-07  0.3831765E+04  0.7818609E-02  0.8039372E-01
       -1   -1    0    0    0  501  0.00000000000E+00  0.00000000000E+00  0.20388067840E+04  0.20388067840E+04  0.50400001928E-02 0.  1.
        1   -1    0    0  501    0  0.00000000000E+00  0.00000000000E+00 -0.18003700664E+04  0.18003700664E+04  0.50400001928E-02 0. -1.
    10030    2    1    2    0    0  0.00000000000E+00  0.00000000000E+00  0.23843671755E+03  0.38391768504E+04  0.38317654965E+04 0.  0.
        2    1    3    3  502    0 -0.12104084213E+03 -0.47287796582E+03  0.19754599051E+04  0.20348725495E+04  0.25500000920E-02 0.  1.
       -2    1    3    3    0  502  0.12104084213E+03  0.47287796582E+03 -0.17370231876E+04  0.18043043009E+04  0.25500000920E-02 0. -1.
</event>
<event>
 5   0  0.1015219E-06  0.2399968E+04  0.7818609E-02  0.8439516E-01
        2   -1    0    0  501    0  0.00000000000E+00  0.00000000000E+00  0.14663549881E+04  0.14663549881E+04  0.25500000920E-02 0. -1.
       -2   -1    0    0    0  501  0.00000000000E+00  0.00000000000E+00 -0.98200032287E+03  0.98200032287E+03  0.25500000920E-02 0.  1.
    10030    2    1    2    0    0  0.00000000000E+00  0.00000000000E+00  0.48435466524E+03  0.24483553110E+04  0.23999675596E+04 0.  0.
        3    1    3    3  502    0  0.72740644709E+03  0.62988767836E+03  0.97362869830E+03  0.13688796437E+04  0.10100000352E+00 0. -1.
       -3    1    3    3    0  502 -0.72740644709E+03 -0.62988767836E+03 -0.48927403306E+03  0.10794756673E+04  0.10100000352E+00 0.  1.
</event>
<event>
 5   0  0.4596298E-07  0.2008503E+04  0.7818609E-02  0.8602656E-01
        1   -1    0    0  501    0  0.00000000000E+00  0.00000000000E+00  0.76079574968E+03  0.76079574969E+03  0.50400001928E-02 0.  1.
       -1   -1    0    0    0  501  0.00000000000E+00  0.00000000000E+00 -0.13256130363E+04  0.13256130363E+04  0.50400001928E-02 0. -1.
    10030    2    1    2    0    0  0.00000000000E+00  0.00000000000E+00 -0.56481728659E+03  0.20864087860E+04  0.20085026898E+04 0.  0.
        4    1    3    3  502    0  0.32981427008E+03  0.66327550126E+03  0.42198417550E+03  0.85251633450E+03  0.12699999809E+01 0.  1.
       -4    1    3    3    0  502 -0.32981427008E+03 -0.66327550126E+03 -0.98680146209E+03  0.12338924515E+04  0.12699999809E+01 0. -1.
</event>
<event>
 5   0  0.5533705E-07  0.3400655E+04  0.7818609E-02  0.8137746E-01
       -2   -1    0    0    0  501  0.00000000000E+00  0.00000000000E+00  0.10122866218E+04  0.10122866218E+04  0.25500000920E-02 0.  1.
        2   -1    0    0  501    0  0.00000000000E+00  0.00000000000E+00 -0.28560225492E+04  0.28560225492E+04  0.25500000920E-02 0. -1.
    10030    2    1    2    0    0  0.00000000000E+00  0.00000000000E+00 -0.18437359274E+04  0.38683091710E+04  0.34006548888E+04 0.  0.
        1    1    3    3  502    0  0.22354649606E+03  0.10709039945E+04  0.55878887027E+03  0.12284353474E+04  0.50400001928E-02 0.  1.
       -1    1    3    3    0  502 -0.22354649606E+03 -0.10709039945E+04 -0.24025247976E+04  0.26398738236E+04  0.50400001928E-02 0. -1.
</event>
<event>
 5   0  0.1035864E-06  0.2874252E+04  0.7818609E-02  0.8280580E-01
        2   -1    0    0  501    0  0.00000000000E+00  0.00000000000E+00  0.23457680961E+04  0.23457680961E+04  0.25500000920E-02 0. -1.
       -2   -1    0    0    0  501  0.00000000000E+00  0.00000000000E+00 -0.88045005429E+03  0.88045005429E+03  0.25500000920E-02 0.  1.
    10030    2    1    2    0    0  0.00000000000E+00  0.00000000000E+00  0.14653180418E+04  0.32262181504E+04  0.28742523533E+04 0.  0.
        5    1    3    3  502    0  0.11567133399E+04 -0.64614423496E+02 -0.22185577427E+03  0.11795774027E+04  0.46999998093E+01 0.  1.
       -5    1    3    3    0  502 -0.11567133399E+04  0.64614423496E+02  0.16871738161E+04  0.20466407477E+04  0.46999998093E+01 0. -1.
</event>
<event>
 5   0  0.1035864E-06  0.2097427E+04  0.7818609E-02  0.8562378E-01
        2   -1    0    0  501    0  0.00000000000E+00  0.00000000000E+00  0.15361865995E+04  0.15361865995E+04  0.25500000920E-02 0. -1.
       -2   -1    0    0    0  501  0.00000000000E+00  0.00000000000E+00 -0.71592869072E+03  0.71592869072E+03  0.25500000920E-02 0.  1.
    10030    2    1    2    0    0  0.00000000000E+00  0.00000000000E+00  0.82025790882E+03  0.22521152903E+04  0.20974270532E+04 0.  0.
        5    1    3    3  502    0 -0.85779075918E+03  0.56274678603E+03  0.17663050607E+03  0.10410136202E+04  0.46999998093E+01 0.  1.
       -5    1    3    3    0  502  0.85779075918E+03 -0.56274678603E+03  0.64362740274E+03  0.12111016701E+04  0.46999998093E+01 0. -1.
</event>
<event>
 5   0  0.3471602E-07  0.2885692E+04  0.7818609E-02  0.8277147E-01
       -1   -1    0    0    0  501  0.00000000000E+00  0.00000000000E+00  0.15434729925E+04  0.15434729925E+04  0.50400001928E-02 0. -1.
        1   -1    0    0  501    0  0.00000000000E+00  0.00000000000E+00 -0.13487791459E+04  0.13487791459E+04  0.50400001928E-02 0.  1.
    10030    2    1    2    0    0  0.00000000000E+00  0.00000000000E+00  0.19469384658E+03  0.28922521384E+04  0.28856917261E+04 0.  0.
        5    1    3    3  502    0  0.27670240730E+03  0.15450070535E+03 -0.13134565875E+04  0.13511569071E+04  0.46999998093E+01 0.  1.
       -5    1    3    3    0  502 -0.27670240730E+03 -0.15450070535E+03  0.15081504341E+04  0.15410952313E+04  0.46999998093E+01 0. -1.
</event>
<event>
 5   0  0.3471602E-07  0.3795444E+04  0.7818609E-02  0.8047133E-01
       -1   -1    0    0    0  501  0.00000000000E+00  0.00000000000E+00  0.33126143051E+04  0.33126143051E+04  0.50400001928E-02 0. -1.
        1   -1    0    0  501    0  0.00000000000E+00  0.00000000000E+00 -0.10871620240E+04  0.10871620240E+04  0.50400001928E-02 0.  1.
    10030    2    1    2    0    0  0.00000000000E+00  0.00000000000E+00  0.22254522812E+04  0.43997763291E+04  0.37954438331E+04 0.  0.
        5    1    3    3  502    0  0.18020352097E+04  0.53245987924E+03  0.14204824921E+04  0.23555545038E+04  0.46999998093E+01 0. -1.
       -5    1    3    3    0  502 -0.18020352097E+04 -0.53245987924E+03  0.80496978903E+03  0.20442218253E+04  0.46999998093E+01 0.  1.
</event>
<event>
 5   0  0.4316671E-07  0.3392110E+04  0.7818609E-02  0.8139845E-01
       -1   -1    0    0    0  501  0.00000000000E+00  0.00000000000E+00  0.28707142921E+04  0.28707142921E+04  0.50400001928E-02 0.  1.
        1   -1    0    0  501    0  0.00000000000E+00  0.00000000000E+00 -0.10020514366E+04  0.10020514366E+04  0.50400001928E-02 0. -1.
    10030    2    1    2    0    0  0.00000000000E+00  0.00000000000E+00  0.18686628555E+04  0.38727657287E+04  0.33921104820E+04 0.  0.
        2    1    3    3  502    0 -0.88201098049E+03  0.49909227606E+03  0.24870268090E+04  0.26855797918E+04  0.25500000920E-02 0.  1.
       -2    1    3    3    0  502  0.88201098049E+03 -0.49909227606E+03 -0.61836395346E+03  0.11871859369E+04  0.25500000920E-02 0. -1.
</event>
<event>
 5   0  0.7268013E-07  0.2490290E+04  0.7818609E-02  0.8406453E-01
       -2   -1    0    0    0  501  0.00000000000E+00  0.00000000000E+00  0.76372718639E+03  0.76372718639E+03  0.25500000920E-02 0.  1.
        2   -1    0    0  501    0  0.00000000000E+00  0.00000000000E+00 -0.20300265414E+04  0.20300265414E+04  0.25500000920E-02 0. -1.
    10030    2    1    2    0    0  0.00000000000E+00  0.00000000000E+00 -0.12662993550E+04  0.27937537278E+04  0.24902903114E+04 0.  0.
        4    1    3    3  502    0 -0.59459952992E+02 -0.10328551283E+04 -0.14104444381E+04  0.17491941939E+04  0.12699999809E+01 0. -1.
       -4    1    3    3    0  502  0.59459952992E+02  0.10328551283E+04  0.14414508304E+03  0.10445595339E+04  0.12699999809E+01 0.  1.
</event>
<event>
 5   0  0.5533705E-07  0.3872240E+04  0.7818609E-02  0.8030828E-01
       -2   -1    0    0    0  501  0.00000000000E+00  0.00000000000E+00  0.17485873285E+04  0.17485873285E+04  0.25500000920E-02 0.  1.
        2   -1    0    0  501    0  0.00000000000E+00  0.00000000000E+00 -0.21437650798E+04  0.21437650798E+04  0.25500000920E-02 0. -1.
    10030    2    1    2    0    0  0.00000000000E+00  0.00000000000E+00 -0.39517775132E+03  0.38923524083E+04  0.38722398964E+04 0.  0.
        1    1    3    3  502    0  0.53004562968E+03 -0.61675448635E+03 -0.19637654054E+04  0.21254903043E+04  0.50400001928E-02 0. -1.
       -1    1    3    3    0  502 -0.53004562968E+03  0.61675448635E+03  0.15685876541E+04  0.17668621040E+04  0.50400001928E-02 0.  1.
</event>
<event>
 5   0  0.1015219E-06  0.3973857E+04  0.7818609E-02  0.8009841E-01
        2   -1    0    0  501    0  0.00000000000E+00  0.00000000000E+00  0.17404433313E+04  0.17404433313E+04  0.25500000920E-02 0. -1.
       -2   -1    0    0    0  501  0.00000000000E+00  0.00000000000E+00 -0.22683212255E+04  0.22683212255E+04  0.25500000920E-02 0.  1.
    10030    2    1    2    0    0  0.00000000000E+00  0.00000000000E+00 -0.52787789420E+03  0.40087645567E+04  0.39738568419E+04 0.  0.
        3    1    3    3  502    0  0.15201033816E+04 -0.12416148998E+04 -0.57578662528E+03  0.20454466745E+04  0.10100000352E+00 0.  1.
       -3    1    3    3    0  502 -0.15201033816E+04  0.12416148998E+04  0.47908731085E+02  0.19633178822E+04  0.10100000352E+00 0. -1.
</event>
<event>
 5   0  0.7268013E-07  0.2148803E+04  0.7818609E-02  0.8540045E-01
       -2   -1    0    0    0  501  0.00000000000E+00  0.00000000000E+00  0.11916684271E+04  0.11916684271E+04  0.25500000920E-02 0. -1.
        2   -1    0    0  501    0  0.00000000000E+00  0.00000000000E+00 -0.96867456517E+03  0.96867456517E+03  0.25500000920E-02 0.  1.
    10030    2    1    2    0    0  0.00000000000E+00  0.00000000000E+00  0.22299386190E+03  0.21603429922E+04  0.21488032906E+04 0.  0.
        4    1    3    3  502    0  0.92557963465E+02 -0.59605312396E+02  0.11859821742E+04  0.11910814835E+04  0.12699999809E+01 0. -1.
       -4    1    3    3    0  502 -0.92557963465E+02  0.59605312396E+02 -0.96298831229E+03  0.96926150877E+03  0.12699999809E+01 0.  1.
</event>
<event>
 5   0  0.1035864E-06  0.2235459E+04  0.7818609E-02  0.8503813E-01
       -2   -1    0    0    0  501  0.00000000000E+00  0.00000000000E+00  0.97169058178E+03  0.97169058178E+03  0.25500000920E-02 0. -1.
        2   -1    0    0  501    0  0.00000000000E+00  0.00000000000E+00 -0.12857167326E+04  0.12857167326E+04  0.25500000920E-02 0.  1.
    10030    2    1    2    0    0  0.00000000000E+00  0.00000000000E+00 -0.31402615080E+03  0.22574073144E+04  0.22354586464E+04 0.  0.
        5    1    3    3  502    0  0.70167504493E+03 -0.86088855928E+03 -0.28402466936E+03  0.11463721398E+04  0.46999998093E+01 0.  1.
       -5    1    3    3    0  502 -0.70167504493E+03  0.86088855928E+03 -0.30001481438E+02  0.11110351745E+04  0.46999998093E+01 0. -1.
</event>
<event>
 5   0  0.3977376E-07  0.3913336E+04  0.7818609E-02  0.8022261E-01
        1   -1    0    0  501    0  0.00000000000E+00  0.00000000000E+00  0.24917141960E+04  0.24917141960E+04  0.50400001928E-02 0. -1.
       -1   -1    0    0    0  501  0.00000000000E+00  0.00000000000E+00 -0.15365125703E+04  0.15365125703E+04  0.50400001928E-02 0.  1.
    10030    2    1    2    0    0  0.00000000000E+00  0.00000000000E+00  0.95520162573E+03  0.40282267663E+04  0.39133362666E+04 0.  0.
        4    1    3    3  502    0  0.12030487640E+04 -0.12115321120E+04  0.14613856925E+04  0.22473954129E+04  0.12699999809E+01 0. -1.
       -4    1    3    3    0  502 -0.12030487640E+04  0.12115321120E+04 -0.50618406682E+03  0.17808313534E+04  0.12699999809E+01 0.  1.
</event>
<event>
 5   0  0.1015219E-06  0.3258206E+04  0.7818609E-02  0.8173612E-01
        2   -1    0    0  501    0  0.00000000000E+00  0.00000000000E+00  0.20948820466E+04  0.20948820466E+04  0.25500000920E-02 0. -1.
       -2   -1    0    0    0  501  0.00000000000E+00  0.00000000000E+00 -0.12668855967E+04  0.12668855967E+04  0.25500000920E-02 0.  1.
    10030    2    1    2    0    0  0.00000000000E+00  0.00000000000E+00  0.82799644989E+03  0.33617676434E+04  0.32582055747E+04 0.  0.
        3    1    3    3  502    0  0.83405502724E+03 -0.10807993988E+04 -0.50318885830E+03  0.14549825313E+04  0.10100000352E+00 0.  1.
       -3    1    3    3    0  502 -0.83405502724E+03  0.10807993988E+04  0.13311853082E+04  0.19067851121E+04  0.10100000352E+00 0. -1.
</event>
<event>
 5   0  0.5533705E-07  0.3309473E+04  0.7818609E-02  0.8160489E-01
       -2   -1    0    0    0  501  0.00000000000E+00  0.00000000000E+00  0.21274470720E+04  0.21274470720E+04  0.25500000920E-02 0.  1.
        2   -1    0    0  501    0  0.00000000000E+00  0.00000000000E+00 -0.12870606616E+04  0.12870606616E+04  0.25500000920E-02 0. -1.
    10030    2    1    2    0    0  0.00000000000E+00  0.00000000000E+00  0.84038641032E+03  0.34145077336E+04  0.33094733334E+04 0.  0.
        1    1    3    3  502    0  0.32141662892E+03 -0.16228457217E+04  0.38420715213E+03  0.16983968976E+04  0.50400001928E-02 0.  1.
       -1    1    3    3    0  502 -0.32141662892E+03  0.16228457217E+04  0.45617925819E+03  0.17161108360E+04  0.50400001928E-02 0. -1.
</event>
<event>
 5   0  0.3191750E-07  0.4179473E+04  0.7818609E-02  0.7969288E-01
        3   -1    0    0  501    0  0.00000000000E+00  0.00000000000E+00  0.13929031754E+04  0.13929031791E+04  0.10100000352E+00 0.  1.
       -3   -1    0    0    0  501  0.00000000000E+00  0.00000000000E+00 -0.31351768273E+04  0.31351768289E+04  0.10100000352E+00 0. -1.
    10030    2    1    2    0    0  0.00000000000E+00  0.00000000000E+00 -0.17422736519E+04  0.45280800080E+04  0.41794725840E+04 0.  0.
        2    1    3    3  502    0 -0.15314220461E+04 -0.14193016503E+04 -0.96387510463E+03  0.22997229997E+04  0.25500000920E-02 0. -1.
       -2    1    3    3    0  502  0.15314220461E+04  0.14193016503E+04 -0.77839854728E+03  0.22283570083E+04  0.25500000920E-02 0.  1.
</event>
<event>
 5   0  0.4627905E-07  0.2278339E+04  0.7818609E-02  0.8486511E-01
       -1   -1    0    0    0  501  0.00000000000E+00  0.00000000000E+00  0.26299038005E+04  0.26299038005E+04  0.50400001928E-02 0. -1.
        1   -1    0    0  501    0  0.00000000000E+00  0.00000000000E+00 -0.49344267155E+03  0.49344267158E+03  0.50400001928E-02 0.  1.
    10030    2    1    2    0    0  0.00000000000E+00  0.00000000000E+00  0.21364611290E+04  0.31233464721E+04  0.22783386555E+04 0.  0.
        1    1    3    3  502    0  0.69389580579E+03 -0.77157168093E+03  0.17125368656E+04  0.20023977537E+04  0.50400001928E-02 0. -1.
       -1    1    3    3    0  502 -0.69389580579E+03  0.77157168093E+03  0.42392426336E+03  0.11209487184E+04  0.50400001928E-02 0.  1.
</event>
<event>
 5   0  0.1015219E-06  0.3311409E+04  0.7818609E-02  0.8159999E-01
        2   -1    0    0  501    0  0.00000000000E+00  0.00000000000E+00  0.18340388033E+04  0.18340388033E+04  0.25500000920E-02 0.  1.
       -2   -1    0    0    0  501  0.00000000000E+00  0.00000000000E+00 -0.14947102874E+04  0.14947102874E+04  0.25500000920E-02 0. -1.
    10030    2    1    2    0    0  0.00000000000E+00  0.00000000000E+00  0.33932851588E+03  0.33287490906E+04  0.33114085623E+04 0.  0.
        3    1    3    3  502    0 -0.15232716379E+04  0.25344156546E+03  0.77009229614E+03  0.17255814280E+04  0.10100000352E+00 0.  1.
       -3    1    3    3    0  502  0.15232716379E+04 -0.25344156546E+03 -0.43076378026E+03  0.16031676626E+04  0.10100000352E+00 0. -1.
</event>
<event>
 5   0  0.5385714E-07  0.3858878E+04  0.7818609E-02  0.8033637E-01
       -1   -1    0    0    0  501  0.00000000000E+00  0.00000000000E+00  0.16441036658E+04  0.16441036658E+04  0.50400001928E-02 0. -1.
        1   -1    0    0  501    0  0.00000000000E+00  0.00000000000E+00 -0.22642939730E+04  0.22642939730E+04  0.50400001928E-02 0.  1.
    10030    2    1    2    0    0  0.00000000000E+00  0.00000000000E+00 -0.62019030718E+03  0.39083976389E+04  0.38588775682E+04 0.  0.
        3    1    3    3  502    0 -0.46144740549E+03 -0.16975877776E+04  0.49253633775E+03  0.18268360695E+04  0.10100000352E+00 0. -1.
       -3    1    3    3    0  502  0.46144740549E+03  0.16975877776E+04 -0.11127266449E+04  0.20815615694E+04  0.10100000352E+00 0.  1.
</event>
<event>
 5   0  0.1015219E-06  0.2073167E+04  0.7818609E-02  0.8573157E-01
        2   -1    0    0  501    0  0.00000000000E+00  0.00000000000E+00  0.18682139027E+04  0.18682139027E+04  0.25500000920E-02 0.  1.
       -2   -1    0    0    0  501  0.00000000000E+00  0.00000000000E+00 -0.57515106054E+03  0.57515106055E+03  0.25500000920E-02 0. -1.
    10030    2    1    2    0    0  0.00000000000E+00  0.00000000000E+00  0.12930628422E+04  0.24433649633E+04  0.20731668601E+04 0.  0.
        3    1    3    3  502    0 -0.78364018040E+03  0.65664759995E+03  0.84801870775E+03  0.13283123660E+04  0.10100000352E+00 0. -1.
       -3    1    3    3    0  502  0.78364018040E+03 -0.65664759995E+03  0.44504413445E+03  0.11150525973E+04  0.10100000352E+00 0.  1.
</event>
<event>
 5   0  0.1035864E-06  0.3883079E+04  0.7818609E-02  0.8028558E-01
       -2   -1    0    0    0  501  0.00000000000E+00  0.00000000000E+00  0.18531260108E+04  0.18531260108E+04  0.25500000920E-02 0.  1.
        2   -1    0    0  501    0  0.00000000000E+00  0.00000000000E+00 -0.20341715731E+04  0.20341715731E+04  0.25500000920E-02 0. -1.
    10030    2    1    2    0    0  0.00000000000E+00  0.00000000000E+00 -0.18104556229E+03  0.38872975839E+04  0.38830793206E+04 0.  0.
        5    1    3    3  502    0  0.15741604211E+04  0.59151879065E+03  0.88093266798E+03  0.18984045846E+04  0.46999998093E+01 0.  1.
       -5    1    3    3    0  502 -0.15741604211E+04 -0.59151879065E+03 -0.10619782303E+04  0.19888929993E+04  0.46999998093E+01 0. -1.
</event>
<event>
 5   0  0.5533705E-07  0.3315442E+04  0.7818609E-02  0.8158977E-01
        2   -1    0    0  501    0  0.00000000000E+00  0.00000000000E+00  0.12788071641E+04  0.12788071641E+04  0.25500000920E-02 0.  1.
       -2   -1    0    0    0  501  0.00000000000E+00  0.00000000000E+00 -0.21489083038E+04  0.21489083038E+04  0.25500000920E-02 0. -1.
    10030    2    1    2    0    0  0.00000000000E+00  0.00000000000E+00 -0.87010113969E+03  0.34277154680E+04  0.33154422534E+04 0.  0.
        1    1    3    3  502    0 -0.35349535749E+03 -0.15166029365E+04 -0.10226235287E+04  0.18630089415E+04  0.50400001928E-02 0. -1.
       -1    1    3    3    0  502  0.35349535749E+03  0.15166029365E+04  0.15252238906E+03  0.15647065264E+04  0.50400001928E-02 0.  1.
</event>
<event>
 5   0  0.1035864E-06  0.3934038E+04  0.7818609E-02  0.8017987E-01
        2   -1    0    0  501    0  0.00000000000E+00  0.00000000000E+00  0.13472714126E+04  0.13472714126E+04  0.25500000920E-02 0.  1.
       -2   -1    0    0    0  501  0.00000000000E+00  0.00000000000E+00 -0.28718523087E+04  0.28718523087E+04  0.25500000920E-02 0. -1.
    10030    2    1    2    0    0  0.00000000000E+00  0.00000000000E+00 -0.15245808960E+04  0.42191237213E+04  0.39340383916E+04 0.  0.
        5    1    3    3  502    0  0.17712550451E+04 -0.55377293849E+03 -0.14615627778E+04  0.23622440064E+04  0.46999998093E+01 0. -1.
       -5    1    3    3    0  502 -0.17712550451E+04  0.55377293849E+03 -0.63018118204E+02  0.18568797149E+04  0.46999998093E+01 0.  1.
</event>
<event>
 5   0  0.7268013E-07  0.3889144E+04  0.7818609E-02  0.8027291E-01
        2   -1    0    0  501    0  0.00000000000E+00  0.00000000000E+00  0.24189815015E+04  0.24189815015E+04  0.25500000920E-02 0. -1.
       -2   -1    0    0    0  501  0.00000000000E+00  0.00000000000E+00 -0.15632031766E+04  0.15632031766E+04  0.25500000920E-02 0.  1.
    10030    2    1    2    0    0  0.00000000000E+00  0.00000000000E+00  0.85577832485E+03  0.39821846781E+04  0.38891436422E+04 0.  0.
        4    1    3    3  502    0 -0.13575556208E+02  0.86357503671E+03 -0.13560343245E+04  0.16077241187E+04  0.12699999809E+01 0.  1.
       -4    1    3    3    0  502  0.13575556208E+02 -0.86357503671E+03  0.22118126493E+04  0.23744605594E+04  0.12699999809E+01 0. -1.
</event>
<event>
 5   0  0.4316671E-07  0.4260081E+04  0.7818609E-02  0.7954041E-01
        1   -1    0    0  501    0  0.00000000000E+00  0.00000000000E+00  0.25879459069E+04  0.25879459069E+04  0.50400001928E-02 0.  1.
       -1   -1    0    0    0  501  0.00000000000E+00  0.00000000000E+00 -0.17531558240E+04  0.17531558240E+04  0.50400001928E-02 0. -1.
    10030    2    1    2    0    0  0.00000000000E+00  0.00000000000E+00  0.83479008294E+03  0.43411017309E+04  0.42600809564E+04 0.  0.
        2    1    3    3  502    0  0.61907551666E+03  0.18860775579E+04  0.12044372672E+04  0.23218984001E+04  0.25500000920E-02 0.  1.
       -2    1    3    3    0  502 -0.61907551666E+03 -0.18860775579E+04 -0.36964718429E+03  0.20192033307E+04  0.25500000920E-02 0. -1.
</event>
<event>
 5   0  0.1035864E-06  0.2664998E+04  0.7818609E-02  0.8346452E-01
        2   -1    0    0  501    0  0.00000000000E+00  0.00000000000E+00  0.18954642999E+04  0.18954642999E+04  0.25500000920E-02 0.  1.
       -2   -1    0    0    0  501  0.00000000000E+00  0.00000000000E+00 -0.93673826463E+03  0.93673826464E+03  0.25500000920E-02 0. -1.
    10030    2    1    2    0    0  0.00000000000E+00  0.00000000000E+00  0.95872603530E+03  0.28322025646E+04  0.26649982657E+04 0.  0.
        5    1    3    3  502    0 -0.39894499982E+03 -0.71846084703E+03 -0.63534462908E+03  0.10387627204E+04  0.46999998093E+01 0. -1.
       -5    1    3    3    0  502  0.39894499982E+03  0.71846084703E+03  0.15940706644E+04  0.17934398442E+04  0.46999998093E+01 0.  1.
</event>
<event>
 5   0  0.3471602E-07  0.3777927E+04  0.7818609E-02  0.8050908E-01
        1   -1    0    0  501    0  0.00000000000E+00  0.00000000000E+00  0.20499185808E+04  0.20499185808E+04  0.50400001928E-02 0. -1.
       -1   -1    0    0    0  501  0.00000000000E+00  0.00000000000E+00 -0.17406461961E+04  0.17406461961E+04  0.50400001928E-02 0.  1.
    10030    2    1    2    0    0  0.00000000000E+00  0.00000000000E+00  0.30927238475E+03  0.37905647769E+04  0.37779269342E+04 0.  0.
        5    1    3    3  502    0  0.10949398865E+04  0.13034162548E+04  0.97613856183E+03  0.19623088111E+04  0.46999998093E+01 0. -1.
       -5    1    3    3    0  502 -0.10949398865E+04 -0.13034162548E+04 -0.66686617707E+03  0.18282559658E+04  0.46999998093E+01 0.  1.
</event>
<event>
 5   0  0.1035864E-06  0.3801198E+04  0.7818609E-02  0.8045898E-01
        2   -1    0    0  501    0  0.00000000000E+00  0.00000000000E+00  0.20314079984E+04  0.20314079984E+04  0.25500000920E-02 0. -1.
       -2   -1    0    0    0  501  0.00000000000E+00  0.00000000000E+00 -0.17782127873E+04  0.17782127873E+04  0.25500000920E-02 0.  1.
    10030    2    1    2    0    0  0.00000000000E+00  0.00000000000E+00  0.25319521107E+03  0.38096207857E+04  0.38011975371E+04 0.  0.
        5    1    3    3  502    0  0.10812552344E+04 -0.14167336483E+04 -0.53517346628E+03  0.18608277301E+04  0.46999998093E+01 0.  1.
       -5    1    3    3    0  502 -0.10812552344E+04  0.14167336483E+04  0.78836867735E+03  0.19487930556E+04  0.46999998093E+01 0. -1.
</event>
<event>
 5   0  0.4627905E-07  0.3922704E+04  0.7818609E-02  0.8020324E-01
        1   -1    0    0  501    0  0.00000000000E+00  0.00000000000E+00  0.26246786928E+04  0.26246786928E+04  0.50400001928E-02 0. -1.
       -1   -1    0    0    0  501  0.00000000000E+00  0.00000000000E+00 -0.14656660425E+04  0.14656660425E+04  0.50400001928E-02 0.  1.
    10030    2    1    2    0    0  0.00000000000E+00  0.00000000000E+00  0.11590126503E+04  0.40903447353E+04  0.39227043898E+04 0.  0.
        1    1    3    3  502    0  0.11065042024E+04  0.49754298694E+03 -0.10274582664E+04  0.15898336589E+04  0.50400001928E-02 0.  1.
       -1    1    3    3    0  502 -0.11065042024E+04 -0.49754298694E+03  0.21864709167E+04  0.25005110764E+04  0.50400001928E-02 0. -1.
</event>
<event>
 5   0  0.3471602E-07  0.3891410E+04  0.7818609E-02  0.8026818E-01
       -1   -1    0    0    0  501  0.00000000000E+00  0.00000000000E+00  0.27601439872E+04  0.27601439872E+04  0.50400001928E-02 0.  1.
        1   -1    0    0  501    0  0.00000000000E+00  0.00000000000E+00 -0.13715832310E+04  0.13715832310E+04  0.50400001928E-02 0. -1.
    10030    2    1    2    0    0  0.00000000000E+00  0.00000000000E+00  0.13885607562E+04  0.41317272183E+04  0.38914096202E+04 0.  0.
        5    1    3    3  502    0  0.15339093875E+04  0.69303443355E+03 -0.34199034882E+03  0.17176012994E+04  0.46999998093E+01 0.  1.
       -5    1    3    3    0  502 -0.15339093875E+04 -0.69303443355E+03  0.17305511050E+04  0.24141259189E+04  0.46999998093E+01 0. -1.
</event>
<event>
 5   0  0.3471602E-07  0.2673654E+04  0.7818609E-02  0.8343604E-01
        1   -1    0    0  501    0  0.00000000000E+00  0.00000000000E+00  0.11927287693E+04  0.11927287693E+04  0.50400001928E-02 0. -1.
       -1   -1    0    0    0  501  0.00000000000E+00  0.00000000000E+00 -0.14983342911E+04  0.14983342911E+04  0.50400001928E-02 0.  1.
    10030    2    1    2    0    0  0.00000000000E+00  0.00000000000E+00 -0.30560552182E+03  0.26910630604E+04  0.26736539903E+04 0.  0.
        5    1    3    3  502    0  0.78481118306E+03 -0.10033370899E+04  0.25538743324E+03  0.12991761775E+04  0.46999998093E+01 0. -1.
       -5    1    3    3    0  502 -0.78481118306E+03  0.10033370899E+04 -0.56099295506E+03  0.13918868829E+04  0.46999998093E+01 0.  1.
</event>
<event>
 5   0  0.3471602E-07  0.4020304E+04  0.7818609E-02  0.8000463E-01
        1   -1    0    0  501    0  0.00000000000E+00  0.00000000000E+00  0.17057058638E+04  0.17057058638E+04  0.50400001928E-02 0. -1.
       -1   -1    0    0    0  501  0.00000000000E+00  0.00000000000E+00 -0.23689376471E+04  0.23689376471E+04  0.50400001928E-02 0.  1.
    10030    2    1    2    0    0  0.00000000000E+00  0.00000000000E+00 -0.66323178327E+03  0.40746435109E+04  0.40203038868E+04 0.  0.
        5    1    3    3  502    0 -0.10738759553E+04 -0.16406193602E+04  0.11691207096E+03  0.19643146323E+04  0.46999998093E+01 0.  1.
       -5    1    3    3    0  502  0.10738759553E+04  0.16406193602E+04 -0.78014385424E+03  0.21103288786E+04  0.46999998093E+01 0. -1.
</event>
<event>
 5   0  0.7268013E-07  0.3973077E+04  0.7818609E-02  0.8010000E-01
        2   -1    0    0  501    0  0.00000000000E+00  0.00000000000E+00  0.25644621083E+04  0.25644621083E+04  0.25500000920E-02 0.  1.
       -2   -1    0    0    0  501  0.00000000000E+00  0.00000000000E+00 -0.15388549734E+04  0.15388549734E+04  0.25500000920E-02 0. -1.
    10030    2    1    2    0    0  0.00000000000E+00  0.00000000000E+00  0.10256071349E+04  0.41033170816E+04  0.39730770289E+04 0.  0.
        4    1    3    3  502    0  0.87088591110E+02 -0.11929595966E+04  0.21508590043E+04  0.24610837229E+04  0.12699999809E+01 0.  1.
       -4    1    3    3    0  502 -0.87088591110E+02  0.11929595966E+04 -0.11252518694E+04  0.16422333587E+04  0.12699999809E+01 0. -1.
</event>
<event>
 5   0  0.4316671E-07  0.3849170E+04  0.7818609E-02  0.8035685E-01
       -1   -1    0    0    0  501  0.00000000000E+00  0.00000000000E+00  0.16352942476E+04  0.16352942476E+04  0.50400001928E-02 0.  1.
        1   -1    0    0  501    0  0.00000000000E+00  0.00000000000E+00 -0.22650530313E+04  0.22650530313E+04  0.50400001928E-02 0. -1.
    10030    2    1    2    0    0  0.00000000000E+00  0.00000000000E+00 -0.62975878372E+03  0.39003472790E+04  0.38491704003E+04 0.  0.
        2    1    3    3  502    0 -0.10311971441E+04 -0.45362277675E+03  0.12662796182E+04  0.16948761739E+04  0.25500000920E-02 0.  1.
       -2    1    3    3    0  502  0.10311971441E+04  0.45362277675E+03 -0.18960384019E+04  0.22054711050E+04  0.25500000920E-02 0. -1.
</event>
<event>
 5   0  0.5533705E-07  0.3795320E+04  0.7818609E-02  0.8047160E-01
       -2   -1    0    0    0  501  0.00000000000E+00  0.00000000000E+00  0.21429022144E+04  0.21429022144E+04  0.25500000920E-02 0.  1.
        2   -1    0    0  501    0  0.00000000000E+00  0.00000000000E+00 -0.16804840674E+04  0.16804840674E+04  0.25500000920E-02 0. -1.
    10030    2    1    2    0    0  0.00000000000E+00  0.00000000000E+00  0.46241814702E+03  0.38233862818E+04  0.37953197648E+04 0.  0.
        1    1    3    3  502    0 -0.18604095238E+04 -0.29936342771E+03  0.51145896549E+01  0.18843482208E+04  0.50400001928E-02 0. -1.
       -1    1    3    3    0  502  0.18604095238E+04  0.29936342771E+03  0.45730355737E+03  0.19390380610E+04  0.50400001928E-02 0.  1.
</event>
<event>
 5   0  0.5533705E-07  0.3881196E+04  0.7818609E-02  0.8028952E-01
       -2   -1    0    0    0  501  0.00000000000E+00  0.00000000000E+00  0.27460163509E+04  0.27460163509E+04  0.25500000920E-02 0. -1.
        2   -1    0    0  501    0  0.00000000000E+00  0.00000000000E+00 -0.13714120426E+04  0.13714120426E+04  0.25500000920E-02 0.  1.
    10030    2    1    2    0    0  0.00000000000E+00  0.00000000000E+00  0.13746043083E+04  0.41174283935E+04  0.38811956369E+04 0.  0.
        1    1    3    3  502    0  0.98566681274E+03 -0.37335478815E+03 -0.10412867560E+04  0.14816244368E+04  0.50400001928E-02 0.  1.
       -1    1    3    3    0  502 -0.98566681274E+03  0.37335478815E+03  0.24158910643E+04  0.26358039567E+04  0.50400001928E-02 0. -1.
</event>
<event>
 5   0  0.4316671E-07  0.3765160E+04  0.7818609E-02  0.8053673E-01
       -1   -1    0    0    0  501  0.00000000000E+00  0.00000000000E+00  0.23930328704E+04  0.23930328705E+04  0.50400001928E-02 0. -1.
        1   -1    0    0  501    0  0.00000000000E+00  0.00000000000E+00 -0.14810104529E+04  0.14810104529E+04  0.50400001928E-02 0.  1.
    10030    2    1    2    0    0  0.00000000000E+00  0.00000000000E+00  0.91202241751E+03  0.38740433234E+04  0.37651595958E+04 0.  0.
        2    1    3    3  502    0 -0.73071951211E+03  0.10086048542E+04 -0.99650430441E+03  0.15950722824E+04  0.25500000920E-02 0.  1.
       -2    1    3    3    0  502  0.73071951211E+03 -0.10086048542E+04  0.19085267219E+04  0.22789710410E+04  0.25500000920E-02 0. -1.
</event>
<event>
 5   0  0.7268013E-07  0.2856251E+04  0.7818609E-02  0.8286014E-01
       -2   -1    0    0    0  501  0.00000000000E+00  0.00000000000E+00  0.88176912796E+03  0.88176912796E+03  0.25500000920E-02 0.  1.
        2   -1    0    0  501    0  0.00000000000E+00  0.00000000000E+00 -0.23130124140E+04  0.23130124140E+04  0.25500000920E-02 0. -1.
    10030    2    1    2    0    0  0.00000000000E+00  0.00000000000E+00 -0.14312432860E+04  0.31947815419E+04  0.28562513470E+04 0.  0.
        4    1    3    3  502    0 -0.12019173533E+04 -0.57991988977E+03 -0.14679059817E+03  0.13425578182E+04  0.12699999809E+01 0.  1.
       -4    1    3    3    0  502  0.12019173533E+04  0.57991988977E+03 -0.12844526879E+04  0.18522237237E+04  0.12699999809E+01 0. -1.
</event>
<event>
 5   0  0.5533705E-07  0.3876560E+04  0.7818609E-02  0.8029922E-01
       -2   -1    0    0    0  501  0.00000000000E+00  0.00000000000E+00  0.16765329807E+04  0.16765329807E+04  0.25500000920E-02 0. -1.
        2   -1    0    0  501    0  0.00000000000E+00  0.00000000000E+00 -0.22408917299E+04  0.22408917299E+04  0.25500000920E-02 0.  1.
    10030    2    1    2    0    0  0.00000000000E+00  0.00000000000E+00 -0.56435874918E+03  0.39174247107E+04  0.38765597591E+04 0.  0.
        1    1    3    3  502    0  0.78954154159E+03 -0.21771560940E+03 -0.20574431809E+04  0.22144634508E+04  0.50400001928E-02 0.  1.
       -1    1    3    3    0  502 -0.78954154159E+03  0.21771560940E+03  0.14930844317E+04  0.17029612599E+04  0.50400001928E-02 0. -1.
</event>
<event>
 5   0  0.1035864E-06  0.3263027E+04  0.7818609E-02  0.8172367E-01
       -2   -1    0    0    0  501  0.00000000000E+00  0.00000000000E+00  0.13477635451E+04  0.13477635451E+04  0.25500000920E-02 0.  1.
        2   -1    0    0  501    0  0.00000000000E+00  0.00000000000E+00 -0.19750027715E+04  0.19750027715E+04  0.25500000920E-02 0. -1.
    10030    2    1    2    0    0  0.00000000000E+00  0.00000000000E+00 -0.62723922638E+03  0.33227663166E+04  0.32630272674E+04 0.  0.
        5    1    3    3  502    0  0.80693009937E+03 -0.13609321995E+04 -0.71908265680E+03  0.17379224938E+04  0.46999998093E+01 0. -1.
       -5    1    3    3    0  502 -0.80693009937E+03  0.13609321995E+04  0.91843430420E+02  0.15848438228E+04  0.46999998093E+01 0.  1.
</event>
<event>
 5   0  0.5533705E-07  0.3806198E+04  0.7818609E-02  0.8044826E-01
       -2   -1    0    0    0  501  0.00000000000E+00  0.00000000000E+00  0.15019292613E+04  0.15019292613E+04  0.25500000920E-02 0. -1.
        2   -1    0    0  501    0  0.00000000000E+00  0.00000000000E+00 -0.24114225287E+04  0.24114225287E+04  0.25500000920E-02 0.  1.
    10030    2    1    2    0    0  0.00000000000E+00  0.00000000000E+00 -0.90949326733E+03  0.39133517900E+04  0.38061981332E+04 0.  0.
        1    1    3    3  502    0 -0.11753470818E+04  0.10849750892E+04  0.60538487798E+03  0.17102931203E+04  0.50400001928E-02 0. -1.
       -1    1    3    3    0  502  0.11753470818E+04 -0.10849750892E+04 -0.15148781453E+04  0.22030586697E+04  0.50400001928E-02 0.  1.
</event>
<event>
 5   0  0.3977376E-07  0.2022746E+04  0.7818609E-02  0.8596059E-01
       -1   -1    0    0    0  501  0.00000000000E+00  0.00000000000E+00  0.49609145212E+03  0.49609145214E+03  0.50400001928E-02 0.  1.
        1   -1    0    0  501    0  0.00000000000E+00  0.00000000000E+00 -0.20618692415E+04  0.20618692415E+04  0.50400001928E-02 0. -1.
    10030    2    1    2    0    0  0.00000000000E+00  0.00000000000E+00 -0.15657777894E+04  0.25579606936E+04  0.20227463569E+04 0.  0.
        4    1    3    3  502    0  0.72734953374E+03 -0.35972012407E+03 -0.15463103731E+04  0.17462855708E+04  0.12699999809E+01 0. -1.
       -4    1    3    3    0  502 -0.72734953374E+03  0.35972012407E+03 -0.19467416301E+02  0.81167512287E+03  0.12699999809E+01 0.  1.
</event>
<event>
 5   0  0.1035864E-06  0.3922621E+04  0.7818609E-02  0.8020341E-01
        2   -1    0    0  501    0  0.00000000000E+00  0.00000000000E+00  0.15082198424E+04  0.15082198424E+04  0.25500000920E-02 0.  1.
       -2   -1    0    0    0  501  0.00000000000E+00  0.00000000000E+00 -0.25505162282E+04  0.25505162282E+04  0.25500000920E-02 0. -1.
    10030    2    1    2    0    0  0.00000000000E+00  0.00000000000E+00 -0.10422963859E+04  0.40587360706E+04  0.39226211562E+04 0.  0.
        5    1    3    3  502    0  0.17266916343E+04 -0.91660694731E+03 -0.68502585104E+03  0.20714523413E+04  0.46999998093E+01 0.  1.
       -5    1    3    3    0  502 -0.17266916343E+04  0.91660694731E+03 -0.35727053484E+03  0.19872837293E+04  0.46999998093E+01 0. -1.
</event>
<event>
 5   0  0.3977376E-07  0.3834684E+04  0.7818609E-02  0.8038753E-01
        1   -1    0    0  501    0  0.00000000000E+00  0.00000000000E+00  0.23483788721E+04  0.23483788721E+04  0.50400001928E-02 0.  1.
       -1   -1    0    0    0  501  0.00000000000E+00  0.00000000000E+00 -0.15654204256E+04  0.15654204256E+04  0.50400001928E-02 0. -1.
    10030    2    1    2    0    0  0.00000000000E+00  0.00000000000E+00  0.78295844650E+03  0.39137992977E+04  0.38346839523E+04 0.  0.
        4    1    3    3  502    0  0.21379690185E+03  0.18854926329E+04  0.11121028425E+03  0.19008316402E+04  0.12699999809E+01 0.  1.
       -4    1    3    3    0  502 -0.21379690185E+03 -0.18854926329E+04  0.67174816225E+03  0.20129676576E+04  0.12699999809E+01 0. -1.
</event>
<event>
 5   0  0.5533705E-07  0.3751897E+04  0.7818609E-02  0.8056557E-01
       -2   -1    0    0    0  501  0.00000000000E+00  0.00000000000E+00  0.15642929996E+04  0.15642929996E+04  0.25500000920E-02 0.  1.
        2   -1    0    0  501    0  0.00000000000E+00  0.00000000000E+00 -0.22496958363E+04  0.22496958363E+04  0.25500000920E-02 0. -1.
    10030    2    1    2    0    0  0.00000000000E+00  0.00000000000E+00 -0.68540283679E+03  0.38139888359E+04  0.37518973589E+04 0.  0.
        1    1    3    3  502    0 -0.21421756970E+01  0.10788744871E+04 -0.19027681194E+04  0.21873502838E+04  0.50400001928E-02 0. -1.
       -1    1    3    3    0  502  0.21421756970E+01 -0.10788744871E+04  0.12173652826E+04  0.16266385521E+04  0.50400001928E-02 0.  1.
</event>
<event>
 5   0  0.3977376E-07  0.3949856E+04  0.7818609E-02  0.8014739E-01
        1   -1    0    0  501    0  0.00000000000E+00  0.00000000000E+00  0.19106858167E+04  0.19106858167E+04  0.50400001928E-02 0. -1.
       -1   -1    0    0    0  501  0.00000000000E+00  0.00000000000E+00 -0.20413303581E+04  0.20413303581E+04  0.50400001928E-02 0.  1.
    10030    2    1    2    0    0  0.00000000000E+00  0.00000000000E+00 -0.13064454144E+03  0.39520161748E+04  0.39498561809E+04 0.  0.
        4    1    3    3  502    0 -0.44085425069E+03 -0.19182708154E+04  0.96704415603E+02  0.19706518588E+04  0.12699999809E+01 0. -1.
       -4    1    3    3    0  502  0.44085425069E+03  0.19182708154E+04 -0.22734895705E+03  0.19813643160E+04  0.12699999809E+01 0.  1.
</event>
<event>
 5   0  0.4316671E-07  0.3866563E+04  0.7818609E-02  0.8032020E-01
        1   -1    0    0  501    0  0.00000000000E+00  0.00000000000E+00  0.19104773740E+04  0.19104773740E+04  0.50400001928E-02 0. -1.
       -1   -1    0    0    0  501  0.00000000000E+00  0.00000000000E+00 -0.19563579902E+04  0.19563579902E+04  0.50400001928E-02 0.  1.
    10030    2    1    2    0    0  0.00000000000E+00  0.00000000000E+00 -0.45880616279E+02  0.38668353642E+04  0.38665631642E+04 0.  0.
        2    1    3    3  502    0  0.18338193569E+04  0.53561238144E+03 -0.31927792247E+03  0.19369337750E+04  0.25500000920E-02 0.  1.
       -2    1    3    3    0  502 -0.18338193569E+04 -0.53561238144E+03  0.27339730619E+03  0.19299015892E+04  0.25500000920E-02 0. -1.
</event>
<event>
 5   0  0.1034683E-06  0.3937148E+04  0.7818609E-02  0.8017347E-01
       -2   -1    0    0    0  501  0.00000000000E+00  0.00000000000E+00  0.17811779609E+04  0.17811779610E+04  0.25500000920E-02 0. -1.
        2   -1    0    0  501    0  0.00000000000E+00  0.00000000000E+00 -0.21756859644E+04  0.21756859644E+04  0.25500000920E-02 0.  1.
    10030    2    1    2    0    0  0.00000000000E+00  0.00000000000E+00 -0.39450800350E+03  0.39568639254E+04  0.39371481505E+04 0.  0.
        2    1    3    3  502    0 -0.19257830370E+04  0.25922539342E+03  0.11967540425E+03  0.19468334065E+04  0.25500000920E-02 0. -1.
       -2    1    3    3    0  502  0.19257830370E+04 -0.25922539342E+03 -0.51418340775E+03  0.20100305189E+04  0.25500000920E-02 0.  1.
</event>
<event>
 5   0  0.1034683E-06  0.3891105E+04  0.7818609E-02  0.8026882E-01
       -2   -1    0    0    0  501  0.00000000000E+00  0.00000000000E+00  0.15089621562E+04  0.15089621563E+04  0.25500000920E-02 0. -1.
        2   -1    0    0  501    0  0.00000000000E+00  0.00000000000E+00 -0.25084621249E+04  0.25084621249E+04  0.25500000920E-02 0.  1.
    10030    2    1    2    0    0  0.00000000000E+00  0.00000000000E+00 -0.99949996862E+03  0.40174242811E+04  0.38911049417E+04 0.  0.
        2    1    3    3  502    0 -0.15830115555E+04 -0.39583390135E+03 -0.15936569308E+04  0.22808666063E+04  0.25500000920E-02 0.  1.
       -2    1    3    3    0  502  0.15830115555E+04  0.39583390135E+03  0.59415696223E+03  0.17365576749E+04  0.25500000920E-02 0. -1.
</event>
<event>
 5   0  0.1015219E-06  0.3787681E+04  0.7818609E-02  0.8048804E-01
       -2   -1    0    0    0  501  0.00000000000E+00  0.00000000000E+00  0.11482016462E+04  0.11482016462E+04  0.25500000920E-02 0. -1.
        2   -1    0    0  501    0  0.00000000000E+00  0.00000000000E+00 -0.31236952863E+04  0.31236952863E+04  0.25500000920E-02 0.  1.
    10030    2    1    2    0    0  0.00000000000E+00  0.00000000000E+00 -0.19754936401E+04  0.42718969325E+04  0.37876811217E+04 0.  0.
        3    1    3    3  502    0 -0.11651938097E+03  0.44292957115E+03 -0.30602940834E+04  0.30943760693E+04  0.10100000352E+00 0.  1.
       -3    1    3    3    0  502  0.11651938097E+03 -0.44292957115E+03  0.10848004433E+04  0.11775208631E+04  0.10100000352E+00 0. -1.
</event>
<event>
 5   0  0.5533705E-07  0.3455565E+04  0.7818609E-02  0.8124402E-01
        2   -1    0    0  501    0  0.00000000000E+00  0.00000000000E+00  0.18753172730E+04  0.18753172730E+04  0.25500000920E-02 0. -1.
       -2   -1    0    0    0  501  0.00000000000E+00  0.00000000000E+00 -0.15918549034E+04  0.15918549034E+04  0.25500000920E-02 0.  1.
    10030    2    1    2    0    0  0.00000000000E+00  0.00000000000E+00  0.28346236958E+03  0.34671721763E+04  0.34555653641E+04 0.  0.
        1    1    3    3  502    0 -0.12404008379E+04 -0.84281219668E+03 -0.71923396435E+03  0.16631969616E+04  0.50400001928E-02 0.  1.
       -1    1    3    3    0  502  0.12404008379E+04  0.84281219668E+03  0.10026963339E+04  0.18039752148E+04  0.50400001928E-02 0. -1.
</event>
<event>
 5   0  0.4627905E-07  0.3931020E+04  0.7818609E-02  0.8018608E-01
       -1   -1    0    0    0  501  0.00000000000E+00  0.00000000000E+00  0.31752239176E+04  0.31752239176E+04  0.50400001928E-02 0. -1.
        1   -1    0    0  501    0  0.00000000000E+00  0.00000000000E+00 -0.12166796194E+04  0.12166796194E+04  0.50400001928E-02 0.  1.
    10030    2    1    2    0    0  0.00000000000E+00  0.00000000000E+00  0.19585442981E+04  0.43919035370E+04  0.39310203396E+04 0.  0.
        1    1    3    3  502    0 -0.12941490116E+04 -0.30324358806E+03 -0.63839792768E+03  0.14745610370E+04  0.50400001928E-02 0.  1.
       -1    1    3    3    0  502  0.12941490116E+04  0.30324358806E+03  0.25969422258E+04  0.29173425000E+04  0.50400001928E-02 0. -1.
</event>
<event>
 5   0  0.7268013E-07  0.3906268E+04  0.7818609E-02  0.8023727E-01
        2   -1    0    0  501    0  0.00000000000E+00  0.00000000000E+00  0.31928539548E+04  0.31928539548E+04  0.25500000920E-02 0.  1.
       -2   -1    0    0    0  501  0.00000000000E+00  0.00000000000E+00 -0.11947722303E+04  0.11947722303E+04  0.25500000920E-02 0. -1.
    10030    2    1    2    0    0  0.00000000000E+00  0.00000000000E+00  0.19980817245E+04  0.43876261851E+04  0.39062684191E+04 0.  0.
        4    1    3    3  502    0 -0.14715438894E+04  0.11033172677E+04  0.26079679001E+03  0.18576240174E+04  0.12699999809E+01 0. -1.
       -4    1    3    3    0  502  0.14715438894E+04 -0.11033172677E+04  0.17372849345E+04  0.25300021676E+04  0.12699999809E+01 0.  1.
</event>
<event>
 5   0  0.1015219E-06  0.3889928E+04  0.7818609E-02  0.8027127E-01
        2   -1    0    0  501    0  0.00000000000E+00  0.00000000000E+00  0.29383955472E+04  0.29383955472E+04  0.25500000920E-02 0.  1.
       -2   -1    0    0    0  501  0.00000000000E+00  0.00000000000E+00 -0.12873983775E+04  0.12873983775E+04  0.25500000920E-02 0. -1.
    10030    2    1    2    0    0  0.00000000000E+00  0.00000000000E+00  0.16509971697E+04  0.42257939246E+04  0.38899283591E+04 0.  0.
        3    1    3    3  502    0  0.35927226635E+03 -0.19100360563E+04  0.74441237498E+03  0.20812169738E+04  0.10100000352E+00 0.  1.
       -3    1    3    3    0  502 -0.35927226635E+03  0.19100360563E+04  0.90658479475E+03  0.21445769508E+04  0.10100000352E+00 0. -1.
</event>
<event>
 5   0  0.5533705E-07  0.3902524E+04  0.7818609E-02  0.8024504E-01
       -2   -1    0    0    0  501  0.00000000000E+00  0.00000000000E+00  0.16620958740E+04  0.16620958740E+04  0.25500000920E-02 0. -1.
        2   -1    0    0  501    0  0.00000000000E+00  0.00000000000E+00 -0.22907365085E+04  0.22907365086E+04  0.25500000920E-02 0.  1.
    10030    2    1    2    0    0  0.00000000000E+00  0.00000000000E+00 -0.62864063451E+03  0.39528323826E+04  0.39025241572E+04 0.  0.
        1    1    3    3  502    0 -0.83630703756E+03  0.15309637602E+04  0.57111357855E+03  0.18356007779E+04  0.50400001928E-02 0. -1.
       -1    1    3    3    0  502  0.83630703756E+03 -0.15309637602E+04 -0.11997542131E+04  0.21172316047E+04  0.50400001928E-02 0.  1.
</event>
<event>
 5   0  0.3977376E-07  0.2441541E+04  0.7818609E-02  0.8424113E-01
       -1   -1    0    0    0  501  0.00000000000E+00  0.00000000000E+00  0.15311031927E+04  0.15311031927E+04  0.50400001928E-02 0.  1.
        1   -1    0    0  501    0  0.00000000000E+00  0.00000000000E+00 -0.97333781538E+03  0.97333781539E+03  0.50400001928E-02 0. -1.
    10030    2    1    2    0    0  0.00000000000E+00  0.00000000000E+00  0.55776537729E+03  0.25044410081E+04  0.24415410189E+04 0.  0.
        4    1    3    3  502    0 -0.99335925656E+03 -0.12315710725E+03  0.99570549824E+03  0.14118644899E+04  0.12699999809E+01 0.  1.
       -4    1    3    3    0  502  0.99335925656E+03  0.12315710725E+03 -0.43794012095E+03  0.10925765182E+04  0.12699999809E+01 0. -1.
</event>
<event>
 5   0  0.1035864E-06  0.3768022E+04  0.7818609E-02  0.8053052E-01
       -2   -1    0    0    0  501  0.00000000000E+00  0.00000000000E+00  0.18022174146E+04  0.18022174146E+04  0.25500000920E-02 0. -1.
        2   -1    0    0  501    0  0.00000000000E+00  0.00000000000E+00 -0.19695168284E+04  0.19695168284E+04  0.25500000920E-02 0.  1.
    10030    2    1    2    0    0  0.00000000000E+00  0.00000000000E+00 -0.16729941380E+03  0.37717342430E+04  0.37680220416E+04 0.  0.
        5    1    3    3  502    0  0.14082457436E+03  0.13056281271E+04  0.12685990600E+04  0.18258866427E+04  0.46999998093E+01 0. -1.
       -5    1    3    3    0  502 -0.14082457436E+03 -0.13056281271E+04 -0.14358984738E+04  0.19458476004E+04  0.46999998093E+01 0.  1.
</event>
<event>
 5   0  0.1035864E-06  0.3904585E+04  0.7818609E-02  0.8024076E-01
        2   -1    0    0  501    0  0.00000000000E+00  0.00000000000E+00  0.11009912369E+04  0.11009912369E+04  0.25500000920E-02 0.  1.
       -2   -1    0    0    0  501  0.00000000000E+00  0.00000000000E+00 -0.34618316009E+04  0.34618316009E+04  0.25500000920E-02 0. -1.
    10030    2    1    2    0    0  0.00000000000E+00  0.00000000000E+00 -0.23608403640E+04  0.45628228378E+04  0.39045851284E+04 0.  0.
        5    1    3    3  502    0 -0.27062172826E+03 -0.37263953599E+03 -0.33974391691E+04  0.34285144511E+04  0.46999998093E+01 0. -1.
       -5    1    3    3    0  502  0.27062172826E+03  0.37263953599E+03  0.10365988051E+04  0.11343083868E+04  0.46999998093E+01 0.  1.
</event>
<event>
 5   0  0.1034683E-06  0.4013618E+04  0.7818609E-02  0.8001805E-01
        2   -1    0    0  501    0  0.00000000000E+00  0.00000000000E+00  0.18281761643E+04  0.18281761643E+04  0.25500000920E-02 0. -1.
       -2   -1    0    0    0  501  0.00000000000E+00  0.00000000000E+00 -0.22028957732E+04  0.22028957732E+04  0.25500000920E-02 0.  1.
    10030    2    1    2    0    0  0.00000000000E+00  0.00000000000E+00 -0.37471960892E+03  0.40310719374E+04  0.40136175926E+04 0.  0.
        2    1    3    3  502    0  0.96185782243E+02  0.81595722712E+03  0.16515157730E+04  0.18445981269E+04  0.25500000920E-02 0. -1.
       -2    1    3    3    0  502 -0.96185782243E+02 -0.81595722712E+03 -0.20262353819E+04  0.21864738106E+04  0.25500000920E-02 0.  1.
</event>
<event>
 5   0  0.7268013E-07  0.3956669E+04  0.7818609E-02  0.8013345E-01
        2   -1    0    0  501    0  0.00000000000E+00  0.00000000000E+00  0.25480675636E+04  0.25480675636E+04  0.25500000920E-02 0. -1.
       -2   -1    0    0    0  501  0.00000000000E+00  0.00000000000E+00 -0.15359900628E+04  0.15359900629E+04  0.25500000920E-02 0.  1.
    10030    2    1    2    0    0  0.00000000000E+00  0.00000000000E+00  0.10120775008E+04  0.40840576265E+04  0.39566685265E+04 0.  0.
        4    1    3    3  502    0  0.67343569713E+03  0.72972072953E+03 -0.12601319002E+04  0.16043509591E+04  0.12699999809E+01 0.  1.
       -4    1    3    3    0  502 -0.67343569713E+03 -0.72972072953E+03  0.22722094010E+04  0.24797066673E+04  0.12699999809E+01 0. -1.
</event>
<event>
 5   0  0.1015219E-06  0.3907434E+04  0.7818609E-02  0.8023485E-01
        2   -1    0    0  501    0  0.00000000000E+00  0.00000000000E+00  0.21405153265E+04  0.21405153265E+04  0.25500000920E-02 0.  1.
       -2   -1    0    0    0  501  0.00000000000E+00  0.00000000000E+00 -0.17832204182E+04  0.17832204182E+04  0.25500000920E-02 0. -1.
    10030    2    1    2    0    0  0.00000000000E+00  0.00000000000E+00  0.35729490830E+03  0.39237357447E+04  0.39074342660E+04 0.  0.
        3    1    3    3  502    0  0.11988565581E+04  0.14700379699E+04 -0.29100230685E+03  0.19191016212E+04  0.10100000352E+00 0. -1.
       -3    1    3    3    0  502 -0.11988565581E+04 -0.14700379699E+04  0.64829721515E+03  0.20046341235E+04  0.10100000352E+00 0.  1.
</event>
<event>
 5   0  0.3977376E-07  0.3724388E+04  0.7818609E-02  0.8062578E-01
        1   -1    0    0  501    0  0.00000000000E+00  0.00000000000E+00  0.29037230981E+04  0.29037230981E+04  0.50400001928E-02 0.  1.
       -1   -1    0    0    0  501  0.00000000000E+00  0.00000000000E+00 -0.11942485792E+04  0.11942485792E+04  0.50400001928E-02 0. -1.
    10030    2    1    2    0    0  0.00000000000E+00  0.00000000000E+00  0.17094745189E+04  0.40979716773E+04  0.37243883709E+04 0.  0.
        4    1    3    3  502    0 -0.27000584423E+03 -0.15977953222E+04 -0.15485840179E+03  0.16278316206E+04  0.12699999809E+01 0. -1.
       -4    1    3    3    0  502  0.27000584423E+03  0.15977953222E+04  0.18643329207E+04  0.24701400567E+04  0.12699999809E+01 0.  1.
</event>
<event>
 5   0  0.4316671E-07  0.3906309E+04  0.7818609E-02  0.8023718E-01
        1   -1    0    0  501    0  0.00000000000E+00  0.00000000000E+00  0.13623692611E+04  0.13623692611E+04  0.50400001928E-02 0. -1.
       -1   -1    0    0    0  501  0.00000000000E+00  0.00000000000E+00 -0.28001316460E+04  0.28001316460E+04  0.50400001928E-02 0.  1.
    10030    2    1    2    0    0  0.00000000000E+00  0.00000000000E+00 -0.14377623849E+04  0.41625009072E+04  0.39063093998E+04 0.  0.
        2    1    3    3  502    0  0.24341289298E+02  0.13342091853E+04  0.80087723563E+03  0.15563132702E+04  0.25500000920E-02 0. -1.
       -2    1    3    3    0  502 -0.24341289298E+02 -0.13342091853E+04 -0.22386396205E+04  0.26061876369E+04  0.25500000920E-02 0.  1.
</event>
<event>
 5   0  0.1034683E-06  0.3956500E+04  0.7818609E-02  0.8013380E-01
       -2   -1    0    0    0  501  0.00000000000E+00  0.00000000000E+00  0.21723012807E+04  0.21723012807E+04  0.25500000920E-02 0.  1.
        2   -1    0    0  501    0  0.00000000000E+00  0.00000000000E+00 -0.18015334662E+04  0.18015334662E+04  0.25500000920E-02 0. -1.
    10030    2    1    2    0    0  0.00000000000E+00  0.00000000000E+00  0.37076781452E+03  0.39738347468E+04  0.39565001988E+04 0.  0.
        2    1    3    3  502    0  0.41437058979E+03 -0.18812177023E+04  0.63767947877E+03  0.20291175783E+04  0.25500000920E-02 0.  1.
       -2    1    3    3    0  502 -0.41437058979E+03  0.18812177023E+04 -0.26691166425E+03  0.19447171685E+04  0.25500000920E-02 0. -1.
</event>
<event>
 5   0  0.5533705E-07  0.3853627E+04  0.7818609E-02  0.8034744E-01
        2   -1    0    0  501    0  0.00000000000E+00  0.00000000000E+00  0.15719800236E+04  0.15719800236E+04  0.25500000920E-02 0.  1.
       -2   -1    0    0    0  501  0.00000000000E+00  0.00000000000E+00 -0.23617411659E+04  0.23617411659E+04  0.25500000920E-02 0. -1.
    10030    2    1    2    0    0  0.00000000000E+00  0.00000000000E+00 -0.78976114237E+03  0.39337211895E+04  0.38536268287E+04 0.  0.
        1    1    3    3  502    0 -0.15324144386E+04  0.25045514422E+02  0.79716135439E+03  0.17275379922E+04  0.50400001928E-02 0. -1.
       -1    1    3    3    0  502  0.15324144386E+04 -0.25045514422E+02 -0.15869224968E+04  0.22061831973E+04  0.50400001928E-02 0.  1.
</event>
<event>
 5   0  0.7268013E-07  0.2333526E+04  0.7818609E-02  0.8464818E-01
       -2   -1    0    0    0  501  0.00000000000E+00  0.00000000000E+00  0.11010583278E+04  0.11010583278E+04  0.25500000920E-02 0. -1.
        2   -1    0    0  501    0  0.00000000000E+00  0.00000000000E+00 -0.12363885926E+04  0.12363885926E+04  0.25500000920E-02 0.  1.
    10030    2    1    2    0    0  0.00000000000E+00  0.00000000000E+00 -0.13533026487E+03  0.23374469204E+04  0.23335260498E+04 0.  0.
        4    1    3    3  502    0  0.76262040505E+03 -0.68133682832E+03  0.49499443500E+03  0.11361473757E+04  0.12699999809E+01 0. -1.
       -4    1    3    3    0  502 -0.76262040505E+03  0.68133682832E+03 -0.63032469987E+03  0.12012995447E+04  0.12699999809E+01 0.  1.
</event>
<event>
 5   0  0.1035864E-06  0.2455596E+04  0.7818609E-02  0.8418977E-01
        2   -1    0    0  501    0  0.00000000000E+00  0.00000000000E+00  0.19011783957E+04  0.19011783957E+04  0.25500000920E-02 0. -1.
       -2   -1    0    0    0  501  0.00000000000E+00  0.00000000000E+00 -0.79292320630E+03  0.79292320631E+03  0.25500000920E-02 0.  1.
    10030    2    1    2    0    0  0.00000000000E+00  0.00000000000E+00  0.11082551894E+04  0.26941016020E+04  0.24555964402E+04 0.  0.
        5    1    3    3  502    0  0.79656191525E+03 -0.73759794234E+03  0.11833324438E+04  0.16058827391E+04  0.46999998093E+01 0. -1.
       -5    1    3    3    0  502 -0.79656191525E+03  0.73759794234E+03 -0.75077254375E+02  0.10882188629E+04  0.46999998093E+01 0.  1.
</event>
<event>
 5   0  0.1015219E-06  0.3743234E+04  0.7818609E-02  0.8058448E-01
        2   -1    0    0  501    0  0.00000000000E+00  0.00000000000E+00  0.22529266979E+04  0.22529266979E+04  0.25500000920E-02 0.  1.
       -2   -1    0    0    0  501  0.00000000000E+00  0.00000000000E+00 -0.15548438782E+04  0.15548438782E+04  0.25500000920E-02 0. -1.
    10030    2    1    2    0    0  0.00000000000E+00  0.00000000000E+00  0.69808281966E+03  0.38077705761E+04  0.37432335135E+04 0.  0.
        3    1    3    3  502    0  0.25939677082E+03 -0.11291755589E+03  0.22310505736E+04  0.22489161236E+04  0.10100000352E+00 0.  1.
       -3    1    3    3    0  502 -0.25939677082E+03  0.11291755589E+03 -0.15329677539E+04  0.15588544524E+04  0.10100000352E+00 0. -1.
</event>
<event>
 5   0  0.4316671E-07  0.3013049E+04  0.7818609E-02  0.8240014E-01
       -1   -1    0    0    0  501  0.00000000000E+00  0.00000000000E+00  0.11535218032E+04  0.11535218032E+04  0.50400001928E-02 0. -1.
        1   -1    0    0  501    0  0.00000000000E+00  0.00000000000E+00 -0.19675539993E+04  0.19675539993E+04  0.50400001928E-02 0.  1.
    10030    2    1    2    0    0  0.00000000000E+00  0.00000000000E+00 -0.81403219611E+03  0.31210758025E+04  0.30130492443E+04 0.  0.
        2    1    3    3  502    0 -0.16552950558E+02 -0.20584985182E+03 -0.19528225017E+04  0.19637117622E+04  0.25500000920E-02 0.  1.
       -2    1    3    3    0  502  0.16552950558E+02  0.20584985182E+03  0.11387903056E+04  0.11573640403E+04  0.25500000920E-02 0. -1.
</event>
<event>
 5   0  0.4627905E-07  0.3895151E+04  0.7818609E-02  0.8026038E-01
       -1   -1    0    0    0  501  0.00000000000E+00  0.00000000000E+00  0.23750521701E+04  0.23750521701E+04  0.50400001928E-02 0.  1.
        1   -1    0    0  501    0  0.00000000000E+00  0.00000000000E+00 -0.15970386094E+04  0.15970386094E+04  0.50400001928E-02 0. -1.
    10030    2    1    2    0    0  0.00000000000E+00  0.00000000000E+00  0.77801356074E+03  0.39720907795E+04  0.38951508392E+04 0.  0.
        1    1    3    3  502    0 -0.71817740272E+03 -0.94482123683E+02 -0.14545596417E+04  0.16249459698E+04  0.50400001928E-02 0. -1.
       -1    1    3    3    0  502  0.71817740272E+03  0.94482123683E+02  0.22325732024E+04  0.23471448097E+04  0.50400001928E-02 0.  1.
</event>
<event>
 5   0  0.3977376E-07  0.2508377E+04  0.7818609E-02  0.8400007E-01
       -1   -1    0    0    0  501  0.00000000000E+00  0.00000000000E+00  0.12441922266E+04  0.12441922266E+04  0.50400001928E-02 0. -1.
        1   -1    0    0  501    0  0.00000000000E+00  0.00000000000E+00 -0.12642652738E+04  0.12642652738E+04  0.50400001928E-02 0.  1.
    10030    2    1    2    0    0  0.00000000000E+00  0.00000000000E+00 -0.20073047160E+02  0.25084575005E+04  0.25083771854E+04 0.  0.
        4    1    3    3  502    0  0.87852225404E+03 -0.58182632939E+03  0.67017948114E+03  0.12487855614E+04  0.12699999809E+01 0. -1.
       -4    1    3    3    0  502 -0.87852225404E+03  0.58182632939E+03 -0.69025252830E+03  0.12596719391E+04  0.12699999809E+01 0.  1.
</event>
<event>
 5   0  0.1035864E-06  0.2858228E+04  0.7818609E-02  0.8285415E-01
        2   -1    0    0  501    0  0.00000000000E+00  0.00000000000E+00  0.19778674597E+04  0.19778674597E+04  0.25500000920E-02 0. -1.
       -2   -1    0    0    0  501  0.00000000000E+00  0.00000000000E+00 -0.10326105023E+04  0.10326105023E+04  0.25500000920E-02 0.  1.
    10030    2    1    2    0    0  0.00000000000E+00  0.00000000000E+00  0.94525695745E+03  0.30104779620E+04  0.28582279202E+04 0.  0.
        5    1    3    3  502    0 -0.10023860605E+04  0.10377000298E+03 -0.59465854095E+03  0.11701225996E+04  0.46999998093E+01 0.  1.
       -5    1    3    3    0  502  0.10023860605E+04 -0.10377000298E+03  0.15399154984E+04  0.18403553624E+04  0.46999998093E+01 0. -1.
</event>
<event>
 5   0  0.4627905E-07  0.3983421E+04  0.7818609E-02  0.8007899E-01
       -1   -1    0    0    0  501  0.00000000000E+00  0.00000000000E+00  0.25399066942E+04  0.25399066942E+04  0.50400001928E-02 0. -1.
        1   -1    0    0  501    0  0.00000000000E+00  0.00000000000E+00 -0.15618333243E+04  0.15618333243E+04  0.50400001928E-02 0.  1.
    10030    2    1    2    0    0  0.00000000000E+00  0.00000000000E+00  0.97807336985E+03  0.41017400185E+04  0.39834211004E+04 0.  0.
        1    1    3    3  502    0  0.43190937214E+03 -0.18108712743E+04  0.12179546176E+04  0.22246828827E+04  0.50400001928E-02 0. -1.
       -1    1    3    3    0  502 -0.43190937214E+03  0.18108712743E+04 -0.23988124779E+03  0.18770571358E+04  0.50400001928E-02 0.  1.
</event>
<event>
 5   0  0.5533705E-07  0.3914859E+04  0.7818609E-02  0.8021946E-01
       -2   -1    0    0    0  501  0.00000000000E+00  0.00000000000E+00  0.11853159423E+04  0.11853159423E+04  0.25500000920E-02 0.  1.
        2   -1    0    0  501    0  0.00000000000E+00  0.00000000000E+00 -0.32324970475E+04  0.32324970475E+04  0.25500000920E-02 0. -1.
    10030    2    1    2    0    0  0.00000000000E+00  0.00000000000E+00 -0.20471811053E+04  0.44178129898E+04  0.39148590186E+04 0.  0.
        1    1    3    3  502    0 -0.16418641237E+03 -0.72729585795E+03  0.10187941534E+04  0.12624808790E+04  0.50400001928E-02 0.  1.
       -1    1    3    3    0  502  0.16418641237E+03  0.72729585795E+03 -0.30659752586E+04  0.31553321108E+04  0.50400001928E-02 0. -1.
</event>
<event>
 5   0  0.4627905E-07  0.2052528E+04  0.7818609E-02  0.8582448E-01
       -1   -1    0    0    0  501  0.00000000000E+00  0.00000000000E+00  0.63720192336E+03  0.63720192338E+03  0.50400001928E-02 0. -1.
        1   -1    0    0  501    0  0.00000000000E+00  0.00000000000E+00 -0.16528789199E+04  0.16528789199E+04  0.50400001928E-02 0.  1.
    10030    2    1    2    0    0  0.00000000000E+00  0.00000000000E+00 -0.10156769965E+04  0.22900808433E+04  0.20525278335E+04 0.  0.
        1    1    3    3  502    0 -0.23124706493E+03  0.56759108188E+03  0.41058490246E+03  0.73770915910E+03  0.50400001928E-02 0. -1.
       -1    1    3    3    0  502  0.23124706493E+03 -0.56759108188E+03 -0.14262618990E+04  0.15523716841E+04  0.50400001928E-02 0.  1.
</event>
<event>
 5   0  0.7268013E-07  0.2095676E+04  0.7818609E-02  0.8563150E-01
        2   -1    0    0  501    0  0.00000000000E+00  0.00000000000E+00  0.13217255834E+04  0.13217255834E+04  0.25500000920E-02 0.  1.
       -2   -1    0    0    0  501  0.00000000000E+00  0.00000000000E+00 -0.83070536582E+03  0.83070536583E+03  0.25500000920E-02 0. -1.
    10030    2    1    2    0    0  0.00000000000E+00  0.00000000000E+00  0.49102021755E+03  0.21524309492E+04  0.20956760573E+04 0.  0.
        4    1    3    3  502    0 -0.26797590577E+03 -0.33147264671E+03 -0.73763730139E+03  0.85193638430E+03  0.12699999809E+01 0. -1.
       -4    1    3    3    0  502  0.26797590577E+03  0.33147264671E+03  0.12286575189E+04  0.13004945649E+04  0.12699999809E+01 0.  1.
</event>
<event>
 5   0  0.5533705E-07  0.3882900E+04  0.7818609E-02  0.8028595E-01
        2   -1    0    0  501    0  0.00000000000E+00  0.00000000000E+00  0.16234705777E+04  0.16234705777E+04  0.25500000920E-02 0.  1.
       -2   -1    0    0    0  501  0.00000000000E+00  0.00000000000E+00 -0.23217101245E+04  0.23217101245E+04  0.25500000920E-02 0. -1.
    10030    2    1    2    0    0  0.00000000000E+00  0.00000000000E+00 -0.69823954678E+03  0.39451807022E+04  0.38828999869E+04 0.  0.
        1    1    3    3  502    0  0.15242656455E+04 -0.17468382806E+03  0.85963785091E+03  0.17586578498E+04  0.50400001928E-02 0.  1.
       -1    1    3    3    0  502 -0.15242656455E+04  0.17468382806E+03 -0.15578773977E+04  0.21865228524E+04  0.50400001928E-02 0. -1.
</event>
<event>
 5   0  0.1034683E-06  0.3787073E+04  0.7818609E-02  0.8048935E-01
       -2   -1    0    0    0  501  0.00000000000E+00  0.00000000000E+00  0.19277695181E+04  0.19277695181E+04  0.25500000920E-02 0.  1.
        2   -1    0    0  501    0  0.00000000000E+00  0.00000000000E+00 -0.18599116970E+04  0.18599116970E+04  0.25500000920E-02 0. -1.
    10030    2    1    2    0    0  0.00000000000E+00  0.00000000000E+00  0.67857821107E+02  0.37876812150E+04  0.37870733163E+04 0.  0.
        2    1    3    3  502    0  0.81008455328E+03 -0.16233896404E+04  0.57609540956E+03  0.19035537368E+04  0.25500000920E-02 0.  1.
       -2    1    3    3    0  502 -0.81008455328E+03  0.16233896404E+04 -0.50823758845E+03  0.18841274782E+04  0.25500000920E-02 0. -1.
</event>
<event>
 5   0  0.3471602E-07  0.3467457E+04  0.7818609E-02  0.8121546E-01
       -1   -1    0    0    0  501  0.00000000000E+00  0.00000000000E+00  0.21464191330E+04  0.21464191330E+04  0.50400001928E-02 0. -1.
        1   -1    0    0  501    0  0.00000000000E+00  0.00000000000E+00 -0.14003855687E+04  0.14003855687E+04  0.50400001928E-02 0.  1.
    10030    2    1    2    0    0  0.00000000000E+00  0.00000000000E+00  0.74603356431E+03  0.35468047018E+04  0.34674569231E+04 0.  0.
        5    1    3    3  502    0 -0.13558196965E+04  0.80808822699E+03  0.11067449721E+04  0.19277344618E+04  0.46999998093E+01 0. -1.
       -5    1    3    3    0  502  0.13558196965E+04 -0.80808822699E+03 -0.36071140779E+03  0.16190702399E+04  0.46999998093E+01 0.  1.
</event>
<event>
 5   0  0.4627905E-07  0.3813143E+04  0.7818609E-02  0.8043340E-01
       -1   -1    0    0    0  501  0.00000000000E+00  0.00000000000E+00  0.18390252944E+04  0.18390252944E+04  0.50400001928E-02 0.  1.
        1   -1    0    0  501    0  0.00000000000E+00  0.00000000000E+00 -0.19765985486E+04  0.19765985486E+04  0.50400001928E-02 0. -1.
    10030    2    1    2    0    0  0.00000000000E+00  0.00000000000E+00 -0.13757325425E+03  0.38156238430E+04  0.38131429177E+04 0.  0.
        1    1    3    3  502    0 -0.11950978310E+04  0.13128114221E+04 -0.76442385107E+03  0.19328932924E+04  0.50400001928E-02 0. -1.
       -1    1    3    3    0  502  0.11950978310E+04 -0.13128114221E+04  0.62685059683E+03  0.18827305506E+04  0.50400001928E-02 0.  1.
</event>
<event>
 5   0  0.7268013E-07  0.3620304E+04  0.7818609E-02  0.8085857E-01
       -2   -1    0    0    0  501  0.00000000000E+00  0.00000000000E+00  0.17719911725E+04  0.17719911725E+04  0.25500000920E-02 0.  1.
        2   -1    0    0  501    0  0.00000000000E+00  0.00000000000E+00 -0.18491342839E+04  0.18491342839E+04  0.25500000920E-02 0. -1.
    10030    2    1    2    0    0  0.00000000000E+00  0.00000000000E+00 -0.77143111380E+02  0.36211254563E+04  0.36203036490E+04 0.  0.
        4    1    3    3  502    0  0.11939617447E+04  0.77962684702E+03 -0.11538517272E+04  0.18343222426E+04  0.12699999809E+01 0. -1.
       -4    1    3    3    0  502 -0.11939617447E+04 -0.77962684702E+03  0.10767086158E+04  0.17868032137E+04  0.12699999809E+01 0.  1.
</event>
<event>
 5   0  0.7268013E-07  0.3237160E+04  0.7818609E-02  0.8179072E-01
       -2   -1    0    0    0  501  0.00000000000E+00  0.00000000000E+00  0.16184930574E+04  0.16184930574E+04  0.25500000920E-02 0. -1.
        2   -1    0    0  501    0  0.00000000000E+00  0.00000000000E+00 -0.16186673414E+04  0.16186673414E+04  0.25500000920E-02 0.  1.
    10030    2    1    2    0    0  0.00000000000E+00  0.00000000000E+00 -0.17428400239E+00  0.32371603987E+04  0.32371603940E+04 0.  0.
        4    1    3    3  502    0  0.98415609034E+03  0.20857234854E+03  0.12678776096E+04  0.16185119340E+04  0.12699999809E+01 0. -1.
       -4    1    3    3    0  502 -0.98415609034E+03 -0.20857234854E+03 -0.12680518936E+04  0.16186484647E+04  0.12699999809E+01 0.  1.
</event>
<event>
 5   0  0.1015219E-06  0.4064293E+04  0.7818609E-02  0.7991701E-01
        2   -1    0    0  501    0  0.00000000000E+00  0.00000000000E+00  0.21091732243E+04  0.21091732243E+04  0.25500000920E-02 0. -1.
       -2   -1    0    0    0  501  0.00000000000E+00  0.00000000000E+00 -0.19579330893E+04  0.19579330893E+04  0.25500000920E-02 0.  1.
    10030    2    1    2    0    0  0.00000000000E+00  0.00000000000E+00  0.15124013494E+03  0.40671063136E+04  0.40642933196E+04 0.  0.
        3    1    3    3  502    0 -0.19924773381E+04  0.17579984099E+03 -0.28344370301E+03  0.20202009479E+04  0.10100000352E+00 0.  1.
       -3    1    3    3    0  502  0.19924773381E+04 -0.17579984099E+03  0.43468383795E+03  0.20469053657E+04  0.10100000352E+00 0. -1.
</event>
<event>
 5   0  0.5533705E-07  0.3866973E+04  0.7818609E-02  0.8031933E-01
        2   -1    0    0  501    0  0.00000000000E+00  0.00000000000E+00  0.22067247461E+04  0.22067247461E+04  0.25500000920E-02 0. -1.
       -2   -1    0    0    0  501  0.00000000000E+00  0.00000000000E+00 -0.16940811861E+04  0.16940811861E+04  0.25500000920E-02 0.  1.
    10030    2    1    2    0    0  0.00000000000E+00  0.00000000000E+00  0.51264356001E+03  0.39008059323E+04  0.38669734291E+04 0.  0.
        1    1    3    3  502    0  0.18887951928E+04  0.40013796778E+03  0.36073194988E+03  0.19641245411E+04  0.50400001928E-02 0. -1.
       -1    1    3    3    0  502 -0.18887951928E+04 -0.40013796778E+03  0.15191161013E+03  0.19366813911E+04  0.50400001928E-02 0.  1.
</event>
<event>
 5   0  0.7268013E-07  0.2435515E+04  0.7818609E-02  0.8426326E-01
        2   -1    0    0  501    0  0.00000000000E+00  0.00000000000E+00  0.17073625895E+04  0.17073625895E+04  0.25500000920E-02 0. -1.
       -2   -1    0    0    0  501  0.00000000000E+00  0.00000000000E+00 -0.86855195210E+03  0.86855195210E+03  0.25500000920E-02 0.  1.
    10030    2    1    2    0    0  0.00000000000E+00  0.00000000000E+00  0.83881063737E+03  0.25759145416E+04  0.24355148203E+04 0.  0.
        4    1    3    3  502    0  0.47870439121E+02 -0.12118427223E+04  0.53563649405E+03  0.13258063317E+04  0.12699999809E+01 0. -1.
       -4    1    3    3    0  502 -0.47870439121E+02  0.12118427223E+04  0.30317414332E+03  0.12501082099E+04  0.12699999809E+01 0.  1.
</event>
<event>
 5   0  0.3471602E-07  0.2089259E+04  0.7818609E-02  0.8565990E-01
        1   -1    0    0  501    0  0.00000000000E+00  0.00000000000E+00  0.84074654086E+03  0.84074654087E+03  0.50400001928E-02 0.  1.
       -1   -1    0    0    0  501  0.00000000000E+00  0.00000000000E+00 -0.12979539961E+04  0.12979539961E+04  0.50400001928E-02 0. -1.
    10030    2    1    2    0    0  0.00000000000E+00  0.00000000000E+00 -0.45720745521E+03  0.21387005370E+04  0.20892585598E+04 0.  0.
        5    1    3    3  502    0 -0.18599582475E+03  0.99379260993E+03  0.40310599256E+02  0.10118622598E+04  0.46999998093E+01 0. -1.
       -5    1    3    3    0  502  0.18599582475E+03 -0.99379260993E+03 -0.49751805447E+03  0.11268382772E+04  0.46999998093E+01 0.  1.
</event>
<event>
 5   0  0.1035864E-06  0.3895143E+04  0.7818609E-02  0.8026040E-01
        2   -1    0    0  501    0  0.00000000000E+00  0.00000000000E+00  0.32571355451E+04  0.32571355451E+04  0.25500000920E-02 0. -1.
       -2   -1    0    0    0  501  0.00000000000E+00  0.00000000000E+00 -0.11645306554E+04  0.11645306555E+04  0.25500000920E-02 0.  1.
    10030    2    1    2    0    0  0.00000000000E+00  0.00000000000E+00  0.20926048897E+04  0.44216662006E+04  0.38951427143E+04 0.  0.
        5    1    3    3  502    0  0.10902012679E+04 -0.55241908265E+03  0.27676200418E+04  0.30254666471E+04  0.46999998093E+01 0. -1.
       -5    1    3    3    0  502 -0.10902012679E+04  0.55241908265E+03 -0.67501515212E+03  0.13961995534E+04  0.46999998093E+01 0.  1.
</event>
<event>
 5   0  0.7268013E-07  0.3875801E+04  0.7818609E-02  0.8030081E-01
        2   -1    0    0  501    0  0.00000000000E+00  0.00000000000E+00  0.23674665453E+04  0.23674665453E+04  0.25500000920E-02 0.  1.
       -2   -1    0    0    0  501  0.00000000000E+00  0.00000000000E+00 -0.15862776616E+04  0.15862776616E+04  0.25500000920E-02 0. -1.
    10030    2    1    2    0    0  0.00000000000E+00  0.00000000000E+00  0.78118888371E+03  0.39537442068E+04  0.38758014889E+04 0.  0.
        4    1    3    3  502    0  0.12206541342E+04 -0.11635663274E+04 -0.58337009427E+03  0.17844341942E+04  0.12699999809E+01 0.  1.
       -4    1    3    3    0  502 -0.12206541342E+04  0.11635663274E+04  0.13645589780E+04  0.21693100126E+04  0.12699999809E+01 0. -1.
</event>
<event>
 5   0  0.5533705E-07  0.2328390E+04  0.7818609E-02  0.8466811E-01
       -2   -1    0    0    0  501  0.00000000000E+00  0.00000000000E+00  0.63166021462E+03  0.63166021462E+03  0.25500000920E-02 0.  1.
        2   -1    0    0  501    0  0.00000000000E+00  0.00000000000E+00 -0.21456942021E+04  0.21456942021E+04  0.25500000920E-02 0. -1.
    10030    2    1    2    0    0  0.00000000000E+00  0.00000000000E+00 -0.15140339874E+04  0.27773544167E+04  0.23283897098E+04 0.  0.
        1    1    3    3  502    0  0.80270612070E+03 -0.81397420587E+03 -0.10195964698E+04  0.15318185549E+04  0.50400001928E-02 0. -1.
       -1    1    3    3    0  502 -0.80270612070E+03  0.81397420587E+03 -0.49443751766E+03  0.12455358618E+04  0.50400001928E-02 0.  1.
</event>
<event>
 5   0  0.1034683E-06  0.2799915E+04  0.7818609E-02  0.8303295E-01
        2   -1    0    0  501    0  0.00000000000E+00  0.00000000000E+00  0.12812578126E+04  0.12812578126E+04  0.25500000920E-02 0.  1.
       -2   -1    0    0    0  501  0.00000000000E+00  0.00000000000E+00 -0.15296539444E+04  0.15296539444E+04  0.25500000920E-02 0. -1.
    10030    2    1    2    0    0  0.00000000000E+00  0.00000000000E+00 -0.24839613178E+03  0.28109117569E+04  0.27999150464E+04 0.  0.
        2    1    3    3  502    0  0.12307056340E+03  0.13913614256E+04 -0.21863177211E+03  0.14138008460E+04  0.25500000920E-02 0. -1.
       -2    1    3    3    0  502 -0.12307056340E+03 -0.13913614256E+04 -0.29764359666E+02  0.13971109109E+04  0.25500000920E-02 0.  1.
</event>
<event>
 5   0  0.7268013E-07  0.3908593E+04  0.7818609E-02  0.8023244E-01
        2   -1    0    0  501    0  0.00000000000E+00  0.00000000000E+00  0.30981338683E+04  0.30981338683E+04  0.25500000920E-02 0.  1.
       -2   -1    0    0    0  501  0.00000000000E+00  0.00000000000E+00 -0.12327662750E+04  0.12327662750E+04  0.25500000920E-02 0. -1.
    10030    2    1    2    0    0  0.00000000000E+00  0.00000000000E+00  0.18653675933E+04  0.43309001433E+04  0.39085930708E+04 0.  0.
        4    1    3    3  502    0 -0.74594569203E+03  0.18046494233E+04  0.10190745604E+04  0.22026595490E+04  0.12699999809E+01 0.  1.
       -4    1    3    3    0  502  0.74594569203E+03 -0.18046494233E+04  0.84629303290E+03  0.21282405942E+04  0.12699999809E+01 0. -1.
</event>
<event>
 5   0  0.3977376E-07  0.3897158E+04  0.7818609E-02  0.8025621E-01
       -1   -1    0    0    0  501  0.00000000000E+00  0.00000000000E+00  0.18162156613E+04  0.18162156613E+04  0.50400001928E-02 0. -1.
        1   -1    0    0  501    0  0.00000000000E+00  0.00000000000E+00 -0.20905887572E+04  0.20905887572E+04  0.50400001928E-02 0.  1.
    10030    2    1    2    0    0  0.00000000000E+00  0.00000000000E+00 -0.27437309587E+03  0.39068044185E+04  0.38971579605E+04 0.  0.
        4    1    3    3  502    0  0.10350855792E+04  0.14193720357E+04  0.70807268121E+03  0.18940400384E+04  0.12699999809E+01 0. -1.
       -4    1    3    3    0  502 -0.10350855792E+04 -0.14193720357E+04 -0.98244577708E+03  0.20127643801E+04  0.12699999809E+01 0.  1.
</event>
<event>
 5   0  0.1034683E-06  0.3754722E+04  0.7818609E-02  0.8055942E-01
        2   -1    0    0  501    0  0.00000000000E+00  0.00000000000E+00  0.29427461238E+04  0.29427461238E+04  0.25500000920E-02 0. -1.
       -2   -1    0    0    0  501  0.00000000000E+00  0.00000000000E+00 -0.11976852894E+04  0.11976852894E+04  0.25500000920E-02 0.  1.
    10030    2    1    2    0    0  0.00000000000E+00  0.00000000000E+00  0.17450608344E+04  0.41404314132E+04  0.37547216903E+04 0.  0.
        2    1    3    3  502    0  0.11854932031E+04 -0.14463841756E+04  0.69112460483E+03  0.19937588965E+04  0.25500000920E-02 0.  1.
       -2    1    3    3    0  502 -0.11854932031E+04  0.14463841756E+04  0.10539362296E+04  0.21466725167E+04  0.25500000920E-02 0. -1.
</event>
<event>
 5   0  0.3471602E-07  0.3268480E+04  0.7818609E-02  0.8170962E-01
       -1   -1    0    0    0  501  0.00000000000E+00  0.00000000000E+00  0.25273773674E+04  0.25273773674E+04  0.50400001928E-02 0.  1.
        1   -1    0    0  501    0  0.00000000000E+00  0.00000000000E+00 -0.10567242398E+04  0.10567242398E+04  0.50400001928E-02 0. -1.
    10030    2    1    2    0    0  0.00000000000E+00  0.00000000000E+00  0.14706531276E+04  0.35841016072E+04  0.32684803363E+04 0.  0.
        5    1    3    3  502    0  0.15487790357E+04  0.33690374633E+03  0.11718892428E+04  0.19711841931E+04  0.46999998093E+01 0.  1.
       -5    1    3    3    0  502 -0.15487790357E+04 -0.33690374633E+03  0.29876388485E+03  0.16129174141E+04  0.46999998093E+01 0. -1.
</event>
<event>
 5   0  0.4627905E-07  0.3725150E+04  0.7818609E-02  0.8062411E-01
        1   -1    0    0  501    0  0.00000000000E+00  0.00000000000E+00  0.28471978190E+04  0.28471978190E+04  0.50400001928E-02 0.  1.
       -1   -1    0    0    0  501  0.00000000000E+00  0.00000000000E+00 -0.12184562348E+04  0.12184562348E+04  0.50400001928E-02 0. -1.
    10030    2    1    2    0    0  0.00000000000E+00  0.00000000000E+00  0.16287415842E+04  0.40656540538E+04  0.37251501630E+04 0.  0.
        1    1    3    3  502    0  0.11431100006E+04  0.12139271549E+04  0.17202162575E+04  0.23957177595E+04  0.50400001928E-02 0.  1.
       -1    1    3    3    0  502 -0.11431100006E+04 -0.12139271549E+04 -0.91474673268E+02  0.16699362942E+04  0.50400001928E-02 0. -1.
</event>
<event>
 5   0  0.1015219E-06  0.3894425E+04  0.7818609E-02  0.8026190E-01
        2   -1    0    0  501    0  0.00000000000E+00  0.00000000000E+00  0.22388769741E+04  0.22388769741E+04  0.25500000920E-02 0. -1.
       -2   -1    0    0    0  501  0.00000000000E+00  0.00000000000E+00 -0.16935437490E+04  0.16935437490E+04  0.25500000920E-02 0.  1.
    10030    2    1    2    0    0  0.00000000000E+00  0.00000000000E+00  0.54533322518E+03  0.39324207231E+04  0.38944247864E+04 0.  0.
        3    1    3    3  502    0 -0.91347395865E+03  0.11876170409E+04  0.15284916298E+04  0.21403634228E+04  0.10100000352E+00 0. -1.
       -3    1    3    3    0  502  0.91347395865E+03 -0.11876170409E+04 -0.98315840465E+03  0.17920573003E+04  0.10100000352E+00 0.  1.
</event>
<event>
 5   0  0.3471602E-07  0.2350903E+04  0.7818609E-02  0.8458117E-01
       -1   -1    0    0    0  501  0.00000000000E+00  0.00000000000E+00  0.63004295110E+03  0.63004295112E+03  0.50400001928E-02 0.  1.
        1   -1    0    0  501    0  0.00000000000E+00  0.00000000000E+00 -0.21930024528E+04  0.21930024528E+04  0.50400001928E-02 0. -1.
    10030    2    1    2    0    0  0.00000000000E+00  0.00000000000E+00 -0.15629595017E+04  0.28230454039E+04  0.23509025817E+04 0.  0.
        5    1    3    3  502    0  0.82654155020E+01  0.24071578356E+03  0.60008109267E+03  0.64663112617E+03  0.46999998093E+01 0.  1.
       -5    1    3    3    0  502 -0.82654155020E+01 -0.24071578356E+03 -0.21630405944E+04  0.21764142777E+04  0.46999998093E+01 0. -1.
</event>
<event>
 5   0  0.5533705E-07  0.2353053E+04  0.7818609E-02  0.8457292E-01
       -2   -1    0    0    0  501  0.00000000000E+00  0.00000000000E+00  0.17252467037E+04  0.17252467037E+04  0.25500000920E-02 0.  1.
        2   -1    0    0  501    0  0.00000000000E+00  0.00000000000E+00 -0.80232883922E+03  0.80232883923E+03  0.25500000920E-02 0. -1.
    10030    2    1    2    0    0  0.00000000000E+00  0.00000000000E+00  0.92291786451E+03  0.25275755430E+04  0.23530534930E+04 0.  0.
        1    1    3    3  502    0 -0.40005121096E+03  0.19146276194E+03 -0.70909686483E+03  0.83637152292E+03  0.50400001928E-02 0. -1.
       -1    1    3    3    0  502  0.40005121096E+03 -0.19146276194E+03  0.16320147293E+04  0.16912040200E+04  0.50400001928E-02 0.  1.
</event>
<event>
 5   0  0.3977376E-07  0.4016039E+04  0.7818609E-02  0.8001319E-01
       -1   -1    0    0    0  501  0.00000000000E+00  0.00000000000E+00  0.17773700308E+04  0.17773700309E+04  0.50400001928E-02 0.  1.
        1   -1    0    0  501    0  0.00000000000E+00  0.00000000000E+00 -0.22686002575E+04  0.22686002575E+04  0.50400001928E-02 0. -1.
    10030    2    1    2    0    0  0.00000000000E+00  0.00000000000E+00 -0.49123022661E+03  0.40459702883E+04  0.40160388990E+04 0.  0.
        4    1    3    3  502    0  0.56477791421E+02  0.33452695729E+03 -0.22395176170E+04  0.22650692696E+04  0.12699999809E+01 0. -1.
       -4    1    3    3    0  502 -0.56477791421E+02 -0.33452695729E+03  0.17482873904E+04  0.17809010187E+04  0.12699999809E+01 0.  1.
</event>
<event>
 5   0  0.3471602E-07  0.3881143E+04  0.7818609E-02  0.8028963E-01
       -1   -1    0    0    0  501  0.00000000000E+00  0.00000000000E+00  0.17364880048E+04  0.17364880049E+04  0.50400001928E-02 0. -1.
        1   -1    0    0  501    0  0.00000000000E+00  0.00000000000E+00 -0.21686401145E+04  0.21686401145E+04  0.50400001928E-02 0.  1.
    10030    2    1    2    0    0  0.00000000000E+00  0.00000000000E+00 -0.43215210965E+03  0.39051281194E+04  0.38811428965E+04 0.  0.
        5    1    3    3  502    0 -0.38908782644E+03 -0.14238720539E+04 -0.14836209884E+04  0.20928340330E+04  0.46999998093E+01 0.  1.
       -5    1    3    3    0  502  0.38908782644E+03  0.14238720539E+04  0.10514688788E+04  0.18122940864E+04  0.46999998093E+01 0. -1.
</event>
<event>
 5   0  0.5533705E-07  0.3198869E+04  0.7818609E-02  0.8189116E-01
       -2   -1    0    0    0  501  0.00000000000E+00  0.00000000000E+00  0.13398021385E+04  0.13398021385E+04  0.25500000920E-02 0.  1.
        2   -1    0    0  501    0  0.00000000000E+00  0.00000000000E+00 -0.19093795623E+04  0.19093795623E+04  0.25500000920E-02 0. -1.
    10030    2    1    2    0    0  0.00000000000E+00  0.00000000000E+00 -0.56957742372E+03  0.32491817008E+04  0.31988690632E+04 0.  0.
        1    1    3    3  502    0 -0.13682235733E+03  0.38989096730E+03  0.12846529509E+04  0.13494697211E+04  0.50400001928E-02 0.  1.
       -1    1    3    3    0  502  0.13682235733E+03 -0.38989096730E+03 -0.18542303746E+04  0.18997119797E+04  0.50400001928E-02 0. -1.
</event>
<event>
 5   0  0.1015219E-06  0.2571166E+04  0.7818609E-02  0.8378062E-01
        2   -1    0    0  501    0  0.00000000000E+00  0.00000000000E+00  0.17982855175E+04  0.17982855175E+04  0.25500000920E-02 0.  1.
       -2   -1    0    0    0  501  0.00000000000E+00  0.00000000000E+00 -0.91905552715E+03  0.91905552715E+03  0.25500000920E-02 0. -1.
    10030    2    1    2    0    0  0.00000000000E+00  0.00000000000E+00  0.87922999032E+03  0.27173410446E+04  0.25711664623E+04 0.  0.
        3    1    3    3  502    0  0.49024903759E+03  0.39129007545E+03 -0.74635516132E+03  0.97493491015E+03  0.10100000352E+00 0. -1.
       -3    1    3    3    0  502 -0.49024903759E+03 -0.39129007545E+03  0.16255851516E+04  0.17424061345E+04  0.10100000352E+00 0.  1.
</event>
<event>
 5   0  0.1015219E-06  0.3835806E+04  0.7818609E-02  0.8038514E-01
        2   -1    0    0  501    0  0.00000000000E+00  0.00000000000E+00  0.16047639029E+04  0.16047639029E+04  0.25500000920E-02 0. -1.
       -2   -1    0    0    0  501  0.00000000000E+00  0.00000000000E+00 -0.22921449396E+04  0.22921449396E+04  0.25500000920E-02 0.  1.
    10030    2    1    2    0    0  0.00000000000E+00  0.00000000000E+00 -0.68738103662E+03  0.38969088425E+04  0.38358057612E+04 0.  0.
        3    1    3    3  502    0  0.12890358465E+04  0.13237414319E+04  0.17874498212E+03  0.18563013147E+04  0.10100000352E+00 0. -1.
       -3    1    3    3    0  502 -0.12890358465E+04 -0.13237414319E+04 -0.86612601874E+03  0.20406075278E+04  0.10100000352E+00 0.  1.
</event>
<event>
 5   0  0.4316671E-07  0.3194701E+04  0.7818609E-02  0.8190218E-01
       -1   -1    0    0    0  501  0.00000000000E+00  0.00000000000E+00  0.13461551620E+04  0.13461551620E+04  0.50400001928E-02 0. -1.
        1   -1    0    0  501    0  0.00000000000E+00  0.00000000000E+00 -0.18954188963E+04  0.18954188963E+04  0.50400001928E-02 0.  1.
    10030    2    1    2    0    0  0.00000000000E+00  0.00000000000E+00 -0.54926373427E+03  0.32415740583E+04  0.31947005690E+04 0.  0.
        2    1    3    3  502    0  0.19150893745E+03 -0.32556552575E+03  0.13001902669E+04  0.13539436159E+04  0.25500000920E-02 0. -1.
       -2    1    3    3    0  502 -0.19150893745E+03  0.32556552575E+03 -0.18494540012E+04  0.18876304424E+04  0.25500000920E-02 0.  1.
</event>
<event>
 5   0  0.3191750E-07  0.3824537E+04  0.7818609E-02  0.8040910E-01
       -3   -1    0    0    0  501  0.00000000000E+00  0.00000000000E+00  0.17257676427E+04  0.17257676456E+04  0.10100000352E+00 0.  1.
        3   -1    0    0  501    0  0.00000000000E+00  0.00000000000E+00 -0.21189245997E+04  0.21189246021E+04  0.10100000352E+00 0. -1.
    10030    2    1    2    0    0  0.00000000000E+00  0.00000000000E+00 -0.39315695700E+03  0.38446922477E+04  0.38245373690E+04 0.  0.
        5    1    3    3  502    0  0.84140205919E+03  0.35309228882E+03  0.14927888098E+04  0.17495919840E+04  0.46999998093E+01 0.  1.
       -5    1    3    3    0  502 -0.84140205919E+03 -0.35309228882E+03 -0.18859457668E+04  0.20951002637E+04  0.46999998093E+01 0. -1.
</event>
<event>
 5   0  0.4316671E-07  0.3936291E+04  0.7818609E-02  0.8017523E-01
       -1   -1    0    0    0  501  0.00000000000E+00  0.00000000000E+00  0.29558794042E+04  0.29558794042E+04  0.50400001928E-02 0. -1.
        1   -1    0    0  501    0  0.00000000000E+00  0.00000000000E+00 -0.13104721034E+04  0.13104721034E+04  0.50400001928E-02 0.  1.
    10030    2    1    2    0    0  0.00000000000E+00  0.00000000000E+00  0.16454073008E+04  0.42663515076E+04  0.39362914019E+04 0.  0.
        2    1    3    3  502    0 -0.16131511264E+04 -0.24437463174E+03 -0.37033074588E+03  0.16730571953E+04  0.25500000920E-02 0.  1.
       -2    1    3    3    0  502  0.16131511264E+04  0.24437463174E+03  0.20157380467E+04  0.25932943123E+04  0.25500000920E-02 0. -1.
</event>
<event>
 5   0  0.4627905E-07  0.3003902E+04  0.7818609E-02  0.8242617E-01
       -1   -1    0    0    0  501  0.00000000000E+00  0.00000000000E+00  0.12838882919E+04  0.12838882919E+04  0.50400001928E-02 0.  1.
        1   -1    0    0  501    0  0.00000000000E+00  0.00000000000E+00 -0.17570508218E+04  0.17570508218E+04  0.50400001928E-02 0. -1.
    10030    2    1    2    0    0  0.00000000000E+00  0.00000000000E+00 -0.47316252991E+03  0.30409391138E+04  0.30039021146E+04 0.  0.
        1    1    3    3  502    0 -0.10414562642E+03 -0.50995371163E+03  0.11896751008E+04  0.12985476291E+04  0.50400001928E-02 0.  1.
       -1    1    3    3    0  502  0.10414562642E+03  0.50995371163E+03 -0.16628376307E+04  0.17423914846E+04  0.50400001928E-02 0. -1.
</event>
<event>
 5   0  0.4306665E-07  0.2003019E+04  0.7818609E-02  0.8605210E-01
        1   -1    0    0  501    0  0.00000000000E+00  0.00000000000E+00  0.11418460003E+04  0.11418460003E+04  0.50400001928E-02 0.  1.
       -1   -1    0    0    0  501  0.00000000000E+00  0.00000000000E+00 -0.87842089390E+03  0.87842089392E+03  0.50400001928E-02 0. -1.
    10030    2    1    2    0    0  0.00000000000E+00  0.00000000000E+00  0.26342510641E+03  0.20202668942E+04  0.20030191056E+04 0.  0.
        4    1    3    3  502    0 -0.64312261710E+03  0.57152152143E+03  0.64874367686E+03  0.10775497767E+04  0.12699999809E+01 0.  1.
       -4    1    3    3    0  502  0.64312261710E+03 -0.57152152143E+03 -0.38531857046E+03  0.94271711755E+03  0.12699999809E+01 0. -1.
</event>
<event>
 5   0  0.5533705E-07  0.2648583E+04  0.7818609E-02  0.8351884E-01
       -2   -1    0    0    0  501  0.00000000000E+00  0.00000000000E+00  0.83063510570E+03  0.83063510570E+03  0.25500000920E-02 0. -1.
        2   -1    0    0  501    0  0.00000000000E+00  0.00000000000E+00 -0.21113332964E+04  0.21113332964E+04  0.25500000920E-02 0.  1.
    10030    2    1    2    0    0  0.00000000000E+00  0.00000000000E+00 -0.12806981907E+04  0.29419684021E+04  0.26485826820E+04 0.  0.
        1    1    3    3  502    0 -0.10454611649E+03  0.88811585504E+03 -0.17253100506E+04  0.19432895907E+04  0.50400001928E-02 0.  1.
       -1    1    3    3    0  502  0.10454611649E+03 -0.88811585504E+03  0.44461185989E+03  0.99867881145E+03  0.50400001928E-02 0. -1.
</event>
<event>
 5   0  0.1015219E-06  0.2340221E+04  0.7818609E-02  0.8462229E-01
       -2   -1    0    0    0  501  0.00000000000E+00  0.00000000000E+00  0.11853488134E+04  0.11853488134E+04  0.25500000920E-02 0.  1.
        2   -1    0    0  501    0  0.00000000000E+00  0.00000000000E+00 -0.11550682630E+04  0.11550682630E+04  0.25500000920E-02 0. -1.
    10030    2    1    2    0    0  0.00000000000E+00  0.00000000000E+00  0.30280550445E+02  0.23404170765E+04  0.23402211819E+04 0.  0.
        3    1    3    3  502    0  0.72442730194E+03  0.41126040539E+02 -0.90290852528E+03  0.11583307309E+04  0.10100000352E+00 0. -1.
       -3    1    3    3    0  502 -0.72442730194E+03 -0.41126040539E+02  0.93318907572E+03  0.11820863455E+04  0.10100000352E+00 0.  1.
</event>
<event>
 5   0  0.1015219E-06  0.3885803E+04  0.7818609E-02  0.8027988E-01
       -2   -1    0    0    0  501  0.00000000000E+00  0.00000000000E+00  0.27745655400E+04  0.27745655400E+04  0.25500000920E-02 0.  1.
        2   -1    0    0  501    0  0.00000000000E+00  0.00000000000E+00 -0.13605254492E+04  0.13605254492E+04  0.25500000920E-02 0. -1.
    10030    2    1    2    0    0  0.00000000000E+00  0.00000000000E+00  0.14140400908E+04  0.41350909892E+04  0.38858034061E+04 0.  0.
        3    1    3    3  502    0  0.51376034951E+02  0.13753211456E+04 -0.75235270410E+03  0.15684968448E+04  0.10100000352E+00 0. -1.
       -3    1    3    3    0  502 -0.51376034951E+02 -0.13753211456E+04  0.21663927949E+04  0.25665941444E+04  0.10100000352E+00 0.  1.
</event>
<event>
 5   0  0.3977376E-07  0.3855349E+04  0.7818609E-02  0.8034380E-01
        1   -1    0    0  501    0  0.00000000000E+00  0.00000000000E+00  0.21975774015E+04  0.21975774015E+04  0.50400001928E-02 0.  1.
       -1   -1    0    0    0  501  0.00000000000E+00  0.00000000000E+00 -0.16909205896E+04  0.16909205896E+04  0.50400001928E-02 0. -1.
    10030    2    1    2    0    0  0.00000000000E+00  0.00000000000E+00  0.50665681192E+03  0.38884979911E+04  0.38553489468E+04 0.  0.
        4    1    3    3  502    0 -0.90955182513E+03 -0.12513194618E+04  0.14133664463E+04  0.20953976335E+04  0.12699999809E+01 0.  1.
       -4    1    3    3    0  502  0.90955182513E+03  0.12513194618E+04 -0.90670963441E+03  0.17931003575E+04  0.12699999809E+01 0. -1.
</event>
<event>
 5   0  0.5533705E-07  0.2314179E+04  0.7818609E-02  0.8472351E-01
        2   -1    0    0  501    0  0.00000000000E+00  0.00000000000E+00  0.48221081316E+03  0.48221081316E+03  0.25500000920E-02 0.  1.
       -2   -1    0    0    0  501  0.00000000000E+00  0.00000000000E+00 -0.27764954691E+04  0.27764954691E+04  0.25500000920E-02 0. -1.
    10030    2    1    2    0    0  0.00000000000E+00  0.00000000000E+00 -0.22942846560E+04  0.32587062823E+04  0.23141790232E+04 0.  0.
        1    1    3    3  502    0 -0.14128226584E+03 -0.19987342382E+03  0.44533912044E+03  0.50817024353E+03  0.50400001928E-02 0.  1.
       -1    1    3    3    0  502  0.14128226584E+03  0.19987342382E+03 -0.27396237764E+04  0.27505360388E+04  0.50400001928E-02 0. -1.
</event>
<event>
 5   0  0.5533705E-07  0.3868249E+04  0.7818609E-02  0.8031665E-01
       -2   -1    0    0    0  501  0.00000000000E+00  0.00000000000E+00  0.20368038397E+04  0.20368038397E+04  0.25500000920E-02 0.  1.
        2   -1    0    0  501    0  0.00000000000E+00  0.00000000000E+00 -0.18366217850E+04  0.18366217850E+04  0.25500000920E-02 0. -1.
    10030    2    1    2    0    0  0.00000000000E+00  0.00000000000E+00  0.20018205465E+03  0.38734256247E+04  0.38682493734E+04 0.  0.
        1    1    3    3  502    0 -0.17158351429E+04 -0.82799745243E+03  0.43395627099E+03  0.19539672628E+04  0.50400001928E-02 0.  1.
       -1    1    3    3    0  502  0.17158351429E+04  0.82799745243E+03 -0.23377421634E+03  0.19194583619E+04  0.50400001928E-02 0. -1.
</event>
<event>
 5   0  0.4627905E-07  0.3660799E+04  0.7818609E-02  0.8076705E-01
        1   -1    0    0  501    0  0.00000000000E+00  0.00000000000E+00  0.22136172094E+04  0.22136172094E+04  0.50400001928E-02 0.  1.
       -1   -1    0    0    0  501  0.00000000000E+00  0.00000000000E+00 -0.15135242024E+04  0.15135242024E+04  0.50400001928E-02 0. -1.
    10030    2    1    2    0    0  0.00000000000E+00  0.00000000000E+00  0.70009300704E+03  0.37271414118E+04  0.36607994872E+04 0.  0.
        1    1    3    3  502    0  0.80206074052E+03  0.31858795534E+03  0.19934747986E+04  0.21722664408E+04  0.50400001928E-02 0.  1.
       -1    1    3    3    0  502 -0.80206074052E+03 -0.31858795534E+03 -0.12933817916E+04  0.15548749711E+04  0.50400001928E-02 0. -1.
</event>
<event>
 5   0  0.7268013E-07  0.3881046E+04  0.7818609E-02  0.8028983E-01
        2   -1    0    0  501    0  0.00000000000E+00  0.00000000000E+00  0.14425872530E+04  0.14425872530E+04  0.25500000920E-02 0.  1.
       -2   -1    0    0    0  501  0.00000000000E+00  0.00000000000E+00 -0.26103305335E+04  0.26103305335E+04  0.25500000920E-02 0. -1.
    10030    2    1    2    0    0  0.00000000000E+00  0.00000000000E+00 -0.11677432805E+04  0.40529177865E+04  0.38810460208E+04 0.  0.
        4    1    3    3  502    0 -0.25731775041E+03 -0.55705535631E+03 -0.25063501946E+04  0.25803712922E+04  0.12699999809E+01 0. -1.
       -4    1    3    3    0  502  0.25731775041E+03  0.55705535631E+03  0.13386069141E+04  0.14725464944E+04  0.12699999809E+01 0.  1.
</event>
<event>
 5   0  0.1035864E-06  0.3976595E+04  0.7818609E-02  0.8009285E-01
        2   -1    0    0  501    0  0.00000000000E+00  0.00000000000E+00  0.28104543262E+04  0.28104543262E+04  0.25500000920E-02 0.  1.
       -2   -1    0    0    0  501  0.00000000000E+00  0.00000000000E+00 -0.14066503210E+04  0.14066503210E+04  0.25500000920E-02 0. -1.
    10030    2    1    2    0    0  0.00000000000E+00  0.00000000000E+00  0.14038040052E+04  0.42171046472E+04  0.39765947645E+04 0.  0.
        5    1    3    3  502    0 -0.15272880739E+04  0.29302662499E+03  0.20157142697E+04  0.25458985782E+04  0.46999998093E+01 0.  1.
       -5    1    3    3    0  502  0.15272880739E+04 -0.29302662499E+03 -0.61191026449E+03  0.16712060691E+04  0.46999998093E+01 0. -1.
</event>
<event>
 5   0  0.1034683E-06  0.3787845E+04  0.7818609E-02  0.8048768E-01
       -2   -1    0    0    0  501  0.00000000000E+00  0.00000000000E+00  0.17480446485E+04  0.17480446485E+04  0.25500000920E-02 0.  1.
        2   -1    0    0  501    0  0.00000000000E+00  0.00000000000E+00 -0.20519738457E+04  0.20519738457E+04  0.25500000920E-02 0. -1.
    10030    2    1    2    0    0  0.00000000000E+00  0.00000000000E+00 -0.30392919723E+03  0.38000184942E+04  0.37878447169E+04 0.  0.
        2    1    3    3  502    0 -0.76530074809E+02  0.70665731440E+02 -0.20490979055E+04  0.20517438252E+04  0.25500000920E-02 0. -1.
       -2    1    3    3    0  502  0.76530074809E+02 -0.70665731440E+02  0.17451687083E+04  0.17482746690E+04  0.25500000920E-02 0.  1.
</event>
<event>
 5   0  0.4627905E-07  0.2471383E+04  0.7818609E-02  0.8413252E-01
       -1   -1    0    0    0  501  0.00000000000E+00  0.00000000000E+00  0.76013479045E+03  0.76013479047E+03  0.50400001928E-02 0.  1.
        1   -1    0    0  501    0  0.00000000000E+00  0.00000000000E+00 -0.20087659876E+04  0.20087659876E+04  0.50400001928E-02 0. -1.
    10030    2    1    2    0    0  0.00000000000E+00  0.00000000000E+00 -0.12486311972E+04  0.27689007781E+04  0.24713825387E+04 0.  0.
        1    1    3    3  502    0  0.95637489020E+03  0.69341649442E+03 -0.10305283716E+04  0.15676313629E+04  0.50400001928E-02 0. -1.
       -1    1    3    3    0  502 -0.95637489020E+03 -0.69341649442E+03 -0.21810282563E+03  0.12012694152E+04  0.50400001928E-02 0.  1.
</event>
<event>
 5   0  0.1034683E-06  0.3154987E+04  0.7818609E-02  0.8200807E-01
        2   -1    0    0  501    0  0.00000000000E+00  0.00000000000E+00  0.19454407274E+04  0.19454407274E+04  0.25500000920E-02 0. -1.
       -2   -1    0    0    0  501  0.00000000000E+00  0.00000000000E+00 -0.12791372050E+04  0.12791372050E+04  0.25500000920E-02 0.  1.
    10030    2    1    2    0    0  0.00000000000E+00  0.00000000000E+00  0.66630352238E+03  0.32245779325E+04  0.31549869189E+04 0.  0.
        2    1    3    3  502    0  0.24232982918E+02 -0.14099093535E+04 -0.38959102229E+03  0.14629466112E+04  0.25500000920E-02 0.  1.
       -2    1    3    3    0  502 -0.24232982918E+02  0.14099093535E+04  0.10558945447E+04  0.17616313213E+04  0.25500000920E-02 0. -1.
</event>
<event>
 5   0  0.1015219E-06  0.2883954E+04  0.7818609E-02  0.8277668E-01
        2   -1    0    0  501    0  0.00000000000E+00  0.00000000000E+00  0.17784474300E+04  0.17784474300E+04  0.25500000920E-02 0. -1.
       -2   -1    0    0    0  501  0.00000000000E+00  0.00000000000E+00 -0.11691647900E+04  0.11691647900E+04  0.25500000920E-02 0.  1.
    10030    2    1    2    0    0  0.00000000000E+00  0.00000000000E+00  0.60928264001E+03  0.29476122201E+04  0.28839543104E+04 0.  0.
        3    1    3    3  502    0 -0.15015169953E+03  0.13325157818E+04 -0.23730255222E+03  0.13617842535E+04  0.10100000352E+00 0.  1.
       -3    1    3    3    0  502  0.15015169953E+03 -0.13325157818E+04  0.84658519223E+03  0.15858279665E+04  0.10100000352E+00 0. -1.
</event>
<event>
 5   0  0.1015219E-06  0.3850778E+04  0.7818609E-02  0.8035345E-01
        2   -1    0    0  501    0  0.00000000000E+00  0.00000000000E+00  0.14706186504E+04  0.14706186504E+04  0.25500000920E-02 0. -1.
       -2   -1    0    0    0  501  0.00000000000E+00  0.00000000000E+00 -0.25207909904E+04  0.25207909904E+04  0.25500000920E-02 0.  1.
    10030    2    1    2    0    0  0.00000000000E+00  0.00000000000E+00 -0.10501723400E+04  0.39914096408E+04  0.38507777107E+04 0.  0.
        3    1    3    3  502    0  0.62630097827E+03  0.18201461798E+04 -0.57070723517E+03  0.20077080937E+04  0.10100000352E+00 0. -1.
       -3    1    3    3    0  502 -0.62630097827E+03 -0.18201461798E+04 -0.47946510485E+03  0.19837015471E+04  0.10100000352E+00 0.  1.
</event>
<event>
 5   0  0.1015219E-06  0.4033001E+04  0.7818609E-02  0.7997922E-01
        2   -1    0    0  501    0  0.00000000000E+00  0.00000000000E+00  0.21159217307E+04  0.21159217307E+04  0.25500000920E-02 0. -1.
       -2   -1    0    0    0  501  0.00000000000E+00  0.00000000000E+00 -0.19217503283E+04  0.19217503283E+04  0.25500000920E-02 0.  1.
    10030    2    1    2    0    0  0.00000000000E+00  0.00000000000E+00  0.19417140237E+03  0.40376720590E+04  0.40330005111E+04 0.  0.
        3    1    3    3  502    0  0.19356858220E+04  0.19838758497E+03  0.62688298267E+03  0.20443139484E+04  0.10100000352E+00 0. -1.
       -3    1    3    3    0  502 -0.19356858220E+04 -0.19838758497E+03 -0.43271158031E+03  0.19933581107E+04  0.10100000352E+00 0.  1.
</event>
<event>
 5   0  0.4627905E-07  0.2994513E+04  0.7818609E-02  0.8245299E-01
       -1   -1    0    0    0  501  0.00000000000E+00  0.00000000000E+00  0.12618247085E+04  0.12618247085E+04  0.50400001928E-02 0. -1.
        1   -1    0    0  501    0  0.00000000000E+00  0.00000000000E+00 -0.17766157469E+04  0.17766157469E+04  0.50400001928E-02 0.  1.
    10030    2    1    2    0    0  0.00000000000E+00  0.00000000000E+00 -0.51479103843E+03  0.30384404554E+04  0.29945134142E+04 0.  0.
        1    1    3    3  502    0 -0.62462704943E+03  0.12563579217E+04  0.27294117176E+03  0.14293673641E+04  0.50400001928E-02 0. -1.
       -1    1    3    3    0  502  0.62462704943E+03 -0.12563579217E+04 -0.78773221019E+03  0.16090730913E+04  0.50400001928E-02 0.  1.
</event>
<event>
 5   0  0.4627905E-07  0.3844048E+04  0.7818609E-02  0.8036768E-01
        1   -1    0    0  501    0  0.00000000000E+00  0.00000000000E+00  0.26244067223E+04  0.26244067224E+04  0.50400001928E-02 0.  1.
       -1   -1    0    0    0  501  0.00000000000E+00  0.00000000000E+00 -0.14076234065E+04  0.14076234065E+04  0.50400001928E-02 0. -1.
    10030    2    1    2    0    0  0.00000000000E+00  0.00000000000E+00  0.12167833159E+04  0.40320301289E+04  0.38440480385E+04 0.  0.
        1    1    3    3  502    0  0.15398145780E+04 -0.10162606606E+04  0.43188471094E+02  0.18454484303E+04  0.50400001928E-02 0. -1.
       -1    1    3    3    0  502 -0.15398145780E+04  0.10162606606E+04  0.11735948448E+04  0.21865816986E+04  0.50400001928E-02 0.  1.
</event>
<event>
 5   0  0.3471602E-07  0.3804490E+04  0.7818609E-02  0.8045192E-01
       -1   -1    0    0    0  501  0.00000000000E+00  0.00000000000E+00  0.27604934795E+04  0.27604934795E+04  0.50400001928E-02 0. -1.
        1   -1    0    0  501    0  0.00000000000E+00  0.00000000000E+00 -0.13108290754E+04  0.13108290754E+04  0.50400001928E-02 0.  1.
    10030    2    1    2    0    0  0.00000000000E+00  0.00000000000E+00  0.14496644041E+04  0.40713225549E+04  0.38044895139E+04 0.  0.
        5    1    3    3  502    0  0.92024665656E+03 -0.11622344138E+04 -0.55077315812E+03  0.15814600543E+04  0.46999998093E+01 0.  1.
       -5    1    3    3    0  502 -0.92024665656E+03  0.11622344138E+04  0.20004375622E+04  0.24898625006E+04  0.46999998093E+01 0. -1.
</event>
<event>
 5   0  0.5533705E-07  0.1950011E+04  0.7818609E-02  0.8630356E-01
       -2   -1    0    0    0  501  0.00000000000E+00  0.00000000000E+00  0.13356923323E+04  0.13356923323E+04  0.25500000920E-02 0.  1.
        2   -1    0    0  501    0  0.00000000000E+00  0.00000000000E+00 -0.71171751670E+03  0.71171751670E+03  0.25500000920E-02 0. -1.
    10030    2    1    2    0    0  0.00000000000E+00  0.00000000000E+00  0.62397481556E+03  0.20474098490E+04  0.19500109023E+04 0.  0.
        1    1    3    3  502    0  0.77473807786E+02 -0.74542000333E+03 -0.34284890817E+03  0.82413502905E+03  0.50400001928E-02 0. -1.
       -1    1    3    3    0  502 -0.77473807786E+02  0.74542000333E+03  0.96682372373E+03  0.12232748199E+04  0.50400001928E-02 0.  1.
</event>
<event>
 5   0  0.3471602E-07  0.3413242E+04  0.7818609E-02  0.8134664E-01
       -1   -1    0    0    0  501  0.00000000000E+00  0.00000000000E+00  0.17954452457E+04  0.17954452457E+04  0.50400001928E-02 0. -1.
        1   -1    0    0  501    0  0.00000000000E+00  0.00000000000E+00 -0.16221907080E+04  0.16221907081E+04  0.50400001928E-02 0.  1.
    10030    2    1    2    0    0  0.00000000000E+00  0.00000000000E+00  0.17325453765E+03  0.34176359538E+04  0.34132416231E+04 0.  0.
        5    1    3    3  502    0  0.27400372210E+02  0.51371484330E+02 -0.16211895210E+04  0.16222414625E+04  0.46999998093E+01 0.  1.
       -5    1    3    3    0  502 -0.27400372210E+02 -0.51371484330E+02  0.17944440586E+04  0.17953944913E+04  0.46999998093E+01 0. -1.
</event>
<event>
 5   0  0.5533705E-07  0.3743398E+04  0.7818609E-02  0.8058412E-01
        2   -1    0    0  501    0  0.00000000000E+00  0.00000000000E+00  0.27144493982E+04  0.27144493982E+04  0.25500000920E-02 0.  1.
       -2   -1    0    0    0  501  0.00000000000E+00  0.00000000000E+00 -0.12905959989E+04  0.12905959989E+04  0.25500000920E-02 0. -1.
    10030    2    1    2    0    0  0.00000000000E+00  0.00000000000E+00  0.14238533993E+04  0.40050453971E+04  0.37433982062E+04 0.  0.
        1    1    3    3  502    0 -0.61462821355E+03  0.37797057383E+03  0.25596671055E+04  0.26594219836E+04  0.50400001928E-02 0.  1.
       -1    1    3    3    0  502  0.61462821355E+03 -0.37797057383E+03 -0.11358137063E+04  0.13456234135E+04  0.50400001928E-02 0. -1.
</event>
<event>
 5   0  0.5533705E-07  0.2471070E+04  0.7818609E-02  0.8413365E-01
       -2   -1    0    0    0  501  0.00000000000E+00  0.00000000000E+00  0.10937975959E+04  0.10937975959E+04  0.25500000920E-02 0. -1.
        2   -1    0    0  501    0  0.00000000000E+00  0.00000000000E+00 -0.13956386888E+04  0.13956386888E+04  0.25500000920E-02 0.  1.
    10030    2    1    2    0    0  0.00000000000E+00  0.00000000000E+00 -0.30184109287E+03  0.24894362847E+04  0.24710696004E+04 0.  0.
        1    1    3    3  502    0  0.91685505455E+03 -0.54377310175E+03 -0.78025066268E+03  0.13210236462E+04  0.50400001928E-02 0.  1.
       -1    1    3    3    0  502 -0.91685505455E+03  0.54377310175E+03  0.47840956981E+03  0.11684126385E+04  0.50400001928E-02 0. -1.
</event>
<event>
 5   0  0.1034683E-06  0.3942093E+04  0.7818609E-02  0.8016331E-01
       -2   -1    0    0    0  501  0.00000000000E+00  0.00000000000E+00  0.16144276935E+04  0.16144276935E+04  0.25500000920E-02 0. -1.
        2   -1    0    0  501    0  0.00000000000E+00  0.00000000000E+00 -0.24064404114E+04  0.24064404114E+04  0.25500000920E-02 0.  1.
    10030    2    1    2    0    0  0.00000000000E+00  0.00000000000E+00 -0.79201271785E+03  0.40208681049E+04  0.39420928670E+04 0.  0.
        2    1    3    3  502    0 -0.32548346245E+03 -0.12162324212E+04  0.11508286177E+04  0.17057453778E+04  0.25500000920E-02 0. -1.
       -2    1    3    3    0  502  0.32548346245E+03  0.12162324212E+04 -0.19428413355E+04  0.23151227271E+04  0.25500000920E-02 0.  1.
</event>
<event>
 5   0  0.3191750E-07  0.1931816E+04  0.7818609E-02  0.8639179E-01
        4   -1    0    0  501    0  0.00000000000E+00  0.00000000000E+00  0.10545240609E+04  0.10545248256E+04  0.12699999809E+01 0.  1.
       -4   -1    0    0    0  501  0.00000000000E+00  0.00000000000E+00 -0.88473748309E+03  0.88473839460E+03  0.12699999809E+01 0. -1.
    10030    2    1    2    0    0  0.00000000000E+00  0.00000000000E+00  0.16978657780E+03  0.19392632202E+04  0.19318163358E+04 0.  0.
        5    1    3    3  502    0  0.18607618878E+03 -0.55104820681E+03 -0.68923309892E+03  0.90185521504E+03  0.46999998093E+01 0. -1.
       -5    1    3    3    0  502 -0.18607618878E+03  0.55104820681E+03  0.85901967671E+03  0.10374080052E+04  0.46999998093E+01 0.  1.
</event>
<event>
 5   0  0.1015219E-06  0.3948301E+04  0.7818609E-02  0.8015058E-01
        2   -1    0    0  501    0  0.00000000000E+00  0.00000000000E+00  0.15229849779E+04  0.15229849779E+04  0.25500000920E-02 0.  1.
       -2   -1    0    0    0  501  0.00000000000E+00  0.00000000000E+00 -0.25589688459E+04  0.25589688459E+04  0.25500000920E-02 0. -1.
    10030    2    1    2    0    0  0.00000000000E+00  0.00000000000E+00 -0.10359838680E+04  0.40819538239E+04  0.39483014633E+04 0.  0.
        3    1    3    3  502    0  0.13626070511E+04  0.13616880546E+04 -0.96432185331E+03  0.21542536946E+04  0.10100000352E+00 0. -1.
       -3    1    3    3    0  502 -0.13626070511E+04 -0.13616880546E+04 -0.71662014695E+02  0.19277001292E+04  0.10100000352E+00 0.  1.
</event>
<event>
 5   0  0.1015219E-06  0.4039415E+04  0.7818609E-02  0.7996642E-01
       -2   -1    0    0    0  501  0.00000000000E+00  0.00000000000E+00  0.27764141673E+04  0.27764141673E+04  0.25500000920E-02 0. -1.
        2   -1    0    0  501    0  0.00000000000E+00  0.00000000000E+00 -0.14692397258E+04  0.14692397258E+04  0.25500000920E-02 0.  1.
    10030    2    1    2    0    0  0.00000000000E+00  0.00000000000E+00  0.13071744415E+04  0.42456538931E+04  0.40394148041E+04 0.  0.
        3    1    3    3  502    0  0.19634105365E+04  0.17696268671E+03  0.19193367996E+03  0.19806906056E+04  0.10100000352E+00 0.  1.
       -3    1    3    3    0  502 -0.19634105365E+04 -0.17696268671E+03  0.11152407615E+04  0.22649632875E+04  0.10100000352E+00 0. -1.
</event>
<event>
 5   0  0.5533705E-07  0.2145438E+04  0.7818609E-02  0.8541488E-01
       -2   -1    0    0    0  501  0.00000000000E+00  0.00000000000E+00  0.71946969148E+03  0.71946969148E+03  0.25500000920E-02 0.  1.
        2   -1    0    0  501    0  0.00000000000E+00  0.00000000000E+00 -0.15994087303E+04  0.15994087303E+04  0.25500000920E-02 0. -1.
    10030    2    1    2    0    0  0.00000000000E+00  0.00000000000E+00 -0.87993903881E+03  0.23188784218E+04  0.21454380492E+04 0.  0.
        1    1    3    3  502    0  0.10259311108E+04  0.29177274653E+02 -0.77718538747E+03  0.12874016793E+04  0.50400001928E-02 0.  1.
       -1    1    3    3    0  502 -0.10259311108E+04 -0.29177274653E+02 -0.10275365134E+03  0.10314767425E+04  0.50400001928E-02 0. -1.
</event>
<event>
 5   0  0.7268013E-07  0.3896468E+04  0.7818609E-02  0.8025764E-01
       -2   -1    0    0    0  501  0.00000000000E+00  0.00000000000E+00  0.15078023194E+04  0.15078023194E+04  0.25500000920E-02 0.  1.
        2   -1    0    0  501    0  0.00000000000E+00  0.00000000000E+00 -0.25173161801E+04  0.25173161801E+04  0.25500000920E-02 0. -1.
    10030    2    1    2    0    0  0.00000000000E+00  0.00000000000E+00 -0.10095138607E+04  0.40251184996E+04  0.38964677210E+04 0.  0.
        4    1    3    3  502    0  0.13557584850E+04 -0.53309280026E+03  0.83153170736E+03  0.16774133648E+04  0.12699999809E+01 0.  1.
       -4    1    3    3    0  502 -0.13557584850E+04  0.53309280026E+03 -0.18410455681E+04  0.23477051348E+04  0.12699999809E+01 0. -1.
</event>
<event>
 5   0  0.3191750E-07  0.2949014E+04  0.7818609E-02  0.8258442E-01
       -4   -1    0    0    0  501  0.00000000000E+00  0.00000000000E+00  0.13605751762E+04  0.13605757689E+04  0.12699999809E+01 0. -1.
        4   -1    0    0  501    0  0.00000000000E+00  0.00000000000E+00 -0.15979781145E+04  0.15979786192E+04  0.12699999809E+01 0.  1.
    10030    2    1    2    0    0  0.00000000000E+00  0.00000000000E+00 -0.23740293836E+03  0.29585543881E+04  0.29490140576E+04 0.  0.
        4    1    3    3  502    0  0.43505238121E+03  0.90524724230E+03 -0.12017429916E+04  0.15661835700E+04  0.12699999809E+01 0.  1.
       -4    1    3    3    0  502 -0.43505238121E+03 -0.90524724230E+03  0.96434005321E+03  0.13923708181E+04  0.12699999809E+01 0. -1.
</event>
<event>
 5   0  0.1035864E-06  0.3809278E+04  0.7818609E-02  0.8044167E-01
       -2   -1    0    0    0  501  0.00000000000E+00  0.00000000000E+00  0.14312874770E+04  0.14312874770E+04  0.25500000920E-02 0.  1.
        2   -1    0    0  501    0  0.00000000000E+00  0.00000000000E+00 -0.25345363597E+04  0.25345363597E+04  0.25500000920E-02 0. -1.
    10030    2    1    2    0    0  0.00000000000E+00  0.00000000000E+00 -0.11032488828E+04  0.39658238367E+04  0.38092782264E+04 0.  0.
        5    1    3    3  502    0  0.10305926961E+04  0.55228265164E+03 -0.21169045991E+04  0.24183557647E+04  0.46999998093E+01 0. -1.
       -5    1    3    3    0  502 -0.10305926961E+04 -0.55228265164E+03  0.10136557164E+04  0.15474680720E+04  0.46999998093E+01 0.  1.
</event>
<event>
 5   0  0.1015219E-06  0.2239877E+04  0.7818609E-02  0.8502011E-01
        2   -1    0    0  501    0  0.00000000000E+00  0.00000000000E+00  0.21507033754E+04  0.21507033754E+04  0.25500000920E-02 0.  1.
       -2   -1    0    0    0  501  0.00000000000E+00  0.00000000000E+00 -0.58318724161E+03  0.58318724162E+03  0.25500000920E-02 0. -1.
    10030    2    1    2    0    0  0.00000000000E+00  0.00000000000E+00  0.15675161338E+04  0.27338906170E+04  0.22398774690E+04 0.  0.
        3    1    3    3  502    0 -0.59240445175E+03 -0.10598005641E+02  0.19437383796E+04  0.20320369708E+04  0.10100000352E+00 0.  1.
       -3    1    3    3    0  502  0.59240445175E+03  0.10598005641E+02 -0.37622224586E+03  0.70185364618E+03  0.10100000352E+00 0. -1.
</event>
<event>
 5   0  0.5533705E-07  0.2719093E+04  0.7818609E-02  0.8328837E-01
        2   -1    0    0  501    0  0.00000000000E+00  0.00000000000E+00  0.18076790054E+04  0.18076790054E+04  0.25500000920E-02 0. -1.
       -2   -1    0    0    0  501  0.00000000000E+00  0.00000000000E+00 -0.10225079192E+04  0.10225079192E+04  0.25500000920E-02 0.  1.
    10030    2    1    2    0    0  0.00000000000E+00  0.00000000000E+00  0.78517108625E+03  0.28301869246E+04  0.27190925680E+04 0.  0.
        1    1    3    3  502    0  0.10282849480E+04 -0.69116828467E+03  0.97517046637E+03  0.15767184183E+04  0.50400001928E-02 0. -1.
       -1    1    3    3    0  502 -0.10282849480E+04  0.69116828467E+03 -0.18999938012E+03  0.12534685064E+04  0.50400001928E-02 0.  1.
</event>
<event>
 5   0  0.1035864E-06  0.3902532E+04  0.7818609E-02  0.8024503E-01
        2   -1    0    0  501    0  0.00000000000E+00  0.00000000000E+00  0.18559867478E+04  0.18559867478E+04  0.25500000920E-02 0. -1.
       -2   -1    0    0    0  501  0.00000000000E+00  0.00000000000E+00 -0.20514360981E+04  0.20514360981E+04  0.25500000920E-02 0.  1.
    10030    2    1    2    0    0  0.00000000000E+00  0.00000000000E+00 -0.19544935023E+03  0.39074228459E+04  0.39025315948E+04 0.  0.
        5    1    3    3  502    0  0.79387436463E+03  0.14141879945E+04  0.98864763965E+03  0.18993710632E+04  0.46999998093E+01 0. -1.
       -5    1    3    3    0  502 -0.79387436463E+03 -0.14141879945E+04 -0.11840969899E+04  0.20080517827E+04  0.46999998093E+01 0.  1.
</event>
<event>
 5   0  0.7268013E-07  0.3787898E+04  0.7818609E-02  0.8048757E-01
        2   -1    0    0  501    0  0.00000000000E+00  0.00000000000E+00  0.22160630985E+04  0.22160630985E+04  0.25500000920E-02 0. -1.
       -2   -1    0    0    0  501  0.00000000000E+00  0.00000000000E+00 -0.16186551735E+04  0.16186551735E+04  0.25500000920E-02 0.  1.
    10030    2    1    2    0    0  0.00000000000E+00  0.00000000000E+00  0.59740792497E+03  0.38347182720E+04  0.37878975695E+04 0.  0.
        4    1    3    3  502    0  0.51529470133E+02  0.13022300366E+04 -0.10925395848E+04  0.17006183322E+04  0.12699999809E+01 0.  1.
       -4    1    3    3    0  502 -0.51529470133E+02 -0.13022300366E+04  0.16899475098E+04  0.21340999399E+04  0.12699999809E+01 0. -1.
</event>
<event>
 5   0  0.4316671E-07  0.3682673E+04  0.7818609E-02  0.8071813E-01
        1   -1    0    0  501    0  0.00000000000E+00  0.00000000000E+00  0.12156860707E+04  0.12156860707E+04  0.50400001928E-02 0. -1.
       -1   -1    0    0    0  501  0.00000000000E+00  0.00000000000E+00 -0.27889760409E+04  0.27889760409E+04  0.50400001928E-02 0.  1.
    10030    2    1    2    0    0  0.00000000000E+00  0.00000000000E+00 -0.15732899702E+04  0.40046621117E+04  0.36826725755E+04 0.  0.
        2    1    3    3  502    0  0.11416725130E+04 -0.14430863279E+04 -0.71285119043E+03  0.19733400864E+04  0.25500000920E-02 0. -1.
       -2    1    3    3    0  502 -0.11416725130E+04  0.14430863279E+04 -0.86043877979E+03  0.20313220253E+04  0.25500000920E-02 0.  1.
</event>
<event>
 5   0  0.5385714E-07  0.2282903E+04  0.7818609E-02  0.8484693E-01
        1   -1    0    0  501    0  0.00000000000E+00  0.00000000000E+00  0.17490986680E+04  0.17490986681E+04  0.50400001928E-02 0.  1.
       -1   -1    0    0    0  501  0.00000000000E+00  0.00000000000E+00 -0.74490456423E+03  0.74490456425E+03  0.50400001928E-02 0. -1.
    10030    2    1    2    0    0  0.00000000000E+00  0.00000000000E+00  0.10041941038E+04  0.24940032323E+04  0.22829030476E+04 0.  0.
        3    1    3    3  502    0  0.24541681393E+03  0.40764236082E+03 -0.63139518730E+03  0.79060837311E+03  0.10100000352E+00 0. -1.
       -3    1    3    3    0  502 -0.24541681393E+03 -0.40764236082E+03  0.16355892911E+04  0.17033948592E+04  0.10100000352E+00 0.  1.
</event>
<event>
 5   0  0.5533705E-07  0.2104558E+04  0.7818609E-02  0.8559238E-01
       -2   -1    0    0    0  501  0.00000000000E+00  0.00000000000E+00  0.66160767111E+03  0.66160767112E+03  0.25500000920E-02 0. -1.
        2   -1    0    0  501    0  0.00000000000E+00  0.00000000000E+00 -0.16736373293E+04  0.16736373293E+04  0.25500000920E-02 0.  1.
    10030    2    1    2    0    0  0.00000000000E+00  0.00000000000E+00 -0.10120296582E+04  0.23352450004E+04  0.21045581918E+04 0.  0.
        1    1    3    3  502    0 -0.89887697122E+03  0.35217270031E+03 -0.97057820962E+03  0.13689512341E+04  0.50400001928E-02 0.  1.
       -1    1    3    3    0  502  0.89887697122E+03 -0.35217270031E+03 -0.41451448539E+02  0.96629376633E+03  0.50400001928E-02 0. -1.
</event>
<event>
 5   0  0.1220547E-06  0.1993984E+04  0.7818609E-02  0.8609438E-01
       -2   -1    0    0    0  501  0.00000000000E+00  0.00000000000E+00  0.66359347161E+03  0.66359347161E+03  0.25500000920E-02 0.  1.
        2   -1    0    0  501    0  0.00000000000E+00  0.00000000000E+00 -0.14978945844E+04  0.14978945844E+04  0.25500000920E-02 0. -1.
    10030    2    1    2    0    0  0.00000000000E+00  0.00000000000E+00 -0.83430111275E+03  0.21614880560E+04  0.19939840193E+04 0.  0.
        5    1    3    3  502    0  0.95521125517E+03  0.13435223493E+02 -0.72635219584E+03  0.12000911006E+04  0.46999998093E+01 0. -1.
       -5    1    3    3    0  502 -0.95521125517E+03 -0.13435223493E+02 -0.10794891691E+03  0.96139695542E+03  0.46999998093E+01 0.  1.
</event>
<event>
 5   0  0.5533705E-07  0.2195141E+04  0.7818609E-02  0.8520453E-01
       -2   -1    0    0    0  501  0.00000000000E+00  0.00000000000E+00  0.80569125478E+03  0.80569125478E+03  0.25500000920E-02 0.  1.
        2   -1    0    0  501    0  0.00000000000E+00  0.00000000000E+00 -0.14951891560E+04  0.14951891560E+04  0.25500000920E-02 0. -1.
    10030    2    1    2    0    0  0.00000000000E+00  0.00000000000E+00 -0.68949790122E+03  0.23008804108E+04  0.21951408403E+04 0.  0.
        1    1    3    3  502    0  0.98585243896E+03  0.47724735147E+03 -0.41879724459E+03  0.11726300346E+04  0.50400001928E-02 0.  1.
       -1    1    3    3    0  502 -0.98585243896E+03 -0.47724735147E+03 -0.27070065662E+03  0.11282503762E+04  0.50400001928E-02 0. -1.
</event>
<event>
 5   0  0.5533705E-07  0.2283903E+04  0.7818609E-02  0.8484295E-01
       -2   -1    0    0    0  501  0.00000000000E+00  0.00000000000E+00  0.56418867996E+03  0.56418867996E+03  0.25500000920E-02 0. -1.
        2   -1    0    0  501    0  0.00000000000E+00  0.00000000000E+00 -0.23113777215E+04  0.23113777215E+04  0.25500000920E-02 0.  1.
    10030    2    1    2    0    0  0.00000000000E+00  0.00000000000E+00 -0.17471890416E+04  0.28755664015E+04  0.22839029275E+04 0.  0.
        1    1    3    3  502    0  0.11370573212E+04  0.58647856189E+02 -0.76301063387E+03  0.13705926273E+04  0.50400001928E-02 0. -1.
       -1    1    3    3    0  502 -0.11370573212E+04 -0.58647856189E+02 -0.98417840768E+03  0.15049737741E+04  0.50400001928E-02 0.  1.
</event>
<event>
 5   0  0.4627905E-07  0.3837092E+04  0.7818609E-02  0.8038242E-01
       -1   -1    0    0    0  501  0.00000000000E+00  0.00000000000E+00  0.14032230724E+04  0.14032230725E+04  0.50400001928E-02 0.  1.
        1   -1    0    0  501    0  0.00000000000E+00  0.00000000000E+00 -0.26231173364E+04  0.26231173364E+04  0.50400001928E-02 0. -1.
    10030    2    1    2    0    0  0.00000000000E+00  0.00000000000E+00 -0.12198942639E+04  0.40263404088E+04  0.38370920073E+04 0.  0.
        1    1    3    3  502    0  0.76906678175E+03  0.17518046090E+04 -0.45957662430E+03  0.19676111853E+04  0.50400001928E-02 0. -1.
       -1    1    3    3    0  502 -0.76906678175E+03 -0.17518046090E+04 -0.76031763961E+03  0.20587292235E+04  0.50400001928E-02 0.  1.
</event>
<event>
 5   0  0.3977376E-07  0.2585782E+04  0.7818609E-02  0.8373047E-01
       -1   -1    0    0    0  501  0.00000000000E+00  0.00000000000E+00  0.81587297024E+03  0.81587297026E+03  0.50400001928E-02 0. -1.
        1   -1    0    0  501    0  0.00000000000E+00  0.00000000000E+00 -0.20488085287E+04  0.20488085287E+04  0.50400001928E-02 0.  1.
    10030    2    1    2    0    0  0.00000000000E+00  0.00000000000E+00 -0.12329355585E+04  0.28646814990E+04  0.25857822800E+04 0.  0.
        4    1    3    3  502    0  0.19082150257E+03  0.28054117984E+03  0.76567188879E+03  0.83747910637E+03  0.12699999809E+01 0. -1.
       -4    1    3    3    0  502 -0.19082150257E+03 -0.28054117984E+03 -0.19986074473E+04  0.20272023926E+04  0.12699999809E+01 0.  1.
</event>
<event>
 5   0  0.5533705E-07  0.3895174E+04  0.7818609E-02  0.8026034E-01
        2   -1    0    0  501    0  0.00000000000E+00  0.00000000000E+00  0.16474053057E+04  0.16474053057E+04  0.25500000920E-02 0.  1.
       -2   -1    0    0    0  501  0.00000000000E+00  0.00000000000E+00 -0.23024664115E+04  0.23024664115E+04  0.25500000920E-02 0. -1.
    10030    2    1    2    0    0  0.00000000000E+00  0.00000000000E+00 -0.65506110587E+03  0.39498717172E+04  0.38951741334E+04 0.  0.
        1    1    3    3  502    0 -0.97625823978E+03  0.16744467321E+04 -0.52058082479E+03  0.20069520185E+04  0.50400001928E-02 0.  1.
       -1    1    3    3    0  502  0.97625823978E+03 -0.16744467321E+04 -0.13448028109E+03  0.19429196987E+04  0.50400001928E-02 0. -1.
</event>
<event>
 5   0  0.1035864E-06  0.4006767E+04  0.7818609E-02  0.8003183E-01
        2   -1    0    0  501    0  0.00000000000E+00  0.00000000000E+00  0.24360670241E+04  0.24360670241E+04  0.25500000920E-02 0.  1.
       -2   -1    0    0    0  501  0.00000000000E+00  0.00000000000E+00 -0.16475516484E+04  0.16475516484E+04  0.25500000920E-02 0. -1.
    10030    2    1    2    0    0  0.00000000000E+00  0.00000000000E+00  0.78851537571E+03  0.40836186724E+04  0.40067673958E+04 0.  0.
        5    1    3    3  502    0 -0.26092234556E+03 -0.19783993932E+04  0.57479800857E+03  0.20766702844E+04  0.46999998093E+01 0.  1.
       -5    1    3    3    0  502  0.26092234556E+03  0.19783993932E+04  0.21371736714E+03  0.20069483881E+04  0.46999998093E+01 0. -1.
</event>
<event>
 5   0  0.4627905E-07  0.2587821E+04  0.7818609E-02  0.8372350E-01
        1   -1    0    0  501    0  0.00000000000E+00  0.00000000000E+00  0.11880936116E+04  0.11880936116E+04  0.50400001928E-02 0. -1.
       -1   -1    0    0    0  501  0.00000000000E+00  0.00000000000E+00 -0.14091521666E+04  0.14091521666E+04  0.50400001928E-02 0.  1.
    10030    2    1    2    0    0  0.00000000000E+00  0.00000000000E+00 -0.22105855499E+03  0.25972457783E+04  0.25878212357E+04 0.  0.
        1    1    3    3  502    0  0.90693384274E+03  0.48736160004E+03 -0.89706336147E+03  0.13655669148E+04  0.50400001928E-02 0.  1.
       -1    1    3    3    0  502 -0.90693384274E+03 -0.48736160004E+03  0.67600480648E+03  0.12316788635E+04  0.50400001928E-02 0. -1.
</event>
<event>
 5   0  0.5533705E-07  0.3847865E+04  0.7818609E-02  0.8035960E-01
       -2   -1    0    0    0  501  0.00000000000E+00  0.00000000000E+00  0.29095634359E+04  0.29095634359E+04  0.25500000920E-02 0. -1.
        2   -1    0    0  501    0  0.00000000000E+00  0.00000000000E+00 -0.12721897326E+04  0.12721897326E+04  0.25500000920E-02 0.  1.
    10030    2    1    2    0    0  0.00000000000E+00  0.00000000000E+00  0.16373737032E+04  0.41817531685E+04  0.38478652417E+04 0.  0.
        1    1    3    3  502    0 -0.13202083236E+04  0.11136267366E+04  0.17398199091E+04  0.24515480502E+04  0.50400001928E-02 0. -1.
       -1    1    3    3    0  502  0.13202083236E+04 -0.11136267366E+04 -0.10244620588E+03  0.17302051183E+04  0.50400001928E-02 0.  1.
</event>
<event>
 5   0  0.4316671E-07  0.1997659E+04  0.7818609E-02  0.8607716E-01
        1   -1    0    0  501    0  0.00000000000E+00  0.00000000000E+00  0.16300120257E+04  0.16300120257E+04  0.50400001928E-02 0. -1.
       -1   -1    0    0    0  501  0.00000000000E+00  0.00000000000E+00 -0.61205728211E+03  0.61205728213E+03  0.50400001928E-02 0.  1.
    10030    2    1    2    0    0  0.00000000000E+00  0.00000000000E+00  0.10179547436E+04  0.22420693078E+04  0.19976593606E+04 0.  0.
        2    1    3    3  502    0  0.14509308554E+03  0.98401746849E+03  0.61134111406E+03  0.11675103167E+04  0.25500000920E-02 0.  1.
       -2    1    3    3    0  502 -0.14509308554E+03 -0.98401746849E+03  0.40661362949E+03  0.10745589911E+04  0.25500000920E-02 0. -1.
</event>
<event>
 5   0  0.3977376E-07  0.3910311E+04  0.7818609E-02  0.8022888E-01
        1   -1    0    0  501    0  0.00000000000E+00  0.00000000000E+00  0.18907345239E+04  0.18907345239E+04  0.50400001928E-02 0. -1.
       -1   -1    0    0    0  501  0.00000000000E+00  0.00000000000E+00 -0.20217709388E+04  0.20217709388E+04  0.50400001928E-02 0.  1.
    10030    2    1    2    0    0  0.00000000000E+00  0.00000000000E+00 -0.13103641488E+03  0.39125054628E+04  0.39103105317E+04 0.  0.
        4    1    3    3  502    0 -0.10139599485E+04 -0.92992397098E+03 -0.14554549534E+04  0.20028040601E+04  0.12699999809E+01 0.  1.
       -4    1    3    3    0  502  0.10139599485E+04  0.92992397098E+03  0.13244185385E+04  0.19097014026E+04  0.12699999809E+01 0. -1.
</event>
<event>
 5   0  0.3977376E-07  0.2417873E+04  0.7818609E-02  0.8432842E-01
        1   -1    0    0  501    0  0.00000000000E+00  0.00000000000E+00  0.10454061042E+04  0.10454061042E+04  0.50400001928E-02 0. -1.
       -1   -1    0    0    0  501  0.00000000000E+00  0.00000000000E+00 -0.13980473272E+04  0.13980473272E+04  0.50400001928E-02 0.  1.
    10030    2    1    2    0    0  0.00000000000E+00  0.00000000000E+00 -0.35264122303E+03  0.24434534314E+04  0.24178727922E+04 0.  0.
        4    1    3    3  502    0  0.12071337524E+03  0.44245658881E+03  0.95407786653E+03  0.10585866711E+04  0.12699999809E+01 0. -1.
       -4    1    3    3    0  502 -0.12071337524E+03 -0.44245658881E+03 -0.13067190896E+04  0.13848667603E+04  0.12699999809E+01 0.  1.
</event>
<event>
 5   0  0.1034683E-06  0.3487899E+04  0.7818609E-02  0.8116664E-01
        2   -1    0    0  501    0  0.00000000000E+00  0.00000000000E+00  0.17605082066E+04  0.17605082066E+04  0.25500000920E-02 0. -1.
       -2   -1    0    0    0  501  0.00000000000E+00  0.00000000000E+00 -0.17275462091E+04  0.17275462091E+04  0.25500000920E-02 0.  1.
    10030    2    1    2    0    0  0.00000000000E+00  0.00000000000E+00  0.32961997455E+02  0.34880544157E+04  0.34878986674E+04 0.  0.
        2    1    3    3  502    0 -0.85543031708E+03 -0.12756330083E+03  0.15309217113E+04  0.17583386219E+04  0.25500000920E-02 0. -1.
       -2    1    3    3    0  502  0.85543031708E+03  0.12756330083E+03 -0.14979597139E+04  0.17297157938E+04  0.25500000920E-02 0.  1.
</event>
<event>
 5   0  0.7268013E-07  0.2626150E+04  0.7818609E-02  0.8359373E-01
       -2   -1    0    0    0  501  0.00000000000E+00  0.00000000000E+00  0.15972093752E+04  0.15972093752E+04  0.25500000920E-02 0.  1.
        2   -1    0    0  501    0  0.00000000000E+00  0.00000000000E+00 -0.10794865285E+04  0.10794865285E+04  0.25500000920E-02 0. -1.
    10030    2    1    2    0    0  0.00000000000E+00  0.00000000000E+00  0.51772284674E+03  0.26766959037E+04  0.26261500367E+04 0.  0.
        4    1    3    3  502    0  0.16933713173E+03  0.35917704065E+03  0.15345424334E+04  0.15850884214E+04  0.12699999809E+01 0.  1.
       -4    1    3    3    0  502 -0.16933713173E+03 -0.35917704065E+03 -0.10168195867E+04  0.10916074823E+04  0.12699999809E+01 0. -1.
</event>
<event>
 5   0  0.5533705E-07  0.3304878E+04  0.7818609E-02  0.8161655E-01
       -2   -1    0    0    0  501  0.00000000000E+00  0.00000000000E+00  0.12072644436E+04  0.12072644436E+04  0.25500000920E-02 0.  1.
        2   -1    0    0  501    0  0.00000000000E+00  0.00000000000E+00 -0.22617694815E+04  0.22617694815E+04  0.25500000920E-02 0. -1.
    10030    2    1    2    0    0  0.00000000000E+00  0.00000000000E+00 -0.10545050380E+04  0.34690339251E+04  0.33048775315E+04 0.  0.
        1    1    3    3  502    0  0.60744568866E+03 -0.97278581380E+03  0.72148157263E+03  0.13549310550E+04  0.50400001928E-02 0.  1.
       -1    1    3    3    0  502 -0.60744568866E+03  0.97278581380E+03 -0.17759866106E+04  0.21141028701E+04  0.50400001928E-02 0. -1.
</event>
<event>
 5   0  0.5385714E-07  0.3908786E+04  0.7818609E-02  0.8023204E-01
       -1   -1    0    0    0  501  0.00000000000E+00  0.00000000000E+00  0.20627496087E+04  0.20627496087E+04  0.50400001928E-02 0.  1.
        1   -1    0    0  501    0  0.00000000000E+00  0.00000000000E+00 -0.18517284526E+04  0.18517284526E+04  0.50400001928E-02 0. -1.
    10030    2    1    2    0    0  0.00000000000E+00  0.00000000000E+00  0.21102115608E+03  0.39144780612E+04  0.39087860729E+04 0.  0.
        3    1    3    3  502    0  0.11716374508E+03 -0.13757296746E+03  0.20543655696E+04  0.20622976430E+04  0.10100000352E+00 0.  1.
       -3    1    3    3    0  502 -0.11716374508E+03  0.13757296746E+03 -0.18433444135E+04  0.18521804182E+04  0.10100000352E+00 0. -1.
</event>
<event>
 5   0  0.1015219E-06  0.3888448E+04  0.7818609E-02  0.8027436E-01
       -2   -1    0    0    0  501  0.00000000000E+00  0.00000000000E+00  0.23088261731E+04  0.23088261731E+04  0.25500000920E-02 0.  1.
        2   -1    0    0  501    0  0.00000000000E+00  0.00000000000E+00 -0.16371981904E+04  0.16371981904E+04  0.25500000920E-02 0. -1.
    10030    2    1    2    0    0  0.00000000000E+00  0.00000000000E+00  0.67162798263E+03  0.39460243635E+04  0.38884475219E+04 0.  0.
        3    1    3    3  502    0  0.14346801542E+04  0.12751788401E+04  0.22014018397E+02  0.19196022625E+04  0.10100000352E+00 0.  1.
       -3    1    3    3    0  502 -0.14346801542E+04 -0.12751788401E+04  0.64961396424E+03  0.20264221011E+04  0.10100000352E+00 0. -1.
</event>
<event>
 5   0  0.1034683E-06  0.3310468E+04  0.7818609E-02  0.8160237E-01
        2   -1    0    0  501    0  0.00000000000E+00  0.00000000000E+00  0.18742760930E+04  0.18742760930E+04  0.25500000920E-02 0.  1.
       -2   -1    0    0    0  501  0.00000000000E+00  0.00000000000E+00 -0.14617905069E+04  0.14617905069E+04  0.25500000920E-02 0. -1.
    10030    2    1    2    0    0  0.00000000000E+00  0.00000000000E+00  0.41248558606E+03  0.33360665999E+04  0.33104676407E+04 0.  0.
        2    1    3    3  502    0 -0.11893811593E+04  0.35869537854E+03 -0.89606623669E+03  0.15317390826E+04  0.25500000920E-02 0. -1.
       -2    1    3    3    0  502  0.11893811593E+04 -0.35869537854E+03  0.13085518227E+04  0.18043275173E+04  0.25500000920E-02 0.  1.
</event>
<event>
 5   0  0.5385714E-07  0.3902033E+04  0.7818609E-02  0.8024607E-01
        1   -1    0    0  501    0  0.00000000000E+00  0.00000000000E+00  0.28358524523E+04  0.28358524523E+04  0.50400001928E-02 0.  1.
       -1   -1    0    0    0  501  0.00000000000E+00  0.00000000000E+00 -0.13422648150E+04  0.13422648150E+04  0.50400001928E-02 0. -1.
    10030    2    1    2    0    0  0.00000000000E+00  0.00000000000E+00  0.14935876373E+04  0.41781172673E+04  0.39020327867E+04 0.  0.
        3    1    3    3  502    0  0.91464742166E+03  0.15460363190E+04  0.15620144463E+04  0.23804825869E+04  0.10100000352E+00 0. -1.
       -3    1    3    3    0  502 -0.91464742166E+03 -0.15460363190E+04 -0.68426808999E+02  0.17976346804E+04  0.10100000352E+00 0.  1.
</event>
<event>
 5   0  0.1015219E-06  0.3785844E+04  0.7818609E-02  0.8049200E-01
        2   -1    0    0  501    0  0.00000000000E+00  0.00000000000E+00  0.15111940948E+04  0.15111940948E+04  0.25500000920E-02 0. -1.
       -2   -1    0    0    0  501  0.00000000000E+00  0.00000000000E+00 -0.23710743083E+04  0.23710743083E+04  0.25500000920E-02 0.  1.
    10030    2    1    2    0    0  0.00000000000E+00  0.00000000000E+00 -0.85988021352E+03  0.38822684031E+04  0.37858438917E+04 0.  0.
        3    1    3    3  502    0  0.18790218889E+04 -0.21736103332E+03 -0.50377681515E+03  0.19574882292E+04  0.10100000352E+00 0. -1.
       -3    1    3    3    0  502 -0.18790218889E+04  0.21736103332E+03 -0.35610339837E+03  0.19247801740E+04  0.10100000352E+00 0.  1.
</event>
<event>
 5   0  0.3191750E-07  0.2510757E+04  0.7818609E-02  0.8399163E-01
       -3   -1    0    0    0  501  0.00000000000E+00  0.00000000000E+00  0.17679712710E+04  0.17679712739E+04  0.10100000352E+00 0.  1.
        3   -1    0    0  501    0  0.00000000000E+00  0.00000000000E+00 -0.89140325012E+03  0.89140325585E+03  0.10100000352E+00 0. -1.
    10030    2    1    2    0    0  0.00000000000E+00  0.00000000000E+00  0.87656802090E+03  0.26593745298E+04  0.25107571357E+04 0.  0.
        5    1    3    3  502    0  0.59137661231E+03 -0.10177749403E+04  0.90041377222E+03  0.14820118683E+04  0.46999998093E+01 0.  1.
       -5    1    3    3    0  502 -0.59137661231E+03  0.10177749403E+04 -0.23845751324E+02  0.11773626614E+04  0.46999998093E+01 0. -1.
</event>
<event>
 5   0  0.1015219E-06  0.1958735E+04  0.7818609E-02  0.8626160E-01
       -2   -1    0    0    0  501  0.00000000000E+00  0.00000000000E+00  0.98629918828E+03  0.98629918828E+03  0.25500000920E-02 0.  1.
        2   -1    0    0  501    0  0.00000000000E+00  0.00000000000E+00 -0.97248474602E+03  0.97248474602E+03  0.25500000920E-02 0. -1.
    10030    2    1    2    0    0  0.00000000000E+00  0.00000000000E+00  0.13814442260E+02  0.19587839343E+04  0.19587352201E+04 0.  0.
        3    1    3    3  502    0  0.29774474626E+03 -0.23163547591E+03  0.91072944314E+03  0.98576622808E+03  0.10100000352E+00 0.  1.
       -3    1    3    3    0  502 -0.29774474626E+03  0.23163547591E+03 -0.89691500088E+03  0.97301770622E+03  0.10100000352E+00 0. -1.
</event>
<event>
 5   0  0.7268013E-07  0.3791406E+04  0.7818609E-02  0.8048002E-01
       -2   -1    0    0    0  501  0.00000000000E+00  0.00000000000E+00  0.19809809925E+04  0.19809809925E+04  0.25500000920E-02 0. -1.
        2   -1    0    0  501    0  0.00000000000E+00  0.00000000000E+00 -0.18140956534E+04  0.18140956534E+04  0.25500000920E-02 0.  1.
    10030    2    1    2    0    0  0.00000000000E+00  0.00000000000E+00  0.16688533912E+03  0.37950766460E+04  0.37914055484E+04 0.  0.
        4    1    3    3  502    0  0.63545296906E+01 -0.43822218113E+03 -0.17626881121E+04  0.18163562573E+04  0.12699999809E+01 0.  1.
       -4    1    3    3    0  502 -0.63545296906E+01  0.43822218113E+03  0.19295734512E+04  0.19787203887E+04  0.12699999809E+01 0. -1.
</event>
<event>
 5   0  0.7268013E-07  0.3927219E+04  0.7818609E-02  0.8019392E-01
       -2   -1    0    0    0  501  0.00000000000E+00  0.00000000000E+00  0.30541183352E+04  0.30541183352E+04  0.25500000920E-02 0. -1.
        2   -1    0    0  501    0  0.00000000000E+00  0.00000000000E+00 -0.12624794553E+04  0.12624794553E+04  0.25500000920E-02 0.  1.
    10030    2    1    2    0    0  0.00000000000E+00  0.00000000000E+00  0.17916388799E+04  0.43165977906E+04  0.39272186862E+04 0.  0.
        4    1    3    3  502    0 -0.24293035654E+03 -0.14418268942E+04  0.23364509896E+04  0.27562446899E+04  0.12699999809E+01 0. -1.
       -4    1    3    3    0  502  0.24293035654E+03  0.14418268942E+04 -0.54481210971E+03  0.15603531006E+04  0.12699999809E+01 0.  1.
</event>
<event>
 5   0  0.5385714E-07  0.3826919E+04  0.7818609E-02  0.8040403E-01
       -1   -1    0    0    0  501  0.00000000000E+00  0.00000000000E+00  0.20694979003E+04  0.20694979003E+04  0.50400001928E-02 0.  1.
        1   -1    0    0  501    0  0.00000000000E+00  0.00000000000E+00 -0.17691859847E+04  0.17691859848E+04  0.50400001928E-02 0. -1.
    10030    2    1    2    0    0  0.00000000000E+00  0.00000000000E+00  0.30031191558E+03  0.38386838851E+04  0.38269186982E+04 0.  0.
        3    1    3    3  502    0 -0.14962705033E+04 -0.89314772203E+03 -0.64270967196E+03  0.18573136528E+04  0.10100000352E+00 0. -1.
       -3    1    3    3    0  502  0.14962705033E+04  0.89314772203E+03  0.94302158754E+03  0.19813702322E+04  0.10100000352E+00 0.  1.
</event>
<event>
 5   0  0.3977376E-07  0.3444953E+04  0.7818609E-02  0.8126961E-01
        1   -1    0    0  501    0  0.00000000000E+00  0.00000000000E+00  0.11230085007E+04  0.11230085007E+04  0.50400001928E-02 0.  1.
       -1   -1    0    0    0  501  0.00000000000E+00  0.00000000000E+00 -0.26419437937E+04  0.26419437937E+04  0.50400001928E-02 0. -1.
    10030    2    1    2    0    0  0.00000000000E+00  0.00000000000E+00 -0.15189352931E+04  0.37649522944E+04  0.34449530265E+04 0.  0.
        4    1    3    3  502    0  0.12303665700E+04  0.61517771651E+03  0.37349448478E+03  0.14253930204E+04  0.12699999809E+01 0.  1.
       -4    1    3    3    0  502 -0.12303665700E+04 -0.61517771651E+03 -0.18924297779E+04  0.23395592740E+04  0.12699999809E+01 0. -1.
</event>
<event>
 5   0  0.5533705E-07  0.3577144E+04  0.7818609E-02  0.8095747E-01
       -2   -1    0    0    0  501  0.00000000000E+00  0.00000000000E+00  0.17987333795E+04  0.17987333795E+04  0.25500000920E-02 0. -1.
        2   -1    0    0  501    0  0.00000000000E+00  0.00000000000E+00 -0.17784677972E+04  0.17784677972E+04  0.25500000920E-02 0.  1.
    10030    2    1    2    0    0  0.00000000000E+00  0.00000000000E+00  0.20265582299E+02  0.35772011766E+04  0.35771437718E+04 0.  0.
        1    1    3    3  502    0  0.11984898539E+04  0.16756253421E+03 -0.13069055261E+04  0.17811392947E+04  0.50400001928E-02 0.  1.
       -1    1    3    3    0  502 -0.11984898539E+04 -0.16756253421E+03  0.13271711084E+04  0.17960618820E+04  0.50400001928E-02 0. -1.
</event>
<event>
 5   0  0.4477392E-07  0.2137745E+04  0.7818609E-02  0.8544796E-01
        1   -1    0    0  501    0  0.00000000000E+00  0.00000000000E+00  0.96191359565E+03  0.96191359566E+03  0.50400001928E-02 0.  1.
       -1   -1    0    0    0  501  0.00000000000E+00  0.00000000000E+00 -0.11877249478E+04  0.11877249478E+04  0.50400001928E-02 0. -1.
    10030    2    1    2    0    0  0.00000000000E+00  0.00000000000E+00 -0.22581135213E+03  0.21496385434E+04  0.21377453311E+04 0.  0.
        4    1    3    3  502    0  0.10140002374E+04 -0.15879264917E+03  0.18721007706E+03  0.10432932534E+04  0.12699999809E+01 0.  1.
       -4    1    3    3    0  502 -0.10140002374E+04  0.15879264917E+03 -0.41302142919E+03  0.11063452900E+04  0.12699999809E+01 0. -1.
</event>
<event>
 5   0  0.7268013E-07  0.3854876E+04  0.7818609E-02  0.8034480E-01
        2   -1    0    0  501    0  0.00000000000E+00  0.00000000000E+00  0.18925045807E+04  0.18925045807E+04  0.25500000920E-02 0. -1.
       -2   -1    0    0    0  501  0.00000000000E+00  0.00000000000E+00 -0.19630167562E+04  0.19630167562E+04  0.25500000920E-02 0.  1.
    10030    2    1    2    0    0  0.00000000000E+00  0.00000000000E+00 -0.70512175468E+02  0.38555213369E+04  0.38548764977E+04 0.  0.
        4    1    3    3  502    0 -0.86356025511E+03 -0.63051229937E+03  0.15686750148E+04  0.18984269775E+04  0.12699999809E+01 0. -1.
       -4    1    3    3    0  502  0.86356025511E+03  0.63051229937E+03 -0.16391871903E+04  0.19570943594E+04  0.12699999809E+01 0.  1.
</event>
<event>
 5   0  0.1015219E-06  0.2532924E+04  0.7818609E-02  0.8391349E-01
       -2   -1    0    0    0  501  0.00000000000E+00  0.00000000000E+00  0.81025981118E+03  0.81025981118E+03  0.25500000920E-02 0. -1.
        2   -1    0    0  501    0  0.00000000000E+00  0.00000000000E+00 -0.19795209504E+04  0.19795209504E+04  0.25500000920E-02 0.  1.
    10030    2    1    2    0    0  0.00000000000E+00  0.00000000000E+00 -0.11692611392E+04  0.27897807616E+04  0.25329242164E+04 0.  0.
        3    1    3    3  502    0  0.64525754809E+03 -0.28925067072E+03 -0.17418436584E+04  0.18799049429E+04  0.10100000352E+00 0.  1.
       -3    1    3    3    0  502 -0.64525754809E+03  0.28925067072E+03  0.57258251920E+03  0.90987581866E+03  0.10100000352E+00 0. -1.
</event>
<event>
 5   0  0.1015219E-06  0.2468082E+04  0.7818609E-02  0.8414445E-01
       -2   -1    0    0    0  501  0.00000000000E+00  0.00000000000E+00  0.19754673035E+04  0.19754673035E+04  0.25500000920E-02 0.  1.
        2   -1    0    0  501    0  0.00000000000E+00  0.00000000000E+00 -0.77088466582E+03  0.77088466582E+03  0.25500000920E-02 0. -1.
    10030    2    1    2    0    0  0.00000000000E+00  0.00000000000E+00  0.12045826377E+04  0.27463519693E+04  0.24680822126E+04 0.  0.
        3    1    3    3  502    0  0.88449565234E+03  0.27515004003E+03 -0.30500206033E+03  0.97522631760E+03  0.10100000352E+00 0. -1.
       -3    1    3    3    0  502 -0.88449565234E+03 -0.27515004003E+03  0.15095846980E+04  0.17711256517E+04  0.10100000352E+00 0.  1.
</event>
<event>
 5   0  0.4316671E-07  0.3907511E+04  0.7818609E-02  0.8023469E-01
        1   -1    0    0  501    0  0.00000000000E+00  0.00000000000E+00  0.25854556807E+04  0.25854556807E+04  0.50400001928E-02 0.  1.
       -1   -1    0    0    0  501  0.00000000000E+00  0.00000000000E+00 -0.14763975614E+04  0.14763975614E+04  0.50400001928E-02 0. -1.
    10030    2    1    2    0    0  0.00000000000E+00  0.00000000000E+00  0.11090581193E+04  0.40618532420E+04  0.39075109530E+04 0.  0.
        2    1    3    3  502    0  0.17779585901E+04 -0.42712954339E+03  0.12698856215E+04  0.22262492868E+04  0.25500000920E-02 0.  1.
       -2    1    3    3    0  502 -0.17779585901E+04  0.42712954339E+03 -0.16082750221E+03  0.18356039553E+04  0.25500000920E-02 0. -1.
</event>
<event>
 5   0  0.4316671E-07  0.3856985E+04  0.7818609E-02  0.8034035E-01
       -1   -1    0    0    0  501  0.00000000000E+00  0.00000000000E+00  0.31617376489E+04  0.31617376489E+04  0.50400001928E-02 0. -1.
        1   -1    0    0  501    0  0.00000000000E+00  0.00000000000E+00 -0.11762781554E+04  0.11762781554E+04  0.50400001928E-02 0.  1.
    10030    2    1    2    0    0  0.00000000000E+00  0.00000000000E+00  0.19854594935E+04  0.43380158043E+04  0.38569847963E+04 0.  0.
        2    1    3    3  502    0 -0.82533641874E+03 -0.14249445727E+03 -0.96104233076E+03  0.12747890947E+04  0.25500000920E-02 0.  1.
       -2    1    3    3    0  502  0.82533641874E+03  0.14249445727E+03  0.29465018242E+04  0.30632267096E+04  0.25500000920E-02 0. -1.
</event>
<event>
 5   0  0.4627905E-07  0.4270449E+04  0.7818609E-02  0.7952105E-01
        1   -1    0    0  501    0  0.00000000000E+00  0.00000000000E+00  0.26856650036E+04  0.26856650036E+04  0.50400001928E-02 0.  1.
       -1   -1    0    0    0  501  0.00000000000E+00  0.00000000000E+00 -0.16975999060E+04  0.16975999060E+04  0.50400001928E-02 0. -1.
    10030    2    1    2    0    0  0.00000000000E+00  0.00000000000E+00  0.98806509765E+03  0.43832649096E+04  0.42704494647E+04 0.  0.
        1    1    3    3  502    0  0.15874933511E+04 -0.14277023990E+04  0.52148567731E+03  0.21978208734E+04  0.50400001928E-02 0.  1.
       -1    1    3    3    0  502 -0.15874933511E+04  0.14277023990E+04  0.46657942034E+03  0.21854440362E+04  0.50400001928E-02 0. -1.
</event>
<event>
 5   0  0.1015219E-06  0.3568448E+04  0.7818609E-02  0.8097758E-01
       -2   -1    0    0    0  501  0.00000000000E+00  0.00000000000E+00  0.13885344742E+04  0.13885344742E+04  0.25500000920E-02 0.  1.
        2   -1    0    0  501    0  0.00000000000E+00  0.00000000000E+00 -0.22926727892E+04  0.22926727892E+04  0.25500000920E-02 0. -1.
    10030    2    1    2    0    0  0.00000000000E+00  0.00000000000E+00 -0.90413831494E+03  0.36812072634E+04  0.35684479572E+04 0.  0.
        3    1    3    3  502    0  0.82911571539E+03 -0.90897108517E+03 -0.17851065661E+04  0.21680098629E+04  0.10100000352E+00 0.  1.
       -3    1    3    3    0  502 -0.82911571539E+03  0.90897108517E+03  0.88096825112E+03  0.15131974005E+04  0.10100000352E+00 0. -1.
</event>
<event>
 5   0  0.7268013E-07  0.3812604E+04  0.7818609E-02  0.8043456E-01
       -2   -1    0    0    0  501  0.00000000000E+00  0.00000000000E+00  0.13143670091E+04  0.13143670091E+04  0.25500000920E-02 0. -1.
        2   -1    0    0  501    0  0.00000000000E+00  0.00000000000E+00 -0.27648190930E+04  0.27648190930E+04  0.25500000920E-02 0.  1.
    10030    2    1    2    0    0  0.00000000000E+00  0.00000000000E+00 -0.14504520839E+04  0.40791861020E+04  0.38126038356E+04 0.  0.
        4    1    3    3  502    0 -0.16892077871E+04  0.28442992492E+03  0.16971824632E+03  0.17213742261E+04  0.12699999809E+01 0.  1.
       -4    1    3    3    0  502  0.16892077871E+04 -0.28442992492E+03 -0.16201703302E+04  0.23578118759E+04  0.12699999809E+01 0. -1.
</event>
<event>
 5   0  0.5533705E-07  0.3726439E+04  0.7818609E-02  0.8062128E-01
       -2   -1    0    0    0  501  0.00000000000E+00  0.00000000000E+00  0.16158617858E+04  0.16158617858E+04  0.25500000920E-02 0. -1.
        2   -1    0    0  501    0  0.00000000000E+00  0.00000000000E+00 -0.21484427520E+04  0.21484427520E+04  0.25500000920E-02 0.  1.
    10030    2    1    2    0    0  0.00000000000E+00  0.00000000000E+00 -0.53258096625E+03  0.37643045378E+04  0.37264388051E+04 0.  0.
        1    1    3    3  502    0  0.11703570612E+04  0.94779448048E+03 -0.13744962172E+04  0.20389433241E+04  0.50400001928E-02 0.  1.
       -1    1    3    3    0  502 -0.11703570612E+04 -0.94779448048E+03  0.84191525097E+03  0.17253612137E+04  0.50400001928E-02 0. -1.
</event>
<event>
 5   0  0.5533705E-07  0.3859706E+04  0.7818609E-02  0.8033462E-01
       -2   -1    0    0    0  501  0.00000000000E+00  0.00000000000E+00  0.24477999008E+04  0.24477999008E+04  0.25500000920E-02 0. -1.
        2   -1    0    0  501    0  0.00000000000E+00  0.00000000000E+00 -0.15215024388E+04  0.15215024388E+04  0.25500000920E-02 0.  1.
    10030    2    1    2    0    0  0.00000000000E+00  0.00000000000E+00  0.92629746200E+03  0.39693023396E+04  0.38597064753E+04 0.  0.
        1    1    3    3  502    0  0.17727527656E+04 -0.37006523049E+03  0.11489677411E+04  0.21446975342E+04  0.50400001928E-02 0. -1.
       -1    1    3    3    0  502 -0.17727527656E+04  0.37006523049E+03 -0.22267027915E+03  0.18246048054E+04  0.50400001928E-02 0.  1.
</event>
<event>
 5   0  0.1035864E-06  0.3810702E+04  0.7818609E-02  0.8043862E-01
        2   -1    0    0  501    0  0.00000000000E+00  0.00000000000E+00  0.24270588001E+04  0.24270588001E+04  0.25500000920E-02 0.  1.
       -2   -1    0    0    0  501  0.00000000000E+00  0.00000000000E+00 -0.14957863761E+04  0.14957863761E+04  0.25500000920E-02 0. -1.
    10030    2    1    2    0    0  0.00000000000E+00  0.00000000000E+00  0.93127242396E+03  0.39228451762E+04  0.38107015035E+04 0.  0.
        5    1    3    3  502    0 -0.11989919110E+04  0.14572746940E+04  0.73625704001E+03  0.20256672124E+04  0.46999998093E+01 0.  1.
       -5    1    3    3    0  502  0.11989919110E+04 -0.14572746940E+04  0.19501538395E+03  0.18971779638E+04  0.46999998093E+01 0. -1.
</event>
<event>
 5   0  0.3471602E-07  0.2646618E+04  0.7818609E-02  0.8352536E-01
       -1   -1    0    0    0  501  0.00000000000E+00  0.00000000000E+00  0.18344638285E+04  0.18344638285E+04  0.50400001928E-02 0.  1.
        1   -1    0    0  501    0  0.00000000000E+00  0.00000000000E+00 -0.95458262797E+03  0.95458262798E+03  0.50400001928E-02 0. -1.
    10030    2    1    2    0    0  0.00000000000E+00  0.00000000000E+00  0.87988120053E+03  0.27890464565E+04  0.26466184480E+04 0.  0.
        5    1    3    3  502    0  0.60590486532E+03  0.21612437891E+03 -0.77870656956E+03  0.10100675544E+04  0.46999998093E+01 0. -1.
       -5    1    3    3    0  502 -0.60590486532E+03 -0.21612437891E+03  0.16585877701E+04  0.17789789021E+04  0.46999998093E+01 0.  1.
</event>
<event>
 5   0  0.1015219E-06  0.3850118E+04  0.7818609E-02  0.8035484E-01
        2   -1    0    0  501    0  0.00000000000E+00  0.00000000000E+00  0.23535223093E+04  0.23535223093E+04  0.25500000920E-02 0.  1.
       -2   -1    0    0    0  501  0.00000000000E+00  0.00000000000E+00 -0.15745982656E+04  0.15745982656E+04  0.25500000920E-02 0. -1.
    10030    2    1    2    0    0  0.00000000000E+00  0.00000000000E+00  0.77892404368E+03  0.39281205749E+04  0.38501179962E+04 0.  0.
        3    1    3    3  502    0  0.18764678080E+04 -0.38029910436E+03  0.18517224552E+03  0.19235507828E+04  0.10100000352E+00 0.  1.
       -3    1    3    3    0  502 -0.18764678080E+04  0.38029910436E+03  0.59375179816E+03  0.20045697921E+04  0.10100000352E+00 0. -1.
</event>
<event>
 5   0  0.4316671E-07  0.2177147E+04  0.7818609E-02  0.8528001E-01
        1   -1    0    0  501    0  0.00000000000E+00  0.00000000000E+00  0.12522126755E+04  0.12522126755E+04  0.50400001928E-02 0.  1.
       -1   -1    0    0    0  501  0.00000000000E+00  0.00000000000E+00 -0.94631869414E+03  0.94631869416E+03  0.50400001928E-02 0. -1.
    10030    2    1    2    0    0  0.00000000000E+00  0.00000000000E+00  0.30589398138E+03  0.21985313697E+04  0.21771469991E+04 0.  0.
        2    1    3    3  502    0 -0.39022225653E+03  0.92308436012E+03  0.58213225808E+03  0.11589806346E+04  0.25500000920E-02 0. -1.
       -2    1    3    3    0  502  0.39022225653E+03 -0.92308436012E+03 -0.27623827670E+03  0.10395507351E+04  0.25500000920E-02 0.  1.
</event>
<event>
 5   0  0.1034683E-06  0.3572270E+04  0.7818609E-02  0.8096873E-01
        2   -1    0    0  501    0  0.00000000000E+00  0.00000000000E+00  0.21756206815E+04  0.21756206815E+04  0.25500000920E-02 0.  1.
       -2   -1    0    0    0  501  0.00000000000E+00  0.00000000000E+00 -0.14663762391E+04  0.14663762392E+04  0.25500000920E-02 0. -1.
    10030    2    1    2    0    0  0.00000000000E+00  0.00000000000E+00  0.70924444239E+03  0.36419969207E+04  0.35722701313E+04 0.  0.
        2    1    3    3  502    0  0.91334842348E+03  0.14991510809E+04  0.18615073753E+02  0.17555642474E+04  0.25500000920E-02 0.  1.
       -2    1    3    3    0  502 -0.91334842348E+03 -0.14991510809E+04  0.69062936864E+03  0.18864326733E+04  0.25500000920E-02 0. -1.
</event>
<event>
 5   0  0.4627905E-07  0.3617615E+04  0.7818609E-02  0.8086469E-01
        1   -1    0    0  501    0  0.00000000000E+00  0.00000000000E+00  0.16682128627E+04  0.16682128627E+04  0.50400001928E-02 0.  1.
       -1   -1    0    0    0  501  0.00000000000E+00  0.00000000000E+00 -0.19612516958E+04  0.19612516958E+04  0.50400001928E-02 0. -1.
    10030    2    1    2    0    0  0.00000000000E+00  0.00000000000E+00 -0.29303883306E+03  0.36294645585E+04  0.36176154057E+04 0.  0.
        1    1    3    3  502    0  0.17167357127E+04 -0.53229393505E+03 -0.35032751281E+03  0.18311875127E+04  0.50400001928E-02 0.  1.
       -1    1    3    3    0  502 -0.17167357127E+04  0.53229393505E+03  0.57288679741E+02  0.17982770458E+04  0.50400001928E-02 0. -1.
</event>
<event>
 5   0  0.5533705E-07  0.3915990E+04  0.7818609E-02  0.8021712E-01
       -2   -1    0    0    0  501  0.00000000000E+00  0.00000000000E+00  0.19764860008E+04  0.19764860008E+04  0.25500000920E-02 0.  1.
        2   -1    0    0  501    0  0.00000000000E+00  0.00000000000E+00 -0.19396772044E+04  0.19396772044E+04  0.25500000920E-02 0. -1.
    10030    2    1    2    0    0  0.00000000000E+00  0.00000000000E+00  0.36808796353E+02  0.39161632052E+04  0.39159902148E+04 0.  0.
        1    1    3    3  502    0 -0.10224487301E+03  0.15954348089E+04  0.11488872601E+04  0.19687072357E+04  0.50400001928E-02 0.  1.
       -1    1    3    3    0  502  0.10224487301E+03 -0.15954348089E+04 -0.11120784638E+04  0.19474559695E+04  0.50400001928E-02 0. -1.
</event>
<event>
 5   0  0.1015219E-06  0.2677398E+04  0.7818609E-02  0.8342376E-01
       -2   -1    0    0    0  501  0.00000000000E+00  0.00000000000E+00  0.85339745479E+03  0.85339745479E+03  0.25500000920E-02 0. -1.
        2   -1    0    0  501    0  0.00000000000E+00  0.00000000000E+00 -0.20999777014E+04  0.20999777014E+04  0.25500000920E-02 0.  1.
    10030    2    1    2    0    0  0.00000000000E+00  0.00000000000E+00 -0.12465802466E+04  0.29533751562E+04  0.26773984578E+04 0.  0.
        3    1    3    3  502    0  0.81315319236E+03  0.34684280934E+02 -0.17957179455E+04  0.19715537182E+04  0.10100000352E+00 0.  1.
       -3    1    3    3    0  502 -0.81315319236E+03 -0.34684280934E+02  0.54913769891E+03  0.98182143802E+03  0.10100000352E+00 0. -1.
</event>
<event>
 5   0  0.4627905E-07  0.3897863E+04  0.7818609E-02  0.8025474E-01
        1   -1    0    0  501    0  0.00000000000E+00  0.00000000000E+00  0.22304738882E+04  0.22304738882E+04  0.50400001928E-02 0.  1.
       -1   -1    0    0    0  501  0.00000000000E+00  0.00000000000E+00 -0.17029265812E+04  0.17029265812E+04  0.50400001928E-02 0. -1.
    10030    2    1    2    0    0  0.00000000000E+00  0.00000000000E+00  0.52754730704E+03  0.39334004694E+04  0.38978626312E+04 0.  0.
        1    1    3    3  502    0  0.19436293422E+04  0.62649845199E+02  0.39423206687E+03  0.19841973050E+04  0.50400001928E-02 0. -1.
       -1    1    3    3    0  502 -0.19436293422E+04 -0.62649845199E+02  0.13331524017E+03  0.19492031644E+04  0.50400001928E-02 0.  1.
</event>
<event>
 5   0  0.3977376E-07  0.2300419E+04  0.7818609E-02  0.8477756E-01
       -1   -1    0    0    0  501  0.00000000000E+00  0.00000000000E+00  0.15904512595E+04  0.15904512596E+04  0.50400001928E-02 0.  1.
        1   -1    0    0  501    0  0.00000000000E+00  0.00000000000E+00 -0.83182821919E+03  0.83182821920E+03  0.50400001928E-02 0. -1.
    10030    2    1    2    0    0  0.00000000000E+00  0.00000000000E+00  0.75862304036E+03  0.24222794788E+04  0.23004193000E+04 0.  0.
        4    1    3    3  502    0  0.47473589202E+03 -0.69967479048E+03  0.12004020684E+04  0.14682934715E+04  0.12699999809E+01 0.  1.
       -4    1    3    3    0  502 -0.47473589202E+03  0.69967479048E+03 -0.44177902804E+03  0.95398600730E+03  0.12699999809E+01 0. -1.
</event>
<event>
 5   0  0.3191750E-07  0.2082482E+04  0.7818609E-02  0.8569000E-01
       -3   -1    0    0    0  501  0.00000000000E+00  0.00000000000E+00  0.49839166703E+03  0.49839167727E+03  0.10100000352E+00 0. -1.
        3   -1    0    0  501    0  0.00000000000E+00  0.00000000000E+00 -0.21753637491E+04  0.21753637515E+04  0.10100000352E+00 0.  1.
    10030    2    1    2    0    0  0.00000000000E+00  0.00000000000E+00 -0.16769720821E+04  0.26737554288E+04  0.20824823477E+04 0.  0.
        5    1    3    3  502    0 -0.15959269828E+03  0.58736803403E+02  0.48042720690E+03  0.50965893747E+03  0.46999998093E+01 0. -1.
       -5    1    3    3    0  502  0.15959269828E+03 -0.58736803403E+02 -0.21573992890E+04  0.21640964913E+04  0.46999998093E+01 0.  1.
</event>
<event>
 5   0  0.3471602E-07  0.4046791E+04  0.7818609E-02  0.7995173E-01
       -1   -1    0    0    0  501  0.00000000000E+00  0.00000000000E+00  0.22936763453E+04  0.22936763453E+04  0.50400001928E-02 0. -1.
        1   -1    0    0  501    0  0.00000000000E+00  0.00000000000E+00 -0.17849640819E+04  0.17849640819E+04  0.50400001928E-02 0.  1.
    10030    2    1    2    0    0  0.00000000000E+00  0.00000000000E+00  0.50871226332E+03  0.40786404272E+04  0.40467912681E+04 0.  0.
        5    1    3    3  502    0  0.66892058619E+03  0.16320591370E+04 -0.74492878487E+03  0.19146834625E+04  0.46999998093E+01 0.  1.
       -5    1    3    3    0  502 -0.66892058619E+03 -0.16320591370E+04  0.12536410482E+04  0.21639569647E+04  0.46999998093E+01 0. -1.
</event>
<event>
 5   0  0.1015219E-06  0.3779492E+04  0.7818609E-02  0.8050570E-01
        2   -1    0    0  501    0  0.00000000000E+00  0.00000000000E+00  0.16828151775E+04  0.16828151775E+04  0.25500000920E-02 0. -1.
       -2   -1    0    0    0  501  0.00000000000E+00  0.00000000000E+00 -0.21221227178E+04  0.21221227178E+04  0.25500000920E-02 0.  1.
    10030    2    1    2    0    0  0.00000000000E+00  0.00000000000E+00 -0.43930754031E+03  0.38049378954E+04  0.37794921977E+04 0.  0.
        3    1    3    3  502    0 -0.35668404003E+02 -0.14424883874E+04  0.10088468203E+04  0.17606296884E+04  0.10100000352E+00 0. -1.
       -3    1    3    3    0  502  0.35668404003E+02  0.14424883874E+04 -0.14481543606E+04  0.20443082070E+04  0.10100000352E+00 0.  1.
</event>
<event>
 5   0  0.1015219E-06  0.4023208E+04  0.7818609E-02  0.7999881E-01
        2   -1    0    0  501    0  0.00000000000E+00  0.00000000000E+00  0.25703441011E+04  0.25703441011E+04  0.25500000920E-02 0.  1.
       -2   -1    0    0    0  501  0.00000000000E+00  0.00000000000E+00 -0.15743221696E+04  0.15743221696E+04  0.25500000920E-02 0. -1.
    10030    2    1    2    0    0  0.00000000000E+00  0.00000000000E+00  0.99602193158E+03  0.41446662707E+04  0.40232075272E+04 0.  0.
        3    1    3    3  502    0 -0.19166876877E+04  0.33045848538E+03  0.10269861435E+04  0.21994533530E+04  0.10100000352E+00 0.  1.
       -3    1    3    3    0  502  0.19166876877E+04 -0.33045848538E+03 -0.30964211895E+02  0.19452129177E+04  0.10100000352E+00 0. -1.
</event>
<event>
 5   0  0.5533705E-07  0.3040319E+04  0.7818609E-02  0.8232310E-01
       -2   -1    0    0    0  501  0.00000000000E+00  0.00000000000E+00  0.79182550300E+03  0.79182550301E+03  0.25500000920E-02 0. -1.
        2   -1    0    0  501    0  0.00000000000E+00  0.00000000000E+00 -0.29184269725E+04  0.29184269725E+04  0.25500000920E-02 0.  1.
    10030    2    1    2    0    0  0.00000000000E+00  0.00000000000E+00 -0.21266014695E+04  0.37102524755E+04  0.30403190000E+04 0.  0.
        1    1    3    3  502    0 -0.10043341818E+03  0.68336687921E+03 -0.27158758582E+04  0.28023309655E+04  0.50400001928E-02 0.  1.
       -1    1    3    3    0  502  0.10043341818E+03 -0.68336687921E+03  0.58927438871E+03  0.90792150999E+03  0.50400001928E-02 0. -1.
</event>
<event>
 5   0  0.1015219E-06  0.3808946E+04  0.7818609E-02  0.8044238E-01
        2   -1    0    0  501    0  0.00000000000E+00  0.00000000000E+00  0.23652114972E+04  0.23652114972E+04  0.25500000920E-02 0. -1.
       -2   -1    0    0    0  501  0.00000000000E+00  0.00000000000E+00 -0.15334851653E+04  0.15334851653E+04  0.25500000920E-02 0.  1.
    10030    2    1    2    0    0  0.00000000000E+00  0.00000000000E+00  0.83172633193E+03  0.38986966625E+04  0.38089456514E+04 0.  0.
        3    1    3    3  502    0  0.63239265093E+03 -0.91341511950E+03  0.19991699227E+04  0.22871222170E+04  0.10100000352E+00 0. -1.
       -3    1    3    3    0  502 -0.63239265093E+03  0.91341511950E+03 -0.11674435908E+04  0.16115744455E+04  0.10100000352E+00 0.  1.
</event>
<event>
 5   0  0.1035864E-06  0.3966911E+04  0.7818609E-02  0.8011255E-01
        2   -1    0    0  501    0  0.00000000000E+00  0.00000000000E+00  0.21870344685E+04  0.21870344685E+04  0.25500000920E-02 0.  1.
       -2   -1    0    0    0  501  0.00000000000E+00  0.00000000000E+00 -0.17988263374E+04  0.17988263374E+04  0.25500000920E-02 0. -1.
    10030    2    1    2    0    0  0.00000000000E+00  0.00000000000E+00  0.38820813102E+03  0.39858608059E+04  0.39669107390E+04 0.  0.
        5    1    3    3  502    0 -0.66165194722E+03  0.95067787112E+03 -0.14237122077E+04  0.18353610692E+04  0.46999998093E+01 0. -1.
       -5    1    3    3    0  502  0.66165194722E+03 -0.95067787112E+03  0.18119203387E+04  0.21504997367E+04  0.46999998093E+01 0.  1.
</event>
<event>
 5   0  0.5533705E-07  0.3946664E+04  0.7818609E-02  0.8015393E-01
       -2   -1    0    0    0  501  0.00000000000E+00  0.00000000000E+00  0.13709095483E+04  0.13709095483E+04  0.25500000920E-02 0.  1.
        2   -1    0    0  501    0  0.00000000000E+00  0.00000000000E+00 -0.28404780472E+04  0.28404780472E+04  0.25500000920E-02 0. -1.
    10030    2    1    2    0    0  0.00000000000E+00  0.00000000000E+00 -0.14695684989E+04  0.42113875954E+04  0.39466636424E+04 0.  0.
        1    1    3    3  502    0 -0.76652920759E+03 -0.10938054452E+04  0.81525471018E+03  0.15648059370E+04  0.50400001928E-02 0.  1.
       -1    1    3    3    0  502  0.76652920759E+03  0.10938054452E+04 -0.22848232091E+04  0.26465816584E+04  0.50400001928E-02 0. -1.
</event>
<event>
 5   0  0.7268013E-07  0.3911105E+04  0.7818609E-02  0.8022724E-01
       -2   -1    0    0    0  501  0.00000000000E+00  0.00000000000E+00  0.23278135866E+04  0.23278135866E+04  0.25500000920E-02 0. -1.
        2   -1    0    0  501    0  0.00000000000E+00  0.00000000000E+00 -0.16428227633E+04  0.16428227633E+04  0.25500000920E-02 0.  1.
    10030    2    1    2    0    0  0.00000000000E+00  0.00000000000E+00  0.68499082333E+03  0.39706363499E+04  0.39111047794E+04 0.  0.
        4    1    3    3  502    0  0.23060126641E+03  0.11506273040E+04  0.19306152607E+04  0.22592912682E+04  0.12699999809E+01 0. -1.
       -4    1    3    3    0  502 -0.23060126641E+03 -0.11506273040E+04 -0.12456244374E+04  0.17113450817E+04  0.12699999809E+01 0.  1.
</event>
<event>
 5   0  0.5533705E-07  0.3413210E+04  0.7818609E-02  0.8134672E-01
        2   -1    0    0  501    0  0.00000000000E+00  0.00000000000E+00  0.23800135329E+04  0.23800135329E+04  0.25500000920E-02 0.  1.
       -2   -1    0    0    0  501  0.00000000000E+00  0.00000000000E+00 -0.12237329734E+04  0.12237329734E+04  0.25500000920E-02 0. -1.
    10030    2    1    2    0    0  0.00000000000E+00  0.00000000000E+00  0.11562805595E+04  0.36037465063E+04  0.34132102410E+04 0.  0.
        1    1    3    3  502    0 -0.12010999291E+04 -0.54105069691E+03  0.17236593605E+04  0.21694189285E+04  0.50400001928E-02 0.  1.
       -1    1    3    3    0  502  0.12010999291E+04  0.54105069691E+03 -0.56737880105E+03  0.14343275777E+04  0.50400001928E-02 0. -1.
</event>
<event>
 5   0  0.1035864E-06  0.3936846E+04  0.7818609E-02  0.8017409E-01
       -2   -1    0    0    0  501  0.00000000000E+00  0.00000000000E+00  0.12194508226E+04  0.12194508226E+04  0.25500000920E-02 0. -1.
        2   -1    0    0  501    0  0.00000000000E+00  0.00000000000E+00 -0.31774046764E+04  0.31774046764E+04  0.25500000920E-02 0.  1.
    10030    2    1    2    0    0  0.00000000000E+00  0.00000000000E+00 -0.19579538538E+04  0.43968554990E+04  0.39368458168E+04 0.  0.
        5    1    3    3  502    0  0.73744722024E+03 -0.32342535171E+03  0.10270730034E+04  0.13051181575E+04  0.46999998093E+01 0. -1.
       -5    1    3    3    0  502 -0.73744722024E+03  0.32342535171E+03 -0.29850268572E+04  0.30917373415E+04  0.46999998093E+01 0.  1.
</event>
<event>
 5   0  0.1034683E-06  0.3412131E+04  0.7818609E-02  0.8134935E-01
       -2   -1    0    0    0  501  0.00000000000E+00  0.00000000000E+00  0.15719414011E+04  0.15719414011E+04  0.25500000920E-02 0. -1.
        2   -1    0    0  501    0  0.00000000000E+00  0.00000000000E+00 -0.18516331740E+04  0.18516331740E+04  0.25500000920E-02 0.  1.
    10030    2    1    2    0    0  0.00000000000E+00  0.00000000000E+00 -0.27969177297E+03  0.34235745751E+04  0.34121306222E+04 0.  0.
        2    1    3    3  502    0  0.14489783412E+04 -0.60040688566E+03  0.53369698967E+03  0.16567616420E+04  0.25500000920E-02 0. -1.
       -2    1    3    3    0  502 -0.14489783412E+04  0.60040688566E+03 -0.81338876264E+03  0.17668129331E+04  0.25500000920E-02 0.  1.
</event>
<event>
 5   0  0.4316671E-07  0.3084953E+04  0.7818609E-02  0.8219880E-01
        1   -1    0    0  501    0  0.00000000000E+00  0.00000000000E+00  0.79185842384E+03  0.79185842386E+03  0.50400001928E-02 0. -1.
       -1   -1    0    0    0  501  0.00000000000E+00  0.00000000000E+00 -0.30046203947E+04  0.30046203947E+04  0.50400001928E-02 0.  1.
    10030    2    1    2    0    0  0.00000000000E+00  0.00000000000E+00 -0.22127619709E+04  0.37964788186E+04  0.30849531407E+04 0.  0.
        2    1    3    3  502    0 -0.11547597975E+04 -0.69200955363E+03 -0.20329557950E+04  0.24382897032E+04  0.25500000920E-02 0.  1.
       -2    1    3    3    0  502  0.11547597975E+04  0.69200955363E+03 -0.17980617587E+03  0.13581891154E+04  0.25500000920E-02 0. -1.
</event>
<event>
 5   0  0.4316671E-07  0.3482964E+04  0.7818609E-02  0.8117839E-01
       -1   -1    0    0    0  501  0.00000000000E+00  0.00000000000E+00  0.15064574064E+04  0.15064574064E+04  0.50400001928E-02 0. -1.
        1   -1    0    0  501    0  0.00000000000E+00  0.00000000000E+00 -0.20131725764E+04  0.20131725764E+04  0.50400001928E-02 0.  1.
    10030    2    1    2    0    0  0.00000000000E+00  0.00000000000E+00 -0.50671517001E+03  0.35196299828E+04  0.34829635302E+04 0.  0.
        2    1    3    3  502    0  0.59912308752E+03  0.95120616211E+03 -0.15974034755E+04  0.19533150029E+04  0.25500000920E-02 0.  1.
       -2    1    3    3    0  502 -0.59912308752E+03 -0.95120616211E+03  0.10906883055E+04  0.15663149800E+04  0.25500000920E-02 0. -1.
</event>
<event>
 5   0  0.7268013E-07  0.3871128E+04  0.7818609E-02  0.8031061E-01
       -2   -1    0    0    0  501  0.00000000000E+00  0.00000000000E+00  0.25334706698E+04  0.25334706698E+04  0.25500000920E-02 0. -1.
        2   -1    0    0  501    0  0.00000000000E+00  0.00000000000E+00 -0.14787649361E+04  0.14787649361E+04  0.25500000920E-02 0.  1.
    10030    2    1    2    0    0  0.00000000000E+00  0.00000000000E+00  0.10547057337E+04  0.40122356060E+04  0.38711277909E+04 0.  0.
        4    1    3    3  502    0 -0.15701311110E+03 -0.18001037733E+04 -0.19175263408E+03  0.18170848624E+04  0.12699999809E+01 0.  1.
       -4    1    3    3    0  502  0.15701311110E+03  0.18001037733E+04  0.12464583678E+04  0.21951507436E+04  0.12699999809E+01 0. -1.
</event>
<event>
 5   0  0.3471602E-07  0.3755379E+04  0.7818609E-02  0.8055799E-01
        1   -1    0    0  501    0  0.00000000000E+00  0.00000000000E+00  0.11463282830E+04  0.11463282830E+04  0.50400001928E-02 0. -1.
       -1   -1    0    0    0  501  0.00000000000E+00  0.00000000000E+00 -0.30756611026E+04  0.30756611026E+04  0.50400001928E-02 0.  1.
    10030    2    1    2    0    0  0.00000000000E+00  0.00000000000E+00 -0.19293328196E+04  0.42219893857E+04  0.37553787084E+04 0.  0.
        5    1    3    3  502    0 -0.50786733569E+03  0.10331738183E+04  0.70298820119E+03  0.13489224850E+04  0.46999998093E+01 0.  1.
       -5    1    3    3    0  502  0.50786733569E+03 -0.10331738183E+04 -0.26323210208E+04  0.28730669007E+04  0.46999998093E+01 0. -1.
</event>
<event>
 5   0  0.1035864E-06  0.2460193E+04  0.7818609E-02  0.8417306E-01
        2   -1    0    0  501    0  0.00000000000E+00  0.00000000000E+00  0.16810262251E+04  0.16810262251E+04  0.25500000920E-02 0. -1.
       -2   -1    0    0    0  501  0.00000000000E+00  0.00000000000E+00 -0.90012741209E+03  0.90012741209E+03  0.25500000920E-02 0.  1.
    10030    2    1    2    0    0  0.00000000000E+00  0.00000000000E+00  0.78089881300E+03  0.25811536372E+04  0.24601933141E+04 0.  0.
        5    1    3    3  502    0  0.32477387974E+03 -0.26134591677E+03 -0.82374822774E+03  0.92323506967E+03  0.46999998093E+01 0.  1.
       -5    1    3    3    0  502 -0.32477387974E+03  0.26134591677E+03  0.16046470407E+04  0.16579185675E+04  0.46999998093E+01 0. -1.
</event>
<event>
 5   0  0.5533705E-07  0.4322046E+04  0.7818609E-02  0.7942554E-01
        2   -1    0    0  501    0  0.00000000000E+00  0.00000000000E+00  0.27638526387E+04  0.27638526387E+04  0.25500000920E-02 0. -1.
       -2   -1    0    0    0  501  0.00000000000E+00  0.00000000000E+00 -0.16896777796E+04  0.16896777796E+04  0.25500000920E-02 0.  1.
    10030    2    1    2    0    0  0.00000000000E+00  0.00000000000E+00  0.10741748591E+04  0.44535304182E+04  0.43220459921E+04 0.  0.
        1    1    3    3  502    0  0.36713283767E+03 -0.14785972603E+04 -0.10421777839E+04  0.18458523537E+04  0.50400001928E-02 0.  1.
       -1    1    3    3    0  502 -0.36713283767E+03  0.14785972603E+04  0.21163526430E+04  0.26076780645E+04  0.50400001928E-02 0. -1.
</event>
<event>
 5   0  0.5533705E-07  0.3884258E+04  0.7818609E-02  0.8028311E-01
       -2   -1    0    0    0  501  0.00000000000E+00  0.00000000000E+00  0.22658127320E+04  0.22658127320E+04  0.25500000920E-02 0. -1.
        2   -1    0    0  501    0  0.00000000000E+00  0.00000000000E+00 -0.16646849753E+04  0.16646849753E+04  0.25500000920E-02 0.  1.
    10030    2    1    2    0    0  0.00000000000E+00  0.00000000000E+00  0.60112775667E+03  0.39304977073E+04  0.38842576701E+04 0.  0.
        1    1    3    3  502    0 -0.41766924079E+02  0.25200817374E+03  0.22487393372E+04  0.22632015381E+04  0.50400001928E-02 0. -1.
       -1    1    3    3    0  502  0.41766924079E+02 -0.25200817374E+03 -0.16476115805E+04  0.16672961692E+04  0.50400001928E-02 0.  1.
</event>
<event>
 5   0  0.7268013E-07  0.3778102E+04  0.7818609E-02  0.8050870E-01
        2   -1    0    0  501    0  0.00000000000E+00  0.00000000000E+00  0.21220943553E+04  0.21220943553E+04  0.25500000920E-02 0. -1.
       -2   -1    0    0    0  501  0.00000000000E+00  0.00000000000E+00 -0.16816003050E+04  0.16816003050E+04  0.25500000920E-02 0.  1.
    10030    2    1    2    0    0  0.00000000000E+00  0.00000000000E+00  0.44049405031E+03  0.38036946602E+04  0.37781024417E+04 0.  0.
        4    1    3    3  502    0 -0.31179077201E+03 -0.16003423703E+04  0.11807555398E+04  0.20130808343E+04  0.12699999809E+01 0. -1.
       -4    1    3    3    0  502  0.31179077201E+03  0.16003423703E+04 -0.74026148952E+03  0.17906138259E+04  0.12699999809E+01 0.  1.
</event>
<event>
 5   0  0.5168289E-07  0.1940245E+04  0.7818609E-02  0.8635079E-01
        1   -1    0    0  501    0  0.00000000000E+00  0.00000000000E+00  0.12359935802E+04  0.12359935803E+04  0.50400001928E-02 0. -1.
       -1   -1    0    0    0  501  0.00000000000E+00  0.00000000000E+00 -0.76144215500E+03  0.76144215502E+03  0.50400001928E-02 0.  1.
    10030    2    1    2    0    0  0.00000000000E+00  0.00000000000E+00  0.47455142524E+03  0.19974357353E+04  0.19402449488E+04 0.  0.
        4    1    3    3  502    0 -0.92743209664E+03 -0.23402159367E+03  0.40403686120E+03  0.10383370350E+04  0.12699999809E+01 0. -1.
       -4    1    3    3    0  502  0.92743209664E+03  0.23402159367E+03  0.70514564040E+02  0.95909870025E+03  0.12699999809E+01 0.  1.
</event>
<event>
 5   0  0.7268013E-07  0.2997746E+04  0.7818609E-02  0.8244375E-01
       -2   -1    0    0    0  501  0.00000000000E+00  0.00000000000E+00  0.96856103922E+03  0.96856103923E+03  0.25500000920E-02 0. -1.
        2   -1    0    0  501    0  0.00000000000E+00  0.00000000000E+00 -0.23195442401E+04  0.23195442401E+04  0.25500000920E-02 0.  1.
    10030    2    1    2    0    0  0.00000000000E+00  0.00000000000E+00 -0.13509832009E+04  0.32881052793E+04  0.29977459397E+04 0.  0.
        4    1    3    3  502    0  0.50043928025E+03  0.14096211145E+04 -0.78039749561E+03  0.16871553052E+04  0.12699999809E+01 0.  1.
       -4    1    3    3    0  502 -0.50043928025E+03 -0.14096211145E+04 -0.57058570524E+03  0.16009499741E+04  0.12699999809E+01 0. -1.
</event>
<event>
 5   0  0.4627905E-07  0.3823718E+04  0.7818609E-02  0.8041084E-01
       -1   -1    0    0    0  501  0.00000000000E+00  0.00000000000E+00  0.14311651629E+04  0.14311651629E+04  0.50400001928E-02 0. -1.
        1   -1    0    0  501    0  0.00000000000E+00  0.00000000000E+00 -0.25540068382E+04  0.25540068382E+04  0.50400001928E-02 0.  1.
    10030    2    1    2    0    0  0.00000000000E+00  0.00000000000E+00 -0.11228416753E+04  0.39851720011E+04  0.38237184063E+04 0.  0.
        1    1    3    3  502    0  0.31284167228E+02  0.20412684734E+03 -0.25423486600E+04  0.25507220895E+04  0.50400001928E-02 0.  1.
       -1    1    3    3    0  502 -0.31284167228E+02 -0.20412684734E+03  0.14195069848E+04  0.14344499115E+04  0.50400001928E-02 0. -1.
</event>
<event>
 5   0  0.5533705E-07  0.2330315E+04  0.7818609E-02  0.8466063E-01
        2   -1    0    0  501    0  0.00000000000E+00  0.00000000000E+00  0.24150853695E+04  0.24150853695E+04  0.25500000920E-02 0. -1.
       -2   -1    0    0    0  501  0.00000000000E+00  0.00000000000E+00 -0.56213007923E+03  0.56213007923E+03  0.25500000920E-02 0.  1.
    10030    2    1    2    0    0  0.00000000000E+00  0.00000000000E+00  0.18529552902E+04  0.29772154487E+04  0.23303151118E+04 0.  0.
        1    1    3    3  502    0 -0.89683582100E+03 -0.58510906635E+03  0.15132365138E+04  0.18537939087E+04  0.50400001928E-02 0. -1.
       -1    1    3    3    0  502  0.89683582100E+03  0.58510906635E+03  0.33971877644E+03  0.11234215400E+04  0.50400001928E-02 0.  1.
</event>
<event>
 5   0  0.5533705E-07  0.3938851E+04  0.7818609E-02  0.8016997E-01
       -2   -1    0    0    0  501  0.00000000000E+00  0.00000000000E+00  0.15451530846E+04  0.15451530846E+04  0.25500000920E-02 0. -1.
        2   -1    0    0  501    0  0.00000000000E+00  0.00000000000E+00 -0.25101958459E+04  0.25101958459E+04  0.25500000920E-02 0.  1.
    10030    2    1    2    0    0  0.00000000000E+00  0.00000000000E+00 -0.96504276131E+03  0.40553489304E+04  0.39388510274E+04 0.  0.
        1    1    3    3  502    0  0.44525711990E+03 -0.19108239469E+04 -0.30678379411E+03  0.19858545654E+04  0.50400001928E-02 0.  1.
       -1    1    3    3    0  502 -0.44525711990E+03  0.19108239469E+04 -0.65825896719E+03  0.20694943650E+04  0.50400001928E-02 0. -1.
</event>
<event>
 5   0  0.3977376E-07  0.3823050E+04  0.7818609E-02  0.8041226E-01
        1   -1    0    0  501    0  0.00000000000E+00  0.00000000000E+00  0.19316560534E+04  0.19316560534E+04  0.50400001928E-02 0. -1.
       -1   -1    0    0    0  501  0.00000000000E+00  0.00000000000E+00 -0.18916037551E+04  0.18916037551E+04  0.50400001928E-02 0.  1.
    10030    2    1    2    0    0  0.00000000000E+00  0.00000000000E+00  0.40052298325E+02  0.38232598085E+04  0.38230500097E+04 0.  0.
        4    1    3    3  502    0  0.18537713485E+03 -0.20091066745E+03 -0.18719541090E+04  0.18918096039E+04  0.12699999809E+01 0.  1.
       -4    1    3    3    0  502 -0.18537713485E+03  0.20091066745E+03  0.19120064073E+04  0.19314502046E+04  0.12699999809E+01 0. -1.
</event>
<event>
 5   0  0.4627905E-07  0.4027349E+04  0.7818609E-02  0.7999052E-01
       -1   -1    0    0    0  501  0.00000000000E+00  0.00000000000E+00  0.21097967751E+04  0.21097967751E+04  0.50400001928E-02 0.  1.
        1   -1    0    0  501    0  0.00000000000E+00  0.00000000000E+00 -0.19219317716E+04  0.19219317716E+04  0.50400001928E-02 0. -1.
    10030    2    1    2    0    0  0.00000000000E+00  0.00000000000E+00  0.18786500352E+03  0.40317285467E+04  0.40273492293E+04 0.  0.
        1    1    3    3  502    0  0.24483189804E+03 -0.97210424345E+03 -0.16543788986E+04  0.19343988365E+04  0.50400001928E-02 0. -1.
       -1    1    3    3    0  502 -0.24483189804E+03  0.97210424345E+03  0.18422439021E+04  0.20973297102E+04  0.50400001928E-02 0.  1.
</event>
<event>
 5   0  0.5533705E-07  0.4058470E+04  0.7818609E-02  0.7992854E-01
       -2   -1    0    0    0  501  0.00000000000E+00  0.00000000000E+00  0.18437287682E+04  0.18437287682E+04  0.25500000920E-02 0.  1.
        2   -1    0    0  501    0  0.00000000000E+00  0.00000000000E+00 -0.22334064237E+04  0.22334064237E+04  0.25500000920E-02 0. -1.
    10030    2    1    2    0    0  0.00000000000E+00  0.00000000000E+00 -0.38967765550E+03  0.40771351920E+04  0.40584704876E+04 0.  0.
        1    1    3    3  502    0 -0.12699095183E+04 -0.44027403263E+03  0.13324437636E+04  0.18925955172E+04  0.50400001928E-02 0.  1.
       -1    1    3    3    0  502  0.12699095183E+04  0.44027403263E+03 -0.17221214191E+04  0.21845396748E+04  0.50400001928E-02 0. -1.
</event>
<event>
 5   0  0.4316671E-07  0.3853007E+04  0.7818609E-02  0.8034874E-01
       -1   -1    0    0    0  501  0.00000000000E+00  0.00000000000E+00  0.15686894245E+04  0.15686894245E+04  0.50400001928E-02 0.  1.
        1   -1    0    0  501    0  0.00000000000E+00  0.00000000000E+00 -0.23659345651E+04  0.23659345651E+04  0.50400001928E-02 0. -1.
    10030    2    1    2    0    0  0.00000000000E+00  0.00000000000E+00 -0.79724514055E+03  0.39346239896E+04  0.38530074131E+04 0.  0.
        2    1    3    3  502    0  0.95708271595E+03 -0.12566194314E+04  0.72760653211E+03  0.17391121258E+04  0.25500000920E-02 0.  1.
       -2    1    3    3    0  502 -0.95708271595E+03  0.12566194314E+04 -0.15248516727E+04  0.21955118638E+04  0.25500000920E-02 0. -1.
</event>
<event>
 5   0  0.1015219E-06  0.2914346E+04  0.7818609E-02  0.8268622E-01
        2   -1    0    0  501    0  0.00000000000E+00  0.00000000000E+00  0.86975879828E+03  0.86975879828E+03  0.25500000920E-02 0.  1.
       -2   -1    0    0    0  501  0.00000000000E+00  0.00000000000E+00 -0.24413127457E+04  0.24413127457E+04  0.25500000920E-02 0. -1.
    10030    2    1    2    0    0  0.00000000000E+00  0.00000000000E+00 -0.15715539474E+04  0.33110715440E+04  0.29143460604E+04 0.  0.
        3    1    3    3  502    0 -0.13707188854E+04 -0.46000853909E+03 -0.57977989705E+03  0.15577621314E+04  0.10100000352E+00 0.  1.
       -3    1    3    3    0  502  0.13707188854E+04  0.46000853909E+03 -0.99177405035E+03  0.17533094125E+04  0.10100000352E+00 0. -1.
</event>
<event>
 5   0  0.1035864E-06  0.4151181E+04  0.7818609E-02  0.7974724E-01
       -2   -1    0    0    0  501  0.00000000000E+00  0.00000000000E+00  0.26448642761E+04  0.26448642761E+04  0.25500000920E-02 0. -1.
        2   -1    0    0  501    0  0.00000000000E+00  0.00000000000E+00 -0.16288458707E+04  0.16288458707E+04  0.25500000920E-02 0.  1.
    10030    2    1    2    0    0  0.00000000000E+00  0.00000000000E+00  0.10160184054E+04  0.42737101468E+04  0.41511811594E+04 0.  0.
        5    1    3    3  502    0  0.90039766831E+03  0.12165824366E+04  0.19702365257E+04  0.24844803971E+04  0.46999998093E+01 0. -1.
       -5    1    3    3    0  502 -0.90039766831E+03 -0.12165824366E+04 -0.95421812031E+03  0.17892297497E+04  0.46999998093E+01 0.  1.
</event>
<event>
 5   0  0.3471602E-07  0.2559498E+04  0.7818609E-02  0.8382090E-01
       -1   -1    0    0    0  501  0.00000000000E+00  0.00000000000E+00  0.83766961740E+03  0.83766961741E+03  0.50400001928E-02 0. -1.
        1   -1    0    0  501    0  0.00000000000E+00  0.00000000000E+00 -0.19551349644E+04  0.19551349644E+04  0.50400001928E-02 0.  1.
    10030    2    1    2    0    0  0.00000000000E+00  0.00000000000E+00 -0.11174653470E+04  0.27928045818E+04  0.25594977301E+04 0.  0.
        5    1    3    3  502    0 -0.12209744927E+04 -0.30891688104E+03 -0.31104634605E+03  0.12972972946E+04  0.46999998093E+01 0.  1.
       -5    1    3    3    0  502  0.12209744927E+04  0.30891688104E+03 -0.80641900096E+03  0.14955072873E+04  0.46999998093E+01 0. -1.
</event>
<event>
 5   0  0.4627905E-07  0.2365778E+04  0.7818609E-02  0.8452428E-01
       -1   -1    0    0    0  501  0.00000000000E+00  0.00000000000E+00  0.13639920927E+04  0.13639920927E+04  0.50400001928E-02 0. -1.
        1   -1    0    0  501    0  0.00000000000E+00  0.00000000000E+00 -0.10258321656E+04  0.10258321656E+04  0.50400001928E-02 0.  1.
    10030    2    1    2    0    0  0.00000000000E+00  0.00000000000E+00  0.33815992702E+03  0.23898242583E+04  0.23657784870E+04 0.  0.
        1    1    3    3  502    0  0.67670900033E+03 -0.28973210702E+03  0.11044215697E+04  0.13272628860E+04  0.50400001928E-02 0. -1.
       -1    1    3    3    0  502 -0.67670900033E+03  0.28973210702E+03 -0.76626164263E+03  0.10625613723E+04  0.50400001928E-02 0.  1.
</event>
<event>
 5   0  0.1015219E-06  0.2585848E+04  0.7818609E-02  0.8373024E-01
        2   -1    0    0  501    0  0.00000000000E+00  0.00000000000E+00  0.13950240965E+04  0.13950240965E+04  0.25500000920E-02 0. -1.
       -2   -1    0    0    0  501  0.00000000000E+00  0.00000000000E+00 -0.11982964359E+04  0.11982964359E+04  0.25500000920E-02 0.  1.
    10030    2    1    2    0    0  0.00000000000E+00  0.00000000000E+00  0.19672766063E+03  0.25933205323E+04  0.25858479482E+04 0.  0.
        3    1    3    3  502    0  0.15794196195E+03  0.11465770650E+04 -0.47955463749E+03  0.12528197355E+04  0.10100000352E+00 0.  1.
       -3    1    3    3    0  502 -0.15794196195E+03 -0.11465770650E+04  0.67628229812E+03  0.13405007968E+04  0.10100000352E+00 0. -1.
</event>
<event>
 5   0  0.1035864E-06  0.2559826E+04  0.7818609E-02  0.8381977E-01
       -2   -1    0    0    0  501  0.00000000000E+00  0.00000000000E+00  0.11381314898E+04  0.11381314898E+04  0.25500000920E-02 0.  1.
        2   -1    0    0  501    0  0.00000000000E+00  0.00000000000E+00 -0.14393572258E+04  0.14393572258E+04  0.25500000920E-02 0. -1.
    10030    2    1    2    0    0  0.00000000000E+00  0.00000000000E+00 -0.30122573594E+03  0.25774887156E+04  0.25598263877E+04 0.  0.
        5    1    3    3  502    0 -0.17050253188E+03  0.10939535928E+04 -0.79718848376E+03  0.13643083029E+04  0.46999998093E+01 0. -1.
       -5    1    3    3    0  502  0.17050253188E+03 -0.10939535928E+04  0.49596274783E+03  0.12131804127E+04  0.46999998093E+01 0.  1.
</event>
<event>
 5   0  0.5385714E-07  0.3843751E+04  0.7818609E-02  0.8036831E-01
        1   -1    0    0  501    0  0.00000000000E+00  0.00000000000E+00  0.23237441755E+04  0.23237441755E+04  0.50400001928E-02 0.  1.
       -1   -1    0    0    0  501  0.00000000000E+00  0.00000000000E+00 -0.15895058509E+04  0.15895058509E+04  0.50400001928E-02 0. -1.
    10030    2    1    2    0    0  0.00000000000E+00  0.00000000000E+00  0.73423832457E+03  0.39132500265E+04  0.38437507531E+04 0.  0.
        3    1    3    3  502    0  0.38448058562E+03  0.81074146188E+03 -0.13631628949E+04  0.16319743034E+04  0.10100000352E+00 0. -1.
       -3    1    3    3    0  502 -0.38448058562E+03 -0.81074146188E+03  0.20974012195E+04  0.22812757230E+04  0.10100000352E+00 0.  1.
</event>
<event>
 5   0  0.5533705E-07  0.3490099E+04  0.7818609E-02  0.8116140E-01
       -2   -1    0    0    0  501  0.00000000000E+00  0.00000000000E+00  0.20988429273E+04  0.20988429273E+04  0.25500000920E-02 0.  1.
        2   -1    0    0  501    0  0.00000000000E+00  0.00000000000E+00 -0.14508932390E+04  0.14508932390E+04  0.25500000920E-02 0. -1.
    10030    2    1    2    0    0  0.00000000000E+00  0.00000000000E+00  0.64794968830E+03  0.35497361662E+04  0.34900985733E+04 0.  0.
        1    1    3    3  502    0  0.10607254655E+04 -0.88667601889E+03 -0.75905117834E+03  0.15771783561E+04  0.50400001928E-02 0. -1.
       -1    1    3    3    0  502 -0.10607254655E+04  0.88667601889E+03  0.14070008666E+04  0.19725578101E+04  0.50400001928E-02 0.  1.
</event>
<event>
 5   0  0.1015219E-06  0.3816656E+04  0.7818609E-02  0.8042590E-01
       -2   -1    0    0    0  501  0.00000000000E+00  0.00000000000E+00  0.24869981520E+04  0.24869981520E+04  0.25500000920E-02 0.  1.
        2   -1    0    0  501    0  0.00000000000E+00  0.00000000000E+00 -0.14643019025E+04  0.14643019025E+04  0.25500000920E-02 0. -1.
    10030    2    1    2    0    0  0.00000000000E+00  0.00000000000E+00  0.10226962495E+04  0.39513000545E+04  0.38166561939E+04 0.  0.
        3    1    3    3  502    0  0.80850274427E+03 -0.29819628947E+03 -0.12513987218E+04  0.15194066229E+04  0.10100000352E+00 0. -1.
       -3    1    3    3    0  502 -0.80850274427E+03  0.29819628947E+03  0.22740949712E+04  0.24318934316E+04  0.10100000352E+00 0.  1.
</event>
<event>
 5   0  0.5533705E-07  0.3813700E+04  0.7818609E-02  0.8043221E-01
        2   -1    0    0  501    0  0.00000000000E+00  0.00000000000E+00  0.16471000485E+04  0.16471000485E+04  0.25500000920E-02 0.  1.
       -2   -1    0    0    0  501  0.00000000000E+00  0.00000000000E+00 -0.22075629948E+04  0.22075629948E+04  0.25500000920E-02 0. -1.
    10030    2    1    2    0    0  0.00000000000E+00  0.00000000000E+00 -0.56046294625E+03  0.38546630433E+04  0.38137001014E+04 0.  0.
        1    1    3    3  502    0 -0.14352171891E+04 -0.96017338663E+03 -0.10978052421E+04  0.20462056744E+04  0.50400001928E-02 0. -1.
       -1    1    3    3    0  502  0.14352171891E+04  0.96017338663E+03  0.53734229587E+03  0.18084573689E+04  0.50400001928E-02 0.  1.
</event>
<event>
 5   0  0.4316671E-07  0.3975046E+04  0.7818609E-02  0.8009600E-01
       -1   -1    0    0    0  501  0.00000000000E+00  0.00000000000E+00  0.23398575928E+04  0.23398575928E+04  0.50400001928E-02 0.  1.
        1   -1    0    0  501    0  0.00000000000E+00  0.00000000000E+00 -0.16882429048E+04  0.16882429048E+04  0.50400001928E-02 0. -1.
    10030    2    1    2    0    0  0.00000000000E+00  0.00000000000E+00  0.65161468796E+03  0.40281004976E+04  0.39750461528E+04 0.  0.
        2    1    3    3  502    0  0.27443818497E+03 -0.17662739973E+04  0.12064330597E+04  0.21565066377E+04  0.25500000920E-02 0.  1.
       -2    1    3    3    0  502 -0.27443818497E+03  0.17662739973E+04 -0.55481837175E+03  0.18715938599E+04  0.25500000920E-02 0. -1.
</event>
<event>
 5   0  0.3471602E-07  0.3903770E+04  0.7818609E-02  0.8024246E-01
       -1   -1    0    0    0  501  0.00000000000E+00  0.00000000000E+00  0.24563876552E+04  0.24563876552E+04  0.50400001928E-02 0. -1.
        1   -1    0    0  501    0  0.00000000000E+00  0.00000000000E+00 -0.15509987347E+04  0.15509987347E+04  0.50400001928E-02 0.  1.
    10030    2    1    2    0    0  0.00000000000E+00  0.00000000000E+00  0.90538892047E+03  0.40073863899E+04  0.39037695347E+04 0.  0.
        5    1    3    3  502    0  0.33001637436E+03  0.16490730913E+04  0.14696865985E+04  0.22334622575E+04  0.46999998093E+01 0.  1.
       -5    1    3    3    0  502 -0.33001637436E+03 -0.16490730913E+04 -0.56429767806E+03  0.17739241323E+04  0.46999998093E+01 0. -1.
</event>
<event>
 5   0  0.4627905E-07  0.2264489E+04  0.7818609E-02  0.8492056E-01
       -1   -1    0    0    0  501  0.00000000000E+00  0.00000000000E+00  0.14286224982E+04  0.14286224982E+04  0.50400001928E-02 0. -1.
        1   -1    0    0  501    0  0.00000000000E+00  0.00000000000E+00 -0.89735249555E+03  0.89735249556E+03  0.50400001928E-02 0.  1.
    10030    2    1    2    0    0  0.00000000000E+00  0.00000000000E+00  0.53127000269E+03  0.23259749938E+04  0.22644893146E+04 0.  0.
        1    1    3    3  502    0 -0.95606781903E+03  0.58057510666E+03  0.44603062226E+03  0.12041911996E+04  0.50400001928E-02 0. -1.
       -1    1    3    3    0  502  0.95606781903E+03 -0.58057510666E+03  0.85239380429E+02  0.11217837943E+04  0.50400001928E-02 0.  1.
</event>
<event>
 5   0  0.1034683E-06  0.2949259E+04  0.7818609E-02  0.8258371E-01
       -2   -1    0    0    0  501  0.00000000000E+00  0.00000000000E+00  0.16144637487E+04  0.16144637487E+04  0.25500000920E-02 0. -1.
        2   -1    0    0  501    0  0.00000000000E+00  0.00000000000E+00 -0.13469067489E+04  0.13469067489E+04  0.25500000920E-02 0.  1.
    10030    2    1    2    0    0  0.00000000000E+00  0.00000000000E+00  0.26755699975E+03  0.29613704976E+04  0.29492589707E+04 0.  0.
        2    1    3    3  502    0  0.13454410839E+04  0.54362703994E+03 -0.12957715568E+03  0.14568913165E+04  0.25500000920E-02 0.  1.
       -2    1    3    3    0  502 -0.13454410839E+04 -0.54362703994E+03  0.39713415543E+03  0.15044791811E+04  0.25500000920E-02 0. -1.
</event>
<event>
 5   0  0.4627905E-07  0.3907811E+04  0.7818609E-02  0.8023407E-01
        1   -1    0    0  501    0  0.00000000000E+00  0.00000000000E+00  0.16130839855E+04  0.16130839855E+04  0.50400001928E-02 0. -1.
       -1   -1    0    0    0  501  0.00000000000E+00  0.00000000000E+00 -0.23667380765E+04  0.23667380765E+04  0.50400001928E-02 0.  1.
    10030    2    1    2    0    0  0.00000000000E+00  0.00000000000E+00 -0.75365409103E+03  0.39798220621E+04  0.39078113000E+04 0.  0.
        1    1    3    3  502    0 -0.10238687942E+03 -0.73171093469E+03  0.14653342254E+04  0.16410631789E+04  0.50400001928E-02 0. -1.
       -1    1    3    3    0  502  0.10238687942E+03  0.73171093469E+03 -0.22189883164E+04  0.23387588832E+04  0.50400001928E-02 0.  1.
</event>
<event>
 5   0  0.1035864E-06  0.3901375E+04  0.7818609E-02  0.8024743E-01
        2   -1    0    0  501    0  0.00000000000E+00  0.00000000000E+00  0.25314113785E+04  0.25314113785E+04  0.25500000920E-02 0.  1.
       -2   -1    0    0    0  501  0.00000000000E+00  0.00000000000E+00 -0.15031857041E+04  0.15031857041E+04  0.25500000920E-02 0. -1.
    10030    2    1    2    0    0  0.00000000000E+00  0.00000000000E+00  0.10282256744E+04  0.40345970826E+04  0.39013748323E+04 0.  0.
        5    1    3    3  502    0  0.63204634557E+03  0.18225020132E+04  0.21409750998E+03  0.19408389951E+04  0.46999998093E+01 0. -1.
       -5    1    3    3    0  502 -0.63204634557E+03 -0.18225020132E+04  0.81412816440E+03  0.20937580876E+04  0.46999998093E+01 0.  1.
</event>
<event>
 5   0  0.3977376E-07  0.2056723E+04  0.7818609E-02  0.8580551E-01
        1   -1    0    0  501    0  0.00000000000E+00  0.00000000000E+00  0.85968628119E+03  0.85968628120E+03  0.50400001928E-02 0. -1.
       -1   -1    0    0    0  501  0.00000000000E+00  0.00000000000E+00 -0.12301312152E+04  0.12301312152E+04  0.50400001928E-02 0.  1.
    10030    2    1    2    0    0  0.00000000000E+00  0.00000000000E+00 -0.37044493398E+03  0.20898174964E+04  0.20567225674E+04 0.  0.
        4    1    3    3  502    0  0.52209374238E+03  0.76054084846E+03 -0.64698088233E+03  0.11267609032E+04  0.12699999809E+01 0.  1.
       -4    1    3    3    0  502 -0.52209374238E+03 -0.76054084846E+03  0.27653594835E+03  0.96305659317E+03  0.12699999809E+01 0. -1.
</event>
<event>
 5   0  0.5533705E-07  0.3112474E+04  0.7818609E-02  0.8212323E-01
        2   -1    0    0  501    0  0.00000000000E+00  0.00000000000E+00  0.18112313717E+04  0.18112313717E+04  0.25500000920E-02 0.  1.
       -2   -1    0    0    0  501  0.00000000000E+00  0.00000000000E+00 -0.13371418279E+04  0.13371418279E+04  0.25500000920E-02 0. -1.
    10030    2    1    2    0    0  0.00000000000E+00  0.00000000000E+00  0.47408954383E+03  0.31483731996E+04  0.31124737603E+04 0.  0.
        1    1    3    3  502    0 -0.10348910912E+04 -0.49524280593E+03 -0.82656210691E+03  0.14140261398E+04  0.50400001928E-02 0. -1.
       -1    1    3    3    0  502  0.10348910912E+04  0.49524280593E+03  0.13006516507E+04  0.17343470598E+04  0.50400001928E-02 0.  1.
</event>
<event>
 5   0  0.5533705E-07  0.3880116E+04  0.7818609E-02  0.8029177E-01
       -2   -1    0    0    0  501  0.00000000000E+00  0.00000000000E+00  0.17349415338E+04  0.17349415338E+04  0.25500000920E-02 0. -1.
        2   -1    0    0  501    0  0.00000000000E+00  0.00000000000E+00 -0.21694246767E+04  0.21694246767E+04  0.25500000920E-02 0.  1.
    10030    2    1    2    0    0  0.00000000000E+00  0.00000000000E+00 -0.43448314286E+03  0.39043662104E+04  0.38801159653E+04 0.  0.
        1    1    3    3  502    0 -0.12538051291E+04 -0.13375495867E+04 -0.85584073723E+03  0.20232472825E+04  0.50400001928E-02 0.  1.
       -1    1    3    3    0  502  0.12538051291E+04  0.13375495867E+04  0.42135759437E+03  0.18811189279E+04  0.50400001928E-02 0. -1.
</event>
<event>
 5   0  0.1035864E-06  0.3944645E+04  0.7818609E-02  0.8015807E-01
       -2   -1    0    0    0  501  0.00000000000E+00  0.00000000000E+00  0.26922865201E+04  0.26922865201E+04  0.25500000920E-02 0. -1.
        2   -1    0    0  501    0  0.00000000000E+00  0.00000000000E+00 -0.14448892341E+04  0.14448892341E+04  0.25500000920E-02 0.  1.
    10030    2    1    2    0    0  0.00000000000E+00  0.00000000000E+00  0.12473972859E+04  0.41371757542E+04  0.39446448804E+04 0.  0.
        5    1    3    3  502    0  0.29508905874E+03 -0.18662729333E+04  0.12169769883E+04  0.22474668616E+04  0.46999998093E+01 0. -1.
       -5    1    3    3    0  502 -0.29508905874E+03  0.18662729333E+04  0.30420297665E+02  0.18897088926E+04  0.46999998093E+01 0.  1.
</event>
<event>
 5   0  0.3471602E-07  0.3357914E+04  0.7818609E-02  0.8148313E-01
        1   -1    0    0  501    0  0.00000000000E+00  0.00000000000E+00  0.14106640206E+04  0.14106640206E+04  0.50400001928E-02 0. -1.
       -1   -1    0    0    0  501  0.00000000000E+00  0.00000000000E+00 -0.19982768042E+04  0.19982768042E+04  0.50400001928E-02 0.  1.
    10030    2    1    2    0    0  0.00000000000E+00  0.00000000000E+00 -0.58761278357E+03  0.34089408247E+04  0.33579143472E+04 0.  0.
        5    1    3    3  502    0  0.13941792686E+04 -0.22823347016E+03 -0.12148127501E+04  0.18632279672E+04  0.46999998093E+01 0.  1.
       -5    1    3    3    0  502 -0.13941792686E+04  0.22823347016E+03  0.62719996656E+03  0.15457128575E+04  0.46999998093E+01 0. -1.
</event>
<event>
 5   0  0.1015219E-06  0.1916504E+04  0.7818609E-02  0.8646684E-01
        2   -1    0    0  501    0  0.00000000000E+00  0.00000000000E+00  0.14396385283E+04  0.14396385283E+04  0.25500000920E-02 0. -1.
       -2   -1    0    0    0  501  0.00000000000E+00  0.00000000000E+00 -0.63783176671E+03  0.63783176671E+03  0.25500000920E-02 0.  1.
    10030    2    1    2    0    0  0.00000000000E+00  0.00000000000E+00  0.80180676160E+03  0.20774702950E+04  0.19165043031E+04 0.  0.
        3    1    3    3  502    0 -0.21677395460E+03  0.37225508939E+03  0.13287643295E+04  0.13968462523E+04  0.10100000352E+00 0. -1.
       -3    1    3    3    0  502  0.21677395460E+03 -0.37225508939E+03 -0.52695756790E+03  0.68062404273E+03  0.10100000352E+00 0.  1.
</event>
<event>
 5   0  0.5533705E-07  0.3460541E+04  0.7818609E-02  0.8123205E-01
        2   -1    0    0  501    0  0.00000000000E+00  0.00000000000E+00  0.29367692316E+04  0.29367692316E+04  0.25500000920E-02 0. -1.
       -2   -1    0    0    0  501  0.00000000000E+00  0.00000000000E+00 -0.10194316780E+04  0.10194316780E+04  0.25500000920E-02 0.  1.
    10030    2    1    2    0    0  0.00000000000E+00  0.00000000000E+00  0.19173375536E+04  0.39562009096E+04  0.34605407587E+04 0.  0.
        1    1    3    3  502    0 -0.30362232164E+03  0.11468277464E+04  0.23986125604E+04  0.26759563914E+04  0.50400001928E-02 0. -1.
       -1    1    3    3    0  502  0.30362232164E+03 -0.11468277464E+04 -0.48127500676E+03  0.12802445182E+04  0.50400001928E-02 0.  1.
</event>
<event>
 5   0  0.3191750E-07  0.3931004E+04  0.7818609E-02  0.8018612E-01
       -3   -1    0    0    0  501  0.00000000000E+00  0.00000000000E+00  0.20864200073E+04  0.20864200097E+04  0.10100000352E+00 0. -1.
        3   -1    0    0  501    0  0.00000000000E+00  0.00000000000E+00 -0.18515913893E+04  0.18515913921E+04  0.10100000352E+00 0.  1.
    10030    2    1    2    0    0  0.00000000000E+00  0.00000000000E+00  0.23482861793E+03  0.39380114018E+04  0.39310036023E+04 0.  0.
        5    1    3    3  502    0 -0.59365575620E+03  0.18723418062E+04  0.18884530840E+03  0.19732652221E+04  0.46999998093E+01 0.  1.
       -5    1    3    3    0  502  0.59365575620E+03 -0.18723418062E+04  0.45983309529E+02  0.19647461798E+04  0.46999998093E+01 0. -1.
</event>
<event>
 5   0  0.4316671E-07  0.2398365E+04  0.7818609E-02  0.8440116E-01
        1   -1    0    0  501    0  0.00000000000E+00  0.00000000000E+00  0.11442370093E+04  0.11442370094E+04  0.50400001928E-02 0.  1.
       -1   -1    0    0    0  501  0.00000000000E+00  0.00000000000E+00 -0.12567666539E+04  0.12567666539E+04  0.50400001928E-02 0. -1.
    10030    2    1    2    0    0  0.00000000000E+00  0.00000000000E+00 -0.11252964454E+03  0.24010036633E+04  0.23983652078E+04 0.  0.
        2    1    3    3  502    0 -0.90283692342E+03 -0.75900277826E+03  0.16039690170E+03  0.11903473837E+04  0.25500000920E-02 0.  1.
       -2    1    3    3    0  502  0.90283692342E+03  0.75900277826E+03 -0.27292654625E+03  0.12106562796E+04  0.25500000920E-02 0. -1.
</event>
<event>
 5   0  0.7268013E-07  0.3889491E+04  0.7818609E-02  0.8027218E-01
        2   -1    0    0  501    0  0.00000000000E+00  0.00000000000E+00  0.18636534865E+04  0.18636534865E+04  0.25500000920E-02 0.  1.
       -2   -1    0    0    0  501  0.00000000000E+00  0.00000000000E+00 -0.20293663827E+04  0.20293663827E+04  0.25500000920E-02 0. -1.
    10030    2    1    2    0    0  0.00000000000E+00  0.00000000000E+00 -0.16571289618E+03  0.38930198691E+04  0.38894913469E+04 0.  0.
        4    1    3    3  502    0 -0.18468686531E+04  0.54528839724E+03 -0.35471077178E+03  0.19580818681E+04  0.12699999809E+01 0. -1.
       -4    1    3    3    0  502  0.18468686531E+04 -0.54528839724E+03  0.18899787560E+03  0.19349380010E+04  0.12699999809E+01 0.  1.
</event>
<event>
 5   0  0.5533705E-07  0.3871951E+04  0.7818609E-02  0.8030888E-01
        2   -1    0    0  501    0  0.00000000000E+00  0.00000000000E+00  0.19028815089E+04  0.19028815089E+04  0.25500000920E-02 0.  1.
       -2   -1    0    0    0  501  0.00000000000E+00  0.00000000000E+00 -0.19696447228E+04  0.19696447228E+04  0.25500000920E-02 0. -1.
    10030    2    1    2    0    0  0.00000000000E+00  0.00000000000E+00 -0.66763213986E+02  0.38725262317E+04  0.38719506826E+04 0.  0.
        1    1    3    3  502    0 -0.16559783720E+04 -0.10006194170E+04 -0.10045077285E+03  0.19374194032E+04  0.50400001928E-02 0. -1.
       -1    1    3    3    0  502  0.16559783720E+04  0.10006194170E+04  0.33687558859E+02  0.19351068285E+04  0.50400001928E-02 0.  1.
</event>
<event>
 5   0  0.1015219E-06  0.2251734E+04  0.7818609E-02  0.8497199E-01
        2   -1    0    0  501    0  0.00000000000E+00  0.00000000000E+00  0.19182395626E+04  0.19182395626E+04  0.25500000920E-02 0. -1.
       -2   -1    0    0    0  501  0.00000000000E+00  0.00000000000E+00 -0.66080183008E+03  0.66080183008E+03  0.25500000920E-02 0.  1.
    10030    2    1    2    0    0  0.00000000000E+00  0.00000000000E+00  0.12574377325E+04  0.25790413927E+04  0.22517337440E+04 0.  0.
        3    1    3    3  502    0  0.45038036849E+03 -0.40435527724E+03 -0.45860576356E+03  0.75938456867E+03  0.10100000352E+00 0.  1.
       -3    1    3    3    0  502 -0.45038036849E+03  0.40435527724E+03  0.17160434961E+04  0.18196568240E+04  0.10100000352E+00 0. -1.
</event>
<event>
 5   0  0.1015219E-06  0.3658180E+04  0.7818609E-02  0.8077293E-01
        2   -1    0    0  501    0  0.00000000000E+00  0.00000000000E+00  0.15656183784E+04  0.15656183784E+04  0.25500000920E-02 0. -1.
       -2   -1    0    0    0  501  0.00000000000E+00  0.00000000000E+00 -0.21369001124E+04  0.21369001124E+04  0.25500000920E-02 0.  1.
    10030    2    1    2    0    0  0.00000000000E+00  0.00000000000E+00 -0.57128173406E+03  0.37025184908E+04  0.36581799239E+04 0.  0.
        3    1    3    3  502    0  0.11168028041E+04 -0.60751048310E+02  0.11791847474E+04  0.16252433270E+04  0.10100000352E+00 0. -1.
       -3    1    3    3    0  502 -0.11168028041E+04  0.60751048310E+02 -0.17504664815E+04  0.20772751638E+04  0.10100000352E+00 0.  1.
</event>
<event>
 5   0  0.1015219E-06  0.2410421E+04  0.7818609E-02  0.8435612E-01
        2   -1    0    0  501    0  0.00000000000E+00  0.00000000000E+00  0.90440708111E+03  0.90440708111E+03  0.25500000920E-02 0. -1.
       -2   -1    0    0    0  501  0.00000000000E+00  0.00000000000E+00 -0.16060604516E+04  0.16060604516E+04  0.25500000920E-02 0.  1.
    10030    2    1    2    0    0  0.00000000000E+00  0.00000000000E+00 -0.70165337051E+03  0.25104675327E+04  0.24104210795E+04 0.  0.
        3    1    3    3  502    0  0.42776496762E+03 -0.43710682143E+03 -0.14324329369E+04  0.15575331039E+04  0.10100000352E+00 0.  1.
       -3    1    3    3    0  502 -0.42776496762E+03  0.43710682143E+03  0.73077956636E+03  0.95293442884E+03  0.10100000352E+00 0. -1.
</event>
<event>
 5   0  0.3471602E-07  0.3783007E+04  0.7818609E-02  0.8049811E-01
       -1   -1    0    0    0  501  0.00000000000E+00  0.00000000000E+00  0.12501735651E+04  0.12501735651E+04  0.50400001928E-02 0.  1.
        1   -1    0    0  501    0  0.00000000000E+00  0.00000000000E+00 -0.28618315385E+04  0.28618315385E+04  0.50400001928E-02 0. -1.
    10030    2    1    2    0    0  0.00000000000E+00  0.00000000000E+00 -0.16116579734E+04  0.41120051036E+04  0.37830073419E+04 0.  0.
        5    1    3    3  502    0 -0.21207405957E+03  0.54862682808E+03 -0.27598917730E+04  0.28218772992E+04  0.46999998093E+01 0. -1.
       -5    1    3    3    0  502  0.21207405957E+03 -0.54862682808E+03  0.11482337996E+04  0.12901278044E+04  0.46999998093E+01 0.  1.
</event>
<event>
 5   0  0.7268013E-07  0.3903457E+04  0.7818609E-02  0.8024311E-01
       -2   -1    0    0    0  501  0.00000000000E+00  0.00000000000E+00  0.16790977083E+04  0.16790977083E+04  0.25500000920E-02 0.  1.
        2   -1    0    0  501    0  0.00000000000E+00  0.00000000000E+00 -0.22686260961E+04  0.22686260961E+04  0.25500000920E-02 0. -1.
    10030    2    1    2    0    0  0.00000000000E+00  0.00000000000E+00 -0.58952838785E+03  0.39477238044E+04  0.39034573798E+04 0.  0.
        4    1    3    3  502    0  0.15314835706E+04 -0.12066527550E+04 -0.20549963006E+03  0.19605316904E+04  0.12699999809E+01 0. -1.
       -4    1    3    3    0  502 -0.15314835706E+04  0.12066527550E+04 -0.38402875779E+03  0.19871921140E+04  0.12699999809E+01 0.  1.
</event>
<event>
 5   0  0.1035864E-06  0.3857160E+04  0.7818609E-02  0.8033999E-01
        2   -1    0    0  501    0  0.00000000000E+00  0.00000000000E+00  0.15446538516E+04  0.15446538516E+04  0.25500000920E-02 0. -1.
       -2   -1    0    0    0  501  0.00000000000E+00  0.00000000000E+00 -0.24079316724E+04  0.24079316724E+04  0.25500000920E-02 0.  1.
    10030    2    1    2    0    0  0.00000000000E+00  0.00000000000E+00 -0.86327782083E+03  0.39525855240E+04  0.38571600600E+04 0.  0.
        5    1    3    3  502    0 -0.48369157615E+02 -0.10864347328E+04 -0.20637502481E+04  0.23327595634E+04  0.46999998093E+01 0.  1.
       -5    1    3    3    0  502  0.48369157615E+02  0.10864347328E+04  0.12004724273E+04  0.16198259606E+04  0.46999998093E+01 0. -1.
</event>
<event>
 5   0  0.4316671E-07  0.3625030E+04  0.7818609E-02  0.8084782E-01
        1   -1    0    0  501    0  0.00000000000E+00  0.00000000000E+00  0.23007559464E+04  0.23007559464E+04  0.50400001928E-02 0.  1.
       -1   -1    0    0    0  501  0.00000000000E+00  0.00000000000E+00 -0.14278831851E+04  0.14278831851E+04  0.50400001928E-02 0. -1.
    10030    2    1    2    0    0  0.00000000000E+00  0.00000000000E+00  0.87287276129E+03  0.37286391315E+04  0.36250300572E+04 0.  0.
        2    1    3    3  502    0 -0.14873262755E+04 -0.10071072782E+04  0.68586732685E+03  0.19227112393E+04  0.25500000920E-02 0. -1.
       -2    1    3    3    0  502  0.14873262755E+04  0.10071072782E+04  0.18700543444E+03  0.18059278923E+04  0.25500000920E-02 0.  1.
</event>
<event>
 5   0  0.5385714E-07  0.1988104E+04  0.7818609E-02  0.8612203E-01
        1   -1    0    0  501    0  0.00000000000E+00  0.00000000000E+00  0.10762843020E+04  0.10762843020E+04  0.50400001928E-02 0.  1.
       -1   -1    0    0    0  501  0.00000000000E+00  0.00000000000E+00 -0.91810250935E+03  0.91810250937E+03  0.50400001928E-02 0. -1.
    10030    2    1    2    0    0  0.00000000000E+00  0.00000000000E+00  0.15818179265E+03  0.19943868114E+04  0.19881039394E+04 0.  0.
        3    1    3    3  502    0 -0.11992594440E+03 -0.79250242289E+03 -0.51072721504E+03  0.95041286861E+03  0.10100000352E+00 0. -1.
       -3    1    3    3    0  502  0.11992594440E+03  0.79250242289E+03  0.66890900770E+03  0.10439739428E+04  0.10100000352E+00 0.  1.
</event>
<event>
 5   0  0.5533705E-07  0.2394015E+04  0.7818609E-02  0.8441748E-01
       -2   -1    0    0    0  501  0.00000000000E+00  0.00000000000E+00  0.13839325674E+04  0.13839325674E+04  0.25500000920E-02 0.  1.
        2   -1    0    0  501    0  0.00000000000E+00  0.00000000000E+00 -0.10353298009E+04  0.10353298009E+04  0.25500000920E-02 0. -1.
    10030    2    1    2    0    0  0.00000000000E+00  0.00000000000E+00  0.34860276649E+03  0.24192623683E+04  0.23940147280E+04 0.  0.
        1    1    3    3  502    0 -0.74634646066E+03 -0.84872794925E+03  0.57273662324E+03  0.12670435710E+04  0.50400001928E-02 0.  1.
       -1    1    3    3    0  502  0.74634646066E+03  0.84872794925E+03 -0.22413385676E+03  0.11522187973E+04  0.50400001928E-02 0. -1.
</event>
<event>
 5   0  0.4316671E-07  0.4227276E+04  0.7818609E-02  0.7960204E-01
       -1   -1    0    0    0  501  0.00000000000E+00  0.00000000000E+00  0.23149420663E+04  0.23149420663E+04  0.50400001928E-02 0. -1.
        1   -1    0    0  501    0  0.00000000000E+00  0.00000000000E+00 -0.19298391106E+04  0.19298391107E+04  0.50400001928E-02 0.  1.
    10030    2    1    2    0    0  0.00000000000E+00  0.00000000000E+00  0.38510295567E+03  0.42447811770E+04  0.42272760679E+04 0.  0.
        2    1    3    3  502    0  0.13847171893E+04  0.15868766380E+04  0.37174656441E+03  0.21386478594E+04  0.25500000920E-02 0. -1.
       -2    1    3    3    0  502 -0.13847171893E+04 -0.15868766380E+04  0.13356391262E+02  0.21061333176E+04  0.25500000920E-02 0.  1.
</event>
<event>
 5   0  0.4316671E-07  0.2279300E+04  0.7818609E-02  0.8486128E-01
        1   -1    0    0  501    0  0.00000000000E+00  0.00000000000E+00  0.12386150367E+04  0.12386150367E+04  0.50400001928E-02 0. -1.
       -1   -1    0    0    0  501  0.00000000000E+00  0.00000000000E+00 -0.10485922156E+04  0.10485922156E+04  0.50400001928E-02 0.  1.
    10030    2    1    2    0    0  0.00000000000E+00  0.00000000000E+00  0.19002282108E+03  0.22872072523E+04  0.22792999677E+04 0.  0.
        2    1    3    3  502    0 -0.86062597888E+03 -0.39481202193E+03 -0.54141946336E+03  0.10907284921E+04  0.25500000920E-02 0.  1.
       -2    1    3    3    0  502  0.86062597888E+03  0.39481202193E+03  0.73144228444E+03  0.11964787602E+04  0.25500000920E-02 0. -1.
</event>
<event>
 5   0  0.3471602E-07  0.3340033E+04  0.7818609E-02  0.8152783E-01
        1   -1    0    0  501    0  0.00000000000E+00  0.00000000000E+00  0.15895201106E+04  0.15895201106E+04  0.50400001928E-02 0.  1.
       -1   -1    0    0    0  501  0.00000000000E+00  0.00000000000E+00 -0.17545896073E+04  0.17545896073E+04  0.50400001928E-02 0. -1.
    10030    2    1    2    0    0  0.00000000000E+00  0.00000000000E+00 -0.16506949676E+03  0.33441097179E+04  0.33400332134E+04 0.  0.
        5    1    3    3  502    0  0.97041038311E+02  0.80129135402E+02 -0.17498286585E+04  0.17543546009E+04  0.46999998093E+01 0. -1.
       -5    1    3    3    0  502 -0.97041038311E+02 -0.80129135402E+02  0.15847591617E+04  0.15897551171E+04  0.46999998093E+01 0.  1.
</event>
<event>
 5   0  0.1034683E-06  0.3929750E+04  0.7818609E-02  0.8018870E-01
       -2   -1    0    0    0  501  0.00000000000E+00  0.00000000000E+00  0.28462268106E+04  0.28462268106E+04  0.25500000920E-02 0.  1.
        2   -1    0    0  501    0  0.00000000000E+00  0.00000000000E+00 -0.13564389919E+04  0.13564389919E+04  0.25500000920E-02 0. -1.
    10030    2    1    2    0    0  0.00000000000E+00  0.00000000000E+00  0.14897878187E+04  0.42026658025E+04  0.39297496234E+04 0.  0.
        2    1    3    3  502    0 -0.81014676871E+03 -0.11926059338E+04  0.21725524377E+04  0.26074184157E+04  0.25500000920E-02 0.  1.
       -2    1    3    3    0  502  0.81014676871E+03  0.11926059338E+04 -0.68276461898E+03  0.15952473868E+04  0.25500000920E-02 0. -1.
</event>
<event>
 5   0  0.7268013E-07  0.3280649E+04  0.7818609E-02  0.8167837E-01
        2   -1    0    0  501    0  0.00000000000E+00  0.00000000000E+00  0.27020624585E+04  0.27020624585E+04  0.25500000920E-02 0. -1.
       -2   -1    0    0    0  501  0.00000000000E+00  0.00000000000E+00 -0.99578194532E+03  0.99578194532E+03  0.25500000920E-02 0.  1.
    10030    2    1    2    0    0  0.00000000000E+00  0.00000000000E+00  0.17062805132E+04  0.36978444038E+04  0.32806493329E+04 0.  0.
        4    1    3    3  502    0  0.93202832814E+01  0.31004197128E+03 -0.96242355213E+03  0.10111743659E+04  0.12699999809E+01 0.  1.
       -4    1    3    3    0  502 -0.93202832814E+01 -0.31004197128E+03  0.26687040653E+04  0.26866700379E+04  0.12699999809E+01 0. -1.
</event>
<event>
 5   0  0.1015219E-06  0.1955319E+04  0.7818609E-02  0.8627800E-01
        2   -1    0    0  501    0  0.00000000000E+00  0.00000000000E+00  0.13332411649E+04  0.13332411649E+04  0.25500000920E-02 0. -1.
       -2   -1    0    0    0  501  0.00000000000E+00  0.00000000000E+00 -0.71691278071E+03  0.71691278071E+03  0.25500000920E-02 0.  1.
    10030    2    1    2    0    0  0.00000000000E+00  0.00000000000E+00  0.61632838421E+03  0.20501539456E+04  0.19553185223E+04 0.  0.
        3    1    3    3  502    0  0.18914998104E+03 -0.66214776861E+03 -0.41946867100E+03  0.80633204014E+03  0.10100000352E+00 0.  1.
       -3    1    3    3    0  502 -0.18914998104E+03  0.66214776861E+03  0.10357970552E+04  0.12438219055E+04  0.10100000352E+00 0. -1.
</event>
<event>
 5   0  0.5533705E-07  0.3896011E+04  0.7818609E-02  0.8025859E-01
       -2   -1    0    0    0  501  0.00000000000E+00  0.00000000000E+00  0.31405408686E+04  0.31405408686E+04  0.25500000920E-02 0. -1.
        2   -1    0    0  501    0  0.00000000000E+00  0.00000000000E+00 -0.12083029957E+04  0.12083029957E+04  0.25500000920E-02 0.  1.
    10030    2    1    2    0    0  0.00000000000E+00  0.00000000000E+00  0.19322378729E+04  0.43488438643E+04  0.38960107492E+04 0.  0.
        1    1    3    3  502    0  0.14036521668E+04  0.59724646720E+03 -0.38621664885E+03  0.15735647580E+04  0.50400001928E-02 0.  1.
       -1    1    3    3    0  502 -0.14036521668E+04 -0.59724646720E+03  0.23184545218E+04  0.27752791062E+04  0.50400001928E-02 0. -1.
</event>
<event>
 5   0  0.1015219E-06  0.3803905E+04  0.7818609E-02  0.8045317E-01
        2   -1    0    0  501    0  0.00000000000E+00  0.00000000000E+00  0.12424066938E+04  0.12424066938E+04  0.25500000920E-02 0.  1.
       -2   -1    0    0    0  501  0.00000000000E+00  0.00000000000E+00 -0.29116262359E+04  0.29116262359E+04  0.25500000920E-02 0. -1.
    10030    2    1    2    0    0  0.00000000000E+00  0.00000000000E+00 -0.16692195422E+04  0.41540329297E+04  0.38039053223E+04 0.  0.
        3    1    3    3  502    0 -0.18794883641E+03 -0.18910905430E+04 -0.91831842275E+03  0.21106532028E+04  0.10100000352E+00 0.  1.
       -3    1    3    3    0  502  0.18794883641E+03  0.18910905430E+04 -0.75090111943E+03  0.20433797269E+04  0.10100000352E+00 0. -1.
</event>
<event>
 5   0  0.1034683E-06  0.3990953E+04  0.7818609E-02  0.8006374E-01
        2   -1    0    0  501    0  0.00000000000E+00  0.00000000000E+00  0.18590571649E+04  0.18590571649E+04  0.25500000920E-02 0. -1.
       -2   -1    0    0    0  501  0.00000000000E+00  0.00000000000E+00 -0.21419059805E+04  0.21419059805E+04  0.25500000920E-02 0.  1.
    10030    2    1    2    0    0  0.00000000000E+00  0.00000000000E+00 -0.28284881563E+03  0.40009631454E+04  0.39909525979E+04 0.  0.
        2    1    3    3  502    0 -0.18992840476E+04 -0.44506485119E+03 -0.56267244040E+03  0.20302617788E+04  0.25500000920E-02 0.  1.
       -2    1    3    3    0  502  0.18992840476E+04  0.44506485119E+03  0.27982362478E+03  0.19707013666E+04  0.25500000920E-02 0. -1.
</event>
<event>
 5   0  0.3977376E-07  0.3844584E+04  0.7818609E-02  0.8036654E-01
        1   -1    0    0  501    0  0.00000000000E+00  0.00000000000E+00  0.21087249639E+04  0.21087249640E+04  0.50400001928E-02 0. -1.
       -1   -1    0    0    0  501  0.00000000000E+00  0.00000000000E+00 -0.17523418205E+04  0.17523418205E+04  0.50400001928E-02 0.  1.
    10030    2    1    2    0    0  0.00000000000E+00  0.00000000000E+00  0.35638314341E+03  0.38610667845E+04  0.38445842128E+04 0.  0.
        4    1    3    3  502    0  0.14077228861E+04 -0.11581016917E+04 -0.43460641500E+03  0.18739710780E+04  0.12699999809E+01 0.  1.
       -4    1    3    3    0  502 -0.14077228861E+04  0.11581016917E+04  0.79098955841E+03  0.19870957065E+04  0.12699999809E+01 0. -1.
</event>
<event>
 5   0  0.4316671E-07  0.3718543E+04  0.7818609E-02  0.8063865E-01
        1   -1    0    0  501    0  0.00000000000E+00  0.00000000000E+00  0.22137159132E+04  0.22137159132E+04  0.50400001928E-02 0. -1.
       -1   -1    0    0    0  501  0.00000000000E+00  0.00000000000E+00 -0.15615780238E+04  0.15615780238E+04  0.50400001928E-02 0.  1.
    10030    2    1    2    0    0  0.00000000000E+00  0.00000000000E+00  0.65213788934E+03  0.37752939370E+04  0.37185427904E+04 0.  0.
        2    1    3    3  502    0 -0.13483180934E+04  0.11985658593E+04 -0.13065023651E+03  0.18087540696E+04  0.25500000920E-02 0.  1.
       -2    1    3    3    0  502  0.13483180934E+04 -0.11985658593E+04  0.78278812585E+03  0.19665398674E+04  0.25500000920E-02 0. -1.
</event>
<event>
 5   0  0.7268013E-07  0.3941696E+04  0.7818609E-02  0.8016413E-01
        2   -1    0    0  501    0  0.00000000000E+00  0.00000000000E+00  0.16780484201E+04  0.16780484201E+04  0.25500000920E-02 0.  1.
       -2   -1    0    0    0  501  0.00000000000E+00  0.00000000000E+00 -0.23147373714E+04  0.23147373714E+04  0.25500000920E-02 0. -1.
    10030    2    1    2    0    0  0.00000000000E+00  0.00000000000E+00 -0.63668895131E+03  0.39927857914E+04  0.39416957716E+04 0.  0.
        4    1    3    3  502    0  0.10903905463E+04 -0.35529994491E+03  0.13052561264E+04  0.17374938166E+04  0.12699999809E+01 0.  1.
       -4    1    3    3    0  502 -0.10903905463E+04  0.35529994491E+03 -0.19419450777E+04  0.22552919749E+04  0.12699999809E+01 0. -1.
</event>
<event>
 5   0  0.7268013E-07  0.3910130E+04  0.7818609E-02  0.8022926E-01
       -2   -1    0    0    0  501  0.00000000000E+00  0.00000000000E+00  0.19075001549E+04  0.19075001549E+04  0.25500000920E-02 0. -1.
        2   -1    0    0  501    0  0.00000000000E+00  0.00000000000E+00 -0.20038156122E+04  0.20038156122E+04  0.25500000920E-02 0.  1.
    10030    2    1    2    0    0  0.00000000000E+00  0.00000000000E+00 -0.96315457303E+02  0.39113157670E+04  0.39101297117E+04 0.  0.
        4    1    3    3  502    0 -0.10972582638E+04  0.92032082416E+03  0.12831520036E+04  0.19228746174E+04  0.12699999809E+01 0. -1.
       -4    1    3    3    0  502  0.10972582638E+04 -0.92032082416E+03 -0.13794674609E+04  0.19884411496E+04  0.12699999809E+01 0.  1.
</event>
<event>
 5   0  0.1159596E-06  0.1951327E+04  0.7818609E-02  0.8629721E-01
        2   -1    0    0  501    0  0.00000000000E+00  0.00000000000E+00  0.10436218403E+04  0.10436218403E+04  0.25500000920E-02 0. -1.
       -2   -1    0    0    0  501  0.00000000000E+00  0.00000000000E+00 -0.91213027957E+03  0.91213027958E+03  0.25500000920E-02 0.  1.
    10030    2    1    2    0    0  0.00000000000E+00  0.00000000000E+00  0.13149156077E+03  0.19557521199E+04  0.19513268112E+04 0.  0.
        5    1    3    3  502    0  0.65767703568E+03 -0.64778029981E+03  0.38227616979E+03  0.99915742507E+03  0.46999998093E+01 0.  1.
       -5    1    3    3    0  502 -0.65767703568E+03  0.64778029981E+03 -0.25078460902E+03  0.95659469485E+03  0.46999998093E+01 0. -1.
</event>
<event>
 5   0  0.1035864E-06  0.2335856E+04  0.7818609E-02  0.8463916E-01
       -2   -1    0    0    0  501  0.00000000000E+00  0.00000000000E+00  0.46196622903E+03  0.46196622903E+03  0.25500000920E-02 0.  1.
        2   -1    0    0  501    0  0.00000000000E+00  0.00000000000E+00 -0.29527173541E+04  0.29527173541E+04  0.25500000920E-02 0. -1.
    10030    2    1    2    0    0  0.00000000000E+00  0.00000000000E+00 -0.24907511251E+04  0.34146835832E+04  0.23358559044E+04 0.  0.
        5    1    3    3  502    0  0.53002670072E+03  0.10092035326E+04 -0.87378371395E+03  0.14362938914E+04  0.46999998093E+01 0.  1.
       -5    1    3    3    0  502 -0.53002670072E+03 -0.10092035326E+04 -0.16169674112E+04  0.19783896918E+04  0.46999998093E+01 0. -1.
</event>
<event>
 5   0  0.1034683E-06  0.2060750E+04  0.7818609E-02  0.8578733E-01
       -2   -1    0    0    0  501  0.00000000000E+00  0.00000000000E+00  0.46326244142E+03  0.46326244143E+03  0.25500000920E-02 0. -1.
        2   -1    0    0  501    0  0.00000000000E+00  0.00000000000E+00 -0.22917294038E+04  0.22917294038E+04  0.25500000920E-02 0.  1.
    10030    2    1    2    0    0  0.00000000000E+00  0.00000000000E+00 -0.18284669624E+04  0.27549918452E+04  0.20607495323E+04 0.  0.
        2    1    3    3  502    0 -0.28115759188E+03 -0.67329548541E+03 -0.18868559852E+04  0.20230180205E+04  0.25500000920E-02 0.  1.
       -2    1    3    3    0  502  0.28115759188E+03  0.67329548541E+03  0.58389022838E+02  0.73197382477E+03  0.25500000920E-02 0. -1.
</event>
<event>
 5   0  0.5533705E-07  0.3971281E+04  0.7818609E-02  0.8010365E-01
       -2   -1    0    0    0  501  0.00000000000E+00  0.00000000000E+00  0.11846584253E+04  0.11846584253E+04  0.25500000920E-02 0. -1.
        2   -1    0    0  501    0  0.00000000000E+00  0.00000000000E+00 -0.33281905236E+04  0.33281905236E+04  0.25500000920E-02 0.  1.
    10030    2    1    2    0    0  0.00000000000E+00  0.00000000000E+00 -0.21435320983E+04  0.45128489489E+04  0.39712813775E+04 0.  0.
        1    1    3    3  502    0  0.58196414412E+03 -0.15074322839E+04  0.23961522540E+03  0.16335390451E+04  0.50400001928E-02 0. -1.
       -1    1    3    3    0  502 -0.58196414412E+03  0.15074322839E+04 -0.23831473237E+04  0.28793099038E+04  0.50400001928E-02 0.  1.
</event>
<event>
 5   0  0.1034683E-06  0.3789437E+04  0.7818609E-02  0.8048425E-01
       -2   -1    0    0    0  501  0.00000000000E+00  0.00000000000E+00  0.34177792242E+04  0.34177792242E+04  0.25500000920E-02 0. -1.
        2   -1    0    0  501    0  0.00000000000E+00  0.00000000000E+00 -0.10503776720E+04  0.10503776720E+04  0.25500000920E-02 0.  1.
    10030    2    1    2    0    0  0.00000000000E+00  0.00000000000E+00  0.23674015522E+04  0.44681568962E+04  0.37894374174E+04 0.  0.
        2    1    3    3  502    0 -0.27812400891E+03  0.21639329531E+03 -0.10113985116E+04  0.10710303319E+04  0.25500000920E-02 0.  1.
       -2    1    3    3    0  502  0.27812400891E+03 -0.21639329531E+03  0.33788000638E+04  0.33971265643E+04  0.25500000920E-02 0. -1.
</event>
<event>
 5   0  0.6699259E-07  0.2060134E+04  0.7818609E-02  0.8579011E-01
       -2   -1    0    0    0  501  0.00000000000E+00  0.00000000000E+00  0.69788598780E+03  0.69788598781E+03  0.25500000920E-02 0. -1.
        2   -1    0    0  501    0  0.00000000000E+00  0.00000000000E+00 -0.15203607901E+04  0.15203607901E+04  0.25500000920E-02 0.  1.
    10030    2    1    2    0    0  0.00000000000E+00  0.00000000000E+00 -0.82247480232E+03  0.22182467779E+04  0.20601344537E+04 0.  0.
        1    1    3    3  502    0 -0.43342512768E+03  0.21565062259E+02 -0.14171280891E+04  0.14820844828E+04  0.50400001928E-02 0.  1.
       -1    1    3    3    0  502  0.43342512768E+03 -0.21565062259E+02  0.59465328680E+03  0.73616229511E+03  0.50400001928E-02 0. -1.
</event>
<event>
 5   0  0.3471602E-07  0.3660584E+04  0.7818609E-02  0.8076753E-01
        1   -1    0    0  501    0  0.00000000000E+00  0.00000000000E+00  0.15845213073E+04  0.15845213073E+04  0.50400001928E-02 0.  1.
       -1   -1    0    0    0  501  0.00000000000E+00  0.00000000000E+00 -0.21141836771E+04  0.21141836771E+04  0.50400001928E-02 0. -1.
    10030    2    1    2    0    0  0.00000000000E+00  0.00000000000E+00 -0.52966236973E+03  0.36987049844E+04  0.36605841523E+04 0.  0.
        5    1    3    3  502    0  0.15553657402E+04  0.15657135336E+03 -0.12267270461E+04  0.19870980122E+04  0.46999998093E+01 0. -1.
       -5    1    3    3    0  502 -0.15553657402E+04 -0.15657135336E+03  0.69706467639E+03  0.17116069722E+04  0.46999998093E+01 0.  1.
</event>
<event>
 5   0  0.1015219E-06  0.3869591E+04  0.7818609E-02  0.8031384E-01
        2   -1    0    0  501    0  0.00000000000E+00  0.00000000000E+00  0.20560278452E+04  0.20560278452E+04  0.25500000920E-02 0.  1.
       -2   -1    0    0    0  501  0.00000000000E+00  0.00000000000E+00 -0.18207113586E+04  0.18207113586E+04  0.25500000920E-02 0. -1.
    10030    2    1    2    0    0  0.00000000000E+00  0.00000000000E+00  0.23531648666E+03  0.38767392038E+04  0.38695908059E+04 0.  0.
        3    1    3    3  502    0 -0.79349583596E+03 -0.77482431980E+02  0.18838085481E+04  0.20455742042E+04  0.10100000352E+00 0.  1.
       -3    1    3    3    0  502  0.79349583596E+03  0.77482431980E+02 -0.16484920614E+04  0.18311649996E+04  0.10100000352E+00 0. -1.
</event>
<event>
 5   0  0.7268013E-07  0.2165638E+04  0.7818609E-02  0.8532868E-01
       -2   -1    0    0    0  501  0.00000000000E+00  0.00000000000E+00  0.12802151500E+04  0.12802151500E+04  0.25500000920E-02 0.  1.
        2   -1    0    0  501    0  0.00000000000E+00  0.00000000000E+00 -0.91585972889E+03  0.91585972890E+03  0.25500000920E-02 0. -1.
    10030    2    1    2    0    0  0.00000000000E+00  0.00000000000E+00  0.36435542111E+03  0.21960748789E+04  0.21656384742E+04 0.  0.
        4    1    3    3  502    0  0.82359158019E+03 -0.52043354219E+03  0.66141005101E+03  0.11775478892E+04  0.12699999809E+01 0. -1.
       -4    1    3    3    0  502 -0.82359158019E+03  0.52043354219E+03 -0.29705462990E+03  0.10185269897E+04  0.12699999809E+01 0.  1.
</event>
<event>
 5   0  0.1034683E-06  0.3918699E+04  0.7818609E-02  0.8021151E-01
        2   -1    0    0  501    0  0.00000000000E+00  0.00000000000E+00  0.15213872047E+04  0.15213872047E+04  0.25500000920E-02 0. -1.
       -2   -1    0    0    0  501  0.00000000000E+00  0.00000000000E+00 -0.25233875957E+04  0.25233875957E+04  0.25500000920E-02 0.  1.
    10030    2    1    2    0    0  0.00000000000E+00  0.00000000000E+00 -0.10020003910E+04  0.40447748004E+04  0.39186985598E+04 0.  0.
        2    1    3    3  502    0 -0.10620743009E+04 -0.37136404410E+03  0.11547084030E+04  0.16122234863E+04  0.25500000920E-02 0. -1.
       -2    1    3    3    0  502  0.10620743009E+04  0.37136404410E+03 -0.21567087939E+04  0.24325513141E+04  0.25500000920E-02 0.  1.
</event>
<event>
 5   0  0.3471602E-07  0.4080883E+04  0.7818609E-02  0.7988426E-01
        1   -1    0    0  501    0  0.00000000000E+00  0.00000000000E+00  0.27038214276E+04  0.27038214276E+04  0.50400001928E-02 0. -1.
       -1   -1    0    0    0  501  0.00000000000E+00  0.00000000000E+00 -0.15398210816E+04  0.15398210816E+04  0.50400001928E-02 0.  1.
    10030    2    1    2    0    0  0.00000000000E+00  0.00000000000E+00  0.11640003460E+04  0.42436425093E+04  0.40808828629E+04 0.  0.
        5    1    3    3  502    0  0.11359822222E+04  0.13364434208E+04 -0.50209640202E+03  0.18244614309E+04  0.46999998093E+01 0.  1.
       -5    1    3    3    0  502 -0.11359822222E+04 -0.13364434208E+04  0.16660967480E+04  0.24191810783E+04  0.46999998093E+01 0. -1.
</event>
<event>
 5   0  0.3471602E-07  0.3153596E+04  0.7818609E-02  0.8201181E-01
        1   -1    0    0  501    0  0.00000000000E+00  0.00000000000E+00  0.19586648814E+04  0.19586648814E+04  0.50400001928E-02 0. -1.
       -1   -1    0    0    0  501  0.00000000000E+00  0.00000000000E+00 -0.12693806305E+04  0.12693806305E+04  0.50400001928E-02 0.  1.
    10030    2    1    2    0    0  0.00000000000E+00  0.00000000000E+00  0.68928425091E+03  0.32280455119E+04  0.31535955747E+04 0.  0.
        5    1    3    3  502    0 -0.14733538886E+03 -0.10317667667E+04  0.15557995188E+04  0.18726410789E+04  0.46999998093E+01 0. -1.
       -5    1    3    3    0  502  0.14733538886E+03  0.10317667667E+04 -0.86651526787E+03  0.13554044330E+04  0.46999998093E+01 0.  1.
</event>
<event>
 5   0  0.5533705E-07  0.4032683E+04  0.7818609E-02  0.7997986E-01
        2   -1    0    0  501    0  0.00000000000E+00  0.00000000000E+00  0.22003261583E+04  0.22003261583E+04  0.25500000920E-02 0. -1.
       -2   -1    0    0    0  501  0.00000000000E+00  0.00000000000E+00 -0.18477412436E+04  0.18477412436E+04  0.25500000920E-02 0.  1.
    10030    2    1    2    0    0  0.00000000000E+00  0.00000000000E+00  0.35258491471E+03  0.40480674018E+04  0.40326831722E+04 0.  0.
        1    1    3    3  502    0 -0.44289950861E+03 -0.16586608522E+04  0.12378320844E+04  0.21164933420E+04  0.50400001928E-02 0. -1.
       -1    1    3    3    0  502  0.44289950861E+03  0.16586608522E+04 -0.88524716966E+03  0.19315740599E+04  0.50400001928E-02 0.  1.
</event>
<event>
 5   0  0.1015219E-06  0.2602763E+04  0.7818609E-02  0.8367263E-01
       -2   -1    0    0    0  501  0.00000000000E+00  0.00000000000E+00  0.77109609749E+03  0.77109609749E+03  0.25500000920E-02 0. -1.
        2   -1    0    0  501    0  0.00000000000E+00  0.00000000000E+00 -0.21963455656E+04  0.21963455656E+04  0.25500000920E-02 0.  1.
    10030    2    1    2    0    0  0.00000000000E+00  0.00000000000E+00 -0.14252494681E+04  0.29674416631E+04  0.26027627586E+04 0.  0.
        3    1    3    3  502    0  0.10880872228E+04  0.34864568315E+03 -0.14228934887E+04  0.18248598596E+04  0.10100000352E+00 0.  1.
       -3    1    3    3    0  502 -0.10880872228E+04 -0.34864568315E+03 -0.23559793685E+01  0.11425818035E+04  0.10100000352E+00 0. -1.
</event>
<event>
 5   0  0.1015219E-06  0.4007305E+04  0.7818609E-02  0.8003074E-01
        2   -1    0    0  501    0  0.00000000000E+00  0.00000000000E+00  0.25100335954E+04  0.25100335954E+04  0.25500000920E-02 0.  1.
       -2   -1    0    0    0  501  0.00000000000E+00  0.00000000000E+00 -0.15994303734E+04  0.15994303734E+04  0.25500000920E-02 0. -1.
    10030    2    1    2    0    0  0.00000000000E+00  0.00000000000E+00  0.91060322201E+03  0.41094639687E+04  0.40073053143E+04 0.  0.
        3    1    3    3  502    0  0.53550350965E+02  0.18053614373E+04  0.13448401273E+04  0.22518420321E+04  0.10100000352E+00 0.  1.
       -3    1    3    3    0  502 -0.53550350965E+02 -0.18053614373E+04 -0.43423690530E+03  0.18576219366E+04  0.10100000352E+00 0. -1.
</event>
<event>
 5   0  0.4316671E-07  0.2718047E+04  0.7818609E-02  0.8329173E-01
       -1   -1    0    0    0  501  0.00000000000E+00  0.00000000000E+00  0.11336933844E+04  0.11336933844E+04  0.50400001928E-02 0.  1.
        1   -1    0    0  501    0  0.00000000000E+00  0.00000000000E+00 -0.16291391818E+04  0.16291391818E+04  0.50400001928E-02 0. -1.
    10030    2    1    2    0    0  0.00000000000E+00  0.00000000000E+00 -0.49544579739E+03  0.27628325662E+04  0.27180465872E+04 0.  0.
        2    1    3    3  502    0  0.47321890795E+03  0.78499354429E+03  0.77220114851E+03  0.11985180905E+04  0.25500000920E-02 0.  1.
       -2    1    3    3    0  502 -0.47321890795E+03 -0.78499354429E+03 -0.12676469459E+04  0.15643144757E+04  0.25500000920E-02 0. -1.
</event>
<event>
 5   0  0.4316671E-07  0.3750341E+04  0.7818609E-02  0.8056896E-01
        1   -1    0    0  501    0  0.00000000000E+00  0.00000000000E+00  0.13082695909E+04  0.13082695909E+04  0.50400001928E-02 0.  1.
       -1   -1    0    0    0  501  0.00000000000E+00  0.00000000000E+00 -0.26877216560E+04  0.26877216560E+04  0.50400001928E-02 0. -1.
    10030    2    1    2    0    0  0.00000000000E+00  0.00000000000E+00 -0.13794520651E+04  0.39959912469E+04  0.37503410572E+04 0.  0.
        2    1    3    3  502    0  0.14302044248E+04  0.33285899081E+03 -0.19322957813E+04  0.24269418598E+04  0.25500000920E-02 0. -1.
       -2    1    3    3    0  502 -0.14302044248E+04 -0.33285899081E+03  0.55284371619E+03  0.15690493871E+04  0.25500000920E-02 0.  1.
</event>
<event>
 5   0  0.1035864E-06  0.2849363E+04  0.7818609E-02  0.8288105E-01
       -2   -1    0    0    0  501  0.00000000000E+00  0.00000000000E+00  0.80864154686E+03  0.80864154687E+03  0.25500000920E-02 0.  1.
        2   -1    0    0  501    0  0.00000000000E+00  0.00000000000E+00 -0.25100342667E+04  0.25100342667E+04  0.25500000920E-02 0. -1.
    10030    2    1    2    0    0  0.00000000000E+00  0.00000000000E+00 -0.17013927198E+04  0.33186758135E+04  0.28493634321E+04 0.  0.
        5    1    3    3  502    0 -0.44403364005E+02  0.10735128694E+04  0.23897126930E+03  0.11006956424E+04  0.46999998093E+01 0.  1.
       -5    1    3    3    0  502  0.44403364005E+02 -0.10735128694E+04 -0.19403639891E+04  0.22179801712E+04  0.46999998093E+01 0. -1.
</event>
<event>
 5   0  0.7268013E-07  0.3906447E+04  0.7818609E-02  0.8023690E-01
        2   -1    0    0  501    0  0.00000000000E+00  0.00000000000E+00  0.18110254074E+04  0.18110254074E+04  0.25500000920E-02 0. -1.
       -2   -1    0    0    0  501  0.00000000000E+00  0.00000000000E+00 -0.21065870148E+04  0.21065870148E+04  0.25500000920E-02 0.  1.
    10030    2    1    2    0    0  0.00000000000E+00  0.00000000000E+00 -0.29556160749E+03  0.39176124222E+04  0.39064472896E+04 0.  0.
        4    1    3    3  502    0  0.10017307303E+04 -0.13326387468E+04  0.87281668991E+03  0.18818079266E+04  0.12699999809E+01 0. -1.
       -4    1    3    3    0  502 -0.10017307303E+04  0.13326387468E+04 -0.11683782974E+04  0.20358044956E+04  0.12699999809E+01 0.  1.
</event>
<event>
 5   0  0.1015219E-06  0.3152048E+04  0.7818609E-02  0.8201597E-01
       -2   -1    0    0    0  501  0.00000000000E+00  0.00000000000E+00  0.95995557389E+03  0.95995557390E+03  0.25500000920E-02 0.  1.
        2   -1    0    0  501    0  0.00000000000E+00  0.00000000000E+00 -0.25874652160E+04  0.25874652160E+04  0.25500000920E-02 0. -1.
    10030    2    1    2    0    0  0.00000000000E+00  0.00000000000E+00 -0.16275096421E+04  0.35474207899E+04  0.31520480049E+04 0.  0.
        3    1    3    3  502    0 -0.14342394589E+04  0.22527409711E+03 -0.15039130758E+04  0.20903458551E+04  0.10100000352E+00 0. -1.
       -3    1    3    3    0  502  0.14342394589E+04 -0.22527409711E+03 -0.12359656631E+03  0.14570749348E+04  0.10100000352E+00 0.  1.
</event>
<event>
 5   0  0.5533705E-07  0.3401339E+04  0.7818609E-02  0.8137578E-01
       -2   -1    0    0    0  501  0.00000000000E+00  0.00000000000E+00  0.19060668633E+04  0.19060668633E+04  0.25500000920E-02 0.  1.
        2   -1    0    0  501    0  0.00000000000E+00  0.00000000000E+00 -0.15174057300E+04  0.15174057300E+04  0.25500000920E-02 0. -1.
    10030    2    1    2    0    0  0.00000000000E+00  0.00000000000E+00  0.38866113330E+03  0.34234725932E+04  0.34013390187E+04 0.  0.
        1    1    3    3  502    0  0.13659963634E+04  0.95291962844E+03  0.54047967973E+03  0.17510340281E+04  0.50400001928E-02 0. -1.
       -1    1    3    3    0  502 -0.13659963634E+04 -0.95291962844E+03 -0.15181854644E+03  0.16724385652E+04  0.50400001928E-02 0.  1.
</event>
<event>
 5   0  0.3977376E-07  0.2873957E+04  0.7818609E-02  0.8280668E-01
       -1   -1    0    0    0  501  0.00000000000E+00  0.00000000000E+00  0.13146220428E+04  0.13146220428E+04  0.50400001928E-02 0. -1.
        1   -1    0    0  501    0  0.00000000000E+00  0.00000000000E+00 -0.15707235875E+04  0.15707235875E+04  0.50400001928E-02 0.  1.
    10030    2    1    2    0    0  0.00000000000E+00  0.00000000000E+00 -0.25610154462E+03  0.28853456303E+04  0.28739574467E+04 0.  0.
        4    1    3    3  502    0 -0.10509677725E+04 -0.53339859759E+03  0.69731325012E+03  0.13694140004E+04  0.12699999809E+01 0. -1.
       -4    1    3    3    0  502  0.10509677725E+04  0.53339859759E+03 -0.95341479474E+03  0.15159316299E+04  0.12699999809E+01 0.  1.
</event>
<event>
 5   0  0.5533705E-07  0.3983336E+04  0.7818609E-02  0.8007917E-01
       -2   -1    0    0    0  501  0.00000000000E+00  0.00000000000E+00  0.16446664716E+04  0.16446664716E+04  0.25500000920E-02 0. -1.
        2   -1    0    0  501    0  0.00000000000E+00  0.00000000000E+00 -0.24118817108E+04  0.24118817108E+04  0.25500000920E-02 0.  1.
    10030    2    1    2    0    0  0.00000000000E+00  0.00000000000E+00 -0.76721523919E+03  0.40565481823E+04  0.39833357795E+04 0.  0.
        1    1    3    3  502    0 -0.15179744496E+03 -0.95466219050E+03 -0.21569685573E+04  0.23636699684E+04  0.50400001928E-02 0.  1.
       -1    1    3    3    0  502  0.15179744496E+03  0.95466219050E+03  0.13897533181E+04  0.16928782140E+04  0.50400001928E-02 0. -1.
</event>
<event>
 5   0  0.3977376E-07  0.3223997E+04  0.7818609E-02  0.8182508E-01
       -1   -1    0    0    0  501  0.00000000000E+00  0.00000000000E+00  0.32877123132E+04  0.32877123132E+04  0.50400001928E-02 0.  1.
        1   -1    0    0  501    0  0.00000000000E+00  0.00000000000E+00 -0.79037889238E+03  0.79037889239E+03  0.50400001928E-02 0. -1.
    10030    2    1    2    0    0  0.00000000000E+00  0.00000000000E+00  0.24973334208E+04  0.40780912056E+04  0.32239965363E+04 0.  0.
        4    1    3    3  502    0 -0.48911943817E+03 -0.11408911480E+04  0.25495451478E+04  0.28356749655E+04  0.12699999809E+01 0.  1.
       -4    1    3    3    0  502  0.48911943817E+03  0.11408911480E+04 -0.52211727006E+02  0.12424162401E+04  0.12699999809E+01 0. -1.
</event>
<event>
 5   0  0.5533705E-07  0.2016465E+04  0.7818609E-02  0.8598961E-01
        2   -1    0    0  501    0  0.00000000000E+00  0.00000000000E+00  0.77944356713E+03  0.77944356713E+03  0.25500000920E-02 0. -1.
       -2   -1    0    0    0  501  0.00000000000E+00  0.00000000000E+00 -0.13041776962E+04  0.13041776962E+04  0.25500000920E-02 0.  1.
    10030    2    1    2    0    0  0.00000000000E+00  0.00000000000E+00 -0.52473412907E+03  0.20836212633E+04  0.20164651405E+04 0.  0.
        1    1    3    3  502    0 -0.92363041744E+03 -0.34805098589E+03 -0.49847128026E+02  0.98829012592E+03  0.50400001928E-02 0.  1.
       -1    1    3    3    0  502  0.92363041744E+03  0.34805098589E+03 -0.47488700104E+03  0.10953311374E+04  0.50400001928E-02 0. -1.
</event>
<event>
 5   0  0.7268013E-07  0.3992643E+04  0.7818609E-02  0.8006032E-01
       -2   -1    0    0    0  501  0.00000000000E+00  0.00000000000E+00  0.17670207602E+04  0.17670207602E+04  0.25500000920E-02 0.  1.
        2   -1    0    0  501    0  0.00000000000E+00  0.00000000000E+00 -0.22553775316E+04  0.22553775316E+04  0.25500000920E-02 0. -1.
    10030    2    1    2    0    0  0.00000000000E+00  0.00000000000E+00 -0.48835677141E+03  0.40223982917E+04  0.39926426939E+04 0.  0.
        4    1    3    3  502    0 -0.47287432977E+02 -0.15807679462E+04  0.98319244955E+03  0.18621848477E+04  0.12699999809E+01 0.  1.
       -4    1    3    3    0  502  0.47287432977E+02  0.15807679462E+04 -0.14715492210E+04  0.21602134440E+04  0.12699999809E+01 0. -1.
</event>
<event>
 5   0  0.4627905E-07  0.3943139E+04  0.7818609E-02  0.8016116E-01
        1   -1    0    0  501    0  0.00000000000E+00  0.00000000000E+00  0.14890527021E+04  0.14890527021E+04  0.50400001928E-02 0. -1.
       -1   -1    0    0    0  501  0.00000000000E+00  0.00000000000E+00 -0.26104422631E+04  0.26104422631E+04  0.50400001928E-02 0.  1.
    10030    2    1    2    0    0  0.00000000000E+00  0.00000000000E+00 -0.11213895610E+04  0.40994949652E+04  0.39431389048E+04 0.  0.
        1    1    3    3  502    0  0.76710797784E+03 -0.63379202673E+03 -0.23302249259E+04  0.25337906757E+04  0.50400001928E-02 0.  1.
       -1    1    3    3    0  502 -0.76710797784E+03  0.63379202673E+03  0.12088353649E+04  0.15657042895E+04  0.50400001928E-02 0. -1.
</event>
<event>
 5   0  0.5533705E-07  0.3438877E+04  0.7818609E-02  0.8128430E-01
        2   -1    0    0  501    0  0.00000000000E+00  0.00000000000E+00  0.22868284591E+04  0.22868284591E+04  0.25500000920E-02 0.  1.
       -2   -1    0    0    0  501  0.00000000000E+00  0.00000000000E+00 -0.12928246565E+04  0.12928246565E+04  0.25500000920E-02 0. -1.
    10030    2    1    2    0    0  0.00000000000E+00  0.00000000000E+00  0.99400380259E+03  0.35796531157E+04  0.34388766871E+04 0.  0.
        1    1    3    3  502    0 -0.93785718372E+03  0.13777583812E+04  0.93700423118E+03  0.19120071086E+04  0.50400001928E-02 0.  1.
       -1    1    3    3    0  502  0.93785718372E+03 -0.13777583812E+04  0.56999571409E+02  0.16676460071E+04  0.50400001928E-02 0. -1.
</event>
<event>
 5   0  0.3471602E-07  0.3948804E+04  0.7818609E-02  0.8014955E-01
       -1   -1    0    0    0  501  0.00000000000E+00  0.00000000000E+00  0.12889904890E+04  0.12889904890E+04  0.50400001928E-02 0. -1.
        1   -1    0    0  501    0  0.00000000000E+00  0.00000000000E+00 -0.30242769399E+04  0.30242769399E+04  0.50400001928E-02 0.  1.
    10030    2    1    2    0    0  0.00000000000E+00  0.00000000000E+00 -0.17352864509E+04  0.43132674289E+04  0.39488044832E+04 0.  0.
        5    1    3    3  502    0  0.15567726721E+04 -0.10069389954E+04 -0.12618766254E+03  0.18583360055E+04  0.46999998093E+01 0. -1.
       -5    1    3    3    0  502 -0.15567726721E+04  0.10069389954E+04 -0.16090987884E+04  0.24549314234E+04  0.46999998093E+01 0.  1.
</event>
<event>
 5   0  0.4625250E-07  0.2173879E+04  0.7818609E-02  0.8529380E-01
        1   -1    0    0  501    0  0.00000000000E+00  0.00000000000E+00  0.11980420484E+04  0.11980420484E+04  0.50400001928E-02 0.  1.
       -1   -1    0    0    0  501  0.00000000000E+00  0.00000000000E+00 -0.98613999387E+03  0.98613999388E+03  0.50400001928E-02 0. -1.
    10030    2    1    2    0    0  0.00000000000E+00  0.00000000000E+00  0.21190205448E+03  0.21841820422E+04  0.21738787255E+04 0.  0.
        5    1    3    3  502    0  0.64376601669E+03  0.66092898086E+02 -0.77146461986E+03  0.10069670824E+04  0.46999998093E+01 0. -1.
       -5    1    3    3    0  502 -0.64376601669E+03 -0.66092898086E+02  0.98336667434E+03  0.11772149598E+04  0.46999998093E+01 0.  1.
</event>
<event>
 5   0  0.3977376E-07  0.2426654E+04  0.7818609E-02  0.8429591E-01
       -1   -1    0    0    0  501  0.00000000000E+00  0.00000000000E+00  0.15675631222E+04  0.15675631222E+04  0.50400001928E-02 0. -1.
        1   -1    0    0  501    0  0.00000000000E+00  0.00000000000E+00 -0.93914104442E+03  0.93914104443E+03  0.50400001928E-02 0.  1.
    10030    2    1    2    0    0  0.00000000000E+00  0.00000000000E+00  0.62842207778E+03  0.25067041666E+04  0.24266543782E+04 0.  0.
        4    1    3    3  502    0 -0.49898838767E+03  0.10556013640E+04 -0.26639853448E+02  0.11679019417E+04  0.12699999809E+01 0.  1.
       -4    1    3    3    0  502  0.49898838767E+03 -0.10556013640E+04  0.65506193123E+03  0.13388022249E+04  0.12699999809E+01 0. -1.
</event>
<event>
 5   0  0.5385714E-07  0.2119056E+04  0.7818609E-02  0.8552895E-01
        1   -1    0    0  501    0  0.00000000000E+00  0.00000000000E+00  0.19468051899E+04  0.19468051899E+04  0.50400001928E-02 0. -1.
       -1   -1    0    0    0  501  0.00000000000E+00  0.00000000000E+00 -0.57663686720E+03  0.57663686722E+03  0.50400001928E-02 0.  1.
    10030    2    1    2    0    0  0.00000000000E+00  0.00000000000E+00  0.13701683227E+04  0.25234420571E+04  0.21190560594E+04 0.  0.
        3    1    3    3  502    0 -0.59308672286E+03  0.47976776228E+03  0.15607074340E+04  0.17371633980E+04  0.10100000352E+00 0. -1.
       -3    1    3    3    0  502  0.59308672286E+03 -0.47976776228E+03 -0.19053911137E+03  0.78627865908E+03  0.10100000352E+00 0.  1.
</event>
<event>
 5   0  0.5385714E-07  0.3894921E+04  0.7818609E-02  0.8026086E-01
        1   -1    0    0  501    0  0.00000000000E+00  0.00000000000E+00  0.26003071644E+04  0.26003071645E+04  0.50400001928E-02 0. -1.
       -1   -1    0    0    0  501  0.00000000000E+00  0.00000000000E+00 -0.14585208029E+04  0.14585208029E+04  0.50400001928E-02 0.  1.
    10030    2    1    2    0    0  0.00000000000E+00  0.00000000000E+00  0.11417863616E+04  0.40588279673E+04  0.38949208429E+04 0.  0.
        3    1    3    3  502    0 -0.12389157354E+04 -0.14733676825E+04  0.87804691880E+03  0.21158192099E+04  0.10100000352E+00 0.  1.
       -3    1    3    3    0  502  0.12389157354E+04  0.14733676825E+04  0.26373944279E+03  0.19430087574E+04  0.10100000352E+00 0. -1.
</event>
<event>
 5   0  0.3977376E-07  0.2888851E+04  0.7818609E-02  0.8276202E-01
       -1   -1    0    0    0  501  0.00000000000E+00  0.00000000000E+00  0.87648638186E+03  0.87648638188E+03  0.50400001928E-02 0.  1.
        1   -1    0    0  501    0  0.00000000000E+00  0.00000000000E+00 -0.23803735754E+04  0.23803735754E+04  0.50400001928E-02 0. -1.
    10030    2    1    2    0    0  0.00000000000E+00  0.00000000000E+00 -0.15038871935E+04  0.32568599572E+04  0.28888509983E+04 0.  0.
        4    1    3    3  502    0  0.13960433421E+04  0.45180392052E+02 -0.33712384869E+03  0.14368828704E+04  0.12699999809E+01 0. -1.
       -4    1    3    3    0  502 -0.13960433421E+04 -0.45180392052E+02 -0.11667633448E+04  0.18199770868E+04  0.12699999809E+01 0.  1.
</event>
<event>
 5   0  0.5385714E-07  0.3245248E+04  0.7818609E-02  0.8176969E-01
        1   -1    0    0  501    0  0.00000000000E+00  0.00000000000E+00  0.18306424218E+04  0.18306424218E+04  0.50400001928E-02 0. -1.
       -1   -1    0    0    0  501  0.00000000000E+00  0.00000000000E+00 -0.14382427789E+04  0.14382427789E+04  0.50400001928E-02 0.  1.
    10030    2    1    2    0    0  0.00000000000E+00  0.00000000000E+00  0.39239964287E+03  0.32688852007E+04  0.32452477526E+04 0.  0.
        3    1    3    3  502    0  0.83010360952E+03 -0.41713963336E+03 -0.11438399258E+04  0.14735831373E+04  0.10100000352E+00 0.  1.
       -3    1    3    3    0  502 -0.83010360952E+03  0.41713963336E+03  0.15362395687E+04  0.17953020634E+04  0.10100000352E+00 0. -1.
</event>
<event>
 5   0  0.4627905E-07  0.2059385E+04  0.7818609E-02  0.8579348E-01
       -1   -1    0    0    0  501  0.00000000000E+00  0.00000000000E+00  0.56202960013E+03  0.56202960016E+03  0.50400001928E-02 0. -1.
        1   -1    0    0  501    0  0.00000000000E+00  0.00000000000E+00 -0.18864969606E+04  0.18864969606E+04  0.50400001928E-02 0.  1.
    10030    2    1    2    0    0  0.00000000000E+00  0.00000000000E+00 -0.13244673604E+04  0.24485265607E+04  0.20593854738E+04 0.  0.
        1    1    3    3  502    0  0.40593913784E+03  0.15283149187E+02 -0.17871976297E+04  0.18327835458E+04  0.50400001928E-02 0.  1.
       -1    1    3    3    0  502 -0.40593913784E+03 -0.15283149187E+02  0.46273026926E+03  0.61574301490E+03  0.50400001928E-02 0. -1.
</event>
<event>
 5   0  0.3471602E-07  0.2846763E+04  0.7818609E-02  0.8288896E-01
       -1   -1    0    0    0  501  0.00000000000E+00  0.00000000000E+00  0.10798911980E+04  0.10798911980E+04  0.50400001928E-02 0.  1.
        1   -1    0    0  501    0  0.00000000000E+00  0.00000000000E+00 -0.18761286263E+04  0.18761286263E+04  0.50400001928E-02 0. -1.
    10030    2    1    2    0    0  0.00000000000E+00  0.00000000000E+00 -0.79623742830E+03  0.29560198244E+04  0.28467629265E+04 0.  0.
        5    1    3    3  502    0  0.39255617712E+03  0.10343354936E+04  0.53182082668E+03  0.12275201616E+04  0.46999998093E+01 0.  1.
       -5    1    3    3    0  502 -0.39255617712E+03 -0.10343354936E+04 -0.13280582550E+04  0.17284996627E+04  0.46999998093E+01 0. -1.
</event>
<event>
 5   0  0.5533705E-07  0.2940599E+04  0.7818609E-02  0.8260900E-01
        2   -1    0    0  501    0  0.00000000000E+00  0.00000000000E+00  0.16797397924E+04  0.16797397924E+04  0.25500000920E-02 0. -1.
       -2   -1    0    0    0  501  0.00000000000E+00  0.00000000000E+00 -0.12869736137E+04  0.12869736137E+04  0.25500000920E-02 0.  1.
    10030    2    1    2    0    0  0.00000000000E+00  0.00000000000E+00  0.39276617864E+03  0.29667134061E+04  0.29405991163E+04 0.  0.
        1    1    3    3  502    0  0.11955250666E+04 -0.61632318461E+03  0.79549707917E+03  0.15626740081E+04  0.50400001928E-02 0. -1.
       -1    1    3    3    0  502 -0.11955250666E+04  0.61632318461E+03 -0.40273090053E+03  0.14040393980E+04  0.50400001928E-02 0.  1.
</event>
<event>
 5   0  0.1034683E-06  0.2121329E+04  0.7818609E-02  0.8551906E-01
       -2   -1    0    0    0  501  0.00000000000E+00  0.00000000000E+00  0.19484314342E+04  0.19484314342E+04  0.25500000920E-02 0.  1.
        2   -1    0    0  501    0  0.00000000000E+00  0.00000000000E+00 -0.57739213121E+03  0.57739213122E+03  0.25500000920E-02 0. -1.
    10030    2    1    2    0    0  0.00000000000E+00  0.00000000000E+00  0.13710393030E+04  0.25258235654E+04  0.21213288084E+04 0.  0.
        2    1    3    3  502    0 -0.21685560241E+03  0.99094254112E+03  0.10544681174E+04  0.14631802632E+04  0.25500000920E-02 0.  1.
       -2    1    3    3    0  502  0.21685560241E+03 -0.99094254112E+03  0.31657118557E+03  0.10626433022E+04  0.25500000920E-02 0. -1.
</event>
<event>
 5   0  0.3471602E-07  0.3555114E+04  0.7818609E-02  0.8100851E-01
        1   -1    0    0  501    0  0.00000000000E+00  0.00000000000E+00  0.21419965680E+04  0.21419965680E+04  0.50400001928E-02 0. -1.
       -1   -1    0    0    0  501  0.00000000000E+00  0.00000000000E+00 -0.14751235095E+04  0.14751235095E+04  0.50400001928E-02 0.  1.
    10030    2    1    2    0    0  0.00000000000E+00  0.00000000000E+00  0.66687305847E+03  0.36171200775E+04  0.35551143412E+04 0.  0.
        5    1    3    3  502    0  0.42073604743E+03 -0.16675707847E+04  0.79057942977E+03  0.18928415328E+04  0.46999998093E+01 0.  1.
       -5    1    3    3    0  502 -0.42073604743E+03  0.16675707847E+04 -0.12370637130E+03  0.17242785447E+04  0.46999998093E+01 0. -1.
</event>
<event>
 5   0  0.5533705E-07  0.3892452E+04  0.7818609E-02  0.8026601E-01
       -2   -1    0    0    0  501  0.00000000000E+00  0.00000000000E+00  0.35306345601E+04  0.35306345601E+04  0.25500000920E-02 0. -1.
        2   -1    0    0  501    0  0.00000000000E+00  0.00000000000E+00 -0.10728368453E+04  0.10728368453E+04  0.25500000920E-02 0.  1.
    10030    2    1    2    0    0  0.00000000000E+00  0.00000000000E+00  0.24577977148E+04  0.46034714055E+04  0.38924515892E+04 0.  0.
        1    1    3    3  502    0 -0.14451027288E+04 -0.38610345101E+03 -0.24369742488E+03  0.15155151621E+04  0.50400001928E-02 0.  1.
       -1    1    3    3    0  502  0.14451027288E+04  0.38610345101E+03  0.27014951397E+04  0.30879562434E+04  0.50400001928E-02 0. -1.
</event>
<event>
 5   0  0.5533705E-07  0.3883599E+04  0.7818609E-02  0.8028449E-01
       -2   -1    0    0    0  501  0.00000000000E+00  0.00000000000E+00  0.13130562555E+04  0.13130562555E+04  0.25500000920E-02 0.  1.
        2   -1    0    0  501    0  0.00000000000E+00  0.00000000000E+00 -0.28716093791E+04  0.28716093791E+04  0.25500000920E-02 0. -1.
    10030    2    1    2    0    0  0.00000000000E+00  0.00000000000E+00 -0.15585531236E+04  0.41846656346E+04  0.38835986706E+04 0.  0.
        1    1    3    3  502    0  0.16304199145E+03 -0.31752518769E+03  0.12774034000E+04  0.13263349435E+04  0.50400001928E-02 0.  1.
       -1    1    3    3    0  502 -0.16304199145E+03  0.31752518769E+03 -0.28359565237E+04  0.28583306912E+04  0.50400001928E-02 0. -1.
</event>
<event>
 5   0  0.7268013E-07  0.2052072E+04  0.7818609E-02  0.8582655E-01
       -2   -1    0    0    0  501  0.00000000000E+00  0.00000000000E+00  0.12206988469E+04  0.12206988469E+04  0.25500000920E-02 0. -1.
        2   -1    0    0  501    0  0.00000000000E+00  0.00000000000E+00 -0.86241537627E+03  0.86241537628E+03  0.25500000920E-02 0.  1.
    10030    2    1    2    0    0  0.00000000000E+00  0.00000000000E+00  0.35828347064E+03  0.20831142232E+04  0.20520715927E+04 0.  0.
        4    1    3    3  502    0 -0.93289497431E+03 -0.31590996070E+03 -0.11270644919E+03  0.99136092970E+03  0.12699999809E+01 0.  1.
       -4    1    3    3    0  502  0.93289497431E+03  0.31590996070E+03  0.47098991983E+03  0.10917532935E+04  0.12699999809E+01 0. -1.
</event>
<event>
 5   0  0.1034683E-06  0.3132712E+04  0.7818609E-02  0.8206817E-01
        2   -1    0    0  501    0  0.00000000000E+00  0.00000000000E+00  0.18503730807E+04  0.18503730807E+04  0.25500000920E-02 0.  1.
       -2   -1    0    0    0  501  0.00000000000E+00  0.00000000000E+00 -0.13259331794E+04  0.13259331794E+04  0.25500000920E-02 0. -1.
    10030    2    1    2    0    0  0.00000000000E+00  0.00000000000E+00  0.52443990130E+03  0.31763062602E+04  0.31327119639E+04 0.  0.
        2    1    3    3  502    0 -0.10596220859E+04 -0.11307954403E+04  0.31069889880E+02  0.15499879454E+04  0.25500000920E-02 0.  1.
       -2    1    3    3    0  502  0.10596220859E+04  0.11307954403E+04  0.49337001142E+03  0.16263183148E+04  0.25500000920E-02 0. -1.
</event>
<event>
 5   0  0.3471602E-07  0.3909391E+04  0.7818609E-02  0.8023079E-01
       -1   -1    0    0    0  501  0.00000000000E+00  0.00000000000E+00  0.19914471518E+04  0.19914471518E+04  0.50400001928E-02 0.  1.
        1   -1    0    0  501    0  0.00000000000E+00  0.00000000000E+00 -0.19186222383E+04  0.19186222383E+04  0.50400001928E-02 0. -1.
    10030    2    1    2    0    0  0.00000000000E+00  0.00000000000E+00  0.72824913480E+02  0.39100693900E+04  0.39093911504E+04 0.  0.
        5    1    3    3  502    0 -0.75573174059E+03 -0.11655763046E+04  0.14118288851E+04  0.19806517807E+04  0.46999998093E+01 0. -1.
       -5    1    3    3    0  502  0.75573174059E+03  0.11655763046E+04 -0.13390039716E+04  0.19294176094E+04  0.46999998093E+01 0.  1.
</event>
<event>
 5   0  0.1034683E-06  0.2006294E+04  0.7818609E-02  0.8603684E-01
       -2   -1    0    0    0  501  0.00000000000E+00  0.00000000000E+00  0.13998243993E+04  0.13998243993E+04  0.25500000920E-02 0. -1.
        2   -1    0    0  501    0  0.00000000000E+00  0.00000000000E+00 -0.71887875706E+03  0.71887875707E+03  0.25500000920E-02 0.  1.
    10030    2    1    2    0    0  0.00000000000E+00  0.00000000000E+00  0.68094564222E+03  0.21187031564E+04  0.20062941203E+04 0.  0.
        2    1    3    3  502    0  0.79634183439E+02 -0.85914990738E+03  0.88082900002E+03  0.12330206380E+04  0.25500000920E-02 0. -1.
       -2    1    3    3    0  502 -0.79634183439E+02  0.85914990738E+03 -0.19988335780E+03  0.88568251832E+03  0.25500000920E-02 0.  1.
</event>
<event>
 5   0  0.3471602E-07  0.2977807E+04  0.7818609E-02  0.8250097E-01
       -1   -1    0    0    0  501  0.00000000000E+00  0.00000000000E+00  0.11895923508E+04  0.11895923508E+04  0.50400001928E-02 0. -1.
        1   -1    0    0  501    0  0.00000000000E+00  0.00000000000E+00 -0.18635238135E+04  0.18635238135E+04  0.50400001928E-02 0.  1.
    10030    2    1    2    0    0  0.00000000000E+00  0.00000000000E+00 -0.67393146268E+03  0.30531161643E+04  0.29778070281E+04 0.  0.
        5    1    3    3  502    0  0.14147666015E+03  0.14810593669E+04 -0.27843351269E+03  0.15136379371E+04  0.46999998093E+01 0.  1.
       -5    1    3    3    0  502 -0.14147666015E+03 -0.14810593669E+04 -0.39549795000E+03  0.15394782272E+04  0.46999998093E+01 0. -1.
</event>
<event>
 5   0  0.4316671E-07  0.3442589E+04  0.7818609E-02  0.8127532E-01
       -1   -1    0    0    0  501  0.00000000000E+00  0.00000000000E+00  0.11984033410E+04  0.11984033410E+04  0.50400001928E-02 0.  1.
        1   -1    0    0  501    0  0.00000000000E+00  0.00000000000E+00 -0.24723345316E+04  0.24723345316E+04  0.50400001928E-02 0. -1.
    10030    2    1    2    0    0  0.00000000000E+00  0.00000000000E+00 -0.12739311906E+04  0.36707378726E+04  0.34425885393E+04 0.  0.
        2    1    3    3  502    0  0.12595787946E+04  0.98872900279E+03  0.36333156687E+02  0.16017003088E+04  0.25500000920E-02 0. -1.
       -2    1    3    3    0  502 -0.12595787946E+04 -0.98872900279E+03 -0.13102643472E+04  0.20690375638E+04  0.25500000920E-02 0.  1.
</event>
<event>
 5   0  0.1035864E-06  0.1958795E+04  0.7818609E-02  0.8626132E-01
        2   -1    0    0  501    0  0.00000000000E+00  0.00000000000E+00  0.13098543131E+04  0.13098543131E+04  0.25500000920E-02 0.  1.
       -2   -1    0    0    0  501  0.00000000000E+00  0.00000000000E+00 -0.73230981609E+03  0.73230981609E+03  0.25500000920E-02 0. -1.
    10030    2    1    2    0    0  0.00000000000E+00  0.00000000000E+00  0.57754449701E+03  0.20421641292E+04  0.19587947020E+04 0.  0.
        5    1    3    3  502    0  0.41231862154E+03 -0.54851984791E+03 -0.43976604344E+03  0.81504412898E+03  0.46999998093E+01 0. -1.
       -5    1    3    3    0  502 -0.41231862154E+03  0.54851984791E+03  0.10173105405E+04  0.12271200002E+04  0.46999998093E+01 0.  1.
</event>
<event>
 5   0  0.4316671E-07  0.3824511E+04  0.7818609E-02  0.8040915E-01
       -1   -1    0    0    0  501  0.00000000000E+00  0.00000000000E+00  0.14906201458E+04  0.14906201458E+04  0.50400001928E-02 0. -1.
        1   -1    0    0  501    0  0.00000000000E+00  0.00000000000E+00 -0.24531542954E+04  0.24531542954E+04  0.50400001928E-02 0.  1.
    10030    2    1    2    0    0  0.00000000000E+00  0.00000000000E+00 -0.96253414956E+03  0.39437744412E+04  0.38245110608E+04 0.  0.
        2    1    3    3  502    0 -0.65986524899E+03  0.10527348937E+04 -0.19802298920E+04  0.23377303797E+04  0.25500000920E-02 0.  1.
       -2    1    3    3    0  502  0.65986524899E+03 -0.10527348937E+04  0.10176957424E+04  0.16060440615E+04  0.25500000920E-02 0. -1.
</event>
<event>
 5   0  0.5533705E-07  0.3894927E+04  0.7818609E-02  0.8026085E-01
        2   -1    0    0  501    0  0.00000000000E+00  0.00000000000E+00  0.22827043508E+04  0.22827043508E+04  0.25500000920E-02 0. -1.
       -2   -1    0    0    0  501  0.00000000000E+00  0.00000000000E+00 -0.16614568104E+04  0.16614568104E+04  0.25500000920E-02 0.  1.
    10030    2    1    2    0    0  0.00000000000E+00  0.00000000000E+00  0.62124754041E+03  0.39441611613E+04  0.38949273112E+04 0.  0.
        1    1    3    3  502    0 -0.50494243960E+03  0.95631395904E+03  0.19506986070E+04  0.22304098975E+04  0.50400001928E-02 0. -1.
       -1    1    3    3    0  502  0.50494243960E+03 -0.95631395904E+03 -0.13294510666E+04  0.17137512638E+04  0.50400001928E-02 0.  1.
</event>
<event>
 5   0  0.7268013E-07  0.4023669E+04  0.7818609E-02  0.7999789E-01
        2   -1    0    0  501    0  0.00000000000E+00  0.00000000000E+00  0.15751264285E+04  0.15751264285E+04  0.25500000920E-02 0.  1.
       -2   -1    0    0    0  501  0.00000000000E+00  0.00000000000E+00 -0.25696212771E+04  0.25696212771E+04  0.25500000920E-02 0. -1.
    10030    2    1    2    0    0  0.00000000000E+00  0.00000000000E+00 -0.99449484862E+03  0.41447477057E+04  0.40236691638E+04 0.  0.
        4    1    3    3  502    0  0.19261667788E+04 -0.32297310053E+03 -0.99452319983E+03  0.21916906924E+04  0.12699999809E+01 0. -1.
       -4    1    3    3    0  502 -0.19261667788E+04  0.32297310053E+03  0.28351214086E-01  0.19530570133E+04  0.12699999809E+01 0.  1.
</event>
<event>
 5   0  0.5385714E-07  0.3832441E+04  0.7818609E-02  0.8039229E-01
        1   -1    0    0  501    0  0.00000000000E+00  0.00000000000E+00  0.23068323612E+04  0.23068323612E+04  0.50400001928E-02 0. -1.
       -1   -1    0    0    0  501  0.00000000000E+00  0.00000000000E+00 -0.15917498884E+04  0.15917498884E+04  0.50400001928E-02 0.  1.
    10030    2    1    2    0    0  0.00000000000E+00  0.00000000000E+00  0.71508247282E+03  0.38985822497E+04  0.38324405559E+04 0.  0.
        3    1    3    3  502    0 -0.79647982784E+03  0.40962128359E+02 -0.14148960012E+04  0.16241886333E+04  0.10100000352E+00 0.  1.
       -3    1    3    3    0  502  0.79647982784E+03 -0.40962128359E+02  0.21299784740E+04  0.22743936164E+04  0.10100000352E+00 0. -1.
</event>
<event>
 5   0  0.5533705E-07  0.3864470E+04  0.7818609E-02  0.8032460E-01
       -2   -1    0    0    0  501  0.00000000000E+00  0.00000000000E+00  0.26099548136E+04  0.26099548136E+04  0.25500000920E-02 0. -1.
        2   -1    0    0  501    0  0.00000000000E+00  0.00000000000E+00 -0.14304969759E+04  0.14304969759E+04  0.25500000920E-02 0.  1.
    10030    2    1    2    0    0  0.00000000000E+00  0.00000000000E+00  0.11794578377E+04  0.40404517894E+04  0.38644701929E+04 0.  0.
        1    1    3    3  502    0  0.73718682086E+03  0.97230308505E+03 -0.97673555307E+03  0.15629555460E+04  0.50400001928E-02 0.  1.
       -1    1    3    3    0  502 -0.73718682086E+03 -0.97230308505E+03  0.21561933908E+04  0.24774962435E+04  0.50400001928E-02 0. -1.
</event>
<event>
 5   0  0.5385714E-07  0.3735409E+04  0.7818609E-02  0.8060160E-01
       -1   -1    0    0    0  501  0.00000000000E+00  0.00000000000E+00  0.16982265027E+04  0.16982265027E+04  0.50400001928E-02 0.  1.
        1   -1    0    0  501    0  0.00000000000E+00  0.00000000000E+00 -0.20540961517E+04  0.20540961517E+04  0.50400001928E-02 0. -1.
    10030    2    1    2    0    0  0.00000000000E+00  0.00000000000E+00 -0.35586964904E+03  0.37523226544E+04  0.37354092273E+04 0.  0.
        3    1    3    3  502    0  0.30752551593E+03 -0.70901292387E+03  0.15300725157E+04  0.17141741985E+04  0.10100000352E+00 0.  1.
       -3    1    3    3    0  502 -0.30752551593E+03  0.70901292387E+03 -0.18859421648E+04  0.20381484559E+04  0.10100000352E+00 0. -1.
</event>
<event>
 5   0  0.1035864E-06  0.2633832E+04  0.7818609E-02  0.8356799E-01
        2   -1    0    0  501    0  0.00000000000E+00  0.00000000000E+00  0.17800477282E+04  0.17800477282E+04  0.25500000920E-02 0.  1.
       -2   -1    0    0    0  501  0.00000000000E+00  0.00000000000E+00 -0.97428183817E+03  0.97428183817E+03  0.25500000920E-02 0. -1.
    10030    2    1    2    0    0  0.00000000000E+00  0.00000000000E+00  0.80576589004E+03  0.27543295664E+04  0.26338323202E+04 0.  0.
        5    1    3    3  502    0 -0.12663987923E+04  0.35044430217E+03  0.31130384459E+03  0.13503737571E+04  0.46999998093E+01 0.  1.
       -5    1    3    3    0  502  0.12663987923E+04 -0.35044430217E+03  0.49446204545E+03  0.14039558093E+04  0.46999998093E+01 0. -1.
</event>
<event>
 5   0  0.1034683E-06  0.4036838E+04  0.7818609E-02  0.7997156E-01
        2   -1    0    0  501    0  0.00000000000E+00  0.00000000000E+00  0.24589263239E+04  0.24589263239E+04  0.25500000920E-02 0.  1.
       -2   -1    0    0    0  501  0.00000000000E+00  0.00000000000E+00 -0.16568271788E+04  0.16568271788E+04  0.25500000920E-02 0. -1.
    10030    2    1    2    0    0  0.00000000000E+00  0.00000000000E+00  0.80209914508E+03  0.41157535027E+04  0.40368383490E+04 0.  0.
        2    1    3    3  502    0  0.14770270200E+03  0.19404870226E+04  0.94697008278E+03  0.21642685394E+04  0.25500000920E-02 0.  1.
       -2    1    3    3    0  502 -0.14770270200E+03 -0.19404870226E+04 -0.14487093770E+03  0.19514849632E+04  0.25500000920E-02 0. -1.
</event>
<event>
 5   0  0.3191750E-07  0.2714506E+04  0.7818609E-02  0.8330313E-01
        3   -1    0    0  501    0  0.00000000000E+00  0.00000000000E+00  0.28586201940E+04  0.28586201958E+04  0.10100000352E+00 0. -1.
       -3   -1    0    0    0  501  0.00000000000E+00  0.00000000000E+00 -0.64441451540E+03  0.64441452332E+03  0.10100000352E+00 0.  1.
    10030    2    1    2    0    0  0.00000000000E+00  0.00000000000E+00  0.22142056786E+04  0.35030347191E+04  0.27145064848E+04 0.  0.
        3    1    3    3  502    0 -0.98852674216E+03 -0.90221064082E+03  0.81576364287E+03  0.15673670571E+04  0.10100000352E+00 0. -1.
       -3    1    3    3    0  502  0.98852674216E+03  0.90221064082E+03  0.13984420358E+04  0.19356676621E+04  0.10100000352E+00 0.  1.
</event>
<event>
 5   0  0.3977376E-07  0.2208959E+04  0.7818609E-02  0.8514708E-01
       -1   -1    0    0    0  501  0.00000000000E+00  0.00000000000E+00  0.90641491519E+03  0.90641491521E+03  0.50400001928E-02 0. -1.
        1   -1    0    0  501    0  0.00000000000E+00  0.00000000000E+00 -0.13458238752E+04  0.13458238752E+04  0.50400001928E-02 0.  1.
    10030    2    1    2    0    0  0.00000000000E+00  0.00000000000E+00 -0.43940895996E+03  0.22522387904E+04  0.22089588803E+04 0.  0.
        4    1    3    3  502    0  0.63905482289E+03 -0.63415814237E+03 -0.87202532769E+03  0.12533863735E+04  0.12699999809E+01 0.  1.
       -4    1    3    3    0  502 -0.63905482289E+03  0.63415814237E+03  0.43261636773E+03  0.99885241689E+03  0.12699999809E+01 0. -1.
</event>
<event>
 5   0  0.7268013E-07  0.3736116E+04  0.7818609E-02  0.8060005E-01
        2   -1    0    0  501    0  0.00000000000E+00  0.00000000000E+00  0.20853262916E+04  0.20853262916E+04  0.25500000920E-02 0.  1.
       -2   -1    0    0    0  501  0.00000000000E+00  0.00000000000E+00 -0.16734263030E+04  0.16734263030E+04  0.25500000920E-02 0. -1.
    10030    2    1    2    0    0  0.00000000000E+00  0.00000000000E+00  0.41189998856E+03  0.37587525946E+04  0.37361155586E+04 0.  0.
        4    1    3    3  502    0 -0.79180728158E+03 -0.14063629453E+04  0.11522995449E+04  0.19830812790E+04  0.12699999809E+01 0.  1.
       -4    1    3    3    0  502  0.79180728158E+03  0.14063629453E+04 -0.74039955632E+03  0.17756713156E+04  0.12699999809E+01 0. -1.
</event>
<event>
 5   0  0.3977376E-07  0.2537006E+04  0.7818609E-02  0.8389919E-01
       -1   -1    0    0    0  501  0.00000000000E+00  0.00000000000E+00  0.79042822339E+03  0.79042822341E+03  0.50400001928E-02 0. -1.
        1   -1    0    0  501    0  0.00000000000E+00  0.00000000000E+00 -0.20357312064E+04  0.20357312064E+04  0.50400001928E-02 0.  1.
    10030    2    1    2    0    0  0.00000000000E+00  0.00000000000E+00 -0.12453029830E+04  0.28261594298E+04  0.25370056372E+04 0.  0.
        4    1    3    3  502    0 -0.69089149103E+02  0.79265556723E+03  0.47788626457E+03  0.92814495287E+03  0.12699999809E+01 0. -1.
       -4    1    3    3    0  502  0.69089149103E+02 -0.79265556723E+03 -0.17231892476E+04  0.18980144769E+04  0.12699999809E+01 0.  1.
</event>
<event>
 5   0  0.7268013E-07  0.3680221E+04  0.7818609E-02  0.8072359E-01
        2   -1    0    0  501    0  0.00000000000E+00  0.00000000000E+00  0.16129262760E+04  0.16129262760E+04  0.25500000920E-02 0.  1.
       -2   -1    0    0    0  501  0.00000000000E+00  0.00000000000E+00 -0.20992939331E+04  0.20992939331E+04  0.25500000920E-02 0. -1.
    10030    2    1    2    0    0  0.00000000000E+00  0.00000000000E+00 -0.48636765713E+03  0.37122202092E+04  0.36802208335E+04 0.  0.
        4    1    3    3  502    0 -0.13457817557E+04 -0.99800923594E+02 -0.15050269455E+04  0.20214342626E+04  0.12699999809E+01 0. -1.
       -4    1    3    3    0  502  0.13457817557E+04  0.99800923594E+02  0.10186592884E+04  0.16907859466E+04  0.12699999809E+01 0.  1.
</event>
<event>
 5   0  0.1015219E-06  0.3871315E+04  0.7818609E-02  0.8031022E-01
        2   -1    0    0  501    0  0.00000000000E+00  0.00000000000E+00  0.19726189023E+04  0.19726189023E+04  0.25500000920E-02 0. -1.
       -2   -1    0    0    0  501  0.00000000000E+00  0.00000000000E+00 -0.18993882992E+04  0.18993882992E+04  0.25500000920E-02 0.  1.
    10030    2    1    2    0    0  0.00000000000E+00  0.00000000000E+00  0.73230603144E+02  0.38720072015E+04  0.38713146407E+04 0.  0.
        3    1    3    3  502    0 -0.27335260139E+03  0.45200130551E+03 -0.18259053734E+04  0.19007780691E+04  0.10100000352E+00 0.  1.
       -3    1    3    3    0  502  0.27335260139E+03 -0.45200130551E+03  0.18991359766E+04  0.19712291324E+04  0.10100000352E+00 0. -1.
</event>
<event>
 5   0  0.4316671E-07  0.2643123E+04  0.7818609E-02  0.8353699E-01
        1   -1    0    0  501    0  0.00000000000E+00  0.00000000000E+00  0.20240162789E+04  0.20240162789E+04  0.50400001928E-02 0. -1.
       -1   -1    0    0    0  501  0.00000000000E+00  0.00000000000E+00 -0.86290082392E+03  0.86290082394E+03  0.50400001928E-02 0.  1.
    10030    2    1    2    0    0  0.00000000000E+00  0.00000000000E+00  0.11611154550E+04  0.28869171028E+04  0.26431233908E+04 0.  0.
        2    1    3    3  502    0 -0.74996908005E+03  0.77842712710E+03  0.14110334901E+04  0.17774751541E+04  0.25500000920E-02 0. -1.
       -2    1    3    3    0  502  0.74996908005E+03 -0.77842712710E+03 -0.24991803517E+03  0.11094419487E+04  0.25500000920E-02 0.  1.
</event>
<event>
 5   0  0.1015219E-06  0.3905118E+04  0.7818609E-02  0.8023966E-01
       -2   -1    0    0    0  501  0.00000000000E+00  0.00000000000E+00  0.14570452464E+04  0.14570452464E+04  0.25500000920E-02 0.  1.
        2   -1    0    0  501    0  0.00000000000E+00  0.00000000000E+00 -0.26165870685E+04  0.26165870685E+04  0.25500000920E-02 0. -1.
    10030    2    1    2    0    0  0.00000000000E+00  0.00000000000E+00 -0.11595418221E+04  0.40736323149E+04  0.39051175398E+04 0.  0.
        3    1    3    3  502    0  0.45692293716E+02 -0.19341947923E+04 -0.30518505073E+03  0.19586564797E+04  0.10100000352E+00 0.  1.
       -3    1    3    3    0  502 -0.45692293716E+02  0.19341947923E+04 -0.85435677141E+03  0.21149758351E+04  0.10100000352E+00 0. -1.
</event>
<event>
 5   0  0.1035864E-06  0.2387752E+04  0.7818609E-02  0.8444103E-01
        2   -1    0    0  501    0  0.00000000000E+00  0.00000000000E+00  0.14296964917E+04  0.14296964917E+04  0.25500000920E-02 0.  1.
       -2   -1    0    0    0  501  0.00000000000E+00  0.00000000000E+00 -0.99695282514E+03  0.99695282514E+03  0.25500000920E-02 0. -1.
    10030    2    1    2    0    0  0.00000000000E+00  0.00000000000E+00  0.43274366655E+03  0.24266493168E+04  0.23877520445E+04 0.  0.
        5    1    3    3  502    0  0.10824348100E+04  0.24226997234E+03 -0.23236150328E+03  0.11333021731E+04  0.46999998093E+01 0. -1.
       -5    1    3    3    0  502 -0.10824348100E+04 -0.24226997234E+03  0.66510516983E+03  0.12933471437E+04  0.46999998093E+01 0.  1.
</event>
<event>
 5   0  0.1034683E-06  0.4026152E+04  0.7818609E-02  0.7999291E-01
       -2   -1    0    0    0  501  0.00000000000E+00  0.00000000000E+00  0.16075679147E+04  0.16075679147E+04  0.25500000920E-02 0. -1.
        2   -1    0    0  501    0  0.00000000000E+00  0.00000000000E+00 -0.25208738588E+04  0.25208738588E+04  0.25500000920E-02 0.  1.
    10030    2    1    2    0    0  0.00000000000E+00  0.00000000000E+00 -0.91330594405E+03  0.41284417735E+04  0.40261524723E+04 0.  0.
        2    1    3    3  502    0  0.37386242568E+03  0.87180639083E+03 -0.22773356855E+04  0.24669976330E+04  0.25500000920E-02 0.  1.
       -2    1    3    3    0  502 -0.37386242568E+03 -0.87180639083E+03  0.13640297415E+04  0.16614441405E+04  0.25500000920E-02 0. -1.
</event>
<event>
 5   0  0.3471602E-07  0.2796045E+04  0.7818609E-02  0.8304497E-01
        1   -1    0    0  501    0  0.00000000000E+00  0.00000000000E+00  0.28277207335E+04  0.28277207335E+04  0.50400001928E-02 0. -1.
       -1   -1    0    0    0  501  0.00000000000E+00  0.00000000000E+00 -0.69118084003E+03  0.69118084005E+03  0.50400001928E-02 0.  1.
    10030    2    1    2    0    0  0.00000000000E+00  0.00000000000E+00  0.21365398934E+04  0.35189015735E+04  0.27960446291E+04 0.  0.
        5    1    3    3  502    0  0.98505411638E+03 -0.52926631497E+03  0.21242269175E+04  0.24005867056E+04  0.46999998093E+01 0. -1.
       -5    1    3    3    0  502 -0.98505411638E+03  0.52926631497E+03  0.12312975956E+02  0.11183148679E+04  0.46999998093E+01 0.  1.
</event>
</LesHouchesEvents>
