<LesHouchesEvents version="3.0">
<header>
<!--
#*********************************************************************
#                                                                    *
#                        MadGraph5_aMC@NLO                           *
#                                                                    *
#                           Going Beyond                             *
#                                                                    *
#                   http://madgraph.hep.uiuc.edu                     *
#                   http://madgraph.phys.ucl.ac.be                   *
#                   http://amcatnlo.cern.ch                          *
#                                                                    *
#                     The MadGraph5_aMC@NLO team                     *
#                                                                    *
#....................................................................*
#                                                                    *
# This file contains all the information necessary to reproduce      *
# the events generated:                                              *
#                                                                    *
# 1. software version                                                *
# 2. proc_card          : code generation info including model       *
# 3. param_card         : model primary parameters in the LH format  *
# 4. run_card           : running parameters (collider and cuts)     *
# 5. pythia_card        : present only if pythia has been run        *
# 6. pgs_card           : present only if pgs has been run           *
# 7. delphes_cards      : present only if delphes has been run       *
#                                                                    *
#                                                                    *
#*********************************************************************
-->
<MGVersion>
#5.2.2.3
</MGVersion>
<MG5ProcCard>
#************************************************************
#*                     MadGraph5_aMC@NLO                    *
#*                                                          *
#*                *                       *                 *
#*                  *        * *        *                   *
#*                    * * * * 5 * * * *                     *
#*                  *        * *        *                   *
#*                *                       *                 *
#*                                                          *
#*                                                          *
#*         VERSION 2.2.3                 2015-02-10         *
#*                                                          *
#*    The MadGraph5_aMC@NLO Development Team - Find us at   *
#*    https://server06.fynu.ucl.ac.be/projects/madgraph     *
#*                                                          *
#************************************************************
#*                                                          *
#*               Command File for MadGraph5_aMC@NLO         *
#*                                                          *
#*     run as ./bin/mg5_aMC  filename                       *
#*                                                          *
#************************************************************
set group_subprocesses Auto
set ignore_six_quark_processes False
set loop_optimized_output True
set gauge unitary
set complex_mass_scheme False
import model sm
define p = g u c d s u~ c~ d~ s~
define j = g u c d s u~ c~ d~ s~
define l+ = e+ mu+
define l- = e- mu-
define vl = ve vm vt
define vl~ = ve~ vm~ vt~
import model Zprime_UFO
generate p p > zph, zph > j j
add process p p > zph, zph > b b~
output Dijet_signal
</MG5ProcCard>
<MGProcCard>
#*********************************************************************
#                        MadGraph/MadEvent                           *
#                   http://madgraph.hep.uiuc.edu                     *
#                                                                    *
#                          proc_card.dat                             *
#*********************************************************************
#                                                                    *
#            This Files is generated by MADGRAPH 5                   *
#                                                                    *
# WARNING: This Files is generated for MADEVENT (compatibility issue)*
#          This files is NOT a valid MG4 proc_card.dat               *
#          Running this in MG4 will NEVER reproduce the result of MG5*
#                                                                    *
#*********************************************************************
#*********************************************************************
# Process(es) requested : mg2 input                                  *
#*********************************************************************
# Begin PROCESS # This is TAG. Do not modify this line
p p > zph , zph > j j           #Process
# Be carefull the coupling are here in MG5 convention
          
end_coup           # End the couplings input

done               # this tells MG there are no more procs
# End PROCESS  # This is TAG. Do not modify this line
#*********************************************************************
# Model information                                                  *
#*********************************************************************
# Begin MODEL  # This is TAG. Do not modify this line
Zprime_UFO
# End   MODEL  # This is TAG. Do not modify this line
#*********************************************************************
# Start multiparticle definitions                                    *
#*********************************************************************
# Begin MULTIPARTICLES # This is TAG. Do not modify this line

# End  MULTIPARTICLES # This is TAG. Do not modify this line
</MGProcCard>
<MGRunCard>
#*********************************************************************
#                       MadGraph5_aMC@NLO                            *
#                                                                    *
#                     run_card.dat MadEvent                          *
#                                                                    *
#  This file is used to set the parameters of the run.               *
#                                                                    *
#  Some notation/conventions:                                        *
#                                                                    *
#   Lines starting with a '# ' are info or comments                  *
#                                                                    *
#   mind the format:   value    = variable     ! comment             *
#*********************************************************************
#
#*******************                                                 
# Running parameters
#*******************                                                 
#                                                                    
#*********************************************************************
# Tag name for the run (one word)                                    *
#*********************************************************************
  tag_1     = run_tag ! name of the run 
#*********************************************************************
# Run to generate the grid pack                                      *
#*********************************************************************
  .false.     = gridpack  !True = setting up the grid pack
#*********************************************************************
# Number of events and rnd seed                                      *
# Warning: Do not generate more than 1M events in a single run       *
# If you want to run Pythia, avoid more than 50k events in a run.    *
#*********************************************************************
  2000 = nevents ! Number of unweighted events requested 
 705 = iseed   ! rnd seed (0=assigned automatically=default))
#*********************************************************************
# Collider type and energy                                           *
# lpp: 0=No PDF, 1=proton, -1=antiproton, 2=photon from proton,      *
#                                         3=photon from electron     *
#*********************************************************************
        1     = lpp1    ! beam 1 type 
        1     = lpp2    ! beam 2 type
     4000     = ebeam1  ! beam 1 total energy in GeV
     4000     = ebeam2  ! beam 2 total energy in GeV
#*********************************************************************
# Beam polarization from -100 (left-handed) to 100 (right-handed)    *
#*********************************************************************
        0     = polbeam1 ! beam polarization for beam 1
        0     = polbeam2 ! beam polarization for beam 2
#*********************************************************************
# PDF CHOICE: this automatically fixes also alpha_s and its evol.    *
#*********************************************************************
 'nn23lo1'    = pdlabel     ! PDF set                                     
 230000    = lhaid     ! if pdlabel=lhapdf, this is the lhapdf number
#*********************************************************************
# Renormalization and factorization scales                           *
#*********************************************************************
 F        = fixed_ren_scale  ! if .true. use fixed ren scale
 F        = fixed_fac_scale  ! if .true. use fixed fac scale
 91.1880  = scale            ! fixed ren scale
 91.1880  = dsqrt_q2fact1    ! fixed fact scale for pdf1
 91.1880  = dsqrt_q2fact2    ! fixed fact scale for pdf2
 1        = scalefact        ! scale factor for event-by-event scales
#*********************************************************************
# Matching - Warning! ickkw > 1 is still beta
#*********************************************************************
 0        = ickkw            ! 0 no matching, 1 MLM, 2 CKKW matching
 1        = highestmult      ! for ickkw=2, highest mult group
 1        = ktscheme         ! for ickkw=1, 1 Durham kT, 2 Pythia pTE
 1        = alpsfact         ! scale factor for QCD emission vx
 F        = chcluster        ! cluster only according to channel diag
 T        = pdfwgt           ! for ickkw=1, perform pdf reweighting
 5        = asrwgtflavor     ! highest quark flavor for a_s reweight
 T        = clusinfo         ! include clustering tag in output
 3.0      = lhe_version       ! Change the way clustering information pass to shower.        
#*********************************************************************
#**********************************************************
#
#**********************************************************
# Automatic ptj and mjj cuts if xqcut > 0
# (turn off for VBF and single top processes)
#**********************************************************
   T  = auto_ptj_mjj  ! Automatic setting of ptj and mjj
#**********************************************************
#                                                                    
#**********************************
# BW cutoff (M+/-bwcutoff*Gamma)
#**********************************
  15  = bwcutoff      ! (M+/-bwcutoff*Gamma)
#**********************************************************
# Apply pt/E/eta/dr/mij cuts on decay products or not
# (note that etmiss/ptll/ptheavy/ht/sorted cuts always apply)
#**********************************************************
   T  = cut_decays    ! Cut decay products 
#*************************************************************
# Number of helicities to sum per event (0 = all helicities)
# 0 gives more stable result, but longer run time (needed for
# long decay chains e.g.).
# Use >=2 if most helicities contribute, e.g. pure QCD.
#*************************************************************
   0  = nhel          ! Number of helicities used per event
#*******************                                                 
# Standard Cuts
#*******************                                                 
#                                                                    
#*********************************************************************
# Minimum and maximum pt's (for max, -1 means no cut)                *
#*********************************************************************
 20  = ptj       ! minimum pt for the jets 
  0  = ptb       ! minimum pt for the b 
 10  = pta       ! minimum pt for the photons 
 10  = ptl       ! minimum pt for the charged leptons 
  0  = misset    ! minimum missing Et (sum of neutrino's momenta)
  0  = ptheavy   ! minimum pt for one heavy final state
 1.0 = ptonium   ! minimum pt for the quarkonium states
 -1  = ptjmax    ! maximum pt for the jets
 -1  = ptbmax    ! maximum pt for the b
 -1  = ptamax    ! maximum pt for the photons
 -1  = ptlmax    ! maximum pt for the charged leptons
 -1  = missetmax ! maximum missing Et (sum of neutrino's momenta)
#*********************************************************************
# Minimum and maximum E's (in the center of mass frame)              *
#*********************************************************************
  0  = ej     ! minimum E for the jets 
  0  = eb     ! minimum E for the b 
  0  = ea     ! minimum E for the photons 
  0  = el     ! minimum E for the charged leptons 
 -1   = ejmax ! maximum E for the jets
 -1   = ebmax ! maximum E for the b
 -1   = eamax ! maximum E for the photons
 -1   = elmax ! maximum E for the charged leptons
#*********************************************************************
# Maximum and minimum absolute rapidity (for max, -1 means no cut)   *
#*********************************************************************
   5  = etaj    ! max rap for the jets 
  -1  = etab    ! max rap for the b
 2.5  = etaa    ! max rap for the photons 
 2.5  = etal    ! max rap for the charged leptons 
 0.6  = etaonium ! max rap for the quarkonium states
   0  = etajmin ! min rap for the jets
   0  = etabmin ! min rap for the b
   0  = etaamin ! min rap for the photons
   0  = etalmin ! main rap for the charged leptons
#*********************************************************************
# Minimum and maximum DeltaR distance                                *
#*********************************************************************
 0.4 = drjj    ! min distance between jets 
 0   = drbb    ! min distance between b's 
 0.4 = drll    ! min distance between leptons 
 0.4 = draa    ! min distance between gammas 
 0   = drbj    ! min distance between b and jet 
 0.4 = draj    ! min distance between gamma and jet 
 0.4 = drjl    ! min distance between jet and lepton 
 0   = drab    ! min distance between gamma and b 
 0   = drbl    ! min distance between b and lepton 
 0.4 = dral    ! min distance between gamma and lepton 
 -1  = drjjmax ! max distance between jets
 -1  = drbbmax ! max distance between b's
 -1  = drllmax ! max distance between leptons
 -1  = draamax ! max distance between gammas
 -1  = drbjmax ! max distance between b and jet
 -1  = drajmax ! max distance between gamma and jet
 -1  = drjlmax ! max distance between jet and lepton
 -1  = drabmax ! max distance between gamma and b
 -1  = drblmax ! max distance between b and lepton
 -1  = dralmax ! maxdistance between gamma and lepton
#*********************************************************************
# Minimum and maximum invariant mass for pairs                       *
# WARNING: for four lepton final state mmll cut require to have      *
#          different lepton masses for each flavor!                  *           
#*********************************************************************
 0   = mmjj    ! min invariant mass of a jet pair 
 0   = mmbb    ! min invariant mass of a b pair 
 0   = mmaa    ! min invariant mass of gamma gamma pair
 0   = mmll    ! min invariant mass of l+l- (same flavour) lepton pair
 -1  = mmjjmax ! max invariant mass of a jet pair
 -1  = mmbbmax ! max invariant mass of a b pair
 -1  = mmaamax ! max invariant mass of gamma gamma pair
 -1  = mmllmax ! max invariant mass of l+l- (same flavour) lepton pair
#*********************************************************************
# Minimum and maximum invariant mass for all letpons                 *
#*********************************************************************
 0   = mmnl    ! min invariant mass for all letpons (l+- and vl) 
 -1  = mmnlmax ! max invariant mass for all letpons (l+- and vl) 
#*********************************************************************
# Minimum and maximum pt for 4-momenta sum of leptons                *
#*********************************************************************
 0   = ptllmin  ! Minimum pt for 4-momenta sum of leptons(l and vl)
 -1  = ptllmax  ! Maximum pt for 4-momenta sum of leptons(l and vl)
#*********************************************************************
# Inclusive cuts                                                     *
#*********************************************************************
 0  = xptj ! minimum pt for at least one jet  
 0  = xptb ! minimum pt for at least one b 
 0  = xpta ! minimum pt for at least one photon 
 0  = xptl ! minimum pt for at least one charged lepton 
#*********************************************************************
# Control the pt's of the jets sorted by pt                          *
#*********************************************************************
 0   = ptj1min ! minimum pt for the leading jet in pt
 0   = ptj2min ! minimum pt for the second jet in pt
 0   = ptj3min ! minimum pt for the third jet in pt
 0   = ptj4min ! minimum pt for the fourth jet in pt
 -1  = ptj1max ! maximum pt for the leading jet in pt 
 -1  = ptj2max ! maximum pt for the second jet in pt
 -1  = ptj3max ! maximum pt for the third jet in pt
 -1  = ptj4max ! maximum pt for the fourth jet in pt
 0   = cutuse  ! reject event if fails any (0) / all (1) jet pt cuts
#*********************************************************************
# Control the pt's of leptons sorted by pt                           *
#*********************************************************************
 0   = ptl1min ! minimum pt for the leading lepton in pt
 0   = ptl2min ! minimum pt for the second lepton in pt
 0   = ptl3min ! minimum pt for the third lepton in pt
 0   = ptl4min ! minimum pt for the fourth lepton in pt
 -1  = ptl1max ! maximum pt for the leading lepton in pt 
 -1  = ptl2max ! maximum pt for the second lepton in pt
 -1  = ptl3max ! maximum pt for the third lepton in pt
 -1  = ptl4max ! maximum pt for the fourth lepton in pt
#*********************************************************************
# Control the Ht(k)=Sum of k leading jets                            *
#*********************************************************************
 0   = htjmin ! minimum jet HT=Sum(jet pt)
 -1  = htjmax ! maximum jet HT=Sum(jet pt)
 0   = ihtmin  !inclusive Ht for all partons (including b)
 -1  = ihtmax  !inclusive Ht for all partons (including b)
 0   = ht2min ! minimum Ht for the two leading jets
 0   = ht3min ! minimum Ht for the three leading jets
 0   = ht4min ! minimum Ht for the four leading jets
 -1  = ht2max ! maximum Ht for the two leading jets
 -1  = ht3max ! maximum Ht for the three leading jets
 -1  = ht4max ! maximum Ht for the four leading jets
#***********************************************************************
# Photon-isolation cuts, according to hep-ph/9801442                   *
# When ptgmin=0, all the other parameters are ignored                  *
# When ptgmin>0, pta and draj are not going to be used                 *
#***********************************************************************
   0 = ptgmin ! Min photon transverse momentum
 0.4 = R0gamma ! Radius of isolation code
 1.0 = xn ! n parameter of eq.(3.4) in hep-ph/9801442
 1.0 = epsgamma ! epsilon_gamma parameter of eq.(3.4) in hep-ph/9801442
 .true. = isoEM ! isolate photons from EM energy (photons and leptons)
#*********************************************************************
# WBF cuts                                                           *
#*********************************************************************
 0   = xetamin ! minimum rapidity for two jets in the WBF case  
 0   = deltaeta ! minimum rapidity for two jets in the WBF case 
#*********************************************************************
# KT DURHAM CUT                                                      *
#*********************************************************************
 -1    =  ktdurham        
 0.4  =  dparameter 
#*********************************************************************
# maximal pdg code for quark to be considered as a light jet         *
# (otherwise b cuts are applied)                                     *
#*********************************************************************
 4 = maxjetflavor    ! Maximum jet pdg code
#*********************************************************************
# Jet measure cuts                                                   *
#*********************************************************************
 0   = xqcut   ! minimum kt jet measure between partons
#*********************************************************************
#
#*********************************************************************
# Store info for systematics studies                                 *
# WARNING: If use_syst is T, matched Pythia output is                *
#          meaningful ONLY if plotted taking matchscale              *
#          reweighting into account!                                 *
#*********************************************************************
   F  = use_syst      ! Enable systematics studies
#
#**************************************
# Parameter of the systematics study
#  will be used by SysCalc (if installed)
#**************************************                                  
#
0.5 1 2 = sys_scalefact  # factorization/renormalization scale factor
0.5 1 2 = sys_alpsfact  # \alpha_s emission scale factors
30 50 = sys_matchscale # variation of merging scale
# PDF sets and number of members (0 or none for all members).
CT10nlo.LHgrid = sys_pdf # matching scales
# MSTW2008nlo68cl.LHgrid 1  = sys_pdf
</MGRunCard>
<slha>
######################################################################
## PARAM_CARD AUTOMATICALY GENERATED BY MG5 FOLLOWING UFO MODEL   ####
######################################################################
##                                                                  ##
##  Width set on Auto will be computed following the information    ##
##        present in the decay.py files of the model.               ##
##        See  arXiv:1402.1178 for more details.                    ##
##                                                                  ##
######################################################################

###################################
## INFORMATION FOR CKMBLOCK
###################################
Block ckmblock 
    1 2.277360e-01 # cabi 

###################################
## INFORMATION FOR FRBLOCK
###################################
Block frblock 
    1 2.000000e-01 # gz 

###################################
## INFORMATION FOR MASS
###################################
Block mass 
    1 5.040000e-03 # MD 
    2 2.550000e-03 # MU 
    3 1.010000e-01 # MS 
    4 1.270000e+00 # MC 
    5 4.700000e+00 # MB 
    6 1.720000e+02 # MT 
   11 5.110000e-04 # Me 
   13 1.056600e-01 # MM 
   15 1.777000e+00 # MTA 
   23 9.118760e+01 # MZ 
   25 1.200000e+02 # MH 
  10030 2.800000e+03 # MZph 
  10031 3.000000e+02 # MZpl 
## Dependent parameters, given by model restrictions.
## Those values should be edited following the 
## analytical expression. MG5 ignores those values 
## but they are important for interfacing the output of MG5
## to external program such as Pythia.
  12 0.000000 # ve : 0.0 
  14 0.000000 # vm : 0.0 
  16 0.000000 # vt : 0.0 
  21 0.000000 # g : 0.0 
  22 0.000000 # a : 0.0 
  24 79.824360 # w+ : cmath.sqrt(MZ__exp__2/2. + cmath.sqrt(MZ__exp__4/4. - (aEW*cmath.pi*MZ__exp__2)/(Gf*sqrt__2))) 

###################################
## INFORMATION FOR SMINPUTS
###################################
Block sminputs 
    1 1.279000e+02 # aEWM1 
    2 1.166370e-05 # Gf 
    3 1.184000e-01 # aS 

###################################
## INFORMATION FOR YUKAWA
###################################
Block yukawa 
    1 5.040000e-03 # ymdo 
    2 2.550000e-03 # ymup 
    3 1.010000e-01 # yms 
    4 1.270000e+00 # ymc 
    5 4.700000e+00 # ymb 
    6 1.720000e+02 # ymt 
   11 5.110000e-04 # yme 
   13 1.056600e-01 # ymm 
   15 1.777000e+00 # ymtau 

###################################
## INFORMATION FOR DECAY
###################################
DECAY   6 1.508336e+00 # WT 
DECAY  23 2.495200e+00 # WZ 
DECAY  24 2.085000e+00 # WW 
DECAY  25 5.753088e-03 # WH 
## Dependent parameters, given by model restrictions.
## Those values should be edited following the 
## analytical expression. MG5 ignores those values 
## but they are important for interfacing the output of MG5
## to external program such as Pythia.
DECAY  1 0.000000 # d : 0.0 
DECAY  2 0.000000 # u : 0.0 
DECAY  3 0.000000 # s : 0.0 
DECAY  4 0.000000 # c : 0.0 
DECAY  5 0.000000 # b : 0.0 
DECAY  11 0.000000 # e- : 0.0 
DECAY  12 0.000000 # ve : 0.0 
DECAY  13 0.000000 # mu- : 0.0 
DECAY  14 0.000000 # vm : 0.0 
DECAY  15 0.000000 # ta- : 0.0 
DECAY  16 0.000000 # vt : 0.0 
DECAY  21 0.000000 # g : 0.0 
DECAY  22 0.000000 # a : 0.0 
DECAY  10030 0.308725 # zph : (gz__exp__2*MZph*(5 + cmath.sqrt(1 - (4*MT__exp__2)/MZph__exp__2)))/(144.*cmath.pi) 
DECAY  10031 0.132629 # zpl : (5*gz__exp__2*MZpl)/(144.*cmath.pi) 
#===========================================================
# QUANTUM NUMBERS OF NEW STATE(S) (NON SM PDG CODE)
#===========================================================

Block QNUMBERS 10030  # zph 
        1 0  # 3 times electric charge
        2 3  # number of spin states (2S+1)
        3 1  # colour rep (1: singlet, 3: triplet, 8: octet)
        4 0  # Particle/Antiparticle distinction (0=own anti)
Block QNUMBERS 10031  # zpl 
        1 0  # 3 times electric charge
        2 3  # number of spin states (2S+1)
        3 1  # colour rep (1: singlet, 3: triplet, 8: octet)
        4 0  # Particle/Antiparticle distinction (0=own anti)
</slha>
## END BANNER##
<MGGenerationInfo>
#  Number of Events        :         3901
#  Integrated weight (pb)  :  0.93869E-04
#  Max wgt                 :  0.35715E-07
#  Average wgt             :  0.24063E-07
</MGGenerationInfo>
</header>
<init>
     2212     2212  0.40000000000E+04  0.40000000000E+04 0 0  247000  247000 2   1
  0.93984380650E-04  0.19895424772E-06  0.35714980000E-07   0
</init>
<event>
 5   0  0.3522569E-07  0.2799418E+04  0.7818609E-02  0.8303449E-01
       -2   -1    0    0    0  501  0.00000000000E+00  0.00000000000E+00  0.18681392350E+04  0.18681392350E+04  0.25500000920E-02 0.  1.
        2   -1    0    0  501    0  0.00000000000E+00  0.00000000000E+00 -0.10487359063E+04  0.10487359063E+04  0.25500000920E-02 0. -1.
    10030    2    1    2    0    0  0.00000000000E+00  0.00000000000E+00  0.81940332876E+03  0.29168751413E+04  0.27994175778E+04 0.  0.
        1    1    3    3  502    0 -0.69803976173E+03  0.18818607387E+03  0.16585355094E+04  0.18092577327E+04  0.50400001928E-02 0.  1.
       -1    1    3    3    0  502  0.69803976173E+03 -0.18818607387E+03 -0.83913218059E+03  0.11076174086E+04  0.50400001928E-02 0. -1.
</event>
<event>
 5   0  0.3522569E-07  0.2800691E+04  0.7818609E-02  0.8303054E-01
        2   -1    0    0  501    0  0.00000000000E+00  0.00000000000E+00  0.17207466023E+04  0.17207466023E+04  0.25500000920E-02 0. -1.
       -2   -1    0    0    0  501  0.00000000000E+00  0.00000000000E+00 -0.11396028179E+04  0.11396028179E+04  0.25500000920E-02 0.  1.
    10030    2    1    2    0    0  0.00000000000E+00  0.00000000000E+00  0.58114378442E+03  0.28603494202E+04  0.28006911124E+04 0.  0.
        1    1    3    3  502    0  0.63951578318E+02  0.10145982557E+04 -0.69299387019E+03  0.12303413872E+04  0.50400001928E-02 0.  1.
       -1    1    3    3    0  502 -0.63951578318E+02 -0.10145982557E+04  0.12741376546E+04  0.16300080330E+04  0.50400001928E-02 0. -1.
</event>
<event>
 5   0  0.3502141E-07  0.2800402E+04  0.7818609E-02  0.8303143E-01
        2   -1    0    0  501    0  0.00000000000E+00  0.00000000000E+00  0.12139986862E+04  0.12139986862E+04  0.25500000920E-02 0. -1.
       -2   -1    0    0    0  501  0.00000000000E+00  0.00000000000E+00 -0.16149631974E+04  0.16149631974E+04  0.25500000920E-02 0.  1.
    10030    2    1    2    0    0  0.00000000000E+00  0.00000000000E+00 -0.40096451122E+03  0.28289618836E+04  0.28004022567E+04 0.  0.
        3    1    3    3  502    0  0.97546545313E+03  0.94816006720E+03 -0.53556192305E+03  0.14619736478E+04  0.10100000352E+00 0.  1.
       -3    1    3    3    0  502 -0.97546545313E+03 -0.94816006720E+03  0.13459741183E+03  0.13669882358E+04  0.10100000352E+00 0. -1.
</event>
<event>
 5   0  0.3522569E-07  0.2800713E+04  0.7818609E-02  0.8303047E-01
       -2   -1    0    0    0  501  0.00000000000E+00  0.00000000000E+00  0.10890558690E+04  0.10890558690E+04  0.25500000920E-02 0.  1.
        2   -1    0    0  501    0  0.00000000000E+00  0.00000000000E+00 -0.18006411124E+04  0.18006411124E+04  0.25500000920E-02 0. -1.
    10030    2    1    2    0    0  0.00000000000E+00  0.00000000000E+00 -0.71158524336E+03  0.28896969814E+04  0.28007133173E+04 0.  0.
        1    1    3    3  502    0  0.58884794972E+03  0.93623653580E+03 -0.12419866957E+04  0.16630729723E+04  0.50400001928E-02 0. -1.
       -1    1    3    3    0  502 -0.58884794972E+03 -0.93623653580E+03  0.53040145237E+03  0.12266240090E+04  0.50400001928E-02 0.  1.
</event>
<event>
 5   0  0.3502141E-07  0.2799866E+04  0.7818609E-02  0.8303310E-01
       -2   -1    0    0    0  501  0.00000000000E+00  0.00000000000E+00  0.74618020910E+03  0.74618020911E+03  0.25500000920E-02 0. -1.
        2   -1    0    0  501    0  0.00000000000E+00  0.00000000000E+00 -0.26264591745E+04  0.26264591745E+04  0.25500000920E-02 0.  1.
    10030    2    1    2    0    0  0.00000000000E+00  0.00000000000E+00 -0.18802789654E+04  0.33726393836E+04  0.27998656082E+04 0.  0.
        3    1    3    3  502    0 -0.59811592624E+03 -0.88378442978E+02 -0.24610794867E+04  0.25342584044E+04  0.10100000352E+00 0.  1.
       -3    1    3    3    0  502  0.59811592624E+03  0.88378442978E+02  0.58080052133E+03  0.83838097914E+03  0.10100000352E+00 0. -1.
</event>
<event>
 5   0  0.1346049E-07  0.2800481E+04  0.7818609E-02  0.8303119E-01
        1   -1    0    0  501    0  0.00000000000E+00  0.00000000000E+00  0.18033525796E+04  0.18033525797E+04  0.50400001928E-02 0.  1.
       -1   -1    0    0    0  501  0.00000000000E+00  0.00000000000E+00 -0.10872377914E+04  0.10872377914E+04  0.50400001928E-02 0. -1.
    10030    2    1    2    0    0  0.00000000000E+00  0.00000000000E+00  0.71611478829E+03  0.28905903710E+04  0.28004807271E+04 0.  0.
        1    1    3    3  502    0  0.17615123298E+03 -0.10113899420E+04 -0.62480781571E+03  0.12018001823E+04  0.50400001928E-02 0. -1.
       -1    1    3    3    0  502 -0.17615123298E+03  0.10113899420E+04  0.13409226040E+04  0.16887901887E+04  0.50400001928E-02 0.  1.
</event>
<event>
 5   0  0.1374680E-07  0.2802632E+04  0.7818609E-02  0.8302452E-01
        1   -1    0    0  501    0  0.00000000000E+00  0.00000000000E+00  0.96682629145E+03  0.96682629146E+03  0.50400001928E-02 0. -1.
       -1   -1    0    0    0  501  0.00000000000E+00  0.00000000000E+00 -0.20310643825E+04  0.20310643825E+04  0.50400001928E-02 0.  1.
    10030    2    1    2    0    0  0.00000000000E+00  0.00000000000E+00 -0.10642380911E+04  0.29978906740E+04  0.28026319378E+04 0.  0.
        3    1    3    3  502    0  0.23126135407E+03 -0.12624352969E+04 -0.11338610542E+04  0.17125611210E+04  0.10100000352E+00 0. -1.
       -3    1    3    3    0  502 -0.23126135407E+03  0.12624352969E+04  0.69622963113E+02  0.12853295530E+04  0.10100000352E+00 0.  1.
</event>
<event>
 5   0  0.3522569E-07  0.2801090E+04  0.7818609E-02  0.8302930E-01
       -2   -1    0    0    0  501  0.00000000000E+00  0.00000000000E+00  0.90113494172E+03  0.90113494173E+03  0.25500000920E-02 0. -1.
        2   -1    0    0  501    0  0.00000000000E+00  0.00000000000E+00 -0.21767294235E+04  0.21767294235E+04  0.25500000920E-02 0.  1.
    10030    2    1    2    0    0  0.00000000000E+00  0.00000000000E+00 -0.12755944818E+04  0.30778643652E+04  0.28010904607E+04 0.  0.
        1    1    3    3  502    0  0.84115572788E+02  0.10728683759E+04  0.34709699888E+03  0.11307512142E+04  0.50400001928E-02 0. -1.
       -1    1    3    3    0  502 -0.84115572788E+02 -0.10728683759E+04 -0.16226914807E+04  0.19471131511E+04  0.50400001928E-02 0.  1.
</event>
<event>
 5   0  0.1366235E-07  0.2799811E+04  0.7818609E-02  0.8303327E-01
        1   -1    0    0  501    0  0.00000000000E+00  0.00000000000E+00  0.13421893181E+04  0.13421893181E+04  0.50400001928E-02 0.  1.
       -1   -1    0    0    0  501  0.00000000000E+00  0.00000000000E+00 -0.14601037847E+04  0.14601037847E+04  0.50400001928E-02 0. -1.
    10030    2    1    2    0    0  0.00000000000E+00  0.00000000000E+00 -0.11791446658E+03  0.28022931029E+04  0.27998112102E+04 0.  0.
        2    1    3    3  502    0 -0.57167183223E+03 -0.12125643903E+04  0.34465526162E+03  0.13841634057E+04  0.25500000920E-02 0.  1.
       -2    1    3    3    0  502  0.57167183223E+03  0.12125643903E+04 -0.46256972820E+03  0.14181296971E+04  0.25500000920E-02 0. -1.
</event>
<event>
 5   0  0.3522569E-07  0.2800918E+04  0.7818609E-02  0.8302983E-01
        2   -1    0    0  501    0  0.00000000000E+00  0.00000000000E+00  0.19205408169E+04  0.19205408169E+04  0.25500000920E-02 0. -1.
       -2   -1    0    0    0  501  0.00000000000E+00  0.00000000000E+00 -0.10212155086E+04  0.10212155086E+04  0.25500000920E-02 0.  1.
    10030    2    1    2    0    0  0.00000000000E+00  0.00000000000E+00  0.89932530835E+03  0.29417563255E+04  0.28009184687E+04 0.  0.
        1    1    3    3  502    0  0.40746846866E+03  0.58465802856E+03  0.17158657297E+04  0.18579695277E+04  0.50400001928E-02 0. -1.
       -1    1    3    3    0  502 -0.40746846866E+03 -0.58465802856E+03 -0.81654042138E+03  0.10837867978E+04  0.50400001928E-02 0.  1.
</event>
<event>
 5   0  0.1173363E-07  0.2801146E+04  0.7818609E-02  0.8302913E-01
       -4   -1    0    0    0  501  0.00000000000E+00  0.00000000000E+00  0.89070471584E+03  0.89070562125E+03  0.12699999809E+01 0. -1.
        4   -1    0    0  501    0  0.00000000000E+00  0.00000000000E+00 -0.22023041628E+04  0.22023045289E+04  0.12699999809E+01 0.  1.
    10030    2    1    2    0    0  0.00000000000E+00  0.00000000000E+00 -0.13115994469E+04  0.30930101502E+04  0.28011459584E+04 0.  0.
        3    1    3    3  502    0  0.74558105183E+03 -0.44059888305E+02  0.65245989821E+03  0.99173399033E+03  0.10100000352E+00 0. -1.
       -3    1    3    3    0  502 -0.74558105183E+03  0.44059888305E+02 -0.19640593451E+04  0.21012761599E+04  0.10100000352E+00 0.  1.
</event>
<event>
 5   0  0.3557628E-07  0.2798246E+04  0.7818609E-02  0.8303813E-01
        2   -1    0    0  501    0  0.00000000000E+00  0.00000000000E+00  0.26250700112E+04  0.26250700112E+04  0.25500000920E-02 0.  1.
       -2   -1    0    0    0  501  0.00000000000E+00  0.00000000000E+00 -0.74571180414E+03  0.74571180415E+03  0.25500000920E-02 0. -1.
    10030    2    1    2    0    0  0.00000000000E+00  0.00000000000E+00  0.18793582071E+04  0.33707818153E+04  0.27982463752E+04 0.  0.
        5    1    3    3  502    0  0.56537576038E+03 -0.34740106290E+03  0.24234408036E+04  0.25126529143E+04  0.46999998093E+01 0.  1.
       -5    1    3    3    0  502 -0.56537576038E+03  0.34740106290E+03 -0.54408259658E+03  0.85812890106E+03  0.46999998093E+01 0. -1.
</event>
<event>
 5   0  0.1361741E-07  0.2800653E+04  0.7818609E-02  0.8303066E-01
        1   -1    0    0  501    0  0.00000000000E+00  0.00000000000E+00  0.19752014452E+04  0.19752014452E+04  0.50400001928E-02 0.  1.
       -1   -1    0    0    0  501  0.00000000000E+00  0.00000000000E+00 -0.99276699641E+03  0.99276699642E+03  0.50400001928E-02 0. -1.
    10030    2    1    2    0    0  0.00000000000E+00  0.00000000000E+00  0.98243444877E+03  0.29679684416E+04  0.28006533567E+04 0.  0.
        5    1    3    3  502    0 -0.13058304289E+04  0.20470887768E+03  0.98121889098E+03  0.16461808636E+04  0.46999998093E+01 0.  1.
       -5    1    3    3    0  502  0.13058304289E+04 -0.20470887768E+03  0.12155577911E+01  0.13217875780E+04  0.46999998093E+01 0. -1.
</event>
<event>
 5   0  0.1346049E-07  0.2800716E+04  0.7818609E-02  0.8303046E-01
        1   -1    0    0  501    0  0.00000000000E+00  0.00000000000E+00  0.15172126898E+04  0.15172126898E+04  0.50400001928E-02 0.  1.
       -1   -1    0    0    0  501  0.00000000000E+00  0.00000000000E+00 -0.12925034410E+04  0.12925034410E+04  0.50400001928E-02 0. -1.
    10030    2    1    2    0    0  0.00000000000E+00  0.00000000000E+00  0.22470924879E+03  0.28097161308E+04  0.28007160672E+04 0.  0.
        1    1    3    3  502    0 -0.10044894767E+04  0.94287740978E+03  0.36413063890E+03  0.14249940494E+04  0.50400001928E-02 0.  1.
       -1    1    3    3    0  502  0.10044894767E+04 -0.94287740978E+03 -0.13942139011E+03  0.13847220814E+04  0.50400001928E-02 0. -1.
</event>
<event>
 5   0  0.1374680E-07  0.2800196E+04  0.7818609E-02  0.8303208E-01
       -1   -1    0    0    0  501  0.00000000000E+00  0.00000000000E+00  0.18058523075E+04  0.18058523075E+04  0.50400001928E-02 0.  1.
        1   -1    0    0  501    0  0.00000000000E+00  0.00000000000E+00 -0.10855119230E+04  0.10855119230E+04  0.50400001928E-02 0. -1.
    10030    2    1    2    0    0  0.00000000000E+00  0.00000000000E+00  0.72034038454E+03  0.28913642305E+04  0.28001958582E+04 0.  0.
        3    1    3    3  502    0  0.97159653642E+03  0.19403586513E+03 -0.66129230689E+03  0.11911999294E+04  0.10100000352E+00 0. -1.
       -3    1    3    3    0  502 -0.97159653642E+03 -0.19403586513E+03  0.13816326914E+04  0.17001643011E+04  0.10100000352E+00 0.  1.
</event>
<event>
 5   0  0.1374680E-07  0.2801036E+04  0.7818609E-02  0.8302947E-01
        1   -1    0    0  501    0  0.00000000000E+00  0.00000000000E+00  0.18426133526E+04  0.18426133526E+04  0.50400001928E-02 0.  1.
       -1   -1    0    0    0  501  0.00000000000E+00  0.00000000000E+00 -0.10644941209E+04  0.10644941209E+04  0.50400001928E-02 0. -1.
    10030    2    1    2    0    0  0.00000000000E+00  0.00000000000E+00  0.77811923173E+03  0.29071074736E+04  0.28010362947E+04 0.  0.
        3    1    3    3  502    0 -0.76548078710E+03  0.11443472466E+04  0.65561128468E+03  0.15248992173E+04  0.10100000352E+00 0.  1.
       -3    1    3    3    0  502  0.76548078710E+03 -0.11443472466E+04  0.12250794705E+03  0.13822082562E+04  0.10100000352E+00 0. -1.
</event>
<event>
 5   0  0.3522569E-07  0.2796693E+04  0.7818609E-02  0.8304296E-01
        2   -1    0    0  501    0  0.00000000000E+00  0.00000000000E+00  0.10403525149E+04  0.10403525149E+04  0.25500000920E-02 0.  1.
       -2   -1    0    0    0  501  0.00000000000E+00  0.00000000000E+00 -0.18795292427E+04  0.18795292427E+04  0.25500000920E-02 0. -1.
    10030    2    1    2    0    0  0.00000000000E+00  0.00000000000E+00 -0.83917672786E+03  0.29198817576E+04  0.27966930289E+04 0.  0.
        1    1    3    3  502    0  0.12426676953E+04  0.18333221941E+03 -0.10610955582E+04  0.16443106420E+04  0.50400001928E-02 0. -1.
       -1    1    3    3    0  502 -0.12426676953E+04 -0.18333221941E+03  0.22191883032E+03  0.12755711156E+04  0.50400001928E-02 0.  1.
</event>
<event>
 5   0  0.1357902E-07  0.2798485E+04  0.7818609E-02  0.8303739E-01
        1   -1    0    0  501    0  0.00000000000E+00  0.00000000000E+00  0.22458467319E+04  0.22458467319E+04  0.50400001928E-02 0.  1.
       -1   -1    0    0    0  501  0.00000000000E+00  0.00000000000E+00 -0.87177789795E+03  0.87177789796E+03  0.50400001928E-02 0. -1.
    10030    2    1    2    0    0  0.00000000000E+00  0.00000000000E+00  0.13740688339E+04  0.31176246298E+04  0.27984849780E+04 0.  0.
        4    1    3    3  502    0  0.23296089938E+03  0.12992403155E+04  0.12042919718E+04  0.17867895635E+04  0.12699999809E+01 0.  1.
       -4    1    3    3    0  502 -0.23296089938E+03 -0.12992403155E+04  0.16977686209E+03  0.13308350663E+04  0.12699999809E+01 0. -1.
</event>
<event>
 5   0  0.1346049E-07  0.2804064E+04  0.7818609E-02  0.8302008E-01
       -1   -1    0    0    0  501  0.00000000000E+00  0.00000000000E+00  0.20030763578E+04  0.20030763578E+04  0.50400001928E-02 0.  1.
        1   -1    0    0  501    0  0.00000000000E+00  0.00000000000E+00 -0.98133773267E+03  0.98133773268E+03  0.50400001928E-02 0. -1.
    10030    2    1    2    0    0  0.00000000000E+00  0.00000000000E+00  0.10217386252E+04  0.29844140905E+04  0.28040644867E+04 0.  0.
        1    1    3    3  502    0  0.19785425677E+03  0.51354948497E+02  0.19871316767E+04  0.19976175656E+04  0.50400001928E-02 0.  1.
       -1    1    3    3    0  502 -0.19785425677E+03 -0.51354948497E+02 -0.96539305155E+03  0.98679652495E+03  0.50400001928E-02 0. -1.
</event>
<event>
 5   0  0.3571498E-07  0.2800235E+04  0.7818609E-02  0.8303196E-01
       -2   -1    0    0    0  501  0.00000000000E+00  0.00000000000E+00  0.81142357106E+03  0.81142357106E+03  0.25500000920E-02 0.  1.
        2   -1    0    0  501    0  0.00000000000E+00  0.00000000000E+00 -0.24159125159E+04  0.24159125159E+04  0.25500000920E-02 0. -1.
    10030    2    1    2    0    0  0.00000000000E+00  0.00000000000E+00 -0.16044889449E+04  0.32273360870E+04  0.28002345338E+04 0.  0.
        2    1    3    3  502    0  0.56441211711E+03  0.36517188335E+03 -0.22177464159E+04  0.23173930844E+04  0.25500000920E-02 0. -1.
       -2    1    3    3    0  502 -0.56441211711E+03 -0.36517188335E+03  0.61325747099E+03  0.90994300264E+03  0.25500000920E-02 0.  1.
</event>
<event>
 5   0  0.1374680E-07  0.2805611E+04  0.7818609E-02  0.8301529E-01
       -1   -1    0    0    0  501  0.00000000000E+00  0.00000000000E+00  0.17031928272E+04  0.17031928272E+04  0.50400001928E-02 0. -1.
        1   -1    0    0  501    0  0.00000000000E+00  0.00000000000E+00 -0.11553964125E+04  0.11553964125E+04  0.50400001928E-02 0.  1.
    10030    2    1    2    0    0  0.00000000000E+00  0.00000000000E+00  0.54779641464E+03  0.28585892397E+04  0.28056107231E+04 0.  0.
        3    1    3    3  502    0  0.30048430517E+03 -0.10210611976E+04  0.12049399701E+04  0.16077117679E+04  0.10100000352E+00 0. -1.
       -3    1    3    3    0  502 -0.30048430517E+03  0.10210611976E+04 -0.65714355546E+03  0.12508774718E+04  0.10100000352E+00 0.  1.
</event>
<event>
 5   0  0.3502141E-07  0.2800344E+04  0.7818609E-02  0.8303162E-01
        2   -1    0    0  501    0  0.00000000000E+00  0.00000000000E+00  0.13610502675E+04  0.13610502675E+04  0.25500000920E-02 0. -1.
       -2   -1    0    0    0  501  0.00000000000E+00  0.00000000000E+00 -0.14404180185E+04  0.14404180185E+04  0.25500000920E-02 0.  1.
    10030    2    1    2    0    0  0.00000000000E+00  0.00000000000E+00 -0.79367751020E+02  0.28014682860E+04  0.28003437856E+04 0.  0.
        3    1    3    3  502    0 -0.54682540683E+03 -0.19213709397E+03  0.12354049810E+04  0.13646098951E+04  0.10100000352E+00 0. -1.
       -3    1    3    3    0  502  0.54682540683E+03  0.19213709397E+03 -0.13147727320E+04  0.14368583909E+04  0.10100000352E+00 0.  1.
</event>
<event>
 5   0  0.1346049E-07  0.2800621E+04  0.7818609E-02  0.8303076E-01
        1   -1    0    0  501    0  0.00000000000E+00  0.00000000000E+00  0.22924424512E+04  0.22924424512E+04  0.50400001928E-02 0.  1.
       -1   -1    0    0    0  501  0.00000000000E+00  0.00000000000E+00 -0.85536252600E+03  0.85536252602E+03  0.50400001928E-02 0. -1.
    10030    2    1    2    0    0  0.00000000000E+00  0.00000000000E+00  0.14370799252E+04  0.31478049772E+04  0.28006209067E+04 0.  0.
        1    1    3    3  502    0 -0.11155860709E+04 -0.82057833313E+03  0.48550099776E+03  0.14675122832E+04  0.50400001928E-02 0.  1.
       -1    1    3    3    0  502  0.11155860709E+04  0.82057833313E+03  0.95157892745E+03  0.16802926940E+04  0.50400001928E-02 0. -1.
</event>
<event>
 5   0  0.3571498E-07  0.2800283E+04  0.7818609E-02  0.8303181E-01
        2   -1    0    0  501    0  0.00000000000E+00  0.00000000000E+00  0.11681003213E+04  0.11681003213E+04  0.25500000920E-02 0. -1.
       -2   -1    0    0    0  501  0.00000000000E+00  0.00000000000E+00 -0.16782767216E+04  0.16782767217E+04  0.25500000920E-02 0.  1.
    10030    2    1    2    0    0  0.00000000000E+00  0.00000000000E+00 -0.51017640037E+03  0.28463770429E+04  0.28002825413E+04 0.  0.
        2    1    3    3  502    0  0.10368630556E+04  0.77042076734E+03  0.29395340258E+03  0.13247798903E+04  0.25500000920E-02 0.  1.
       -2    1    3    3    0  502 -0.10368630556E+04 -0.77042076734E+03 -0.80412980295E+03  0.15215971526E+04  0.25500000920E-02 0. -1.
</event>
<event>
 5   0  0.1366235E-07  0.2788538E+04  0.7818609E-02  0.8306836E-01
       -1   -1    0    0    0  501  0.00000000000E+00  0.00000000000E+00  0.13585005038E+04  0.13585005038E+04  0.50400001928E-02 0. -1.
        1   -1    0    0  501    0  0.00000000000E+00  0.00000000000E+00 -0.14309796653E+04  0.14309796653E+04  0.50400001928E-02 0.  1.
    10030    2    1    2    0    0  0.00000000000E+00  0.00000000000E+00 -0.72479161510E+02  0.27894801691E+04  0.27885383958E+04 0.  0.
        2    1    3    3  502    0  0.91536963359E+03  0.69967623645E+02 -0.10859697828E+04  0.14220152614E+04  0.25500000920E-02 0. -1.
       -2    1    3    3    0  502 -0.91536963359E+03 -0.69967623645E+02  0.10134906212E+04  0.13674649077E+04  0.25500000920E-02 0.  1.
</event>
<event>
 5   0  0.3502141E-07  0.2799520E+04  0.7818609E-02  0.8303417E-01
        2   -1    0    0  501    0  0.00000000000E+00  0.00000000000E+00  0.26191793790E+04  0.26191793790E+04  0.25500000920E-02 0.  1.
       -2   -1    0    0    0  501  0.00000000000E+00  0.00000000000E+00 -0.74806963314E+03  0.74806963314E+03  0.25500000920E-02 0. -1.
    10030    2    1    2    0    0  0.00000000000E+00  0.00000000000E+00  0.18711097459E+04  0.33672490121E+04  0.27995203569E+04 0.  0.
        3    1    3    3  502    0 -0.11106086891E+04  0.36840722750E+03  0.18595590072E+04  0.21970742494E+04  0.10100000352E+00 0.  1.
       -3    1    3    3    0  502  0.11106086891E+04 -0.36840722750E+03  0.11550738621E+02  0.11701747628E+04  0.10100000352E+00 0. -1.
</event>
<event>
 5   0  0.3557628E-07  0.2800802E+04  0.7818609E-02  0.8303019E-01
       -2   -1    0    0    0  501  0.00000000000E+00  0.00000000000E+00  0.96715090553E+03  0.96715090553E+03  0.25500000920E-02 0.  1.
        2   -1    0    0  501    0  0.00000000000E+00  0.00000000000E+00 -0.20277321243E+04  0.20277321243E+04  0.25500000920E-02 0. -1.
    10030    2    1    2    0    0  0.00000000000E+00  0.00000000000E+00 -0.10605812187E+04  0.29948830298E+04  0.28008019995E+04 0.  0.
        5    1    3    3  502    0  0.40465181215E+03  0.10133232210E+04 -0.14689181933E+04  0.18298387327E+04  0.46999998093E+01 0. -1.
       -5    1    3    3    0  502 -0.40465181215E+03 -0.10133232210E+04  0.40833697453E+03  0.11650442971E+04  0.46999998093E+01 0.  1.
</event>
<event>
 5   0  0.1366235E-07  0.2804402E+04  0.7818609E-02  0.8301903E-01
       -1   -1    0    0    0  501  0.00000000000E+00  0.00000000000E+00  0.13375009474E+04  0.13375009475E+04  0.50400001928E-02 0. -1.
        1   -1    0    0  501    0  0.00000000000E+00  0.00000000000E+00 -0.14700306832E+04  0.14700306832E+04  0.50400001928E-02 0.  1.
    10030    2    1    2    0    0  0.00000000000E+00  0.00000000000E+00 -0.13252973571E+03  0.28075316306E+04  0.28044018482E+04 0.  0.
        2    1    3    3  502    0 -0.13338159856E+04  0.19219774272E+03 -0.45420524042E+03  0.14220785689E+04  0.25500000920E-02 0. -1.
       -2    1    3    3    0  502  0.13338159856E+04 -0.19219774272E+03  0.32167550471E+03  0.13854530617E+04  0.25500000920E-02 0.  1.
</event>
<event>
 5   0  0.3502141E-07  0.2798565E+04  0.7818609E-02  0.8303714E-01
        2   -1    0    0  501    0  0.00000000000E+00  0.00000000000E+00  0.23643489526E+04  0.23643489526E+04  0.25500000920E-02 0. -1.
       -2   -1    0    0    0  501  0.00000000000E+00  0.00000000000E+00 -0.82813127543E+03  0.82813127544E+03  0.25500000920E-02 0.  1.
    10030    2    1    2    0    0  0.00000000000E+00  0.00000000000E+00  0.15362176771E+04  0.31924802280E+04  0.27985648563E+04 0.  0.
        3    1    3    3  502    0 -0.31437954158E+03 -0.50878052586E+02 -0.78623930030E+03  0.84828964389E+03  0.10100000352E+00 0.  1.
       -3    1    3    3    0  502  0.31437954158E+03  0.50878052586E+02  0.23224569774E+04  0.23441905841E+04  0.10100000352E+00 0. -1.
</event>
<event>
 5   0  0.3522569E-07  0.2800829E+04  0.7818609E-02  0.8303011E-01
        2   -1    0    0  501    0  0.00000000000E+00  0.00000000000E+00  0.16878269469E+04  0.16878269469E+04  0.25500000920E-02 0. -1.
       -2   -1    0    0    0  501  0.00000000000E+00  0.00000000000E+00 -0.11619438255E+04  0.11619438255E+04  0.25500000920E-02 0.  1.
    10030    2    1    2    0    0  0.00000000000E+00  0.00000000000E+00  0.52588312134E+03  0.28497707724E+04  0.28008285199E+04 0.  0.
        1    1    3    3  502    0  0.45223097418E+03 -0.98722142669E+03  0.11627254170E+04  0.15909272122E+04  0.50400001928E-02 0. -1.
       -1    1    3    3    0  502 -0.45223097418E+03  0.98722142669E+03 -0.63684229565E+03  0.12588435601E+04  0.50400001928E-02 0.  1.
</event>
<event>
 5   0  0.1361741E-07  0.2799780E+04  0.7818609E-02  0.8303337E-01
       -1   -1    0    0    0  501  0.00000000000E+00  0.00000000000E+00  0.10760345684E+04  0.10760345684E+04  0.50400001928E-02 0.  1.
        1   -1    0    0  501    0  0.00000000000E+00  0.00000000000E+00 -0.18212163945E+04  0.18212163945E+04  0.50400001928E-02 0. -1.
    10030    2    1    2    0    0  0.00000000000E+00  0.00000000000E+00 -0.74518182612E+03  0.28972509629E+04  0.27997798464E+04 0.  0.
        5    1    3    3  502    0 -0.11582421836E+04  0.66446888772E+03  0.62309042628E+02  0.13367678801E+04  0.46999998093E+01 0.  1.
       -5    1    3    3    0  502  0.11582421836E+04 -0.66446888772E+03 -0.80749086875E+03  0.15604830828E+04  0.46999998093E+01 0. -1.
</event>
<event>
 5   0  0.3502141E-07  0.2798708E+04  0.7818609E-02  0.8303670E-01
       -2   -1    0    0    0  501  0.00000000000E+00  0.00000000000E+00  0.83338308401E+03  0.83338308402E+03  0.25500000920E-02 0. -1.
        2   -1    0    0  501    0  0.00000000000E+00  0.00000000000E+00 -0.23496892354E+04  0.23496892354E+04  0.25500000920E-02 0.  1.
    10030    2    1    2    0    0  0.00000000000E+00  0.00000000000E+00 -0.15163061514E+04  0.31830723194E+04  0.27987077457E+04 0.  0.
        3    1    3    3  502    0  0.72958840685E+03 -0.11780219452E+04 -0.98031626891E+03  0.16973670623E+04  0.10100000352E+00 0.  1.
       -3    1    3    3    0  502 -0.72958840685E+03  0.11780219452E+04 -0.53598988249E+03  0.14857052572E+04  0.10100000352E+00 0. -1.
</event>
<event>
 5   0  0.1357902E-07  0.2799629E+04  0.7818609E-02  0.8303384E-01
       -1   -1    0    0    0  501  0.00000000000E+00  0.00000000000E+00  0.10516290457E+04  0.10516290457E+04  0.50400001928E-02 0. -1.
        1   -1    0    0  501    0  0.00000000000E+00  0.00000000000E+00 -0.18632805590E+04  0.18632805590E+04  0.50400001928E-02 0.  1.
    10030    2    1    2    0    0  0.00000000000E+00  0.00000000000E+00 -0.81165151324E+03  0.29149096047E+04  0.27996285155E+04 0.  0.
        4    1    3    3  502    0  0.60187170087E+03 -0.55968701906E+03 -0.15856129669E+04  0.17859645005E+04  0.12699999809E+01 0.  1.
       -4    1    3    3    0  502 -0.60187170087E+03  0.55968701906E+03  0.77396145362E+03  0.11289451042E+04  0.12699999809E+01 0. -1.
</event>
<event>
 5   0  0.1346049E-07  0.2802962E+04  0.7818609E-02  0.8302349E-01
       -1   -1    0    0    0  501  0.00000000000E+00  0.00000000000E+00  0.64193700963E+03  0.64193700965E+03  0.50400001928E-02 0.  1.
        1   -1    0    0  501    0  0.00000000000E+00  0.00000000000E+00 -0.30597216123E+04  0.30597216123E+04  0.50400001928E-02 0. -1.
    10030    2    1    2    0    0  0.00000000000E+00  0.00000000000E+00 -0.24177846026E+04  0.37016586219E+04  0.28029616780E+04 0.  0.
        1    1    3    3  502    0 -0.42789353421E+03  0.13345469620E+04 -0.12005324549E+04  0.18453689728E+04  0.50400001928E-02 0. -1.
       -1    1    3    3    0  502  0.42789353421E+03 -0.13345469620E+04 -0.12172521477E+04  0.18562896491E+04  0.50400001928E-02 0.  1.
</event>
<event>
 5   0  0.1374680E-07  0.2800298E+04  0.7818609E-02  0.8303176E-01
       -1   -1    0    0    0  501  0.00000000000E+00  0.00000000000E+00  0.74150865259E+03  0.74150865261E+03  0.50400001928E-02 0.  1.
        1   -1    0    0  501    0  0.00000000000E+00  0.00000000000E+00 -0.26438229172E+04  0.26438229172E+04  0.50400001928E-02 0. -1.
    10030    2    1    2    0    0  0.00000000000E+00  0.00000000000E+00 -0.19023142646E+04  0.33853315698E+04  0.28002982477E+04 0.  0.
        3    1    3    3  502    0 -0.16829547315E+03 -0.11638621403E+04 -0.18698706419E+04  0.22089170821E+04  0.10100000352E+00 0. -1.
       -3    1    3    3    0  502  0.16829547315E+03  0.11638621403E+04 -0.32443622688E+02  0.11764144877E+04  0.10100000352E+00 0.  1.
</event>
<event>
 5   0  0.3406920E-07  0.2800158E+04  0.7818609E-02  0.8303219E-01
        2   -1    0    0  501    0  0.00000000000E+00  0.00000000000E+00  0.33305569448E+04  0.33305569448E+04  0.25500000920E-02 0.  1.
       -2   -1    0    0    0  501  0.00000000000E+00  0.00000000000E+00 -0.58855663616E+03  0.58855663617E+03  0.25500000920E-02 0. -1.
    10030    2    1    2    0    0  0.00000000000E+00  0.00000000000E+00  0.27420003087E+04  0.39191135810E+04  0.28001581327E+04 0.  0.
        4    1    3    3  502    0 -0.91628402321E+03 -0.60700273717E+03  0.25848623097E+04  0.28088331220E+04  0.12699999809E+01 0.  1.
       -4    1    3    3    0  502  0.91628402321E+03  0.60700273717E+03  0.15713799901E+03  0.11102804591E+04  0.12699999809E+01 0. -1.
</event>
<event>
 5   0  0.3406920E-07  0.2800252E+04  0.7818609E-02  0.8303190E-01
        2   -1    0    0  501    0  0.00000000000E+00  0.00000000000E+00  0.11385336994E+04  0.11385336994E+04  0.25500000920E-02 0. -1.
       -2   -1    0    0    0  501  0.00000000000E+00  0.00000000000E+00 -0.17218223992E+04  0.17218223992E+04  0.25500000920E-02 0.  1.
    10030    2    1    2    0    0  0.00000000000E+00  0.00000000000E+00 -0.58328869977E+03  0.28603560986E+04  0.28002520072E+04 0.  0.
        4    1    3    3  502    0 -0.69703057393E+03  0.80481975356E+03  0.63713802225E+03  0.12407791621E+04  0.12699999809E+01 0. -1.
       -4    1    3    3    0  502  0.69703057393E+03 -0.80481975356E+03 -0.12204267220E+04  0.16195769366E+04  0.12699999809E+01 0.  1.
</event>
<event>
 5   0  0.1366235E-07  0.2801790E+04  0.7818609E-02  0.8302713E-01
        1   -1    0    0  501    0  0.00000000000E+00  0.00000000000E+00  0.19070979611E+04  0.19070979611E+04  0.50400001928E-02 0.  1.
       -1   -1    0    0    0  501  0.00000000000E+00  0.00000000000E+00 -0.10290542029E+04  0.10290542029E+04  0.50400001928E-02 0. -1.
    10030    2    1    2    0    0  0.00000000000E+00  0.00000000000E+00  0.87804375820E+03  0.29361521641E+04  0.28017902650E+04 0.  0.
        2    1    3    3  502    0 -0.61169086869E+03 -0.10363387992E+03 -0.87723783196E+03  0.10744542399E+04  0.25500000920E-02 0. -1.
       -2    1    3    3    0  502  0.61169086869E+03  0.10363387992E+03  0.17552815902E+04  0.18616979241E+04  0.25500000920E-02 0.  1.
</event>
<event>
 5   0  0.1361741E-07  0.2799386E+04  0.7818609E-02  0.8303459E-01
       -1   -1    0    0    0  501  0.00000000000E+00  0.00000000000E+00  0.13878126962E+04  0.13878126962E+04  0.50400001928E-02 0. -1.
        1   -1    0    0  501    0  0.00000000000E+00  0.00000000000E+00 -0.14116746196E+04  0.14116746196E+04  0.50400001928E-02 0.  1.
    10030    2    1    2    0    0  0.00000000000E+00  0.00000000000E+00 -0.23861923371E+02  0.27994873158E+04  0.27993856183E+04 0.  0.
        5    1    3    3  502    0 -0.11672200617E+04  0.74156349680E+03  0.20440714890E+03  0.13978996619E+04  0.46999998093E+01 0. -1.
       -5    1    3    3    0  502  0.11672200617E+04 -0.74156349680E+03 -0.22826907227E+03  0.14015876539E+04  0.46999998093E+01 0.  1.
</event>
<event>
 5   0  0.1361741E-07  0.2799969E+04  0.7818609E-02  0.8303278E-01
        1   -1    0    0  501    0  0.00000000000E+00  0.00000000000E+00  0.14419033913E+04  0.14419033913E+04  0.50400001928E-02 0.  1.
       -1   -1    0    0    0  501  0.00000000000E+00  0.00000000000E+00 -0.13592845599E+04  0.13592845599E+04  0.50400001928E-02 0. -1.
    10030    2    1    2    0    0  0.00000000000E+00  0.00000000000E+00  0.82618831353E+02  0.28011879512E+04  0.27999692975E+04 0.  0.
        5    1    3    3  502    0  0.63816724719E+03 -0.10896910265E+04  0.64593241373E+03  0.14184268545E+04  0.46999998093E+01 0. -1.
       -5    1    3    3    0  502 -0.63816724719E+03  0.10896910265E+04 -0.56331358237E+03  0.13827610967E+04  0.46999998093E+01 0.  1.
</event>
<event>
 5   0  0.3571498E-07  0.2798857E+04  0.7818609E-02  0.8303623E-01
       -2   -1    0    0    0  501  0.00000000000E+00  0.00000000000E+00  0.12954569750E+04  0.12954569750E+04  0.25500000920E-02 0. -1.
        2   -1    0    0  501    0  0.00000000000E+00  0.00000000000E+00 -0.15117442356E+04  0.15117442356E+04  0.25500000920E-02 0.  1.
    10030    2    1    2    0    0  0.00000000000E+00  0.00000000000E+00 -0.21628726062E+03  0.28072012106E+04  0.27988566340E+04 0.  0.
        2    1    3    3  502    0  0.13368510302E+03  0.63887931160E+03  0.11334327823E+04  0.13079405008E+04  0.25500000920E-02 0. -1.
       -2    1    3    3    0  502 -0.13368510302E+03 -0.63887931160E+03 -0.13497200429E+04  0.14992607098E+04  0.25500000920E-02 0.  1.
</event>
<event>
 5   0  0.3502141E-07  0.2800489E+04  0.7818609E-02  0.8303117E-01
        2   -1    0    0  501    0  0.00000000000E+00  0.00000000000E+00  0.25936386623E+04  0.25936386623E+04  0.25500000920E-02 0.  1.
       -2   -1    0    0    0  501  0.00000000000E+00  0.00000000000E+00 -0.75595909151E+03  0.75595909151E+03  0.25500000920E-02 0. -1.
    10030    2    1    2    0    0  0.00000000000E+00  0.00000000000E+00  0.18376795708E+04  0.33495977538E+04  0.28004890479E+04 0.  0.
        3    1    3    3  502    0 -0.43943553850E+03  0.35491846451E+03  0.24513179764E+04  0.25155576997E+04  0.10100000352E+00 0.  1.
       -3    1    3    3    0  502  0.43943553850E+03 -0.35491846451E+03 -0.61363840556E+03  0.83404005415E+03  0.10100000352E+00 0. -1.
</event>
<event>
 5   0  0.3522569E-07  0.2800872E+04  0.7818609E-02  0.8302998E-01
        2   -1    0    0  501    0  0.00000000000E+00  0.00000000000E+00  0.15288733459E+04  0.15288733460E+04  0.25500000920E-02 0. -1.
       -2   -1    0    0    0  501  0.00000000000E+00  0.00000000000E+00 -0.12827886059E+04  0.12827886059E+04  0.25500000920E-02 0.  1.
    10030    2    1    2    0    0  0.00000000000E+00  0.00000000000E+00  0.24608474006E+03  0.28116619518E+04  0.28008722270E+04 0.  0.
        1    1    3    3  502    0  0.36560558731E+03  0.10668888251E+04 -0.71039814163E+03  0.13328858655E+04  0.50400001928E-02 0.  1.
       -1    1    3    3    0  502 -0.36560558731E+03 -0.10668888251E+04  0.95648288169E+03  0.14787760864E+04  0.50400001928E-02 0. -1.
</event>
<event>
 5   0  0.3571498E-07  0.2800329E+04  0.7818609E-02  0.8303166E-01
       -2   -1    0    0    0  501  0.00000000000E+00  0.00000000000E+00  0.14699221217E+04  0.14699221217E+04  0.25500000920E-02 0.  1.
        2   -1    0    0  501    0  0.00000000000E+00  0.00000000000E+00 -0.13337169655E+04  0.13337169655E+04  0.25500000920E-02 0. -1.
    10030    2    1    2    0    0  0.00000000000E+00  0.00000000000E+00  0.13620515624E+03  0.28036390872E+04  0.28003286034E+04 0.  0.
        2    1    3    3  502    0  0.77041543266E+02 -0.10311649807E+04  0.10132649282E+04  0.14477370036E+04  0.25500000920E-02 0. -1.
       -2    1    3    3    0  502 -0.77041543266E+02  0.10311649807E+04 -0.87705977193E+03  0.13559020836E+04  0.25500000920E-02 0.  1.
</event>
<event>
 5   0  0.3502141E-07  0.2800224E+04  0.7818609E-02  0.8303199E-01
       -2   -1    0    0    0  501  0.00000000000E+00  0.00000000000E+00  0.10764032835E+04  0.10764032835E+04  0.25500000920E-02 0.  1.
        2   -1    0    0  501    0  0.00000000000E+00  0.00000000000E+00 -0.18211707276E+04  0.18211707276E+04  0.25500000920E-02 0. -1.
    10030    2    1    2    0    0  0.00000000000E+00  0.00000000000E+00 -0.74476744407E+03  0.28975740111E+04  0.28002243846E+04 0.  0.
        3    1    3    3  502    0  0.90006961130E+02 -0.11712681717E+04  0.41590327589E+03  0.12461725114E+04  0.10100000352E+00 0. -1.
       -3    1    3    3    0  502 -0.90006961130E+02  0.11712681717E+04 -0.11606707200E+04  0.16514014997E+04  0.10100000352E+00 0.  1.
</event>
<event>
 5   0  0.1374680E-07  0.2799675E+04  0.7818609E-02  0.8303369E-01
       -1   -1    0    0    0  501  0.00000000000E+00  0.00000000000E+00  0.10526677258E+04  0.10526677258E+04  0.50400001928E-02 0. -1.
        1   -1    0    0  501    0  0.00000000000E+00  0.00000000000E+00 -0.18615045119E+04  0.18615045119E+04  0.50400001928E-02 0.  1.
    10030    2    1    2    0    0  0.00000000000E+00  0.00000000000E+00 -0.80883678609E+03  0.29141722378E+04  0.27996754964E+04 0.  0.
        3    1    3    3  502    0 -0.45406862925E+02  0.89177433276E+03 -0.15265715965E+04  0.17685429295E+04  0.10100000352E+00 0. -1.
       -3    1    3    3    0  502  0.45406862925E+02 -0.89177433276E+03  0.71773481045E+03  0.11456293083E+04  0.10100000352E+00 0.  1.
</event>
<event>
 5   0  0.3557628E-07  0.2797869E+04  0.7818609E-02  0.8303930E-01
        2   -1    0    0  501    0  0.00000000000E+00  0.00000000000E+00  0.13007073763E+04  0.13007073763E+04  0.25500000920E-02 0. -1.
       -2   -1    0    0    0  501  0.00000000000E+00  0.00000000000E+00 -0.15045796446E+04  0.15045796446E+04  0.25500000920E-02 0.  1.
    10030    2    1    2    0    0  0.00000000000E+00  0.00000000000E+00 -0.20387226835E+03  0.28052870209E+04  0.27978690763E+04 0.  0.
        5    1    3    3  502    0  0.48257368570E+03 -0.12852178284E+04 -0.37159811736E+03  0.14222410061E+04  0.46999998093E+01 0.  1.
       -5    1    3    3    0  502 -0.48257368570E+03  0.12852178284E+04  0.16772584901E+03  0.13830460148E+04  0.46999998093E+01 0. -1.
</event>
<event>
 5   0  0.1361741E-07  0.2802143E+04  0.7818609E-02  0.8302603E-01
       -1   -1    0    0    0  501  0.00000000000E+00  0.00000000000E+00  0.87978775172E+03  0.87978775173E+03  0.50400001928E-02 0.  1.
        1   -1    0    0  501    0  0.00000000000E+00  0.00000000000E+00 -0.22312217235E+04  0.22312217235E+04  0.50400001928E-02 0. -1.
    10030    2    1    2    0    0  0.00000000000E+00  0.00000000000E+00 -0.13514339718E+04  0.31110094752E+04  0.28021431396E+04 0.  0.
        5    1    3    3  502    0 -0.94131504366E+03 -0.10063930201E+04 -0.39467753210E+03  0.14334201640E+04  0.46999998093E+01 0.  1.
       -5    1    3    3    0  502  0.94131504366E+03  0.10063930201E+04 -0.95675643967E+03  0.16775893112E+04  0.46999998093E+01 0. -1.
</event>
<event>
 5   0  0.1374680E-07  0.2800294E+04  0.7818609E-02  0.8303177E-01
       -1   -1    0    0    0  501  0.00000000000E+00  0.00000000000E+00  0.12630582780E+04  0.12630582780E+04  0.50400001928E-02 0. -1.
        1   -1    0    0  501    0  0.00000000000E+00  0.00000000000E+00 -0.15521152180E+04  0.15521152180E+04  0.50400001928E-02 0.  1.
    10030    2    1    2    0    0  0.00000000000E+00  0.00000000000E+00 -0.28905694000E+03  0.28151734959E+04  0.28002942520E+04 0.  0.
        3    1    3    3  502    0 -0.11779224003E+04  0.74270100942E+03  0.22128402517E+01  0.13925196147E+04  0.10100000352E+00 0. -1.
       -3    1    3    3    0  502  0.11779224003E+04 -0.74270100942E+03 -0.29126978025E+03  0.14226538812E+04  0.10100000352E+00 0.  1.
</event>
<event>
 5   0  0.3502141E-07  0.2800265E+04  0.7818609E-02  0.8303186E-01
       -2   -1    0    0    0  501  0.00000000000E+00  0.00000000000E+00  0.88321625600E+03  0.88321625600E+03  0.25500000920E-02 0.  1.
        2   -1    0    0  501    0  0.00000000000E+00  0.00000000000E+00 -0.22195826901E+04  0.22195826901E+04  0.25500000920E-02 0. -1.
    10030    2    1    2    0    0  0.00000000000E+00  0.00000000000E+00 -0.13363664341E+04  0.31027989461E+04  0.28002653541E+04 0.  0.
        3    1    3    3  502    0  0.73068401377E+03  0.28016598602E+02 -0.19912038301E+04  0.21212205828E+04  0.10100000352E+00 0. -1.
       -3    1    3    3    0  502 -0.73068401377E+03 -0.28016598602E+02  0.65483739603E+03  0.98157836326E+03  0.10100000352E+00 0.  1.
</event>
<event>
 5   0  0.1346049E-07  0.2799646E+04  0.7818609E-02  0.8303378E-01
        1   -1    0    0  501    0  0.00000000000E+00  0.00000000000E+00  0.17920447934E+04  0.17920447934E+04  0.50400001928E-02 0.  1.
       -1   -1    0    0    0  501  0.00000000000E+00  0.00000000000E+00 -0.10934463067E+04  0.10934463067E+04  0.50400001928E-02 0. -1.
    10030    2    1    2    0    0  0.00000000000E+00  0.00000000000E+00  0.69859848670E+03  0.28854911002E+04  0.27996462354E+04 0.  0.
        1    1    3    3  502    0  0.13457419273E+04 -0.29250629529E+03  0.60783641565E+03  0.15053392893E+04  0.50400001928E-02 0.  1.
       -1    1    3    3    0  502 -0.13457419273E+04  0.29250629529E+03  0.90762071047E+02  0.13801518109E+04  0.50400001928E-02 0. -1.
</event>
<event>
 5   0  0.1374680E-07  0.2799850E+04  0.7818609E-02  0.8303315E-01
        1   -1    0    0  501    0  0.00000000000E+00  0.00000000000E+00  0.16861946444E+04  0.16861946444E+04  0.50400001928E-02 0.  1.
       -1   -1    0    0    0  501  0.00000000000E+00  0.00000000000E+00 -0.11622557197E+04  0.11622557197E+04  0.50400001928E-02 0. -1.
    10030    2    1    2    0    0  0.00000000000E+00  0.00000000000E+00  0.52393892470E+03  0.28484503641E+04  0.27998495459E+04 0.  0.
        3    1    3    3  502    0  0.11502252461E+04  0.42752934571E+03  0.94745304485E+03  0.15503118205E+04  0.10100000352E+00 0.  1.
       -3    1    3    3    0  502 -0.11502252461E+04 -0.42752934571E+03 -0.42351412015E+03  0.12981385436E+04  0.10100000352E+00 0. -1.
</event>
<event>
 5   0  0.1357902E-07  0.2800470E+04  0.7818609E-02  0.8303123E-01
        1   -1    0    0  501    0  0.00000000000E+00  0.00000000000E+00  0.16271672415E+04  0.16271672415E+04  0.50400001928E-02 0. -1.
       -1   -1    0    0    0  501  0.00000000000E+00  0.00000000000E+00 -0.12049514361E+04  0.12049514362E+04  0.50400001928E-02 0.  1.
    10030    2    1    2    0    0  0.00000000000E+00  0.00000000000E+00  0.42221580534E+03  0.28321186777E+04  0.28004696067E+04 0.  0.
        4    1    3    3  502    0 -0.10231841182E+04  0.95513591862E+03  0.17239303604E+03  0.14102876779E+04  0.12699999809E+01 0.  1.
       -4    1    3    3    0  502  0.10231841182E+04 -0.95513591862E+03  0.24982276931E+03  0.14218309997E+04  0.12699999809E+01 0. -1.
</event>
<event>
 5   0  0.1361741E-07  0.2798916E+04  0.7818609E-02  0.8303605E-01
        1   -1    0    0  501    0  0.00000000000E+00  0.00000000000E+00  0.22258266103E+04  0.22258266103E+04  0.50400001928E-02 0. -1.
       -1   -1    0    0    0  501  0.00000000000E+00  0.00000000000E+00 -0.87989035876E+03  0.87989035878E+03  0.50400001928E-02 0.  1.
    10030    2    1    2    0    0  0.00000000000E+00  0.00000000000E+00  0.13459362515E+04  0.31057169691E+04  0.27989164866E+04 0.  0.
        5    1    3    3  502    0 -0.80976884913E+03 -0.50387794756E+03 -0.46342112389E+03  0.10603771985E+04  0.46999998093E+01 0.  1.
       -5    1    3    3    0  502  0.80976884913E+03  0.50387794756E+03  0.18093573754E+04  0.20453397706E+04  0.46999998093E+01 0. -1.
</event>
<event>
 5   0  0.3406920E-07  0.2800431E+04  0.7818609E-02  0.8303134E-01
       -2   -1    0    0    0  501  0.00000000000E+00  0.00000000000E+00  0.94694658094E+03  0.94694658094E+03  0.25500000920E-02 0.  1.
        2   -1    0    0  501    0  0.00000000000E+00  0.00000000000E+00 -0.20704482721E+04  0.20704482721E+04  0.25500000920E-02 0. -1.
    10030    2    1    2    0    0  0.00000000000E+00  0.00000000000E+00 -0.11235016912E+04  0.30173948530E+04  0.28004313327E+04 0.  0.
        4    1    3    3  502    0 -0.13625072611E+04  0.12918363186E+03 -0.24305155698E+03  0.13900324167E+04  0.12699999809E+01 0.  1.
       -4    1    3    3    0  502  0.13625072611E+04 -0.12918363186E+03 -0.88045013418E+03  0.16273624363E+04  0.12699999809E+01 0. -1.
</event>
<event>
 5   0  0.3522569E-07  0.2799913E+04  0.7818609E-02  0.8303296E-01
       -2   -1    0    0    0  501  0.00000000000E+00  0.00000000000E+00  0.12621216107E+04  0.12621216107E+04  0.25500000920E-02 0. -1.
        2   -1    0    0  501    0  0.00000000000E+00  0.00000000000E+00 -0.15528436406E+04  0.15528436406E+04  0.25500000920E-02 0.  1.
    10030    2    1    2    0    0  0.00000000000E+00  0.00000000000E+00 -0.29072202987E+03  0.28149652513E+04  0.27999125107E+04 0.  0.
        1    1    3    3  502    0  0.10378914932E+04  0.59244310168E+03 -0.87843807398E+03  0.14831928500E+04  0.50400001928E-02 0.  1.
       -1    1    3    3    0  502 -0.10378914932E+04 -0.59244310168E+03  0.58771604411E+03  0.13317724013E+04  0.50400001928E-02 0. -1.
</event>
<event>
 5   0  0.1357902E-07  0.2801061E+04  0.7818609E-02  0.8302939E-01
        1   -1    0    0  501    0  0.00000000000E+00  0.00000000000E+00  0.21443771644E+04  0.21443771645E+04  0.50400001928E-02 0. -1.
       -1   -1    0    0    0  501  0.00000000000E+00  0.00000000000E+00 -0.91471125595E+03  0.91471125596E+03  0.50400001928E-02 0.  1.
    10030    2    1    2    0    0  0.00000000000E+00  0.00000000000E+00  0.12296659085E+04  0.30590884204E+04  0.28010611770E+04 0.  0.
        4    1    3    3  502    0 -0.97962925250E+03 -0.20034004780E+03 -0.45615240355E+03  0.10990387779E+04  0.12699999809E+01 0.  1.
       -4    1    3    3    0  502  0.97962925250E+03  0.20034004780E+03  0.16858183121E+04  0.19600496425E+04  0.12699999809E+01 0. -1.
</event>
<event>
 5   0  0.3571498E-07  0.2799127E+04  0.7818609E-02  0.8303540E-01
        2   -1    0    0  501    0  0.00000000000E+00  0.00000000000E+00  0.21608220760E+04  0.21608220760E+04  0.25500000920E-02 0. -1.
       -2   -1    0    0    0  501  0.00000000000E+00  0.00000000000E+00 -0.90649644568E+03  0.90649644568E+03  0.25500000920E-02 0.  1.
    10030    2    1    2    0    0  0.00000000000E+00  0.00000000000E+00  0.12543256303E+04  0.30673185217E+04  0.27991266721E+04 0.  0.
        2    1    3    3  502    0 -0.13707775109E+03 -0.55369233249E+02  0.21522417804E+04  0.21573133159E+04  0.25500000920E-02 0. -1.
       -2    1    3    3    0  502  0.13707775109E+03  0.55369233249E+02 -0.89791615010E+03  0.91000520573E+03  0.25500000920E-02 0.  1.
</event>
<event>
 5   0  0.1361741E-07  0.2799796E+04  0.7818609E-02  0.8303332E-01
       -1   -1    0    0    0  501  0.00000000000E+00  0.00000000000E+00  0.10100448414E+04  0.10100448414E+04  0.50400001928E-02 0.  1.
        1   -1    0    0  501    0  0.00000000000E+00  0.00000000000E+00 -0.19402254219E+04  0.19402254219E+04  0.50400001928E-02 0. -1.
    10030    2    1    2    0    0  0.00000000000E+00  0.00000000000E+00 -0.93018058049E+03  0.29502702634E+04  0.27997961916E+04 0.  0.
        5    1    3    3  502    0  0.33768122418E+03 -0.12597892562E+04 -0.10009430271E+04  0.16440823010E+04  0.46999998093E+01 0. -1.
       -5    1    3    3    0  502 -0.33768122418E+03  0.12597892562E+04  0.70762446637E+02  0.13061879623E+04  0.46999998093E+01 0.  1.
</event>
<event>
 5   0  0.3571498E-07  0.2800646E+04  0.7818609E-02  0.8303068E-01
        2   -1    0    0  501    0  0.00000000000E+00  0.00000000000E+00  0.13388802680E+04  0.13388802680E+04  0.25500000920E-02 0. -1.
       -2   -1    0    0    0  501  0.00000000000E+00  0.00000000000E+00 -0.14645853491E+04  0.14645853491E+04  0.25500000920E-02 0.  1.
    10030    2    1    2    0    0  0.00000000000E+00  0.00000000000E+00 -0.12570508110E+03  0.28034656171E+04  0.28006459432E+04 0.  0.
        2    1    3    3  502    0  0.71276911749E+02  0.49475163546E+03  0.12465335446E+04  0.13430210188E+04  0.25500000920E-02 0. -1.
       -2    1    3    3    0  502 -0.71276911749E+02 -0.49475163546E+03 -0.13722386257E+04  0.14604445984E+04  0.25500000920E-02 0.  1.
</event>
<event>
 5   0  0.1357902E-07  0.2795590E+04  0.7818609E-02  0.8304639E-01
       -1   -1    0    0    0  501  0.00000000000E+00  0.00000000000E+00  0.12014531685E+04  0.12014531685E+04  0.50400001928E-02 0. -1.
        1   -1    0    0  501    0  0.00000000000E+00  0.00000000000E+00 -0.16262228373E+04  0.16262228373E+04  0.50400001928E-02 0.  1.
    10030    2    1    2    0    0  0.00000000000E+00  0.00000000000E+00 -0.42476966882E+03  0.28276760058E+04  0.27955897986E+04 0.  0.
        4    1    3    3  502    0  0.74111807930E+01  0.26326363327E+03  0.11761295636E+04  0.12052572462E+04  0.12699999809E+01 0. -1.
       -4    1    3    3    0  502 -0.74111807930E+01 -0.26326363327E+03 -0.16008992324E+04  0.16224187596E+04  0.12699999809E+01 0.  1.
</event>
<event>
 5   0  0.1357902E-07  0.2799137E+04  0.7818609E-02  0.8303536E-01
       -1   -1    0    0    0  501  0.00000000000E+00  0.00000000000E+00  0.77313396358E+03  0.77313396360E+03  0.50400001928E-02 0.  1.
        1   -1    0    0  501    0  0.00000000000E+00  0.00000000000E+00 -0.25335737737E+04  0.25335737737E+04  0.50400001928E-02 0. -1.
    10030    2    1    2    0    0  0.00000000000E+00  0.00000000000E+00 -0.17604398101E+04  0.33067077373E+04  0.27991369625E+04 0.  0.
        4    1    3    3  502    0 -0.10352434026E+04  0.76505076580E+03 -0.23128431354E+03  0.13078706448E+04  0.12699999809E+01 0.  1.
       -4    1    3    3    0  502  0.10352434026E+04 -0.76505076580E+03 -0.15291554966E+04  0.19988370925E+04  0.12699999809E+01 0. -1.
</event>
<event>
 5   0  0.1366235E-07  0.2800084E+04  0.7818609E-02  0.8303242E-01
       -1   -1    0    0    0  501  0.00000000000E+00  0.00000000000E+00  0.15340955676E+04  0.15340955676E+04  0.50400001928E-02 0.  1.
        1   -1    0    0  501    0  0.00000000000E+00  0.00000000000E+00 -0.12777025858E+04  0.12777025858E+04  0.50400001928E-02 0. -1.
    10030    2    1    2    0    0  0.00000000000E+00  0.00000000000E+00  0.25639298180E+03  0.28117981535E+04  0.28000841942E+04 0.  0.
        2    1    3    3  502    0 -0.38735652011E+03 -0.11795990985E+03  0.14740114496E+04  0.15286168151E+04  0.25500000920E-02 0.  1.
       -2    1    3    3    0  502  0.38735652011E+03  0.11795990985E+03 -0.12176184678E+04  0.12831813383E+04  0.25500000920E-02 0. -1.
</event>
<event>
 5   0  0.3406920E-07  0.2802259E+04  0.7818609E-02  0.8302567E-01
       -2   -1    0    0    0  501  0.00000000000E+00  0.00000000000E+00  0.15653553902E+04  0.15653553902E+04  0.25500000920E-02 0.  1.
        2   -1    0    0  501    0  0.00000000000E+00  0.00000000000E+00 -0.12541333873E+04  0.12541333873E+04  0.25500000920E-02 0. -1.
    10030    2    1    2    0    0  0.00000000000E+00  0.00000000000E+00  0.31122200289E+03  0.28194887776E+04  0.28022594155E+04 0.  0.
        4    1    3    3  502    0 -0.11116195130E+02  0.24627531689E+03 -0.12321400111E+04  0.12565610695E+04  0.12699999809E+01 0. -1.
       -4    1    3    3    0  502  0.11116195130E+02 -0.24627531689E+03  0.15433620140E+04  0.15629277081E+04  0.12699999809E+01 0.  1.
</event>
<event>
 5   0  0.1173363E-07  0.2800223E+04  0.7818609E-02  0.8303199E-01
        3   -1    0    0  501    0  0.00000000000E+00  0.00000000000E+00  0.15124974489E+04  0.15124974523E+04  0.10100000352E+00 0. -1.
       -3   -1    0    0    0  501  0.00000000000E+00  0.00000000000E+00 -0.12960766317E+04  0.12960766356E+04  0.10100000352E+00 0.  1.
    10030    2    1    2    0    0  0.00000000000E+00  0.00000000000E+00  0.21642081721E+03  0.28085740879E+04  0.28002232834E+04 0.  0.
        1    1    3    3  502    0  0.15780009809E+03  0.56850814389E+03  0.13817253904E+04  0.15024205254E+04  0.50400001928E-02 0. -1.
       -1    1    3    3    0  502 -0.15780009809E+03 -0.56850814389E+03 -0.11653045732E+04  0.13061535625E+04  0.50400001928E-02 0.  1.
</event>
<event>
 5   0  0.3557628E-07  0.2799066E+04  0.7818609E-02  0.8303558E-01
        2   -1    0    0  501    0  0.00000000000E+00  0.00000000000E+00  0.27374277113E+04  0.27374277113E+04  0.25500000920E-02 0. -1.
       -2   -1    0    0    0  501  0.00000000000E+00  0.00000000000E+00 -0.71552291261E+03  0.71552291261E+03  0.25500000920E-02 0.  1.
    10030    2    1    2    0    0  0.00000000000E+00  0.00000000000E+00  0.20219047987E+04  0.34529506239E+04  0.27990657363E+04 0.  0.
        5    1    3    3  502    0 -0.49924620969E+03 -0.13999792233E+03 -0.59265481834E+03  0.78746937709E+03  0.46999998093E+01 0.  1.
       -5    1    3    3    0  502  0.49924620969E+03  0.13999792233E+03  0.26145596171E+04  0.26654812468E+04  0.46999998093E+01 0. -1.
</event>
<event>
 5   0  0.3557628E-07  0.2799795E+04  0.7818609E-02  0.8303332E-01
        2   -1    0    0  501    0  0.00000000000E+00  0.00000000000E+00  0.21878661873E+04  0.21878661873E+04  0.25500000920E-02 0.  1.
       -2   -1    0    0    0  501  0.00000000000E+00  0.00000000000E+00 -0.89571906833E+03  0.89571906833E+03  0.25500000920E-02 0. -1.
    10030    2    1    2    0    0  0.00000000000E+00  0.00000000000E+00  0.12921471190E+04  0.30835852556E+04  0.27997953232E+04 0.  0.
        5    1    3    3  502    0  0.99028800646E+03 -0.62043608276E+03 -0.20281793223E+03  0.11860727095E+04  0.46999998093E+01 0. -1.
       -5    1    3    3    0  502 -0.99028800646E+03  0.62043608276E+03  0.14949650512E+04  0.18975125462E+04  0.46999998093E+01 0.  1.
</event>
<event>
 5   0  0.3406920E-07  0.2800183E+04  0.7818609E-02  0.8303211E-01
        2   -1    0    0  501    0  0.00000000000E+00  0.00000000000E+00  0.12413570217E+04  0.12413570217E+04  0.25500000920E-02 0.  1.
       -2   -1    0    0    0  501  0.00000000000E+00  0.00000000000E+00 -0.15791239000E+04  0.15791239000E+04  0.25500000920E-02 0. -1.
    10030    2    1    2    0    0  0.00000000000E+00  0.00000000000E+00 -0.33776687828E+03  0.28204809217E+04  0.28001832379E+04 0.  0.
        4    1    3    3  502    0  0.43370347526E+03 -0.92113776443E+03 -0.11369230365E+04  0.15261681065E+04  0.12699999809E+01 0. -1.
       -4    1    3    3    0  502 -0.43370347526E+03  0.92113776443E+03  0.79915615821E+03  0.12943128152E+04  0.12699999809E+01 0.  1.
</event>
<event>
 5   0  0.1357902E-07  0.2791205E+04  0.7818609E-02  0.8306004E-01
        1   -1    0    0  501    0  0.00000000000E+00  0.00000000000E+00  0.21054549349E+04  0.21054549349E+04  0.50400001928E-02 0. -1.
       -1   -1    0    0    0  501  0.00000000000E+00  0.00000000000E+00 -0.92507619003E+03  0.92507619004E+03  0.50400001928E-02 0.  1.
    10030    2    1    2    0    0  0.00000000000E+00  0.00000000000E+00  0.11803787449E+04  0.30305311250E+04  0.27912049223E+04 0.  0.
        4    1    3    3  502    0  0.12027522389E+04  0.57955859357E+03  0.14888660092E+03  0.13433800447E+04  0.12699999809E+01 0.  1.
       -4    1    3    3    0  502 -0.12027522389E+04 -0.57955859357E+03  0.10314921440E+04  0.16871510803E+04  0.12699999809E+01 0. -1.
</event>
<event>
 5   0  0.1366235E-07  0.2802064E+04  0.7818609E-02  0.8302628E-01
       -1   -1    0    0    0  501  0.00000000000E+00  0.00000000000E+00  0.15734723590E+04  0.15734723590E+04  0.50400001928E-02 0. -1.
        1   -1    0    0  501    0  0.00000000000E+00  0.00000000000E+00 -0.12474893441E+04  0.12474893441E+04  0.50400001928E-02 0.  1.
    10030    2    1    2    0    0  0.00000000000E+00  0.00000000000E+00  0.32598301493E+03  0.28209617031E+04  0.28020635262E+04 0.  0.
        2    1    3    3  502    0  0.10898294362E+04  0.29564919686E+03  0.99789364241E+03  0.15069599760E+04  0.25500000920E-02 0. -1.
       -2    1    3    3    0  502 -0.10898294362E+04 -0.29564919686E+03 -0.67191062748E+03  0.13140017272E+04  0.25500000920E-02 0.  1.
</event>
<event>
 5   0  0.3571498E-07  0.2800267E+04  0.7818609E-02  0.8303186E-01
        2   -1    0    0  501    0  0.00000000000E+00  0.00000000000E+00  0.19910970382E+04  0.19910970382E+04  0.25500000920E-02 0. -1.
       -2   -1    0    0    0  501  0.00000000000E+00  0.00000000000E+00 -0.98456962592E+03  0.98456962593E+03  0.25500000920E-02 0.  1.
    10030    2    1    2    0    0  0.00000000000E+00  0.00000000000E+00  0.10065274123E+04  0.29756666641E+04  0.28002668916E+04 0.  0.
        2    1    3    3  502    0  0.95687260404E+03 -0.10964825133E+03  0.15831587837E+04  0.18531108045E+04  0.25500000920E-02 0. -1.
       -2    1    3    3    0  502 -0.95687260404E+03  0.10964825133E+03 -0.57663137145E+03  0.11225558596E+04  0.25500000920E-02 0.  1.
</event>
<event>
 5   0  0.1366235E-07  0.2801320E+04  0.7818609E-02  0.8302859E-01
       -1   -1    0    0    0  501  0.00000000000E+00  0.00000000000E+00  0.12707635784E+04  0.12707635784E+04  0.50400001928E-02 0.  1.
        1   -1    0    0  501    0  0.00000000000E+00  0.00000000000E+00 -0.15438346552E+04  0.15438346552E+04  0.50400001928E-02 0. -1.
    10030    2    1    2    0    0  0.00000000000E+00  0.00000000000E+00 -0.27307107682E+03  0.28145982336E+04  0.28013202965E+04 0.  0.
        2    1    3    3  502    0 -0.10883368393E+04  0.53845998697E+03  0.56493742475E+03  0.13392425199E+04  0.25500000920E-02 0.  1.
       -2    1    3    3    0  502  0.10883368393E+04 -0.53845998697E+03 -0.83800850157E+03  0.14753557137E+04  0.25500000920E-02 0. -1.
</event>
<event>
 5   0  0.3502141E-07  0.2801059E+04  0.7818609E-02  0.8302940E-01
        2   -1    0    0  501    0  0.00000000000E+00  0.00000000000E+00  0.13633456991E+04  0.13633456991E+04  0.25500000920E-02 0.  1.
       -2   -1    0    0    0  501  0.00000000000E+00  0.00000000000E+00 -0.14387270252E+04  0.14387270252E+04  0.25500000920E-02 0. -1.
    10030    2    1    2    0    0  0.00000000000E+00  0.00000000000E+00 -0.75381326027E+02  0.28020727243E+04  0.28010585870E+04 0.  0.
        3    1    3    3  502    0 -0.12433400873E+04  0.55587489599E+03 -0.36429136201E+03  0.14098225701E+04  0.10100000352E+00 0. -1.
       -3    1    3    3    0  502  0.12433400873E+04 -0.55587489599E+03  0.28891003598E+03  0.13922501541E+04  0.10100000352E+00 0.  1.
</event>
<event>
 5   0  0.3557628E-07  0.2799435E+04  0.7818609E-02  0.8303444E-01
        2   -1    0    0  501    0  0.00000000000E+00  0.00000000000E+00  0.15072899581E+04  0.15072899581E+04  0.25500000920E-02 0. -1.
       -2   -1    0    0    0  501  0.00000000000E+00  0.00000000000E+00 -0.12998223753E+04  0.12998223753E+04  0.25500000920E-02 0.  1.
    10030    2    1    2    0    0  0.00000000000E+00  0.00000000000E+00  0.20746758274E+03  0.28071123334E+04  0.27994350956E+04 0.  0.
        5    1    3    3  502    0  0.60433970194E+02 -0.99168354850E+03  0.10923882924E+04  0.14766254760E+04  0.46999998093E+01 0. -1.
       -5    1    3    3    0  502 -0.60433970194E+02  0.99168354850E+03 -0.88492070968E+03  0.13304868573E+04  0.46999998093E+01 0.  1.
</event>
<event>
 5   0  0.1361741E-07  0.2804635E+04  0.7818609E-02  0.8301831E-01
        1   -1    0    0  501    0  0.00000000000E+00  0.00000000000E+00  0.18776976318E+04  0.18776976318E+04  0.50400001928E-02 0.  1.
       -1   -1    0    0    0  501  0.00000000000E+00  0.00000000000E+00 -0.10472903189E+04  0.10472903189E+04  0.50400001928E-02 0. -1.
    10030    2    1    2    0    0  0.00000000000E+00  0.00000000000E+00  0.83040731287E+03  0.29249879507E+04  0.28046351290E+04 0.  0.
        5    1    3    3  502    0 -0.93184181398E+03  0.34694744457E+03  0.14464590575E+04  0.17552685238E+04  0.46999998093E+01 0.  1.
       -5    1    3    3    0  502  0.93184181398E+03 -0.34694744457E+03 -0.61605174466E+03  0.11697194269E+04  0.46999998093E+01 0. -1.
</event>
<event>
 5   0  0.1374680E-07  0.2799427E+04  0.7818609E-02  0.8303446E-01
       -1   -1    0    0    0  501  0.00000000000E+00  0.00000000000E+00  0.82263453961E+03  0.82263453962E+03  0.50400001928E-02 0.  1.
        1   -1    0    0  501    0  0.00000000000E+00  0.00000000000E+00 -0.23816139023E+04  0.23816139023E+04  0.50400001928E-02 0. -1.
    10030    2    1    2    0    0  0.00000000000E+00  0.00000000000E+00 -0.15589793627E+04  0.32042484419E+04  0.27994269814E+04 0.  0.
        3    1    3    3  502    0  0.29796394412E+03 -0.95499263116E+03 -0.19000401950E+04  0.21473113865E+04  0.10100000352E+00 0. -1.
       -3    1    3    3    0  502 -0.29796394412E+03  0.95499263116E+03  0.34106083236E+03  0.10569370554E+04  0.10100000352E+00 0.  1.
</event>
<event>
 5   0  0.3502141E-07  0.2802724E+04  0.7818609E-02  0.8302423E-01
       -2   -1    0    0    0  501  0.00000000000E+00  0.00000000000E+00  0.76198772267E+03  0.76198772267E+03  0.25500000920E-02 0. -1.
        2   -1    0    0  501    0  0.00000000000E+00  0.00000000000E+00 -0.25772264306E+04  0.25772264306E+04  0.25500000920E-02 0.  1.
    10030    2    1    2    0    0  0.00000000000E+00  0.00000000000E+00 -0.18152387079E+04  0.33392141533E+04  0.28027236030E+04 0.  0.
        3    1    3    3  502    0  0.51089208098E+03  0.62390164296E+03 -0.22731059972E+04  0.24119027475E+04  0.10100000352E+00 0.  1.
       -3    1    3    3    0  502 -0.51089208098E+03 -0.62390164296E+03  0.45786728929E+03  0.92731140579E+03  0.10100000352E+00 0. -1.
</event>
<event>
 5   0  0.3522569E-07  0.2800760E+04  0.7818609E-02  0.8303032E-01
        2   -1    0    0  501    0  0.00000000000E+00  0.00000000000E+00  0.23352374165E+04  0.23352374165E+04  0.25500000920E-02 0. -1.
       -2   -1    0    0    0  501  0.00000000000E+00  0.00000000000E+00 -0.83977089730E+03  0.83977089730E+03  0.25500000920E-02 0.  1.
    10030    2    1    2    0    0  0.00000000000E+00  0.00000000000E+00  0.14954665192E+04  0.31750083138E+04  0.28007601973E+04 0.  0.
        1    1    3    3  502    0 -0.96915472380E+02 -0.46117351666E+03  0.22426519891E+04  0.22916285837E+04  0.50400001928E-02 0. -1.
       -1    1    3    3    0  502  0.96915472380E+02  0.46117351666E+03 -0.74718546986E+03  0.88337973016E+03  0.50400001928E-02 0.  1.
</event>
<event>
 5   0  0.3522569E-07  0.2800169E+04  0.7818609E-02  0.8303216E-01
        2   -1    0    0  501    0  0.00000000000E+00  0.00000000000E+00  0.13028628715E+04  0.13028628715E+04  0.25500000920E-02 0. -1.
       -2   -1    0    0    0  501  0.00000000000E+00  0.00000000000E+00 -0.15045611542E+04  0.15045611542E+04  0.25500000920E-02 0.  1.
    10030    2    1    2    0    0  0.00000000000E+00  0.00000000000E+00 -0.20169828269E+03  0.28074240256E+04  0.28001691846E+04 0.  0.
        1    1    3    3  502    0  0.18847266253E+03  0.52177843206E+03 -0.13896609473E+04  0.14963061937E+04  0.50400001928E-02 0.  1.
       -1    1    3    3    0  502 -0.18847266253E+03 -0.52177843206E+03  0.11879626646E+04  0.13111178320E+04  0.50400001928E-02 0. -1.
</event>
<event>
 5   0  0.3571498E-07  0.2800165E+04  0.7818609E-02  0.8303217E-01
       -2   -1    0    0    0  501  0.00000000000E+00  0.00000000000E+00  0.13528076187E+04  0.13528076187E+04  0.25500000920E-02 0. -1.
        2   -1    0    0  501    0  0.00000000000E+00  0.00000000000E+00 -0.14490089318E+04  0.14490089318E+04  0.25500000920E-02 0.  1.
    10030    2    1    2    0    0  0.00000000000E+00  0.00000000000E+00 -0.96201313074E+02  0.28018165505E+04  0.28001645112E+04 0.  0.
        2    1    3    3  502    0  0.14000457766E+04 -0.10106723903E+02 -0.48095576930E+02  0.14009081008E+04  0.25500000920E-02 0.  1.
       -2    1    3    3    0  502 -0.14000457766E+04  0.10106723903E+02 -0.48105736144E+02  0.14009084496E+04  0.25500000920E-02 0. -1.
</event>
<event>
 5   0  0.1346049E-07  0.2799512E+04  0.7818609E-02  0.8303420E-01
        1   -1    0    0  501    0  0.00000000000E+00  0.00000000000E+00  0.17939031295E+04  0.17939031295E+04  0.50400001928E-02 0. -1.
       -1   -1    0    0    0  501  0.00000000000E+00  0.00000000000E+00 -0.10922090848E+04  0.10922090848E+04  0.50400001928E-02 0.  1.
    10030    2    1    2    0    0  0.00000000000E+00  0.00000000000E+00  0.70169404466E+03  0.28861122143E+04  0.27995123113E+04 0.  0.
        1    1    3    3  502    0 -0.42097672994E+03 -0.65103547599E+03 -0.85064386053E+03  0.11509403006E+04  0.50400001928E-02 0.  1.
       -1    1    3    3    0  502  0.42097672994E+03  0.65103547599E+03  0.15523379052E+04  0.17351719137E+04  0.50400001928E-02 0. -1.
</event>
<event>
 5   0  0.3522569E-07  0.2799625E+04  0.7818609E-02  0.8303385E-01
        2   -1    0    0  501    0  0.00000000000E+00  0.00000000000E+00  0.16829933037E+04  0.16829933037E+04  0.25500000920E-02 0. -1.
       -2   -1    0    0    0  501  0.00000000000E+00  0.00000000000E+00 -0.11642794568E+04  0.11642794568E+04  0.25500000920E-02 0.  1.
    10030    2    1    2    0    0  0.00000000000E+00  0.00000000000E+00  0.51871384685E+03  0.28472727605E+04  0.27996246387E+04 0.  0.
        1    1    3    3  502    0 -0.89603084320E+03  0.59099654641E+03  0.11731625488E+04  0.15901127494E+04  0.50400001928E-02 0. -1.
       -1    1    3    3    0  502  0.89603084320E+03 -0.59099654641E+03 -0.65444870199E+03  0.12571600111E+04  0.50400001928E-02 0.  1.
</event>
<event>
 5   0  0.3406920E-07  0.2800228E+04  0.7818609E-02  0.8303198E-01
       -2   -1    0    0    0  501  0.00000000000E+00  0.00000000000E+00  0.13188743623E+04  0.13188743623E+04  0.25500000920E-02 0.  1.
        2   -1    0    0  501    0  0.00000000000E+00  0.00000000000E+00 -0.14863578116E+04  0.14863578116E+04  0.25500000920E-02 0. -1.
    10030    2    1    2    0    0  0.00000000000E+00  0.00000000000E+00 -0.16748344934E+03  0.28052321739E+04  0.28002279985E+04 0.  0.
        4    1    3    3  502    0 -0.45873397423E+03 -0.77527000184E+02 -0.14066584545E+04  0.14815994450E+04  0.12699999809E+01 0. -1.
       -4    1    3    3    0  502  0.45873397423E+03  0.77527000184E+02  0.12391750051E+04  0.13236327289E+04  0.12699999809E+01 0.  1.
</event>
<event>
 5   0  0.3502141E-07  0.2800438E+04  0.7818609E-02  0.8303132E-01
       -2   -1    0    0    0  501  0.00000000000E+00  0.00000000000E+00  0.15533265631E+04  0.15533265631E+04  0.25500000920E-02 0. -1.
        2   -1    0    0  501    0  0.00000000000E+00  0.00000000000E+00 -0.12622028062E+04  0.12622028062E+04  0.25500000920E-02 0.  1.
    10030    2    1    2    0    0  0.00000000000E+00  0.00000000000E+00  0.29112375689E+03  0.28155293694E+04  0.28004379279E+04 0.  0.
        3    1    3    3  502    0 -0.37980335737E+03 -0.95396110135E+03 -0.81157726110E+03  0.13087971707E+04  0.10100000352E+00 0.  1.
       -3    1    3    3    0  502  0.37980335737E+03  0.95396110135E+03  0.11027010180E+04  0.15067321986E+04  0.10100000352E+00 0. -1.
</event>
<event>
 5   0  0.1361741E-07  0.2797734E+04  0.7818609E-02  0.8303972E-01
        1   -1    0    0  501    0  0.00000000000E+00  0.00000000000E+00  0.12701862971E+04  0.12701862972E+04  0.50400001928E-02 0.  1.
       -1   -1    0    0    0  501  0.00000000000E+00  0.00000000000E+00 -0.15405838677E+04  0.15405838677E+04  0.50400001928E-02 0. -1.
    10030    2    1    2    0    0  0.00000000000E+00  0.00000000000E+00 -0.27039757059E+03  0.28107701649E+04  0.27977337389E+04 0.  0.
        5    1    3    3  502    0  0.66862696622E+03 -0.11090088952E+04  0.39626870693E+03  0.13542576297E+04  0.46999998093E+01 0.  1.
       -5    1    3    3    0  502 -0.66862696622E+03  0.11090088952E+04 -0.66666627752E+03  0.14565125352E+04  0.46999998093E+01 0. -1.
</event>
<event>
 5   0  0.1366235E-07  0.2800562E+04  0.7818609E-02  0.8303094E-01
       -1   -1    0    0    0  501  0.00000000000E+00  0.00000000000E+00  0.14231690221E+04  0.14231690221E+04  0.50400001928E-02 0.  1.
        1   -1    0    0  501    0  0.00000000000E+00  0.00000000000E+00 -0.13777612357E+04  0.13777612357E+04  0.50400001928E-02 0. -1.
    10030    2    1    2    0    0  0.00000000000E+00  0.00000000000E+00  0.45407786415E+02  0.28009302578E+04  0.28005621654E+04 0.  0.
        2    1    3    3  502    0 -0.11453767213E+04  0.14776027846E+03  0.81468307533E+03  0.14133044424E+04  0.25500000920E-02 0.  1.
       -2    1    3    3    0  502  0.11453767213E+04 -0.14776027846E+03 -0.76927528891E+03  0.13876258155E+04  0.25500000920E-02 0. -1.
</event>
<event>
 5   0  0.3522569E-07  0.2799583E+04  0.7818609E-02  0.8303398E-01
       -2   -1    0    0    0  501  0.00000000000E+00  0.00000000000E+00  0.16018298619E+04  0.16018298619E+04  0.25500000920E-02 0.  1.
        2   -1    0    0  501    0  0.00000000000E+00  0.00000000000E+00 -0.12232357834E+04  0.12232357834E+04  0.25500000920E-02 0. -1.
    10030    2    1    2    0    0  0.00000000000E+00  0.00000000000E+00  0.37859407850E+03  0.28250656454E+04  0.27995825447E+04 0.  0.
        1    1    3    3  502    0  0.41277507280E+03 -0.87569891607E+03  0.12095309483E+04  0.15492569081E+04  0.50400001928E-02 0.  1.
       -1    1    3    3    0  502 -0.41277507280E+03  0.87569891607E+03 -0.83093686985E+03  0.12758087372E+04  0.50400001928E-02 0. -1.
</event>
<event>
 5   0  0.3406920E-07  0.2800154E+04  0.7818609E-02  0.8303221E-01
        2   -1    0    0  501    0  0.00000000000E+00  0.00000000000E+00  0.15156596918E+04  0.15156596918E+04  0.25500000920E-02 0. -1.
       -2   -1    0    0    0  501  0.00000000000E+00  0.00000000000E+00 -0.12933084750E+04  0.12933084750E+04  0.25500000920E-02 0.  1.
    10030    2    1    2    0    0  0.00000000000E+00  0.00000000000E+00  0.22235121673E+03  0.28089681668E+04  0.28001539419E+04 0.  0.
        4    1    3    3  502    0  0.48831113163E+03  0.81555587048E+03 -0.91998748096E+03  0.13228596740E+04  0.12699999809E+01 0.  1.
       -4    1    3    3    0  502 -0.48831113163E+03 -0.81555587048E+03  0.11423386977E+04  0.14861084928E+04  0.12699999809E+01 0. -1.
</event>
<event>
 5   0  0.3502141E-07  0.2800372E+04  0.7818609E-02  0.8303153E-01
       -2   -1    0    0    0  501  0.00000000000E+00  0.00000000000E+00  0.92559748309E+03  0.92559748310E+03  0.25500000920E-02 0.  1.
        2   -1    0    0  501    0  0.00000000000E+00  0.00000000000E+00 -0.21181132513E+04  0.21181132513E+04  0.25500000920E-02 0. -1.
    10030    2    1    2    0    0  0.00000000000E+00  0.00000000000E+00 -0.11925157682E+04  0.30437107344E+04  0.28003716141E+04 0.  0.
        3    1    3    3  502    0  0.55593221722E+03 -0.89083908162E+03  0.41043565473E+03  0.11274361784E+04  0.10100000352E+00 0.  1.
       -3    1    3    3    0  502 -0.55593221722E+03  0.89083908162E+03 -0.16029514229E+04  0.19162745560E+04  0.10100000352E+00 0. -1.
</event>
<event>
 5   0  0.1346049E-07  0.2799566E+04  0.7818609E-02  0.8303403E-01
        1   -1    0    0  501    0  0.00000000000E+00  0.00000000000E+00  0.15906847175E+04  0.15906847175E+04  0.50400001928E-02 0.  1.
       -1   -1    0    0    0  501  0.00000000000E+00  0.00000000000E+00 -0.12317921807E+04  0.12317921807E+04  0.50400001928E-02 0. -1.
    10030    2    1    2    0    0  0.00000000000E+00  0.00000000000E+00  0.35889253682E+03  0.28224768982E+04  0.27995663928E+04 0.  0.
        1    1    3    3  502    0 -0.48832892017E+03  0.12180665850E+04 -0.31161434169E+03  0.13487975525E+04  0.50400001928E-02 0. -1.
       -1    1    3    3    0  502  0.48832892017E+03 -0.12180665850E+04  0.67050687851E+03  0.14736793457E+04  0.50400001928E-02 0.  1.
</event>
<event>
 5   0  0.3571498E-07  0.2796092E+04  0.7818609E-02  0.8304483E-01
        2   -1    0    0  501    0  0.00000000000E+00  0.00000000000E+00  0.19217190734E+04  0.19217190734E+04  0.25500000920E-02 0. -1.
       -2   -1    0    0    0  501  0.00000000000E+00  0.00000000000E+00 -0.10170753891E+04  0.10170753891E+04  0.25500000920E-02 0.  1.
    10030    2    1    2    0    0  0.00000000000E+00  0.00000000000E+00  0.90464368432E+03  0.29387944625E+04  0.27960923978E+04 0.  0.
        2    1    3    3  502    0  0.63258067601E+03  0.59718916594E+03 -0.69794596209E+03  0.11153124126E+04  0.25500000920E-02 0.  1.
       -2    1    3    3    0  502 -0.63258067601E+03 -0.59718916594E+03  0.16025896464E+04  0.18234820499E+04  0.25500000920E-02 0. -1.
</event>
<event>
 5   0  0.1346049E-07  0.2802601E+04  0.7818609E-02  0.8302461E-01
       -1   -1    0    0    0  501  0.00000000000E+00  0.00000000000E+00  0.15049603703E+04  0.15049603703E+04  0.50400001928E-02 0. -1.
        1   -1    0    0  501    0  0.00000000000E+00  0.00000000000E+00 -0.13047801560E+04  0.13047801560E+04  0.50400001928E-02 0.  1.
    10030    2    1    2    0    0  0.00000000000E+00  0.00000000000E+00  0.20018021438E+03  0.28097405263E+04  0.28026005258E+04 0.  0.
        1    1    3    3  502    0  0.84627345064E+03  0.94410065934E+03  0.69838313459E+03  0.14474957032E+04  0.50400001928E-02 0. -1.
       -1    1    3    3    0  502 -0.84627345064E+03 -0.94410065934E+03 -0.49820292021E+03  0.13622448231E+04  0.50400001928E-02 0.  1.
</event>
<event>
 5   0  0.1366235E-07  0.2797764E+04  0.7818609E-02  0.8303963E-01
        1   -1    0    0  501    0  0.00000000000E+00  0.00000000000E+00  0.14323814407E+04  0.14323814407E+04  0.50400001928E-02 0. -1.
       -1   -1    0    0    0  501  0.00000000000E+00  0.00000000000E+00 -0.13661659964E+04  0.13661659964E+04  0.50400001928E-02 0.  1.
    10030    2    1    2    0    0  0.00000000000E+00  0.00000000000E+00  0.66215444247E+02  0.27985474371E+04  0.27977639773E+04 0.  0.
        2    1    3    3  502    0 -0.10439706145E+04  0.28468659995E+02 -0.89784388497E+03  0.13772468008E+04  0.25500000920E-02 0.  1.
       -2    1    3    3    0  502  0.10439706145E+04 -0.28468659995E+02  0.96405932921E+03  0.14213006363E+04  0.25500000920E-02 0. -1.
</event>
<event>
 5   0  0.3557628E-07  0.2802854E+04  0.7818609E-02  0.8302383E-01
        2   -1    0    0  501    0  0.00000000000E+00  0.00000000000E+00  0.19751087657E+04  0.19751087657E+04  0.25500000920E-02 0. -1.
       -2   -1    0    0    0  501  0.00000000000E+00  0.00000000000E+00 -0.99437417030E+03  0.99437417030E+03  0.25500000920E-02 0.  1.
    10030    2    1    2    0    0  0.00000000000E+00  0.00000000000E+00  0.98073459537E+03  0.29694829360E+04  0.28028536459E+04 0.  0.
        5    1    3    3  502    0 -0.28302744022E+03  0.13041651481E+04  0.94361350508E+03  0.16344356220E+04  0.46999998093E+01 0. -1.
       -5    1    3    3    0  502  0.28302744022E+03 -0.13041651481E+04  0.37121090293E+02  0.13350473140E+04  0.46999998093E+01 0.  1.
</event>
<event>
 5   0  0.1346049E-07  0.2806867E+04  0.7818609E-02  0.8301139E-01
        1   -1    0    0  501    0  0.00000000000E+00  0.00000000000E+00  0.14708469833E+04  0.14708469833E+04  0.50400001928E-02 0. -1.
       -1   -1    0    0    0  501  0.00000000000E+00  0.00000000000E+00 -0.13391102306E+04  0.13391102306E+04  0.50400001928E-02 0.  1.
    10030    2    1    2    0    0  0.00000000000E+00  0.00000000000E+00  0.13173675275E+03  0.28099572139E+04  0.28068674661E+04 0.  0.
        1    1    3    3  502    0  0.99069220493E+03 -0.39989447004E+03  0.97694687807E+03  0.14476918991E+04  0.50400001928E-02 0. -1.
       -1    1    3    3    0  502 -0.99069220493E+03  0.39989447004E+03 -0.84521012532E+03  0.13622653148E+04  0.50400001928E-02 0.  1.
</event>
<event>
 5   0  0.3406920E-07  0.2799106E+04  0.7818609E-02  0.8303546E-01
       -2   -1    0    0    0  501  0.00000000000E+00  0.00000000000E+00  0.10951942069E+04  0.10951942069E+04  0.25500000920E-02 0.  1.
        2   -1    0    0  501    0  0.00000000000E+00  0.00000000000E+00 -0.17884948057E+04  0.17884948057E+04  0.25500000920E-02 0. -1.
    10030    2    1    2    0    0  0.00000000000E+00  0.00000000000E+00 -0.69330059885E+03  0.28836890126E+04  0.27991063933E+04 0.  0.
        4    1    3    3  502    0 -0.76450528454E+03  0.45497787883E+03 -0.14597023786E+04  0.17094460645E+04  0.12699999809E+01 0. -1.
       -4    1    3    3    0  502  0.76450528454E+03 -0.45497787883E+03  0.76640177979E+03  0.11742429481E+04  0.12699999809E+01 0.  1.
</event>
<event>
 5   0  0.1173363E-07  0.2800392E+04  0.7818609E-02  0.8303147E-01
        3   -1    0    0  501    0  0.00000000000E+00  0.00000000000E+00  0.19127790983E+04  0.19127791009E+04  0.10100000352E+00 0. -1.
       -3   -1    0    0    0  501  0.00000000000E+00  0.00000000000E+00 -0.10249741454E+04  0.10249741504E+04  0.10100000352E+00 0.  1.
    10030    2    1    2    0    0  0.00000000000E+00  0.00000000000E+00  0.88780495288E+03  0.29377532513E+04  0.28003922103E+04 0.  0.
        3    1    3    3  502    0  0.67306367181E+03  0.59796340212E+03 -0.68106638224E+03  0.11289049401E+04  0.10100000352E+00 0.  1.
       -3    1    3    3    0  502 -0.67306367181E+03 -0.59796340212E+03  0.15688713351E+04  0.18088483112E+04  0.10100000352E+00 0. -1.
</event>
<event>
 5   0  0.3502141E-07  0.2799904E+04  0.7818609E-02  0.8303298E-01
        2   -1    0    0  501    0  0.00000000000E+00  0.00000000000E+00  0.13025810357E+04  0.13025810357E+04  0.25500000920E-02 0. -1.
       -2   -1    0    0    0  501  0.00000000000E+00  0.00000000000E+00 -0.15046019313E+04  0.15046019313E+04  0.25500000920E-02 0.  1.
    10030    2    1    2    0    0  0.00000000000E+00  0.00000000000E+00 -0.20202089554E+03  0.28071829670E+04  0.27999042426E+04 0.  0.
        3    1    3    3  502    0  0.10380124855E+04 -0.56437164009E+03 -0.85388244236E+03  0.14577724458E+04  0.10100000352E+00 0.  1.
       -3    1    3    3    0  502 -0.10380124855E+04  0.56437164009E+03  0.65186154682E+03  0.13494105212E+04  0.10100000352E+00 0. -1.
</event>
<event>
 5   0  0.3502141E-07  0.2799067E+04  0.7818609E-02  0.8303558E-01
       -2   -1    0    0    0  501  0.00000000000E+00  0.00000000000E+00  0.78485626835E+03  0.78485626835E+03  0.25500000920E-02 0.  1.
        2   -1    0    0  501    0  0.00000000000E+00  0.00000000000E+00 -0.24956087540E+04  0.24956087540E+04  0.25500000920E-02 0. -1.
    10030    2    1    2    0    0  0.00000000000E+00  0.00000000000E+00 -0.17107524857E+04  0.32804650224E+04  0.27990671117E+04 0.  0.
        3    1    3    3  502    0 -0.53637937650E+03 -0.82099233943E+03 -0.20255803018E+04  0.22504903524E+04  0.10100000352E+00 0. -1.
       -3    1    3    3    0  502  0.53637937650E+03  0.82099233943E+03  0.31482781608E+03  0.10299746700E+04  0.10100000352E+00 0.  1.
</event>
<event>
 5   0  0.1374680E-07  0.2801874E+04  0.7818609E-02  0.8302687E-01
        1   -1    0    0  501    0  0.00000000000E+00  0.00000000000E+00  0.15309348625E+04  0.15309348625E+04  0.50400001928E-02 0. -1.
       -1   -1    0    0    0  501  0.00000000000E+00  0.00000000000E+00 -0.12819776748E+04  0.12819776748E+04  0.50400001928E-02 0.  1.
    10030    2    1    2    0    0  0.00000000000E+00  0.00000000000E+00  0.24895718771E+03  0.28129125372E+04  0.28018738838E+04 0.  0.
        3    1    3    3  502    0 -0.29129814491E+03  0.22470555083E+03 -0.12326151631E+04  0.12863465102E+04  0.10100000352E+00 0.  1.
       -3    1    3    3    0  502  0.29129814491E+03 -0.22470555083E+03  0.14815723509E+04  0.15265660270E+04  0.10100000352E+00 0. -1.
</event>
<event>
 5   0  0.3571498E-07  0.2800346E+04  0.7818609E-02  0.8303161E-01
        2   -1    0    0  501    0  0.00000000000E+00  0.00000000000E+00  0.82427528561E+03  0.82427528562E+03  0.25500000920E-02 0. -1.
       -2   -1    0    0    0  501  0.00000000000E+00  0.00000000000E+00 -0.23784341244E+04  0.23784341244E+04  0.25500000920E-02 0.  1.
    10030    2    1    2    0    0  0.00000000000E+00  0.00000000000E+00 -0.15541588388E+04  0.32027094101E+04  0.28003460267E+04 0.  0.
        2    1    3    3  502    0  0.37701225314E+03 -0.41488550637E+03  0.69032316205E+03  0.88927739794E+03  0.25500000920E-02 0. -1.
       -2    1    3    3    0  502 -0.37701225314E+03  0.41488550637E+03 -0.22444820009E+04  0.23134320121E+04  0.25500000920E-02 0.  1.
</event>
<event>
 5   0  0.3406920E-07  0.2804394E+04  0.7818609E-02  0.8301905E-01
       -2   -1    0    0    0  501  0.00000000000E+00  0.00000000000E+00  0.85809465439E+03  0.85809465439E+03  0.25500000920E-02 0. -1.
        2   -1    0    0  501    0  0.00000000000E+00  0.00000000000E+00 -0.22913055958E+04  0.22913055958E+04  0.25500000920E-02 0.  1.
    10030    2    1    2    0    0  0.00000000000E+00  0.00000000000E+00 -0.14332109414E+04  0.31494002501E+04  0.28043944682E+04 0.  0.
        4    1    3    3  502    0  0.10438718672E+04  0.79202346823E+03 -0.15600892255E+03  0.13195870741E+04  0.12699999809E+01 0.  1.
       -4    1    3    3    0  502 -0.10438718672E+04 -0.79202346823E+03 -0.12772020188E+04  0.18298131760E+04  0.12699999809E+01 0. -1.
</event>
<event>
 5   0  0.3406920E-07  0.2800441E+04  0.7818609E-02  0.8303131E-01
        2   -1    0    0  501    0  0.00000000000E+00  0.00000000000E+00  0.23206752849E+04  0.23206752849E+04  0.25500000920E-02 0. -1.
       -2   -1    0    0    0  501  0.00000000000E+00  0.00000000000E+00 -0.84484803192E+03  0.84484803192E+03  0.25500000920E-02 0.  1.
    10030    2    1    2    0    0  0.00000000000E+00  0.00000000000E+00  0.14758272530E+04  0.31655233168E+04  0.28004413561E+04 0.  0.
        4    1    3    3  502    0  0.13074553790E+04 -0.44438258387E+03  0.47596884083E+03  0.14606380110E+04  0.12699999809E+01 0.  1.
       -4    1    3    3    0  502 -0.13074553790E+04  0.44438258387E+03  0.99985841217E+03  0.17048853058E+04  0.12699999809E+01 0. -1.
</event>
<event>
 5   0  0.1357902E-07  0.2799368E+04  0.7818609E-02  0.8303465E-01
        1   -1    0    0  501    0  0.00000000000E+00  0.00000000000E+00  0.14597177718E+04  0.14597177718E+04  0.50400001928E-02 0.  1.
       -1   -1    0    0    0  501  0.00000000000E+00  0.00000000000E+00 -0.13421194985E+04  0.13421194985E+04  0.50400001928E-02 0. -1.
    10030    2    1    2    0    0  0.00000000000E+00  0.00000000000E+00  0.11759827328E+03  0.28018372703E+04  0.27993682743E+04 0.  0.
        4    1    3    3  502    0 -0.75527431446E+03  0.39458943590E+03  0.11701720902E+04  0.14475650060E+04  0.12699999809E+01 0.  1.
       -4    1    3    3    0  502  0.75527431446E+03 -0.39458943590E+03 -0.10525738169E+04  0.13542722643E+04  0.12699999809E+01 0. -1.
</event>
<event>
 5   0  0.1361741E-07  0.2794390E+04  0.7818609E-02  0.8305012E-01
        1   -1    0    0  501    0  0.00000000000E+00  0.00000000000E+00  0.18197847254E+04  0.18197847254E+04  0.50400001928E-02 0. -1.
       -1   -1    0    0    0  501  0.00000000000E+00  0.00000000000E+00 -0.10727392148E+04  0.10727392149E+04  0.50400001928E-02 0.  1.
    10030    2    1    2    0    0  0.00000000000E+00  0.00000000000E+00  0.74704551056E+03  0.28925239403E+04  0.27943904076E+04 0.  0.
        5    1    3    3  502    0 -0.73274284532E+03 -0.68821315504E+03  0.13779515791E+04  0.17056734941E+04  0.46999998093E+01 0. -1.
       -5    1    3    3    0  502  0.73274284532E+03  0.68821315504E+03 -0.63090606858E+03  0.11868504461E+04  0.46999998093E+01 0.  1.
</event>
<event>
 5   0  0.1346049E-07  0.2799720E+04  0.7818609E-02  0.8303355E-01
        1   -1    0    0  501    0  0.00000000000E+00  0.00000000000E+00  0.15499204856E+04  0.15499204856E+04  0.50400001928E-02 0. -1.
       -1   -1    0    0    0  501  0.00000000000E+00  0.00000000000E+00 -0.12643280973E+04  0.12643280974E+04  0.50400001928E-02 0.  1.
    10030    2    1    2    0    0  0.00000000000E+00  0.00000000000E+00  0.28559238821E+03  0.28142485829E+04  0.27997199993E+04 0.  0.
        1    1    3    3  502    0 -0.93549390989E+03  0.81902188549E+03 -0.50370723849E+03  0.13415165621E+04  0.50400001928E-02 0.  1.
       -1    1    3    3    0  502  0.93549390989E+03 -0.81902188549E+03  0.78929962670E+03  0.14727320208E+04  0.50400001928E-02 0. -1.
</event>
<event>
 5   0  0.1357902E-07  0.2799828E+04  0.7818609E-02  0.8303322E-01
       -1   -1    0    0    0  501  0.00000000000E+00  0.00000000000E+00  0.17047307680E+04  0.17047307680E+04  0.50400001928E-02 0.  1.
        1   -1    0    0  501    0  0.00000000000E+00  0.00000000000E+00 -0.11496007085E+04  0.11496007085E+04  0.50400001928E-02 0. -1.
    10030    2    1    2    0    0  0.00000000000E+00  0.00000000000E+00  0.55513005951E+03  0.28543314766E+04  0.27998283510E+04 0.  0.
        4    1    3    3  502    0  0.62256093311E+02 -0.10133414719E+04 -0.70505551836E+03  0.12360589212E+04  0.12699999809E+01 0. -1.
       -4    1    3    3    0  502 -0.62256093311E+02  0.10133414719E+04  0.12601855779E+04  0.16182725554E+04  0.12699999809E+01 0.  1.
</event>
<event>
 5   0  0.1346049E-07  0.2799703E+04  0.7818609E-02  0.8303360E-01
       -1   -1    0    0    0  501  0.00000000000E+00  0.00000000000E+00  0.86584460979E+03  0.86584460981E+03  0.50400001928E-02 0. -1.
        1   -1    0    0  501    0  0.00000000000E+00  0.00000000000E+00 -0.22632061904E+04  0.22632061904E+04  0.50400001928E-02 0.  1.
    10030    2    1    2    0    0  0.00000000000E+00  0.00000000000E+00 -0.13973615806E+04  0.31290508002E+04  0.27997034706E+04 0.  0.
        1    1    3    3  502    0  0.41727380328E+02  0.56523575077E+03  0.73187308976E+03  0.92567318625E+03  0.50400001928E-02 0. -1.
       -1    1    3    3    0  502 -0.41727380328E+02 -0.56523575077E+03 -0.21292346704E+04  0.22033776140E+04  0.50400001928E-02 0.  1.
</event>
<event>
 5   0  0.3571498E-07  0.2797766E+04  0.7818609E-02  0.8303962E-01
        2   -1    0    0  501    0  0.00000000000E+00  0.00000000000E+00  0.20652779279E+04  0.20652779279E+04  0.25500000920E-02 0. -1.
       -2   -1    0    0    0  501  0.00000000000E+00  0.00000000000E+00 -0.94751103434E+03  0.94751103435E+03  0.25500000920E-02 0.  1.
    10030    2    1    2    0    0  0.00000000000E+00  0.00000000000E+00  0.11177668936E+04  0.30127889623E+04  0.27977659843E+04 0.  0.
        2    1    3    3  502    0 -0.99609466961E+03  0.59634618542E+03  0.13992723859E+04  0.18181849669E+04  0.25500000920E-02 0. -1.
       -2    1    3    3    0  502  0.99609466961E+03 -0.59634618542E+03 -0.28150549232E+03  0.11946039954E+04  0.25500000920E-02 0.  1.
</event>
<event>
 5   0  0.1357902E-07  0.2806414E+04  0.7818609E-02  0.8301280E-01
       -1   -1    0    0    0  501  0.00000000000E+00  0.00000000000E+00  0.82907358033E+03  0.82907358034E+03  0.50400001928E-02 0.  1.
        1   -1    0    0  501    0  0.00000000000E+00  0.00000000000E+00 -0.23749284420E+04  0.23749284420E+04  0.50400001928E-02 0. -1.
    10030    2    1    2    0    0  0.00000000000E+00  0.00000000000E+00 -0.15458548616E+04  0.32040020223E+04  0.28064143860E+04 0.  0.
        4    1    3    3  502    0 -0.37775128021E+03 -0.74680815975E+03 -0.20588009803E+04  0.22224044516E+04  0.12699999809E+01 0. -1.
       -4    1    3    3    0  502  0.37775128021E+03  0.74680815975E+03  0.51294611869E+03  0.98159757067E+03  0.12699999809E+01 0.  1.
</event>
<event>
 5   0  0.3406920E-07  0.2801338E+04  0.7818609E-02  0.8302853E-01
       -2   -1    0    0    0  501  0.00000000000E+00  0.00000000000E+00  0.17175534702E+04  0.17175534702E+04  0.25500000920E-02 0.  1.
        2   -1    0    0  501    0  0.00000000000E+00  0.00000000000E+00 -0.11422493081E+04  0.11422493081E+04  0.25500000920E-02 0. -1.
    10030    2    1    2    0    0  0.00000000000E+00  0.00000000000E+00  0.57530416209E+03  0.28598027782E+04  0.28013384393E+04 0.  0.
        4    1    3    3  502    0 -0.41546450457E+03  0.90509019625E+03  0.12931307305E+04  0.16321726983E+04  0.12699999809E+01 0.  1.
       -4    1    3    3    0  502  0.41546450457E+03 -0.90509019625E+03 -0.71782656846E+03  0.12276300799E+04  0.12699999809E+01 0. -1.
</event>
<event>
 5   0  0.1346049E-07  0.2800532E+04  0.7818609E-02  0.8303103E-01
       -1   -1    0    0    0  501  0.00000000000E+00  0.00000000000E+00  0.11472183709E+04  0.11472183709E+04  0.50400001928E-02 0.  1.
        1   -1    0    0  501    0  0.00000000000E+00  0.00000000000E+00 -0.17091294860E+04  0.17091294861E+04  0.50400001928E-02 0. -1.
    10030    2    1    2    0    0  0.00000000000E+00  0.00000000000E+00 -0.56191111514E+03  0.28563478570E+04  0.28005319100E+04 0.  0.
        1    1    3    3  502    0  0.13934992322E+04  0.13688596577E+03 -0.29413071432E+03  0.14307657931E+04  0.50400001928E-02 0. -1.
       -1    1    3    3    0  502 -0.13934992322E+04 -0.13688596577E+03 -0.26778040082E+03  0.14255820638E+04  0.50400001928E-02 0.  1.
</event>
<event>
 5   0  0.1374680E-07  0.2801320E+04  0.7818609E-02  0.8302859E-01
       -1   -1    0    0    0  501  0.00000000000E+00  0.00000000000E+00  0.81499274414E+03  0.81499274415E+03  0.50400001928E-02 0.  1.
        1   -1    0    0  501    0  0.00000000000E+00  0.00000000000E+00 -0.24071979788E+04  0.24071979788E+04  0.50400001928E-02 0. -1.
    10030    2    1    2    0    0  0.00000000000E+00  0.00000000000E+00 -0.15922052347E+04  0.32221907230E+04  0.28013203219E+04 0.  0.
        3    1    3    3  502    0  0.65977159580E+03 -0.11182636907E+04 -0.14004293891E+04  0.19097158753E+04  0.10100000352E+00 0. -1.
       -3    1    3    3    0  502 -0.65977159580E+03  0.11182636907E+04 -0.19177584562E+03  0.13124748476E+04  0.10100000352E+00 0.  1.
</event>
<event>
 5   0  0.3571498E-07  0.2800068E+04  0.7818609E-02  0.8303247E-01
        2   -1    0    0  501    0  0.00000000000E+00  0.00000000000E+00  0.93531186250E+03  0.93531186250E+03  0.25500000920E-02 0. -1.
       -2   -1    0    0    0  501  0.00000000000E+00  0.00000000000E+00 -0.20956595698E+04  0.20956595698E+04  0.25500000920E-02 0.  1.
    10030    2    1    2    0    0  0.00000000000E+00  0.00000000000E+00 -0.11603477073E+04  0.30309714323E+04  0.28000680388E+04 0.  0.
        2    1    3    3  502    0 -0.55327346189E+03 -0.31235990018E+03  0.77026823802E+03  0.99849556302E+03  0.25500000920E-02 0. -1.
       -2    1    3    3    0  502  0.55327346189E+03  0.31235990018E+03 -0.19306159453E+04  0.20324758693E+04  0.25500000920E-02 0.  1.
</event>
<event>
 5   0  0.3522569E-07  0.2800280E+04  0.7818609E-02  0.8303181E-01
        2   -1    0    0  501    0  0.00000000000E+00  0.00000000000E+00  0.21140832046E+04  0.21140832046E+04  0.25500000920E-02 0.  1.
       -2   -1    0    0    0  501  0.00000000000E+00  0.00000000000E+00 -0.92730136849E+03  0.92730136850E+03  0.25500000920E-02 0. -1.
    10030    2    1    2    0    0  0.00000000000E+00  0.00000000000E+00  0.11867818361E+04  0.30413845731E+04  0.28002801636E+04 0.  0.
        1    1    3    3  502    0 -0.84356106506E+03 -0.30903033255E+03  0.17597720336E+04  0.19758270742E+04  0.50400001928E-02 0.  1.
       -1    1    3    3    0  502  0.84356106506E+03  0.30903033255E+03 -0.57299019752E+03  0.10655574989E+04  0.50400001928E-02 0. -1.
</event>
<event>
 5   0  0.3557628E-07  0.2799486E+04  0.7818609E-02  0.8303428E-01
       -2   -1    0    0    0  501  0.00000000000E+00  0.00000000000E+00  0.68653106508E+03  0.68653106508E+03  0.25500000920E-02 0.  1.
        2   -1    0    0  501    0  0.00000000000E+00  0.00000000000E+00 -0.28538850577E+04  0.28538850577E+04  0.25500000920E-02 0. -1.
    10030    2    1    2    0    0  0.00000000000E+00  0.00000000000E+00 -0.21673539927E+04  0.35404161228E+04  0.27994862017E+04 0.  0.
        5    1    3    3  502    0  0.34938542628E+03  0.98250129702E+03  0.97198898710E+02  0.10473054429E+04  0.46999998093E+01 0.  1.
       -5    1    3    3    0  502 -0.34938542628E+03 -0.98250129702E+03 -0.22645528914E+04  0.24931106800E+04  0.46999998093E+01 0. -1.
</event>
<event>
 5   0  0.1357902E-07  0.2799457E+04  0.7818609E-02  0.8303437E-01
       -1   -1    0    0    0  501  0.00000000000E+00  0.00000000000E+00  0.10207473736E+04  0.10207473736E+04  0.50400001928E-02 0.  1.
        1   -1    0    0  501    0  0.00000000000E+00  0.00000000000E+00 -0.19194173561E+04  0.19194173561E+04  0.50400001928E-02 0. -1.
    10030    2    1    2    0    0  0.00000000000E+00  0.00000000000E+00 -0.89866998251E+03  0.29401647297E+04  0.27994572510E+04 0.  0.
        4    1    3    3  502    0 -0.11750598407E+04  0.76056179201E+03 -0.45388197246E+03  0.14714721630E+04  0.12699999809E+01 0.  1.
       -4    1    3    3    0  502  0.11750598407E+04 -0.76056179201E+03 -0.44478801005E+03  0.14686925667E+04  0.12699999809E+01 0. -1.
</event>
<event>
 5   0  0.1346049E-07  0.2798797E+04  0.7818609E-02  0.8303642E-01
       -1   -1    0    0    0  501  0.00000000000E+00  0.00000000000E+00  0.11900064257E+04  0.11900064257E+04  0.50400001928E-02 0. -1.
        1   -1    0    0  501    0  0.00000000000E+00  0.00000000000E+00 -0.16456353158E+04  0.16456353158E+04  0.50400001928E-02 0.  1.
    10030    2    1    2    0    0  0.00000000000E+00  0.00000000000E+00 -0.45562889009E+03  0.28356417415E+04  0.27987973132E+04 0.  0.
        1    1    3    3  502    0 -0.61514242845E+03  0.75421453810E+03  0.79094580182E+03  0.12541272018E+04  0.50400001928E-02 0. -1.
       -1    1    3    3    0  502  0.61514242845E+03 -0.75421453810E+03 -0.12465746919E+04  0.15815145397E+04  0.50400001928E-02 0.  1.
</event>
<event>
 5   0  0.1374680E-07  0.2804851E+04  0.7818609E-02  0.8301764E-01
       -1   -1    0    0    0  501  0.00000000000E+00  0.00000000000E+00  0.98980784872E+03  0.98980784873E+03  0.50400001928E-02 0. -1.
        1   -1    0    0  501    0  0.00000000000E+00  0.00000000000E+00 -0.19870492872E+04  0.19870492872E+04  0.50400001928E-02 0.  1.
    10030    2    1    2    0    0  0.00000000000E+00  0.00000000000E+00 -0.99724143845E+03  0.29768571359E+04  0.28048507841E+04 0.  0.
        3    1    3    3  502    0 -0.74931899650E+03  0.14474844871E+03  0.75012403507E+03  0.10701014672E+04  0.10100000352E+00 0. -1.
       -3    1    3    3    0  502  0.74931899650E+03 -0.14474844871E+03 -0.17473654735E+04  0.19067556687E+04  0.10100000352E+00 0.  1.
</event>
<event>
 5   0  0.3502141E-07  0.2799926E+04  0.7818609E-02  0.8303291E-01
       -2   -1    0    0    0  501  0.00000000000E+00  0.00000000000E+00  0.17423753576E+04  0.17423753576E+04  0.25500000920E-02 0.  1.
        2   -1    0    0  501    0  0.00000000000E+00  0.00000000000E+00 -0.11248416129E+04  0.11248416129E+04  0.25500000920E-02 0. -1.
    10030    2    1    2    0    0  0.00000000000E+00  0.00000000000E+00  0.61753374464E+03  0.28672169705E+04  0.27999259330E+04 0.  0.
        3    1    3    3  502    0  0.57072481123E+03 -0.20179982724E+03 -0.98388843562E+03  0.11551997422E+04  0.10100000352E+00 0. -1.
       -3    1    3    3    0  502 -0.57072481123E+03  0.20179982724E+03  0.16014221803E+04  0.17120172283E+04  0.10100000352E+00 0.  1.
</event>
<event>
 5   0  0.3571498E-07  0.2799048E+04  0.7818609E-02  0.8303564E-01
       -2   -1    0    0    0  501  0.00000000000E+00  0.00000000000E+00  0.88058570893E+03  0.88058570893E+03  0.25500000920E-02 0.  1.
        2   -1    0    0  501    0  0.00000000000E+00  0.00000000000E+00 -0.22242780014E+04  0.22242780014E+04  0.25500000920E-02 0. -1.
    10030    2    1    2    0    0  0.00000000000E+00  0.00000000000E+00 -0.13436922925E+04  0.31048637104E+04  0.27990479958E+04 0.  0.
        2    1    3    3  502    0  0.87817959677E+03 -0.55217592481E+03  0.37024742919E+03  0.11014448760E+04  0.25500000920E-02 0.  1.
       -2    1    3    3    0  502 -0.87817959677E+03  0.55217592481E+03 -0.17139397217E+04  0.20034188343E+04  0.25500000920E-02 0. -1.
</event>
<event>
 5   0  0.1366235E-07  0.2800158E+04  0.7818609E-02  0.8303219E-01
       -1   -1    0    0    0  501  0.00000000000E+00  0.00000000000E+00  0.11312104734E+04  0.11312104734E+04  0.50400001928E-02 0.  1.
        1   -1    0    0  501    0  0.00000000000E+00  0.00000000000E+00 -0.17328528633E+04  0.17328528633E+04  0.50400001928E-02 0. -1.
    10030    2    1    2    0    0  0.00000000000E+00  0.00000000000E+00 -0.60164238994E+03  0.28640633367E+04  0.28001580726E+04 0.  0.
        2    1    3    3  502    0 -0.72541752883E+03 -0.33573280196E+03  0.87487888331E+03  0.11850570307E+04  0.25500000920E-02 0.  1.
       -2    1    3    3    0  502  0.72541752883E+03  0.33573280196E+03 -0.14765212733E+04  0.16790063061E+04  0.25500000920E-02 0. -1.
</event>
<event>
 5   0  0.1366235E-07  0.2798131E+04  0.7818609E-02  0.8303849E-01
       -1   -1    0    0    0  501  0.00000000000E+00  0.00000000000E+00  0.10155829721E+04  0.10155829721E+04  0.50400001928E-02 0. -1.
        1   -1    0    0  501    0  0.00000000000E+00  0.00000000000E+00 -0.19273509832E+04  0.19273509833E+04  0.50400001928E-02 0.  1.
    10030    2    1    2    0    0  0.00000000000E+00  0.00000000000E+00 -0.91176801116E+03  0.29429339554E+04  0.27981314050E+04 0.  0.
        2    1    3    3  502    0 -0.38187563268E+02  0.60341354743E+02 -0.19254330041E+04  0.19267567626E+04  0.25500000920E-02 0.  1.
       -2    1    3    3    0  502  0.38187563268E+02 -0.60341354743E+02  0.10136649929E+04  0.10161771927E+04  0.25500000920E-02 0. -1.
</event>
<event>
 5   0  0.3406920E-07  0.2797166E+04  0.7818609E-02  0.8304149E-01
       -2   -1    0    0    0  501  0.00000000000E+00  0.00000000000E+00  0.10311436229E+04  0.10311436230E+04  0.25500000920E-02 0. -1.
        2   -1    0    0  501    0  0.00000000000E+00  0.00000000000E+00 -0.18969565491E+04  0.18969565491E+04  0.25500000920E-02 0.  1.
    10030    2    1    2    0    0  0.00000000000E+00  0.00000000000E+00 -0.86581292611E+03  0.29281001720E+04  0.27971661721E+04 0.  0.
        4    1    3    3  502    0 -0.10284538028E+03  0.12221323448E+04 -0.11365683601E+04  0.16721165900E+04  0.12699999809E+01 0.  1.
       -4    1    3    3    0  502  0.10284538028E+03 -0.12221323448E+04  0.27075543400E+03  0.12559835820E+04  0.12699999809E+01 0. -1.
</event>
<event>
 5   0  0.1374680E-07  0.2800008E+04  0.7818609E-02  0.8303266E-01
        1   -1    0    0  501    0  0.00000000000E+00  0.00000000000E+00  0.11851258698E+04  0.11851258698E+04  0.50400001928E-02 0.  1.
       -1   -1    0    0    0  501  0.00000000000E+00  0.00000000000E+00 -0.16538419689E+04  0.16538419689E+04  0.50400001928E-02 0. -1.
    10030    2    1    2    0    0  0.00000000000E+00  0.00000000000E+00 -0.46871609909E+03  0.28389678387E+04  0.28000077870E+04 0.  0.
        3    1    3    3  502    0 -0.69461428322E+03 -0.14174745716E+03  0.98968028282E+03  0.12173941089E+04  0.10100000352E+00 0.  1.
       -3    1    3    3    0  502  0.69461428322E+03  0.14174745716E+03 -0.14583963819E+04  0.16215737298E+04  0.10100000352E+00 0. -1.
</event>
<event>
 5   0  0.3522569E-07  0.2800575E+04  0.7818609E-02  0.8303090E-01
        2   -1    0    0  501    0  0.00000000000E+00  0.00000000000E+00  0.21408957426E+04  0.21408957426E+04  0.25500000920E-02 0.  1.
       -2   -1    0    0    0  501  0.00000000000E+00  0.00000000000E+00 -0.91588088656E+03  0.91588088656E+03  0.25500000920E-02 0. -1.
    10030    2    1    2    0    0  0.00000000000E+00  0.00000000000E+00  0.12250148561E+04  0.30567766292E+04  0.28005752915E+04 0.  0.
        1    1    3    3  502    0  0.13166477817E+04  0.40348768284E+03  0.88958430345E+03  0.16394279259E+04  0.50400001928E-02 0. -1.
       -1    1    3    3    0  502 -0.13166477817E+04 -0.40348768284E+03  0.33543055263E+03  0.14173487033E+04  0.50400001928E-02 0.  1.
</event>
<event>
 5   0  0.1366235E-07  0.2799934E+04  0.7818609E-02  0.8303289E-01
        1   -1    0    0  501    0  0.00000000000E+00  0.00000000000E+00  0.28258222288E+04  0.28258222288E+04  0.50400001928E-02 0. -1.
       -1   -1    0    0    0  501  0.00000000000E+00  0.00000000000E+00 -0.69357071040E+03  0.69357071042E+03  0.50400001928E-02 0.  1.
    10030    2    1    2    0    0  0.00000000000E+00  0.00000000000E+00  0.21322515184E+04  0.35193929392E+04  0.27999339497E+04 0.  0.
        2    1    3    3  502    0 -0.18672996842E+03 -0.70595815724E+03 -0.43521957770E+03  0.85009474866E+03  0.25500000920E-02 0.  1.
       -2    1    3    3    0  502  0.18672996842E+03  0.70595815724E+03  0.25674710961E+04  0.26692981905E+04  0.25500000920E-02 0. -1.
</event>
<event>
 5   0  0.1357902E-07  0.2800566E+04  0.7818609E-02  0.8303093E-01
       -1   -1    0    0    0  501  0.00000000000E+00  0.00000000000E+00  0.91813669921E+03  0.91813669923E+03  0.50400001928E-02 0. -1.
        1   -1    0    0  501    0  0.00000000000E+00  0.00000000000E+00 -0.21356217038E+04  0.21356217038E+04  0.50400001928E-02 0.  1.
    10030    2    1    2    0    0  0.00000000000E+00  0.00000000000E+00 -0.12174850046E+04  0.30537584031E+04  0.28005661299E+04 0.  0.
        4    1    3    3  502    0  0.62461073463E+03 -0.10541239586E+04  0.13038584924E+03  0.12322004596E+04  0.12699999809E+01 0. -1.
       -4    1    3    3    0  502 -0.62461073463E+03  0.10541239586E+04 -0.13478708539E+04  0.18215579435E+04  0.12699999809E+01 0.  1.
</event>
<event>
 5   0  0.3406920E-07  0.2796742E+04  0.7818609E-02  0.8304281E-01
       -2   -1    0    0    0  501  0.00000000000E+00  0.00000000000E+00  0.11928984990E+04  0.11928984990E+04  0.25500000920E-02 0. -1.
        2   -1    0    0  501    0  0.00000000000E+00  0.00000000000E+00 -0.16392351911E+04  0.16392351911E+04  0.25500000920E-02 0.  1.
    10030    2    1    2    0    0  0.00000000000E+00  0.00000000000E+00 -0.44633669211E+03  0.28321336901E+04  0.27967418179E+04 0.  0.
        4    1    3    3  502    0  0.12142824046E+04  0.67711097501E+03 -0.71342547537E+02  0.13921395054E+04  0.12699999809E+01 0.  1.
       -4    1    3    3    0  502 -0.12142824046E+04 -0.67711097501E+03 -0.37499414457E+03  0.14399941847E+04  0.12699999809E+01 0. -1.
</event>
<event>
 5   0  0.3571498E-07  0.2800316E+04  0.7818609E-02  0.8303170E-01
       -2   -1    0    0    0  501  0.00000000000E+00  0.00000000000E+00  0.74617953835E+03  0.74617953835E+03  0.25500000920E-02 0.  1.
        2   -1    0    0  501    0  0.00000000000E+00  0.00000000000E+00 -0.26273063021E+04  0.26273063021E+04  0.25500000920E-02 0. -1.
    10030    2    1    2    0    0  0.00000000000E+00  0.00000000000E+00 -0.18811267638E+04  0.33734858405E+04  0.28003158419E+04 0.  0.
        2    1    3    3  502    0  0.10902325242E+04  0.49456348466E+03 -0.18152992981E+04  0.21745140925E+04  0.25500000920E-02 0.  1.
       -2    1    3    3    0  502 -0.10902325242E+04 -0.49456348466E+03 -0.65827465722E+02  0.11989717479E+04  0.25500000920E-02 0. -1.
</event>
<event>
 5   0  0.1361741E-07  0.2799113E+04  0.7818609E-02  0.8303544E-01
        1   -1    0    0  501    0  0.00000000000E+00  0.00000000000E+00  0.17205768947E+04  0.17205768947E+04  0.50400001928E-02 0.  1.
       -1   -1    0    0    0  501  0.00000000000E+00  0.00000000000E+00 -0.11384309680E+04  0.11384309680E+04  0.50400001928E-02 0. -1.
    10030    2    1    2    0    0  0.00000000000E+00  0.00000000000E+00  0.58214592675E+03  0.28590078627E+04  0.27991127307E+04 0.  0.
        5    1    3    3  502    0 -0.16453355747E+03  0.12581043397E+04 -0.31219035929E+03  0.13066685623E+04  0.46999998093E+01 0. -1.
       -5    1    3    3    0  502  0.16453355747E+03 -0.12581043397E+04  0.89433628604E+03  0.15523393004E+04  0.46999998093E+01 0.  1.
</event>
<event>
 5   0  0.3557628E-07  0.2799530E+04  0.7818609E-02  0.8303414E-01
       -2   -1    0    0    0  501  0.00000000000E+00  0.00000000000E+00  0.10621615849E+04  0.10621615849E+04  0.25500000920E-02 0. -1.
        2   -1    0    0  501    0  0.00000000000E+00  0.00000000000E+00 -0.18446747407E+04  0.18446747407E+04  0.25500000920E-02 0.  1.
    10030    2    1    2    0    0  0.00000000000E+00  0.00000000000E+00 -0.78251315577E+03  0.29068363256E+04  0.27995304222E+04 0.  0.
        5    1    3    3  502    0  0.67981151833E+03 -0.77151795110E+03 -0.13773622723E+04  0.17188753789E+04  0.46999998093E+01 0.  1.
       -5    1    3    3    0  502 -0.67981151833E+03  0.77151795110E+03  0.59484911648E+03  0.11879609466E+04  0.46999998093E+01 0. -1.
</event>
<event>
 5   0  0.3571498E-07  0.2799921E+04  0.7818609E-02  0.8303293E-01
        2   -1    0    0  501    0  0.00000000000E+00  0.00000000000E+00  0.14054417716E+04  0.14054417716E+04  0.25500000920E-02 0.  1.
       -2   -1    0    0    0  501  0.00000000000E+00  0.00000000000E+00 -0.13945010561E+04  0.13945010561E+04  0.25500000920E-02 0. -1.
    10030    2    1    2    0    0  0.00000000000E+00  0.00000000000E+00  0.10940715524E+02  0.27999428277E+04  0.27999214524E+04 0.  0.
        2    1    3    3  502    0  0.82190358093E+03 -0.76104744071E+03  0.84522157002E+03  0.14032527234E+04  0.25500000920E-02 0.  1.
       -2    1    3    3    0  502 -0.82190358093E+03  0.76104744071E+03 -0.83428085449E+03  0.13966901043E+04  0.25500000920E-02 0. -1.
</event>
<event>
 5   0  0.1173363E-07  0.2797732E+04  0.7818609E-02  0.8303973E-01
       -4   -1    0    0    0  501  0.00000000000E+00  0.00000000000E+00  0.18021801391E+04  0.18021805866E+04  0.12699999809E+01 0.  1.
        4   -1    0    0  501    0  0.00000000000E+00  0.00000000000E+00 -0.10858092567E+04  0.10858099995E+04  0.12699999809E+01 0. -1.
    10030    2    1    2    0    0  0.00000000000E+00  0.00000000000E+00  0.71637088232E+03  0.28879905860E+04  0.27977316497E+04 0.  0.
        2    1    3    3  502    0 -0.81715037780E+03  0.10412954655E+04  0.82532750808E+03  0.15598706620E+04  0.25500000920E-02 0.  1.
       -2    1    3    3    0  502  0.81715037780E+03 -0.10412954655E+04 -0.10895662576E+03  0.13281199241E+04  0.25500000920E-02 0. -1.
</event>
<event>
 5   0  0.1374680E-07  0.2795470E+04  0.7818609E-02  0.8304676E-01
        1   -1    0    0  501    0  0.00000000000E+00  0.00000000000E+00  0.13252655615E+04  0.13252655615E+04  0.50400001928E-02 0.  1.
       -1   -1    0    0    0  501  0.00000000000E+00  0.00000000000E+00 -0.14741672554E+04  0.14741672554E+04  0.50400001928E-02 0. -1.
    10030    2    1    2    0    0  0.00000000000E+00  0.00000000000E+00 -0.14890169390E+03  0.27994328169E+04  0.27954699751E+04 0.  0.
        3    1    3    3  502    0 -0.83558305853E+03  0.10588893767E+04 -0.44132702038E+03  0.14192305341E+04  0.10100000352E+00 0. -1.
       -3    1    3    3    0  502  0.83558305853E+03 -0.10588893767E+04  0.29242532648E+03  0.13802022828E+04  0.10100000352E+00 0.  1.
</event>
<event>
 5   0  0.3522569E-07  0.2801445E+04  0.7818609E-02  0.8302820E-01
       -2   -1    0    0    0  501  0.00000000000E+00  0.00000000000E+00  0.13578808372E+04  0.13578808372E+04  0.25500000920E-02 0. -1.
        2   -1    0    0  501    0  0.00000000000E+00  0.00000000000E+00 -0.14449158959E+04  0.14449158959E+04  0.25500000920E-02 0.  1.
    10030    2    1    2    0    0  0.00000000000E+00  0.00000000000E+00 -0.87035058649E+02  0.28027967331E+04  0.28014450602E+04 0.  0.
        1    1    3    3  502    0 -0.15454725811E+03  0.52876769170E+03  0.12449483535E+04  0.13613877220E+04  0.50400001928E-02 0. -1.
       -1    1    3    3    0  502  0.15454725811E+03 -0.52876769170E+03 -0.13319834122E+04  0.14414090110E+04  0.50400001928E-02 0.  1.
</event>
<event>
 5   0  0.1374680E-07  0.2800375E+04  0.7818609E-02  0.8303152E-01
       -1   -1    0    0    0  501  0.00000000000E+00  0.00000000000E+00  0.77348657442E+03  0.77348657444E+03  0.50400001928E-02 0.  1.
        1   -1    0    0  501    0  0.00000000000E+00  0.00000000000E+00 -0.25346592539E+04  0.25346592539E+04  0.50400001928E-02 0. -1.
    10030    2    1    2    0    0  0.00000000000E+00  0.00000000000E+00 -0.17611726794E+04  0.33081458283E+04  0.28003749061E+04 0.  0.
        3    1    3    3  502    0 -0.80188234392E+03 -0.11171664141E+04 -0.56927076302E+03  0.14883364210E+04  0.10100000352E+00 0.  1.
       -3    1    3    3    0  502  0.80188234392E+03  0.11171664141E+04 -0.11919019164E+04  0.18198094073E+04  0.10100000352E+00 0. -1.
</event>
<event>
 5   0  0.3571498E-07  0.2798048E+04  0.7818609E-02  0.8303875E-01
        2   -1    0    0  501    0  0.00000000000E+00  0.00000000000E+00  0.19536575879E+04  0.19536575879E+04  0.25500000920E-02 0.  1.
       -2   -1    0    0    0  501  0.00000000000E+00  0.00000000000E+00 -0.10018481783E+04  0.10018481783E+04  0.25500000920E-02 0. -1.
    10030    2    1    2    0    0  0.00000000000E+00  0.00000000000E+00  0.95180940959E+03  0.29555057662E+04  0.27980481021E+04 0.  0.
        2    1    3    3  502    0  0.65438838431E+03  0.11410199594E+03  0.17764629237E+04  0.18965927191E+04  0.25500000920E-02 0.  1.
       -2    1    3    3    0  502 -0.65438838431E+03 -0.11410199594E+03 -0.82465351407E+03  0.10589130471E+04  0.25500000920E-02 0. -1.
</event>
<event>
 5   0  0.3502141E-07  0.2799890E+04  0.7818609E-02  0.8303303E-01
        2   -1    0    0  501    0  0.00000000000E+00  0.00000000000E+00  0.20097695956E+04  0.20097695956E+04  0.25500000920E-02 0. -1.
       -2   -1    0    0    0  501  0.00000000000E+00  0.00000000000E+00 -0.97515951010E+03  0.97515951010E+03  0.25500000920E-02 0.  1.
    10030    2    1    2    0    0  0.00000000000E+00  0.00000000000E+00  0.10346100855E+04  0.29849291057E+04  0.27998899509E+04 0.  0.
        3    1    3    3  502    0  0.13920513405E+04  0.11719260609E+03  0.42015123936E+03  0.14587899491E+04  0.10100000352E+00 0.  1.
       -3    1    3    3    0  502 -0.13920513405E+04 -0.11719260609E+03  0.61445884615E+03  0.15261391566E+04  0.10100000352E+00 0. -1.
</event>
<event>
 5   0  0.3522569E-07  0.2800458E+04  0.7818609E-02  0.8303126E-01
        2   -1    0    0  501    0  0.00000000000E+00  0.00000000000E+00  0.12600106412E+04  0.12600106412E+04  0.25500000920E-02 0. -1.
       -2   -1    0    0    0  501  0.00000000000E+00  0.00000000000E+00 -0.15560514611E+04  0.15560514611E+04  0.25500000920E-02 0.  1.
    10030    2    1    2    0    0  0.00000000000E+00  0.00000000000E+00 -0.29604081987E+03  0.28160621022E+04  0.28004581048E+04 0.  0.
        1    1    3    3  502    0 -0.11623610392E+04 -0.24913526303E+03 -0.89206879427E+03  0.14862497429E+04  0.50400001928E-02 0.  1.
       -1    1    3    3    0  502  0.11623610392E+04  0.24913526303E+03  0.59602797440E+03  0.13298123593E+04  0.50400001928E-02 0. -1.
</event>
<event>
 5   0  0.3557628E-07  0.2811921E+04  0.7818609E-02  0.8299577E-01
        2   -1    0    0  501    0  0.00000000000E+00  0.00000000000E+00  0.24569074291E+04  0.24569074291E+04  0.25500000920E-02 0.  1.
       -2   -1    0    0    0  501  0.00000000000E+00  0.00000000000E+00 -0.80455824278E+03  0.80455824278E+03  0.25500000920E-02 0. -1.
    10030    2    1    2    0    0  0.00000000000E+00  0.00000000000E+00  0.16523491863E+04  0.32614656719E+04  0.28119211396E+04 0.  0.
        5    1    3    3  502    0  0.19265878683E+03  0.44441460599E+03  0.23570642276E+04  0.24063240874E+04  0.46999998093E+01 0.  1.
       -5    1    3    3    0  502 -0.19265878683E+03 -0.44441460599E+03 -0.70471504131E+03  0.85514158454E+03  0.46999998093E+01 0. -1.
</event>
<event>
 5   0  0.1357902E-07  0.2800496E+04  0.7818609E-02  0.8303114E-01
        1   -1    0    0  501    0  0.00000000000E+00  0.00000000000E+00  0.19986515492E+04  0.19986515492E+04  0.50400001928E-02 0. -1.
       -1   -1    0    0    0  501  0.00000000000E+00  0.00000000000E+00 -0.98100881363E+03  0.98100881364E+03  0.50400001928E-02 0.  1.
    10030    2    1    2    0    0  0.00000000000E+00  0.00000000000E+00  0.10176427355E+04  0.29796603628E+04  0.28004962311E+04 0.  0.
        4    1    3    3  502    0  0.12487475599E+03  0.11158207706E+04 -0.38139233985E+03  0.11857956935E+04  0.12699999809E+01 0.  1.
       -4    1    3    3    0  502 -0.12487475599E+03 -0.11158207706E+04  0.13990350754E+04  0.17938646694E+04  0.12699999809E+01 0. -1.
</event>
<event>
 5   0  0.1361741E-07  0.2800341E+04  0.7818609E-02  0.8303163E-01
        1   -1    0    0  501    0  0.00000000000E+00  0.00000000000E+00  0.22426538489E+04  0.22426538489E+04  0.50400001928E-02 0.  1.
       -1   -1    0    0    0  501  0.00000000000E+00  0.00000000000E+00 -0.87417722904E+03  0.87417722906E+03  0.50400001928E-02 0. -1.
    10030    2    1    2    0    0  0.00000000000E+00  0.00000000000E+00  0.13684766199E+04  0.31168310780E+04  0.28003406417E+04 0.  0.
        5    1    3    3  502    0  0.15963512772E+03 -0.72165005899E+03 -0.63936148413E+03  0.97727548778E+03  0.46999998093E+01 0. -1.
       -5    1    3    3    0  502 -0.15963512772E+03  0.72165005899E+03  0.20078381040E+04  0.21395555902E+04  0.46999998093E+01 0.  1.
</event>
<event>
 5   0  0.3406920E-07  0.2799781E+04  0.7818609E-02  0.8303336E-01
        2   -1    0    0  501    0  0.00000000000E+00  0.00000000000E+00  0.11976788177E+04  0.11976788177E+04  0.25500000920E-02 0. -1.
       -2   -1    0    0    0  501  0.00000000000E+00  0.00000000000E+00 -0.16362424849E+04  0.16362424849E+04  0.25500000920E-02 0.  1.
    10030    2    1    2    0    0  0.00000000000E+00  0.00000000000E+00 -0.43856366721E+03  0.28339213026E+04  0.27997806805E+04 0.  0.
        4    1    3    3  502    0  0.10387190383E+04 -0.91943949902E+03 -0.28878694588E+02  0.13874948017E+04  0.12699999809E+01 0.  1.
       -4    1    3    3    0  502 -0.10387190383E+04  0.91943949902E+03 -0.40968497262E+03  0.14464265009E+04  0.12699999809E+01 0. -1.
</event>
<event>
 5   0  0.1357902E-07  0.2800448E+04  0.7818609E-02  0.8303129E-01
        1   -1    0    0  501    0  0.00000000000E+00  0.00000000000E+00  0.24708205105E+04  0.24708205105E+04  0.50400001928E-02 0.  1.
       -1   -1    0    0    0  501  0.00000000000E+00  0.00000000000E+00 -0.79351285623E+03  0.79351285624E+03  0.50400001928E-02 0. -1.
    10030    2    1    2    0    0  0.00000000000E+00  0.00000000000E+00  0.16773076542E+04  0.32643333667E+04  0.28004484216E+04 0.  0.
        4    1    3    3  502    0  0.35191075114E+03  0.13173826061E+03  0.24109509198E+04  0.24400578060E+04  0.12699999809E+01 0.  1.
       -4    1    3    3    0  502 -0.35191075114E+03 -0.13173826061E+03 -0.73364326553E+03  0.82427556074E+03  0.12699999809E+01 0. -1.
</event>
<event>
 5   0  0.1346049E-07  0.2799407E+04  0.7818609E-02  0.8303452E-01
       -1   -1    0    0    0  501  0.00000000000E+00  0.00000000000E+00  0.95186595157E+03  0.95186595158E+03  0.50400001928E-02 0. -1.
        1   -1    0    0  501    0  0.00000000000E+00  0.00000000000E+00 -0.20582415594E+04  0.20582415594E+04  0.50400001928E-02 0.  1.
    10030    2    1    2    0    0  0.00000000000E+00  0.00000000000E+00 -0.11063756078E+04  0.30101075110E+04  0.27994071233E+04 0.  0.
        1    1    3    3  502    0 -0.86410510969E+03  0.33663540730E+03  0.57413471977E+03  0.10907023950E+04  0.50400001928E-02 0. -1.
       -1    1    3    3    0  502  0.86410510969E+03 -0.33663540730E+03 -0.16805103276E+04  0.19194051159E+04  0.50400001928E-02 0.  1.
</event>
<event>
 5   0  0.3522569E-07  0.2800309E+04  0.7818609E-02  0.8303172E-01
        2   -1    0    0  501    0  0.00000000000E+00  0.00000000000E+00  0.13309761219E+04  0.13309761219E+04  0.25500000920E-02 0.  1.
       -2   -1    0    0    0  501  0.00000000000E+00  0.00000000000E+00 -0.14729283820E+04  0.14729283820E+04  0.25500000920E-02 0. -1.
    10030    2    1    2    0    0  0.00000000000E+00  0.00000000000E+00 -0.14195226010E+03  0.28039045039E+04  0.28003089156E+04 0.  0.
        1    1    3    3  502    0  0.62770061245E+03 -0.11610228495E+04  0.39701075987E+03  0.13782596488E+04  0.50400001928E-02 0.  1.
       -1    1    3    3    0  502 -0.62770061245E+03  0.11610228495E+04 -0.53896301997E+03  0.14256448551E+04  0.50400001928E-02 0. -1.
</event>
<event>
 5   0  0.1361741E-07  0.2800969E+04  0.7818609E-02  0.8302967E-01
       -1   -1    0    0    0  501  0.00000000000E+00  0.00000000000E+00  0.93157583353E+03  0.93157583354E+03  0.50400001928E-02 0. -1.
        1   -1    0    0  501    0  0.00000000000E+00  0.00000000000E+00 -0.21054188461E+04  0.21054188461E+04  0.50400001928E-02 0.  1.
    10030    2    1    2    0    0  0.00000000000E+00  0.00000000000E+00 -0.11738430125E+04  0.30369946796E+04  0.28009693440E+04 0.  0.
        5    1    3    3  502    0  0.61698204012E+03  0.69663740625E+03 -0.17217103265E+04  0.19571098722E+04  0.46999998093E+01 0.  1.
       -5    1    3    3    0  502 -0.61698204012E+03 -0.69663740625E+03  0.54786731392E+03  0.10798848074E+04  0.46999998093E+01 0. -1.
</event>
<event>
 5   0  0.3406920E-07  0.2801137E+04  0.7818609E-02  0.8302915E-01
        2   -1    0    0  501    0  0.00000000000E+00  0.00000000000E+00  0.16064010994E+04  0.16064010994E+04  0.25500000920E-02 0.  1.
       -2   -1    0    0    0  501  0.00000000000E+00  0.00000000000E+00 -0.12211102120E+04  0.12211102120E+04  0.25500000920E-02 0. -1.
    10030    2    1    2    0    0  0.00000000000E+00  0.00000000000E+00  0.38529088743E+03  0.28275113114E+04  0.28011374740E+04 0.  0.
        4    1    3    3  502    0 -0.45773084820E+03 -0.11704463959E+04 -0.43134057327E+03  0.13287281882E+04  0.12699999809E+01 0. -1.
       -4    1    3    3    0  502  0.45773084820E+03  0.11704463959E+04  0.81663146071E+03  0.14987831233E+04  0.12699999809E+01 0.  1.
</event>
<event>
 5   0  0.3522569E-07  0.2801587E+04  0.7818609E-02  0.8302776E-01
        2   -1    0    0  501    0  0.00000000000E+00  0.00000000000E+00  0.15736398265E+04  0.15736398265E+04  0.25500000920E-02 0.  1.
       -2   -1    0    0    0  501  0.00000000000E+00  0.00000000000E+00 -0.12469324676E+04  0.12469324676E+04  0.25500000920E-02 0. -1.
    10030    2    1    2    0    0  0.00000000000E+00  0.00000000000E+00  0.32670735890E+03  0.28205722942E+04  0.28015871159E+04 0.  0.
        1    1    3    3  502    0  0.91896922440E+03  0.96050368951E+03 -0.28139871339E+03  0.13587704033E+04  0.50400001928E-02 0. -1.
       -1    1    3    3    0  502 -0.91896922440E+03 -0.96050368951E+03  0.60810607229E+03  0.14618018909E+04  0.50400001928E-02 0.  1.
</event>
<event>
 5   0  0.3502141E-07  0.2799678E+04  0.7818609E-02  0.8303368E-01
        2   -1    0    0  501    0  0.00000000000E+00  0.00000000000E+00  0.16282499182E+04  0.16282499182E+04  0.25500000920E-02 0.  1.
       -2   -1    0    0    0  501  0.00000000000E+00  0.00000000000E+00 -0.12034696652E+04  0.12034696652E+04  0.25500000920E-02 0. -1.
    10030    2    1    2    0    0  0.00000000000E+00  0.00000000000E+00  0.42478025301E+03  0.28317195834E+04  0.27996781129E+04 0.  0.
        3    1    3    3  502    0  0.63054515128E+02  0.20863196061E+03 -0.11862028206E+04  0.12060598280E+04  0.10100000352E+00 0. -1.
       -3    1    3    3    0  502 -0.63054515128E+02 -0.20863196061E+03  0.16109830736E+04  0.16256597555E+04  0.10100000352E+00 0.  1.
</event>
<event>
 5   0  0.3571498E-07  0.2798665E+04  0.7818609E-02  0.8303683E-01
       -2   -1    0    0    0  501  0.00000000000E+00  0.00000000000E+00  0.10588437213E+04  0.10588437213E+04  0.25500000920E-02 0. -1.
        2   -1    0    0  501    0  0.00000000000E+00  0.00000000000E+00 -0.18493112255E+04  0.18493112255E+04  0.25500000920E-02 0.  1.
    10030    2    1    2    0    0  0.00000000000E+00  0.00000000000E+00 -0.79046750426E+03  0.29081549468E+04  0.27986650960E+04 0.  0.
        2    1    3    3  502    0 -0.50070323504E+02  0.10316564757E+04  0.58579304002E+03  0.11874239373E+04  0.25500000920E-02 0. -1.
       -2    1    3    3    0  502  0.50070323504E+02 -0.10316564757E+04 -0.13762605443E+04  0.17207310095E+04  0.25500000920E-02 0.  1.
</event>
<event>
 5   0  0.3522569E-07  0.2800032E+04  0.7818609E-02  0.8303258E-01
        2   -1    0    0  501    0  0.00000000000E+00  0.00000000000E+00  0.19787779710E+04  0.19787779710E+04  0.25500000920E-02 0.  1.
       -2   -1    0    0    0  501  0.00000000000E+00  0.00000000000E+00 -0.99053312918E+03  0.99053312919E+03  0.25500000920E-02 0. -1.
    10030    2    1    2    0    0  0.00000000000E+00  0.00000000000E+00  0.98824484182E+03  0.29693111002E+04  0.28000322395E+04 0.  0.
        1    1    3    3  502    0  0.12429403638E+04 -0.61980650225E+03  0.30745719229E+03  0.14225297091E+04  0.50400001928E-02 0.  1.
       -1    1    3    3    0  502 -0.12429403638E+04  0.61980650225E+03  0.68078764953E+03  0.15467813911E+04  0.50400001928E-02 0. -1.
</event>
<event>
 5   0  0.3557628E-07  0.2800220E+04  0.7818609E-02  0.8303200E-01
        2   -1    0    0  501    0  0.00000000000E+00  0.00000000000E+00  0.28058591521E+04  0.28058591521E+04  0.25500000920E-02 0.  1.
       -2   -1    0    0    0  501  0.00000000000E+00  0.00000000000E+00 -0.69864804701E+03  0.69864804701E+03  0.25500000920E-02 0. -1.
    10030    2    1    2    0    0  0.00000000000E+00  0.00000000000E+00  0.21072111051E+04  0.35045071991E+04  0.28002200034E+04 0.  0.
        5    1    3    3  502    0  0.10720475184E+02  0.92078153054E+03 -0.26632806760E+03  0.95859599684E+03  0.46999998093E+01 0. -1.
       -5    1    3    3    0  502 -0.10720475184E+02 -0.92078153054E+03  0.23735391727E+04  0.25459112023E+04  0.46999998093E+01 0.  1.
</event>
<event>
 5   0  0.3571498E-07  0.2802772E+04  0.7818609E-02  0.8302408E-01
       -2   -1    0    0    0  501  0.00000000000E+00  0.00000000000E+00  0.13387706633E+04  0.13387706633E+04  0.25500000920E-02 0.  1.
        2   -1    0    0  501    0  0.00000000000E+00  0.00000000000E+00 -0.14669300020E+04  0.14669300020E+04  0.25500000920E-02 0. -1.
    10030    2    1    2    0    0  0.00000000000E+00  0.00000000000E+00 -0.12815933874E+03  0.28057006652E+04  0.28027720933E+04 0.  0.
        2    1    3    3  502    0 -0.93782423791E+03 -0.10239438977E+04  0.12561092677E+03  0.13941856088E+04  0.25500000920E-02 0. -1.
       -2    1    3    3    0  502  0.93782423791E+03  0.10239438977E+04 -0.25377026551E+03  0.14115150564E+04  0.25500000920E-02 0.  1.
</event>
<event>
 5   0  0.1374680E-07  0.2799341E+04  0.7818609E-02  0.8303473E-01
       -1   -1    0    0    0  501  0.00000000000E+00  0.00000000000E+00  0.11162846881E+04  0.11162846881E+04  0.50400001928E-02 0. -1.
        1   -1    0    0  501    0  0.00000000000E+00  0.00000000000E+00 -0.17549979843E+04  0.17549979843E+04  0.50400001928E-02 0.  1.
    10030    2    1    2    0    0  0.00000000000E+00  0.00000000000E+00 -0.63871329617E+03  0.28712826725E+04  0.27993409064E+04 0.  0.
        3    1    3    3  502    0  0.21333095471E+03 -0.21445694996E+03  0.10823568070E+04  0.11238319035E+04  0.10100000352E+00 0. -1.
       -3    1    3    3    0  502 -0.21333095471E+03  0.21445694996E+03 -0.17210701031E+04  0.17474507689E+04  0.10100000352E+00 0.  1.
</event>
<event>
 5   0  0.1346049E-07  0.2806622E+04  0.7818609E-02  0.8301215E-01
       -1   -1    0    0    0  501  0.00000000000E+00  0.00000000000E+00  0.12216655590E+04  0.12216655590E+04  0.50400001928E-02 0.  1.
        1   -1    0    0  501    0  0.00000000000E+00  0.00000000000E+00 -0.16119648121E+04  0.16119648121E+04  0.50400001928E-02 0. -1.
    10030    2    1    2    0    0  0.00000000000E+00  0.00000000000E+00 -0.39029925313E+03  0.28336303712E+04  0.28066220931E+04 0.  0.
        1    1    3    3  502    0 -0.15573888889E+03 -0.13165502932E+04 -0.65971077447E+03  0.14808030193E+04  0.50400001928E-02 0. -1.
       -1    1    3    3    0  502  0.15573888889E+03  0.13165502932E+04  0.26941152134E+03  0.13528273518E+04  0.50400001928E-02 0.  1.
</event>
<event>
 5   0  0.3571498E-07  0.2816482E+04  0.7818609E-02  0.8298169E-01
        2   -1    0    0  501    0  0.00000000000E+00  0.00000000000E+00  0.20649668827E+04  0.20649668827E+04  0.25500000920E-02 0. -1.
       -2   -1    0    0    0  501  0.00000000000E+00  0.00000000000E+00 -0.96037538873E+03  0.96037538873E+03  0.25500000920E-02 0.  1.
    10030    2    1    2    0    0  0.00000000000E+00  0.00000000000E+00  0.11045914940E+04  0.30253422714E+04  0.28164824677E+04 0.  0.
        2    1    3    3  502    0  0.66629746014E+03  0.72342169812E+03 -0.53034086017E+03  0.11173865431E+04  0.25500000920E-02 0.  1.
       -2    1    3    3    0  502 -0.66629746014E+03 -0.72342169812E+03  0.16349323541E+04  0.19079557283E+04  0.25500000920E-02 0. -1.
</event>
<event>
 5   0  0.3557628E-07  0.2801437E+04  0.7818609E-02  0.8302822E-01
       -2   -1    0    0    0  501  0.00000000000E+00  0.00000000000E+00  0.80980669947E+03  0.80980669947E+03  0.25500000920E-02 0.  1.
        2   -1    0    0  501    0  0.00000000000E+00  0.00000000000E+00 -0.24228155557E+04  0.24228155557E+04  0.25500000920E-02 0. -1.
    10030    2    1    2    0    0  0.00000000000E+00  0.00000000000E+00 -0.16130088562E+04  0.32326222552E+04  0.28014369660E+04 0.  0.
        5    1    3    3  502    0 -0.58684569315E+03 -0.10625526347E+04  0.68826376934E-01  0.12138484518E+04  0.46999998093E+01 0. -1.
       -5    1    3    3    0  502  0.58684569315E+03  0.10625526347E+04 -0.16130776826E+04  0.20187738034E+04  0.46999998093E+01 0.  1.
</event>
<event>
 5   0  0.3557628E-07  0.2796387E+04  0.7818609E-02  0.8304391E-01
       -2   -1    0    0    0  501  0.00000000000E+00  0.00000000000E+00  0.11716511968E+04  0.11716511968E+04  0.25500000920E-02 0. -1.
        2   -1    0    0  501    0  0.00000000000E+00  0.00000000000E+00 -0.16685381918E+04  0.16685381918E+04  0.25500000920E-02 0.  1.
    10030    2    1    2    0    0  0.00000000000E+00  0.00000000000E+00 -0.49688699495E+03  0.28401893886E+04  0.27963867897E+04 0.  0.
        5    1    3    3  502    0 -0.69700228243E+02 -0.31241665636E+03 -0.16308142096E+04  0.16619384361E+04  0.46999998093E+01 0.  1.
       -5    1    3    3    0  502  0.69700228243E+02  0.31241665636E+03  0.11339272147E+04  0.11782509525E+04  0.46999998093E+01 0. -1.
</event>
<event>
 5   0  0.1357902E-07  0.2798877E+04  0.7818609E-02  0.8303617E-01
        1   -1    0    0  501    0  0.00000000000E+00  0.00000000000E+00  0.19388684453E+04  0.19388684453E+04  0.50400001928E-02 0.  1.
       -1   -1    0    0    0  501  0.00000000000E+00  0.00000000000E+00 -0.10100880195E+04  0.10100880195E+04  0.50400001928E-02 0. -1.
    10030    2    1    2    0    0  0.00000000000E+00  0.00000000000E+00  0.92878042575E+03  0.29489564648E+04  0.27988767662E+04 0.  0.
        4    1    3    3  502    0  0.39292308202E+03  0.13097215631E+04  0.77812720141E+03  0.15732903978E+04  0.12699999809E+01 0. -1.
       -4    1    3    3    0  502 -0.39292308202E+03 -0.13097215631E+04  0.15065322434E+03  0.13756660671E+04  0.12699999809E+01 0.  1.
</event>
<event>
 5   0  0.1361741E-07  0.2806741E+04  0.7818609E-02  0.8301178E-01
        1   -1    0    0  501    0  0.00000000000E+00  0.00000000000E+00  0.12742840266E+04  0.12742840266E+04  0.50400001928E-02 0.  1.
       -1   -1    0    0    0  501  0.00000000000E+00  0.00000000000E+00 -0.15455340140E+04  0.15455340140E+04  0.50400001928E-02 0. -1.
    10030    2    1    2    0    0  0.00000000000E+00  0.00000000000E+00 -0.27124998747E+03  0.28198180406E+04  0.28067413893E+04 0.  0.
        5    1    3    3  502    0 -0.13077834809E+04  0.15760701055E+03  0.35066485523E+03  0.13631307837E+04  0.46999998093E+01 0.  1.
       -5    1    3    3    0  502  0.13077834809E+04 -0.15760701055E+03 -0.62191484270E+03  0.14566872569E+04  0.46999998093E+01 0. -1.
</event>
<event>
 5   0  0.3522569E-07  0.2800292E+04  0.7818609E-02  0.8303178E-01
       -2   -1    0    0    0  501  0.00000000000E+00  0.00000000000E+00  0.14138801581E+04  0.14138801581E+04  0.25500000920E-02 0. -1.
        2   -1    0    0  501    0  0.00000000000E+00  0.00000000000E+00 -0.13865449667E+04  0.13865449667E+04  0.25500000920E-02 0.  1.
    10030    2    1    2    0    0  0.00000000000E+00  0.00000000000E+00  0.27335191419E+02  0.28004251248E+04  0.28002917110E+04 0.  0.
        1    1    3    3  502    0 -0.21031429464E+03 -0.74237644052E+03 -0.11547431231E+04  0.13888076045E+04  0.50400001928E-02 0.  1.
       -1    1    3    3    0  502  0.21031429464E+03  0.74237644052E+03  0.11820783145E+04  0.14116175203E+04  0.50400001928E-02 0. -1.
</event>
<event>
 5   0  0.3406920E-07  0.2798806E+04  0.7818609E-02  0.8303639E-01
        2   -1    0    0  501    0  0.00000000000E+00  0.00000000000E+00  0.15059935211E+04  0.15059935211E+04  0.25500000920E-02 0. -1.
       -2   -1    0    0    0  501  0.00000000000E+00  0.00000000000E+00 -0.13003566435E+04  0.13003566435E+04  0.25500000920E-02 0.  1.
    10030    2    1    2    0    0  0.00000000000E+00  0.00000000000E+00  0.20563687752E+03  0.28063501646E+04  0.27988059456E+04 0.  0.
        4    1    3    3  502    0 -0.56396919462E+03  0.19370834096E+02  0.13868523927E+04  0.14972633883E+04  0.12699999809E+01 0. -1.
       -4    1    3    3    0  502  0.56396919462E+03 -0.19370834096E+02 -0.11812155152E+04  0.13090867763E+04  0.12699999809E+01 0.  1.
</event>
<event>
 5   0  0.3571498E-07  0.2800300E+04  0.7818609E-02  0.8303175E-01
        2   -1    0    0  501    0  0.00000000000E+00  0.00000000000E+00  0.18617371598E+04  0.18617371598E+04  0.25500000920E-02 0. -1.
       -2   -1    0    0    0  501  0.00000000000E+00  0.00000000000E+00 -0.10530055988E+04  0.10530055988E+04  0.25500000920E-02 0.  1.
    10030    2    1    2    0    0  0.00000000000E+00  0.00000000000E+00  0.80873156106E+03  0.29147427586E+04  0.28002997359E+04 0.  0.
        2    1    3    3  502    0  0.12721240994E+03  0.52764805385E+03  0.17477810935E+04  0.18301186346E+04  0.25500000920E-02 0. -1.
       -2    1    3    3    0  502 -0.12721240994E+03 -0.52764805385E+03 -0.93904953243E+03  0.10846241240E+04  0.25500000920E-02 0.  1.
</event>
<event>
 5   0  0.3571498E-07  0.2801767E+04  0.7818609E-02  0.8302720E-01
       -2   -1    0    0    0  501  0.00000000000E+00  0.00000000000E+00  0.91950208229E+03  0.91950208229E+03  0.25500000920E-02 0.  1.
        2   -1    0    0  501    0  0.00000000000E+00  0.00000000000E+00 -0.21342793499E+04  0.21342793499E+04  0.25500000920E-02 0. -1.
    10030    2    1    2    0    0  0.00000000000E+00  0.00000000000E+00 -0.12147772676E+04  0.30537814322E+04  0.28017668043E+04 0.  0.
        2    1    3    3  502    0  0.15811562807E+03  0.13918517879E+04 -0.59113578522E+03  0.15204254233E+04  0.25500000920E-02 0.  1.
       -2    1    3    3    0  502 -0.15811562807E+03 -0.13918517879E+04 -0.62364148241E+03  0.15333560089E+04  0.25500000920E-02 0. -1.
</event>
<event>
 5   0  0.1366235E-07  0.2801783E+04  0.7818609E-02  0.8302715E-01
        1   -1    0    0  501    0  0.00000000000E+00  0.00000000000E+00  0.15770241068E+04  0.15770241068E+04  0.50400001928E-02 0.  1.
       -1   -1    0    0    0  501  0.00000000000E+00  0.00000000000E+00 -0.12444309415E+04  0.12444309415E+04  0.50400001928E-02 0. -1.
    10030    2    1    2    0    0  0.00000000000E+00  0.00000000000E+00  0.33259316531E+03  0.28214550483E+04  0.28017834277E+04 0.  0.
        2    1    3    3  502    0  0.96188540323E+03  0.83137669918E+01 -0.85928653420E+03  0.12898317702E+04  0.25500000920E-02 0. -1.
       -2    1    3    3    0  502 -0.96188540323E+03 -0.83137669918E+01  0.11918796995E+04  0.15316232780E+04  0.25500000920E-02 0.  1.
</event>
<event>
 5   0  0.1374680E-07  0.2800324E+04  0.7818609E-02  0.8303168E-01
       -1   -1    0    0    0  501  0.00000000000E+00  0.00000000000E+00  0.97252457220E+03  0.97252457221E+03  0.50400001928E-02 0.  1.
        1   -1    0    0  501    0  0.00000000000E+00  0.00000000000E+00 -0.20158401278E+04  0.20158401278E+04  0.50400001928E-02 0. -1.
    10030    2    1    2    0    0  0.00000000000E+00  0.00000000000E+00 -0.10433155556E+04  0.29883647000E+04  0.28003243083E+04 0.  0.
        3    1    3    3  502    0 -0.60610866358E+03  0.20219922943E+03 -0.18511915077E+04  0.19583570279E+04  0.10100000352E+00 0. -1.
       -3    1    3    3    0  502  0.60610866358E+03 -0.20219922943E+03  0.80787595209E+03  0.10300076721E+04  0.10100000352E+00 0.  1.
</event>
<event>
 5   0  0.3557628E-07  0.2800943E+04  0.7818609E-02  0.8302976E-01
       -2   -1    0    0    0  501  0.00000000000E+00  0.00000000000E+00  0.24936664829E+04  0.24936664829E+04  0.25500000920E-02 0.  1.
        2   -1    0    0  501    0  0.00000000000E+00  0.00000000000E+00 -0.78652072779E+03  0.78652072779E+03  0.25500000920E-02 0. -1.
    10030    2    1    2    0    0  0.00000000000E+00  0.00000000000E+00  0.17071457551E+04  0.32801872107E+04  0.28009429677E+04 0.  0.
        5    1    3    3  502    0  0.13802583526E+04 -0.21327552828E+03  0.97470524229E+03  0.17031359224E+04  0.46999998093E+01 0. -1.
       -5    1    3    3    0  502 -0.13802583526E+04  0.21327552828E+03  0.73244051283E+03  0.15770512883E+04  0.46999998093E+01 0.  1.
</event>
<event>
 5   0  0.3522569E-07  0.2799428E+04  0.7818609E-02  0.8303446E-01
        2   -1    0    0  501    0  0.00000000000E+00  0.00000000000E+00  0.21548259016E+04  0.21548259016E+04  0.25500000920E-02 0. -1.
       -2   -1    0    0    0  501  0.00000000000E+00  0.00000000000E+00 -0.90921469158E+03  0.90921469158E+03  0.25500000920E-02 0.  1.
    10030    2    1    2    0    0  0.00000000000E+00  0.00000000000E+00  0.12456112100E+04  0.30640405932E+04  0.27994280612E+04 0.  0.
        1    1    3    3  502    0  0.11213741530E+04  0.74341818067E+03  0.10453666162E+04  0.17038022024E+04  0.50400001928E-02 0.  1.
       -1    1    3    3    0  502 -0.11213741530E+04 -0.74341818067E+03  0.20024459379E+03  0.13602383908E+04  0.50400001928E-02 0. -1.
</event>
<event>
 5   0  0.1357902E-07  0.2799217E+04  0.7818609E-02  0.8303511E-01
       -1   -1    0    0    0  501  0.00000000000E+00  0.00000000000E+00  0.10387562015E+04  0.10387562015E+04  0.50400001928E-02 0.  1.
        1   -1    0    0  501    0  0.00000000000E+00  0.00000000000E+00 -0.18858168563E+04  0.18858168563E+04  0.50400001928E-02 0. -1.
    10030    2    1    2    0    0  0.00000000000E+00  0.00000000000E+00 -0.84706065477E+03  0.29245730578E+04  0.27992170008E+04 0.  0.
        4    1    3    3  502    0  0.13130208602E+04  0.15212292853E+03  0.57225399864E+02  0.13230425254E+04  0.12699999809E+01 0.  1.
       -4    1    3    3    0  502 -0.13130208602E+04 -0.15212292853E+03 -0.90428605464E+03  0.16015305324E+04  0.12699999809E+01 0. -1.
</event>
<event>
 5   0  0.1374680E-07  0.2799528E+04  0.7818609E-02  0.8303415E-01
       -1   -1    0    0    0  501  0.00000000000E+00  0.00000000000E+00  0.12836009374E+04  0.12836009374E+04  0.50400001928E-02 0.  1.
        1   -1    0    0  501    0  0.00000000000E+00  0.00000000000E+00 -0.15264395563E+04  0.15264395563E+04  0.50400001928E-02 0. -1.
    10030    2    1    2    0    0  0.00000000000E+00  0.00000000000E+00 -0.24283861883E+03  0.28100404937E+04  0.27995279926E+04 0.  0.
        3    1    3    3  502    0  0.20279161298E+03  0.13002302823E+04 -0.60030203013E+03  0.14464044257E+04  0.10100000352E+00 0. -1.
       -3    1    3    3    0  502 -0.20279161298E+03 -0.13002302823E+04  0.35746341130E+03  0.13636360680E+04  0.10100000352E+00 0.  1.
</event>
<event>
 5   0  0.3557628E-07  0.2799317E+04  0.7818609E-02  0.8303481E-01
       -2   -1    0    0    0  501  0.00000000000E+00  0.00000000000E+00  0.10482229033E+04  0.10482229033E+04  0.25500000920E-02 0.  1.
        2   -1    0    0  501    0  0.00000000000E+00  0.00000000000E+00 -0.18689189012E+04  0.18689189012E+04  0.25500000920E-02 0. -1.
    10030    2    1    2    0    0  0.00000000000E+00  0.00000000000E+00 -0.82069599790E+03  0.29171418045E+04  0.27993167714E+04 0.  0.
        5    1    3    3  502    0  0.10767914327E+04 -0.89137972511E+03 -0.48391622331E+03  0.14792682668E+04  0.46999998093E+01 0.  1.
       -5    1    3    3    0  502 -0.10767914327E+04  0.89137972511E+03 -0.33677977459E+03  0.14378735377E+04  0.46999998093E+01 0. -1.
</event>
<event>
 5   0  0.3557628E-07  0.2800451E+04  0.7818609E-02  0.8303128E-01
       -2   -1    0    0    0  501  0.00000000000E+00  0.00000000000E+00  0.16072701550E+04  0.16072701550E+04  0.25500000920E-02 0.  1.
        2   -1    0    0  501    0  0.00000000000E+00  0.00000000000E+00 -0.12198514609E+04  0.12198514609E+04  0.25500000920E-02 0. -1.
    10030    2    1    2    0    0  0.00000000000E+00  0.00000000000E+00  0.38741869401E+03  0.28271216159E+04  0.28004505685E+04 0.  0.
        5    1    3    3  502    0  0.64081656020E+03  0.11780801062E+04 -0.21272920950E+03  0.13578639133E+04  0.46999998093E+01 0. -1.
       -5    1    3    3    0  502 -0.64081656020E+03 -0.11780801062E+04  0.60014790351E+03  0.14692577026E+04  0.46999998093E+01 0.  1.
</event>
<event>
 5   0  0.3571498E-07  0.2792104E+04  0.7818609E-02  0.8305724E-01
       -2   -1    0    0    0  501  0.00000000000E+00  0.00000000000E+00  0.20215097434E+04  0.20215097434E+04  0.25500000920E-02 0. -1.
        2   -1    0    0  501    0  0.00000000000E+00  0.00000000000E+00 -0.96411188445E+03  0.96411188445E+03  0.25500000920E-02 0.  1.
    10030    2    1    2    0    0  0.00000000000E+00  0.00000000000E+00  0.10573978590E+04  0.29856216279E+04  0.27921042732E+04 0.  0.
        2    1    3    3  502    0  0.27995550526E+02  0.67169084962E+03 -0.77962526378E+03  0.10294502903E+04  0.25500000920E-02 0.  1.
       -2    1    3    3    0  502 -0.27995550526E+02 -0.67169084962E+03  0.18370231228E+04  0.19561713376E+04  0.25500000920E-02 0. -1.
</event>
<event>
 5   0  0.3406920E-07  0.2799403E+04  0.7818609E-02  0.8303454E-01
       -2   -1    0    0    0  501  0.00000000000E+00  0.00000000000E+00  0.13037217523E+04  0.13037217523E+04  0.25500000920E-02 0. -1.
        2   -1    0    0  501    0  0.00000000000E+00  0.00000000000E+00 -0.15027473561E+04  0.15027473561E+04  0.25500000920E-02 0.  1.
    10030    2    1    2    0    0  0.00000000000E+00  0.00000000000E+00 -0.19902560378E+03  0.28064691085E+04  0.27994030910E+04 0.  0.
        4    1    3    3  502    0 -0.12121717750E+04  0.28017683295E+02 -0.80057570177E+03  0.14529516406E+04  0.12699999809E+01 0.  1.
       -4    1    3    3    0  502  0.12121717750E+04 -0.28017683295E+02  0.60155009799E+03  0.13535174679E+04  0.12699999809E+01 0. -1.
</event>
<event>
 5   0  0.1346049E-07  0.2805428E+04  0.7818609E-02  0.8301585E-01
        1   -1    0    0  501    0  0.00000000000E+00  0.00000000000E+00  0.16992382574E+04  0.16992382574E+04  0.50400001928E-02 0. -1.
       -1   -1    0    0    0  501  0.00000000000E+00  0.00000000000E+00 -0.11579348194E+04  0.11579348194E+04  0.50400001928E-02 0.  1.
    10030    2    1    2    0    0  0.00000000000E+00  0.00000000000E+00  0.54130343797E+03  0.28571730768E+04  0.28054284127E+04 0.  0.
        1    1    3    3  502    0 -0.19219033330E+03 -0.99805754510E+03  0.12552042609E+04  0.16151141520E+04  0.50400001928E-02 0. -1.
       -1    1    3    3    0  502  0.19219033330E+03  0.99805754510E+03 -0.71390082292E+03  0.12420589247E+04  0.50400001928E-02 0.  1.
</event>
<event>
 5   0  0.1346049E-07  0.2800841E+04  0.7818609E-02  0.8303007E-01
       -1   -1    0    0    0  501  0.00000000000E+00  0.00000000000E+00  0.81115667032E+03  0.81115667033E+03  0.50400001928E-02 0.  1.
        1   -1    0    0  501    0  0.00000000000E+00  0.00000000000E+00 -0.24177542692E+04  0.24177542692E+04  0.50400001928E-02 0. -1.
    10030    2    1    2    0    0  0.00000000000E+00  0.00000000000E+00 -0.16065975989E+04  0.32289109395E+04  0.28008409471E+04 0.  0.
        1    1    3    3  502    0 -0.44565052428E+03 -0.10320647502E+04 -0.17660485304E+04  0.20934873895E+04  0.50400001928E-02 0. -1.
       -1    1    3    3    0  502  0.44565052428E+03  0.10320647502E+04  0.15945093150E+03  0.11354235500E+04  0.50400001928E-02 0.  1.
</event>
<event>
 5   0  0.1361741E-07  0.2799031E+04  0.7818609E-02  0.8303569E-01
       -1   -1    0    0    0  501  0.00000000000E+00  0.00000000000E+00  0.15539978875E+04  0.15539978875E+04  0.50400001928E-02 0.  1.
        1   -1    0    0  501    0  0.00000000000E+00  0.00000000000E+00 -0.12603903752E+04  0.12603903752E+04  0.50400001928E-02 0. -1.
    10030    2    1    2    0    0  0.00000000000E+00  0.00000000000E+00  0.29360751231E+03  0.28143882628E+04  0.27990312471E+04 0.  0.
        5    1    3    3  502    0  0.12121712074E+04  0.47637734686E+03  0.66179299734E+03  0.14609197356E+04  0.46999998093E+01 0.  1.
       -5    1    3    3    0  502 -0.12121712074E+04 -0.47637734686E+03 -0.36818548503E+03  0.13534685272E+04  0.46999998093E+01 0. -1.
</event>
<event>
 5   0  0.3522569E-07  0.2796864E+04  0.7818609E-02  0.8304243E-01
        2   -1    0    0  501    0  0.00000000000E+00  0.00000000000E+00  0.12885659655E+04  0.12885659655E+04  0.25500000920E-02 0.  1.
       -2   -1    0    0    0  501  0.00000000000E+00  0.00000000000E+00 -0.15176657520E+04  0.15176657520E+04  0.25500000920E-02 0. -1.
    10030    2    1    2    0    0  0.00000000000E+00  0.00000000000E+00 -0.22909978643E+03  0.28062317175E+04  0.27968642692E+04 0.  0.
        1    1    3    3  502    0  0.98162314850E+03  0.82670303219E+03 -0.67191969182E+03  0.14486193363E+04  0.50400001928E-02 0. -1.
       -1    1    3    3    0  502 -0.98162314850E+03 -0.82670303219E+03  0.44281990539E+03  0.13576123813E+04  0.50400001928E-02 0.  1.
</event>
<event>
 5   0  0.3406920E-07  0.2800019E+04  0.7818609E-02  0.8303262E-01
        2   -1    0    0  501    0  0.00000000000E+00  0.00000000000E+00  0.22795858134E+04  0.22795858134E+04  0.25500000920E-02 0.  1.
       -2   -1    0    0    0  501  0.00000000000E+00  0.00000000000E+00 -0.85981727385E+03  0.85981727386E+03  0.25500000920E-02 0. -1.
    10030    2    1    2    0    0  0.00000000000E+00  0.00000000000E+00  0.14197685396E+04  0.31394030873E+04  0.28000194711E+04 0.  0.
        4    1    3    3  502    0  0.29372687530E+03  0.47116796248E+03  0.21508654487E+04  0.22213731153E+04  0.12699999809E+01 0.  1.
       -4    1    3    3    0  502 -0.29372687530E+03 -0.47116796248E+03 -0.73109690908E+03  0.91802997201E+03  0.12699999809E+01 0. -1.
</event>
<event>
 5   0  0.1357902E-07  0.2800545E+04  0.7818609E-02  0.8303099E-01
       -1   -1    0    0    0  501  0.00000000000E+00  0.00000000000E+00  0.12851597804E+04  0.12851597804E+04  0.50400001928E-02 0.  1.
        1   -1    0    0  501    0  0.00000000000E+00  0.00000000000E+00 -0.15256954870E+04  0.15256954870E+04  0.50400001928E-02 0. -1.
    10030    2    1    2    0    0  0.00000000000E+00  0.00000000000E+00 -0.24053570663E+03  0.28108552674E+04  0.28005445735E+04 0.  0.
        4    1    3    3  502    0  0.90142399513E+03 -0.72822427716E+03  0.66868279529E+03  0.13379140893E+04  0.12699999809E+01 0.  1.
       -4    1    3    3    0  502 -0.90142399513E+03  0.72822427716E+03 -0.90921850192E+03  0.14729411780E+04  0.12699999809E+01 0. -1.
</event>
<event>
 5   0  0.1361741E-07  0.2800751E+04  0.7818609E-02  0.8303035E-01
        1   -1    0    0  501    0  0.00000000000E+00  0.00000000000E+00  0.25465322720E+04  0.25465322720E+04  0.50400001928E-02 0.  1.
       -1   -1    0    0    0  501  0.00000000000E+00  0.00000000000E+00 -0.77008719706E+03  0.77008719707E+03  0.50400001928E-02 0. -1.
    10030    2    1    2    0    0  0.00000000000E+00  0.00000000000E+00  0.17764450749E+04  0.33166194691E+04  0.28007512561E+04 0.  0.
        5    1    3    3  502    0 -0.21585377759E+03  0.10540841740E+04 -0.17315954332E+03  0.10898131109E+04  0.46999998093E+01 0. -1.
       -5    1    3    3    0  502  0.21585377759E+03 -0.10540841740E+04  0.19496046183E+04  0.22268063582E+04  0.46999998093E+01 0.  1.
</event>
<event>
 5   0  0.3522569E-07  0.2800348E+04  0.7818609E-02  0.8303160E-01
       -2   -1    0    0    0  501  0.00000000000E+00  0.00000000000E+00  0.16012593201E+04  0.16012593201E+04  0.25500000920E-02 0.  1.
        2   -1    0    0  501    0  0.00000000000E+00  0.00000000000E+00 -0.12243404834E+04  0.12243404835E+04  0.25500000920E-02 0. -1.
    10030    2    1    2    0    0  0.00000000000E+00  0.00000000000E+00  0.37691883661E+03  0.28255998035E+04  0.28003475570E+04 0.  0.
        1    1    3    3  502    0 -0.13817826917E+04  0.14701410180E+03  0.36191084514E+03  0.14359373290E+04  0.50400001928E-02 0. -1.
       -1    1    3    3    0  502  0.13817826917E+04 -0.14701410180E+03  0.15007991468E+02  0.13896624745E+04  0.50400001928E-02 0.  1.
</event>
<event>
 5   0  0.1374680E-07  0.2799215E+04  0.7818609E-02  0.8303512E-01
        1   -1    0    0  501    0  0.00000000000E+00  0.00000000000E+00  0.21549546540E+04  0.21549546540E+04  0.50400001928E-02 0.  1.
       -1   -1    0    0    0  501  0.00000000000E+00  0.00000000000E+00 -0.90902209096E+03  0.90902209097E+03  0.50400001928E-02 0. -1.
    10030    2    1    2    0    0  0.00000000000E+00  0.00000000000E+00  0.12459325631E+04  0.30639767450E+04  0.27992151654E+04 0.  0.
        3    1    3    3  502    0  0.68792779444E+03 -0.11587959254E+03 -0.70515218148E+03  0.99192355531E+03  0.10100000352E+00 0. -1.
       -3    1    3    3    0  502 -0.68792779444E+03  0.11587959254E+03  0.19510847445E+04  0.20720531897E+04  0.10100000352E+00 0.  1.
</event>
<event>
 5   0  0.3571498E-07  0.2797107E+04  0.7818609E-02  0.8304167E-01
        2   -1    0    0  501    0  0.00000000000E+00  0.00000000000E+00  0.15076529637E+04  0.15076529637E+04  0.25500000920E-02 0. -1.
       -2   -1    0    0    0  501  0.00000000000E+00  0.00000000000E+00 -0.12973489674E+04  0.12973489674E+04  0.25500000920E-02 0.  1.
    10030    2    1    2    0    0  0.00000000000E+00  0.00000000000E+00  0.21030399623E+03  0.28050019311E+04  0.27971070882E+04 0.  0.
        2    1    3    3  502    0  0.44331765166E+03 -0.97925853542E+03  0.10023695050E+04  0.14697695207E+04  0.25500000920E-02 0. -1.
       -2    1    3    3    0  502 -0.44331765166E+03  0.97925853542E+03 -0.79206550880E+03  0.13352324104E+04  0.25500000920E-02 0.  1.
</event>
<event>
 5   0  0.3571498E-07  0.2797257E+04  0.7818609E-02  0.8304120E-01
       -2   -1    0    0    0  501  0.00000000000E+00  0.00000000000E+00  0.10049414586E+04  0.10049414586E+04  0.25500000920E-02 0.  1.
        2   -1    0    0  501    0  0.00000000000E+00  0.00000000000E+00 -0.19465431416E+04  0.19465431416E+04  0.25500000920E-02 0. -1.
    10030    2    1    2    0    0  0.00000000000E+00  0.00000000000E+00 -0.94160168303E+03  0.29514846002E+04  0.27972571594E+04 0.  0.
        2    1    3    3  502    0 -0.77269920270E+02 -0.89659713484E+03  0.65888631371E+03  0.11153422063E+04  0.25500000920E-02 0.  1.
       -2    1    3    3    0  502  0.77269920270E+02  0.89659713484E+03 -0.16004879967E+04  0.18361423939E+04  0.25500000920E-02 0. -1.
</event>
<event>
 5   0  0.3406920E-07  0.2800056E+04  0.7818609E-02  0.8303251E-01
        2   -1    0    0  501    0  0.00000000000E+00  0.00000000000E+00  0.20619679441E+04  0.20619679441E+04  0.25500000920E-02 0. -1.
       -2   -1    0    0    0  501  0.00000000000E+00  0.00000000000E+00 -0.95058593517E+03  0.95058593518E+03  0.25500000920E-02 0.  1.
    10030    2    1    2    0    0  0.00000000000E+00  0.00000000000E+00  0.11113820089E+04  0.30125538793E+04  0.28000555183E+04 0.  0.
        4    1    3    3  502    0 -0.73561346229E+03 -0.60395239327E+03  0.16603486944E+04  0.19138038194E+04  0.12699999809E+01 0. -1.
       -4    1    3    3    0  502  0.73561346229E+03  0.60395239327E+03 -0.54896668553E+03  0.10987500598E+04  0.12699999809E+01 0.  1.
</event>
<event>
 5   0  0.3502141E-07  0.2800229E+04  0.7818609E-02  0.8303197E-01
       -2   -1    0    0    0  501  0.00000000000E+00  0.00000000000E+00  0.12020950015E+04  0.12020950015E+04  0.25500000920E-02 0.  1.
        2   -1    0    0  501    0  0.00000000000E+00  0.00000000000E+00 -0.16307534793E+04  0.16307534793E+04  0.25500000920E-02 0. -1.
    10030    2    1    2    0    0  0.00000000000E+00  0.00000000000E+00 -0.42865847781E+03  0.28328484809E+04  0.28002289951E+04 0.  0.
        3    1    3    3  502    0 -0.11404093785E+03 -0.11957294448E+04 -0.94211645933E+03  0.15265509077E+04  0.10100000352E+00 0. -1.
       -3    1    3    3    0  502  0.11404093785E+03  0.11957294448E+04  0.51345798152E+03  0.13062975732E+04  0.10100000352E+00 0.  1.
</event>
<event>
 5   0  0.3522569E-07  0.2801414E+04  0.7818609E-02  0.8302829E-01
        2   -1    0    0  501    0  0.00000000000E+00  0.00000000000E+00  0.14819277882E+04  0.14819277882E+04  0.25500000920E-02 0.  1.
       -2   -1    0    0    0  501  0.00000000000E+00  0.00000000000E+00 -0.13239381429E+04  0.13239381429E+04  0.25500000920E-02 0. -1.
    10030    2    1    2    0    0  0.00000000000E+00  0.00000000000E+00  0.15798964524E+03  0.28058659311E+04  0.28014144454E+04 0.  0.
        1    1    3    3  502    0 -0.42491335522E+03 -0.12120132942E+04 -0.48086847550E+03  0.13714087922E+04  0.50400001928E-02 0. -1.
       -1    1    3    3    0  502  0.42491335522E+03  0.12120132942E+04  0.63885812074E+03  0.14344571388E+04  0.50400001928E-02 0.  1.
</event>
<event>
 5   0  0.3557628E-07  0.2800427E+04  0.7818609E-02  0.8303136E-01
        2   -1    0    0  501    0  0.00000000000E+00  0.00000000000E+00  0.19310117565E+04  0.19310117565E+04  0.25500000920E-02 0. -1.
       -2   -1    0    0    0  501  0.00000000000E+00  0.00000000000E+00 -0.10153217879E+04  0.10153217879E+04  0.25500000920E-02 0.  1.
    10030    2    1    2    0    0  0.00000000000E+00  0.00000000000E+00  0.91568996859E+03  0.29463335443E+04  0.28004273310E+04 0.  0.
        5    1    3    3  502    0  0.62443963333E+03 -0.67495480648E+03  0.15688398493E+04  0.18184524765E+04  0.46999998093E+01 0. -1.
       -5    1    3    3    0  502 -0.62443963333E+03  0.67495480648E+03 -0.65314988074E+03  0.11278810678E+04  0.46999998093E+01 0.  1.
</event>
<event>
 5   0  0.1357902E-07  0.2800336E+04  0.7818609E-02  0.8303164E-01
        1   -1    0    0  501    0  0.00000000000E+00  0.00000000000E+00  0.61852552850E+03  0.61852552852E+03  0.50400001928E-02 0.  1.
       -1   -1    0    0    0  501  0.00000000000E+00  0.00000000000E+00 -0.31695867783E+04  0.31695867783E+04  0.50400001928E-02 0. -1.
    10030    2    1    2    0    0  0.00000000000E+00  0.00000000000E+00 -0.25510612498E+04  0.37881123068E+04  0.28003359350E+04 0.  0.
        4    1    3    3  502    0 -0.10513781115E+04 -0.66813693871E+03 -0.21402931711E+04  0.24764206778E+04  0.12699999809E+01 0. -1.
       -4    1    3    3    0  502  0.10513781115E+04  0.66813693871E+03 -0.41076807869E+03  0.13116916290E+04  0.12699999809E+01 0.  1.
</event>
<event>
 5   0  0.1361741E-07  0.2799332E+04  0.7818609E-02  0.8303476E-01
       -1   -1    0    0    0  501  0.00000000000E+00  0.00000000000E+00  0.75183961751E+03  0.75183961752E+03  0.50400001928E-02 0. -1.
        1   -1    0    0  501    0  0.00000000000E+00  0.00000000000E+00 -0.26056947083E+04  0.26056947083E+04  0.50400001928E-02 0.  1.
    10030    2    1    2    0    0  0.00000000000E+00  0.00000000000E+00 -0.18538550908E+04  0.33575343258E+04  0.27993317151E+04 0.  0.
        5    1    3    3  502    0  0.10549631598E+04  0.50018092029E+03 -0.10405921426E+01  0.11675407464E+04  0.46999998093E+01 0. -1.
       -5    1    3    3    0  502 -0.10549631598E+04 -0.50018092029E+03 -0.18528144986E+04  0.21899935794E+04  0.46999998093E+01 0.  1.
</event>
<event>
 5   0  0.3406920E-07  0.2799677E+04  0.7818609E-02  0.8303369E-01
       -2   -1    0    0    0  501  0.00000000000E+00  0.00000000000E+00  0.97187750563E+03  0.97187750563E+03  0.25500000920E-02 0.  1.
        2   -1    0    0  501    0  0.00000000000E+00  0.00000000000E+00 -0.20162492596E+04  0.20162492596E+04  0.25500000920E-02 0. -1.
    10030    2    1    2    0    0  0.00000000000E+00  0.00000000000E+00 -0.10443717540E+04  0.29881267653E+04  0.27996766250E+04 0.  0.
        4    1    3    3  502    0  0.10664048929E+04  0.55387291203E+02 -0.14882403930E+04  0.18317063706E+04  0.12699999809E+01 0. -1.
       -4    1    3    3    0  502 -0.10664048929E+04 -0.55387291203E+02  0.44386863898E+03  0.11564203947E+04  0.12699999809E+01 0.  1.
</event>
<event>
 5   0  0.3571498E-07  0.2802786E+04  0.7818609E-02  0.8302404E-01
        2   -1    0    0  501    0  0.00000000000E+00  0.00000000000E+00  0.22240596155E+04  0.22240596155E+04  0.25500000920E-02 0. -1.
       -2   -1    0    0    0  501  0.00000000000E+00  0.00000000000E+00 -0.88302596270E+03  0.88302596271E+03  0.25500000920E-02 0.  1.
    10030    2    1    2    0    0  0.00000000000E+00  0.00000000000E+00  0.13410336528E+04  0.31070855782E+04  0.28027860305E+04 0.  0.
        2    1    3    3  502    0 -0.79651827528E+03 -0.11170242924E+04  0.98741626664E+03  0.16903181702E+04  0.25500000920E-02 0. -1.
       -2    1    3    3    0  502  0.79651827528E+03  0.11170242924E+04  0.35361738619E+03  0.14167674081E+04  0.25500000920E-02 0.  1.
</event>
<event>
 5   0  0.1361741E-07  0.2798663E+04  0.7818609E-02  0.8303683E-01
       -1   -1    0    0    0  501  0.00000000000E+00  0.00000000000E+00  0.10572814456E+04  0.10572814456E+04  0.50400001928E-02 0.  1.
        1   -1    0    0  501    0  0.00000000000E+00  0.00000000000E+00 -0.18520413526E+04  0.18520413526E+04  0.50400001928E-02 0. -1.
    10030    2    1    2    0    0  0.00000000000E+00  0.00000000000E+00 -0.79475990703E+03  0.29093227982E+04  0.27986632228E+04 0.  0.
        5    1    3    3  502    0 -0.11609173027E+03 -0.79443125626E+03 -0.15887803020E+04  0.17801245037E+04  0.46999998093E+01 0. -1.
       -5    1    3    3    0  502  0.11609173027E+03  0.79443125626E+03  0.79402039494E+03  0.11291982945E+04  0.46999998093E+01 0.  1.
</event>
<event>
 5   0  0.1357902E-07  0.2800283E+04  0.7818609E-02  0.8303181E-01
       -1   -1    0    0    0  501  0.00000000000E+00  0.00000000000E+00  0.65801698540E+03  0.65801698542E+03  0.50400001928E-02 0. -1.
        1   -1    0    0  501    0  0.00000000000E+00  0.00000000000E+00 -0.29792481085E+04  0.29792481085E+04  0.50400001928E-02 0.  1.
    10030    2    1    2    0    0  0.00000000000E+00  0.00000000000E+00 -0.23212311231E+04  0.36372650939E+04  0.28002827422E+04 0.  0.
        4    1    3    3  502    0  0.10626685117E+04 -0.75681493951E+03 -0.50039875949E+03  0.13972951549E+04  0.12699999809E+01 0. -1.
       -4    1    3    3    0  502 -0.10626685117E+04  0.75681493951E+03 -0.18208323636E+04  0.22399699390E+04  0.12699999809E+01 0.  1.
</event>
<event>
 5   0  0.3557628E-07  0.2798026E+04  0.7818609E-02  0.8303881E-01
        2   -1    0    0  501    0  0.00000000000E+00  0.00000000000E+00  0.12621381223E+04  0.12621381223E+04  0.25500000920E-02 0. -1.
       -2   -1    0    0    0  501  0.00000000000E+00  0.00000000000E+00 -0.15507315148E+04  0.15507315148E+04  0.25500000920E-02 0.  1.
    10030    2    1    2    0    0  0.00000000000E+00  0.00000000000E+00 -0.28859339252E+03  0.28128696372E+04  0.27980259916E+04 0.  0.
        5    1    3    3  502    0 -0.44101370250E+03  0.13198916025E+04 -0.28861433324E+03  0.14212414473E+04  0.46999998093E+01 0.  1.
       -5    1    3    3    0  502  0.44101370250E+03 -0.13198916025E+04  0.20940717980E-01  0.13916281898E+04  0.46999998093E+01 0. -1.
</event>
<event>
 5   0  0.1366235E-07  0.2799800E+04  0.7818609E-02  0.8303331E-01
       -1   -1    0    0    0  501  0.00000000000E+00  0.00000000000E+00  0.21641494184E+04  0.21641494184E+04  0.50400001928E-02 0.  1.
        1   -1    0    0  501    0  0.00000000000E+00  0.00000000000E+00 -0.90553803921E+03  0.90553803922E+03  0.50400001928E-02 0. -1.
    10030    2    1    2    0    0  0.00000000000E+00  0.00000000000E+00  0.12586113792E+04  0.30696874576E+04  0.27997997221E+04 0.  0.
        2    1    3    3  502    0  0.11972323828E+04 -0.36371511373E+03  0.13175639511E+04  0.18170384772E+04  0.25500000920E-02 0. -1.
       -2    1    3    3    0  502 -0.11972323828E+04  0.36371511373E+03 -0.58952571896E+02  0.12526489804E+04  0.25500000920E-02 0.  1.
</event>
<event>
 5   0  0.1374680E-07  0.2797261E+04  0.7818609E-02  0.8304119E-01
        1   -1    0    0  501    0  0.00000000000E+00  0.00000000000E+00  0.20686647969E+04  0.20686647969E+04  0.50400001928E-02 0. -1.
       -1   -1    0    0    0  501  0.00000000000E+00  0.00000000000E+00 -0.94561835046E+03  0.94561835048E+03  0.50400001928E-02 0.  1.
    10030    2    1    2    0    0  0.00000000000E+00  0.00000000000E+00  0.11230464464E+04  0.30142831474E+04  0.27972610839E+04 0.  0.
        3    1    3    3  502    0  0.45997857370E+03 -0.98767545091E+03 -0.38349028063E+03  0.11550531980E+04  0.10100000352E+00 0. -1.
       -3    1    3    3    0  502 -0.45997857370E+03  0.98767545091E+03  0.15065367270E+04  0.18592299494E+04  0.10100000352E+00 0.  1.
</event>
<event>
 5   0  0.1346049E-07  0.2799544E+04  0.7818609E-02  0.8303410E-01
        1   -1    0    0  501    0  0.00000000000E+00  0.00000000000E+00  0.13286987405E+04  0.13286987405E+04  0.50400001928E-02 0.  1.
       -1   -1    0    0    0  501  0.00000000000E+00  0.00000000000E+00 -0.14746471957E+04  0.14746471957E+04  0.50400001928E-02 0. -1.
    10030    2    1    2    0    0  0.00000000000E+00  0.00000000000E+00 -0.14594845521E+03  0.28033459362E+04  0.27995441569E+04 0.  0.
        1    1    3    3  502    0  0.54746388046E+03  0.89360348923E+02  0.12139402417E+04  0.13346733244E+04  0.50400001928E-02 0.  1.
       -1    1    3    3    0  502 -0.54746388046E+03 -0.89360348923E+02 -0.13598886969E+04  0.14686726117E+04  0.50400001928E-02 0. -1.
</event>
<event>
 5   0  0.3522569E-07  0.2799962E+04  0.7818609E-02  0.8303280E-01
       -2   -1    0    0    0  501  0.00000000000E+00  0.00000000000E+00  0.11262487632E+04  0.11262487632E+04  0.25500000920E-02 0.  1.
        2   -1    0    0  501    0  0.00000000000E+00  0.00000000000E+00 -0.17402436765E+04  0.17402436765E+04  0.25500000920E-02 0. -1.
    10030    2    1    2    0    0  0.00000000000E+00  0.00000000000E+00 -0.61399491326E+03  0.28664924397E+04  0.27999623486E+04 0.  0.
        1    1    3    3  502    0 -0.46871747514E+03  0.36082572082E+03  0.99203230840E+03  0.11549975642E+04  0.50400001928E-02 0.  1.
       -1    1    3    3    0  502  0.46871747514E+03 -0.36082572082E+03 -0.16060272217E+04  0.17114948756E+04  0.50400001928E-02 0. -1.
</event>
<event>
 5   0  0.3502141E-07  0.2800128E+04  0.7818609E-02  0.8303229E-01
        2   -1    0    0  501    0  0.00000000000E+00  0.00000000000E+00  0.10975864455E+04  0.10975864455E+04  0.25500000920E-02 0. -1.
       -2   -1    0    0    0  501  0.00000000000E+00  0.00000000000E+00 -0.17858993605E+04  0.17858993605E+04  0.25500000920E-02 0.  1.
    10030    2    1    2    0    0  0.00000000000E+00  0.00000000000E+00 -0.68831291497E+03  0.28834858060E+04  0.28001278050E+04 0.  0.
        3    1    3    3  502    0 -0.65879083072E+03 -0.77336228484E+03 -0.13362067417E+04  0.16785538564E+04  0.10100000352E+00 0.  1.
       -3    1    3    3    0  502  0.65879083072E+03  0.77336228484E+03  0.64789382668E+03  0.12049319496E+04  0.10100000352E+00 0. -1.
</event>
<event>
 5   0  0.3557628E-07  0.2802950E+04  0.7818609E-02  0.8302353E-01
        2   -1    0    0  501    0  0.00000000000E+00  0.00000000000E+00  0.23025357243E+04  0.23025357243E+04  0.25500000920E-02 0.  1.
       -2   -1    0    0    0  501  0.00000000000E+00  0.00000000000E+00 -0.85303034306E+03  0.85303034306E+03  0.25500000920E-02 0. -1.
    10030    2    1    2    0    0  0.00000000000E+00  0.00000000000E+00  0.14495053812E+04  0.31555660674E+04  0.28029504732E+04 0.  0.
        5    1    3    3  502    0  0.49625942943E+02 -0.11344323967E+04  0.16494951476E+04  0.20025623408E+04  0.46999998093E+01 0.  1.
       -5    1    3    3    0  502 -0.49625942943E+02  0.11344323967E+04 -0.19998976638E+03  0.11530037266E+04  0.46999998093E+01 0. -1.
</event>
<event>
 5   0  0.3406920E-07  0.2805806E+04  0.7818609E-02  0.8301468E-01
       -2   -1    0    0    0  501  0.00000000000E+00  0.00000000000E+00  0.19976825311E+04  0.19976825311E+04  0.25500000920E-02 0.  1.
        2   -1    0    0  501    0  0.00000000000E+00  0.00000000000E+00 -0.98520990736E+03  0.98520990736E+03  0.25500000920E-02 0. -1.
    10030    2    1    2    0    0  0.00000000000E+00  0.00000000000E+00  0.10124726237E+04  0.29828924385E+04  0.28058058531E+04 0.  0.
        4    1    3    3  502    0  0.41363234493E+03  0.52076041277E+03 -0.80697968828E+03  0.10457059599E+04  0.12699999809E+01 0. -1.
       -4    1    3    3    0  502 -0.41363234493E+03 -0.52076041277E+03  0.18194523120E+04  0.19371864786E+04  0.12699999809E+01 0.  1.
</event>
<event>
 5   0  0.3522569E-07  0.2795769E+04  0.7818609E-02  0.8304583E-01
       -2   -1    0    0    0  501  0.00000000000E+00  0.00000000000E+00  0.11488542941E+04  0.11488542941E+04  0.25500000920E-02 0. -1.
        2   -1    0    0  501    0  0.00000000000E+00  0.00000000000E+00 -0.17008956241E+04  0.17008956241E+04  0.25500000920E-02 0.  1.
    10030    2    1    2    0    0  0.00000000000E+00  0.00000000000E+00 -0.55204132996E+03  0.28497499182E+04  0.27957691190E+04 0.  0.
        1    1    3    3  502    0  0.69365919693E+03 -0.65543176102E+02  0.95924536516E+03  0.11855845225E+04  0.50400001928E-02 0. -1.
       -1    1    3    3    0  502 -0.69365919693E+03  0.65543176102E+02 -0.15112866951E+04  0.16641653957E+04  0.50400001928E-02 0.  1.
</event>
<event>
 5   0  0.1366235E-07  0.2799083E+04  0.7818609E-02  0.8303553E-01
        1   -1    0    0  501    0  0.00000000000E+00  0.00000000000E+00  0.16597453071E+04  0.16597453071E+04  0.50400001928E-02 0.  1.
       -1   -1    0    0    0  501  0.00000000000E+00  0.00000000000E+00 -0.11801309148E+04  0.11801309148E+04  0.50400001928E-02 0. -1.
    10030    2    1    2    0    0  0.00000000000E+00  0.00000000000E+00  0.47961439232E+03  0.28398762219E+04  0.27990832410E+04 0.  0.
        2    1    3    3  502    0 -0.22495941048E+03 -0.71246798607E+03  0.14404810622E+04  0.16227147187E+04  0.25500000920E-02 0.  1.
       -2    1    3    3    0  502  0.22495941048E+03  0.71246798607E+03 -0.96086666990E+03  0.12171615032E+04  0.25500000920E-02 0. -1.
</event>
<event>
 5   0  0.1374680E-07  0.2799908E+04  0.7818609E-02  0.8303297E-01
        1   -1    0    0  501    0  0.00000000000E+00  0.00000000000E+00  0.12039930776E+04  0.12039930776E+04  0.50400001928E-02 0.  1.
       -1   -1    0    0    0  501  0.00000000000E+00  0.00000000000E+00 -0.16278096245E+04  0.16278096245E+04  0.50400001928E-02 0. -1.
    10030    2    1    2    0    0  0.00000000000E+00  0.00000000000E+00 -0.42381654690E+03  0.28318027020E+04  0.27999082267E+04 0.  0.
        3    1    3    3  502    0  0.73991635360E+02  0.11446148391E+04 -0.10237056211E+04  0.15373975091E+04  0.10100000352E+00 0. -1.
       -3    1    3    3    0  502 -0.73991635360E+02 -0.11446148391E+04  0.59988907418E+03  0.12944051930E+04  0.10100000352E+00 0.  1.
</event>
<event>
 5   0  0.3502141E-07  0.2797631E+04  0.7818609E-02  0.8304004E-01
        2   -1    0    0  501    0  0.00000000000E+00  0.00000000000E+00  0.24134173649E+04  0.24134173649E+04  0.25500000920E-02 0.  1.
       -2   -1    0    0    0  501  0.00000000000E+00  0.00000000000E+00 -0.81075247812E+03  0.81075247813E+03  0.25500000920E-02 0. -1.
    10030    2    1    2    0    0  0.00000000000E+00  0.00000000000E+00  0.16026648868E+04  0.32241698430E+04  0.27976305041E+04 0.  0.
        3    1    3    3  502    0  0.86198587137E+03 -0.24064982227E+03  0.20402999201E+04  0.22279487772E+04  0.10100000352E+00 0.  1.
       -3    1    3    3    0  502 -0.86198587137E+03  0.24064982227E+03 -0.43763503337E+03  0.99622106584E+03  0.10100000352E+00 0. -1.
</event>
<event>
 5   0  0.3502141E-07  0.2799415E+04  0.7818609E-02  0.8303450E-01
       -2   -1    0    0    0  501  0.00000000000E+00  0.00000000000E+00  0.10288937612E+04  0.10288937612E+04  0.25500000920E-02 0. -1.
        2   -1    0    0  501    0  0.00000000000E+00  0.00000000000E+00 -0.19041632598E+04  0.19041632598E+04  0.25500000920E-02 0.  1.
    10030    2    1    2    0    0  0.00000000000E+00  0.00000000000E+00 -0.87526949866E+03  0.29330570210E+04  0.27994154378E+04 0.  0.
        3    1    3    3  502    0 -0.35741679089E+03 -0.13270268642E+04 -0.15956979037E+03  0.13835496337E+04  0.10100000352E+00 0. -1.
       -3    1    3    3    0  502  0.35741679089E+03  0.13270268642E+04 -0.71569970829E+03  0.15495073873E+04  0.10100000352E+00 0.  1.
</event>
<event>
 5   0  0.1357902E-07  0.2799658E+04  0.7818609E-02  0.8303375E-01
        1   -1    0    0  501    0  0.00000000000E+00  0.00000000000E+00  0.98813651487E+03  0.98813651488E+03  0.50400001928E-02 0.  1.
       -1   -1    0    0    0  501  0.00000000000E+00  0.00000000000E+00 -0.19830466381E+04  0.19830466381E+04  0.50400001928E-02 0. -1.
    10030    2    1    2    0    0  0.00000000000E+00  0.00000000000E+00 -0.99491012323E+03  0.29711831530E+04  0.27996576889E+04 0.  0.
        4    1    3    3  502    0 -0.13237963772E+03 -0.20500191322E+03  0.96538804911E+03  0.99575391095E+03  0.12699999809E+01 0.  1.
       -4    1    3    3    0  502  0.13237963772E+03  0.20500191322E+03 -0.19602981723E+04  0.19754292420E+04  0.12699999809E+01 0. -1.
</event>
<event>
 5   0  0.1346049E-07  0.2800484E+04  0.7818609E-02  0.8303118E-01
       -1   -1    0    0    0  501  0.00000000000E+00  0.00000000000E+00  0.10309714710E+04  0.10309714710E+04  0.50400001928E-02 0. -1.
        1   -1    0    0  501    0  0.00000000000E+00  0.00000000000E+00 -0.19017771978E+04  0.19017771978E+04  0.50400001928E-02 0.  1.
    10030    2    1    2    0    0  0.00000000000E+00  0.00000000000E+00 -0.87080572683E+03  0.29327486689E+04  0.28004842690E+04 0.  0.
        1    1    3    3  502    0  0.12261867153E+04  0.34874110072E+02  0.27171177381E+03  0.12564144827E+04  0.50400001928E-02 0. -1.
       -1    1    3    3    0  502 -0.12261867153E+04 -0.34874110072E+02 -0.11425175006E+04  0.16763341861E+04  0.50400001928E-02 0.  1.
</event>
<event>
 5   0  0.3557628E-07  0.2799395E+04  0.7818609E-02  0.8303456E-01
       -2   -1    0    0    0  501  0.00000000000E+00  0.00000000000E+00  0.96639495993E+03  0.96639495993E+03  0.25500000920E-02 0. -1.
        2   -1    0    0  501    0  0.00000000000E+00  0.00000000000E+00 -0.20272792228E+04  0.20272792228E+04  0.25500000920E-02 0.  1.
    10030    2    1    2    0    0  0.00000000000E+00  0.00000000000E+00 -0.10608842629E+04  0.29936741827E+04  0.27993945226E+04 0.  0.
        5    1    3    3  502    0 -0.10417708282E+03  0.54933398184E+03  0.84177413460E+03  0.10105575055E+04  0.46999998093E+01 0. -1.
       -5    1    3    3    0  502  0.10417708282E+03 -0.54933398184E+03 -0.19026583975E+04  0.19831166773E+04  0.46999998093E+01 0.  1.
</event>
<event>
 5   0  0.1357902E-07  0.2799862E+04  0.7818609E-02  0.8303311E-01
       -1   -1    0    0    0  501  0.00000000000E+00  0.00000000000E+00  0.10821527546E+04  0.10821527546E+04  0.50400001928E-02 0. -1.
        1   -1    0    0  501    0  0.00000000000E+00  0.00000000000E+00 -0.18110259420E+04  0.18110259420E+04  0.50400001928E-02 0.  1.
    10030    2    1    2    0    0  0.00000000000E+00  0.00000000000E+00 -0.72887318738E+03  0.28931786966E+04  0.27998619336E+04 0.  0.
        4    1    3    3  502    0  0.36247777731E+03  0.13130919296E+04 -0.69800274310E+03  0.15306240547E+04  0.12699999809E+01 0.  1.
       -4    1    3    3    0  502 -0.36247777731E+03 -0.13130919296E+04 -0.30870444282E+02  0.13625546418E+04  0.12699999809E+01 0. -1.
</event>
<event>
 5   0  0.1346049E-07  0.2797490E+04  0.7818609E-02  0.8304048E-01
       -1   -1    0    0    0  501  0.00000000000E+00  0.00000000000E+00  0.93082956486E+03  0.93082956487E+03  0.50400001928E-02 0. -1.
        1   -1    0    0  501    0  0.00000000000E+00  0.00000000000E+00 -0.21018747277E+04  0.21018747277E+04  0.50400001928E-02 0.  1.
    10030    2    1    2    0    0  0.00000000000E+00  0.00000000000E+00 -0.11710451628E+04  0.30327042926E+04  0.27974896877E+04 0.  0.
        1    1    3    3  502    0  0.25160132645E+03 -0.13757894794E+04 -0.56419016728E+03  0.15081148709E+04  0.50400001928E-02 0. -1.
       -1    1    3    3    0  502 -0.25160132645E+03  0.13757894794E+04 -0.60685499553E+03  0.15245894216E+04  0.50400001928E-02 0.  1.
</event>
<event>
 5   0  0.3406920E-07  0.2798976E+04  0.7818609E-02  0.8303586E-01
        2   -1    0    0  501    0  0.00000000000E+00  0.00000000000E+00  0.12360541868E+04  0.12360541868E+04  0.25500000920E-02 0. -1.
       -2   -1    0    0    0  501  0.00000000000E+00  0.00000000000E+00 -0.15845317478E+04  0.15845317478E+04  0.25500000920E-02 0.  1.
    10030    2    1    2    0    0  0.00000000000E+00  0.00000000000E+00 -0.34847756106E+03  0.28205859346E+04  0.27989763136E+04 0.  0.
        4    1    3    3  502    0  0.56886090469E+03  0.11802772900E+04  0.32140022579E+03  0.13490577927E+04  0.12699999809E+01 0. -1.
       -4    1    3    3    0  502 -0.56886090469E+03 -0.11802772900E+04 -0.66987778685E+03  0.14715281419E+04  0.12699999809E+01 0.  1.
</event>
<event>
 5   0  0.1374680E-07  0.2798032E+04  0.7818609E-02  0.8303880E-01
       -1   -1    0    0    0  501  0.00000000000E+00  0.00000000000E+00  0.14351639538E+04  0.14351639538E+04  0.50400001928E-02 0.  1.
        1   -1    0    0  501    0  0.00000000000E+00  0.00000000000E+00 -0.13637786869E+04  0.13637786869E+04  0.50400001928E-02 0. -1.
    10030    2    1    2    0    0  0.00000000000E+00  0.00000000000E+00  0.71385266921E+02  0.27989426406E+04  0.27980321745E+04 0.  0.
        3    1    3    3  502    0 -0.56509311589E+03 -0.21642762202E+02  0.13157368404E+04  0.14321180406E+04  0.10100000352E+00 0.  1.
       -3    1    3    3    0  502  0.56509311589E+03  0.21642762202E+02 -0.12443515735E+04  0.13668246001E+04  0.10100000352E+00 0. -1.
</event>
<event>
 5   0  0.1346049E-07  0.2801639E+04  0.7818609E-02  0.8302760E-01
        1   -1    0    0  501    0  0.00000000000E+00  0.00000000000E+00  0.28891969910E+04  0.28891969910E+04  0.50400001928E-02 0.  1.
       -1   -1    0    0    0  501  0.00000000000E+00  0.00000000000E+00 -0.67918374409E+03  0.67918374411E+03  0.50400001928E-02 0. -1.
    10030    2    1    2    0    0  0.00000000000E+00  0.00000000000E+00  0.22100132469E+04  0.35683807351E+04  0.28016392557E+04 0.  0.
        1    1    3    3  502    0  0.73036383370E+03 -0.44703774242E+03 -0.30700646479E+03  0.90968513353E+03  0.50400001928E-02 0. -1.
       -1    1    3    3    0  502 -0.73036383370E+03  0.44703774242E+03  0.25170197117E+04  0.26586956016E+04  0.50400001928E-02 0.  1.
</event>
<event>
 5   0  0.1346049E-07  0.2799056E+04  0.7818609E-02  0.8303561E-01
       -1   -1    0    0    0  501  0.00000000000E+00  0.00000000000E+00  0.20520107117E+04  0.20520107117E+04  0.50400001928E-02 0.  1.
        1   -1    0    0  501    0  0.00000000000E+00  0.00000000000E+00 -0.95451675493E+03  0.95451675495E+03  0.50400001928E-02 0. -1.
    10030    2    1    2    0    0  0.00000000000E+00  0.00000000000E+00  0.10974939567E+04  0.30065274666E+04  0.27990559877E+04 0.  0.
        1    1    3    3  502    0  0.68964274470E+03 -0.37929381017E+03  0.17917653814E+04  0.19570115206E+04  0.50400001928E-02 0.  1.
       -1    1    3    3    0  502 -0.68964274470E+03  0.37929381017E+03 -0.69427142469E+03  0.10495159460E+04  0.50400001928E-02 0. -1.
</event>
<event>
 5   0  0.1361741E-07  0.2803056E+04  0.7818609E-02  0.8302320E-01
        1   -1    0    0  501    0  0.00000000000E+00  0.00000000000E+00  0.12837335123E+04  0.12837335123E+04  0.50400001928E-02 0.  1.
       -1   -1    0    0    0  501  0.00000000000E+00  0.00000000000E+00 -0.15301312907E+04  0.15301312907E+04  0.50400001928E-02 0. -1.
    10030    2    1    2    0    0  0.00000000000E+00  0.00000000000E+00 -0.24639777843E+03  0.28138648030E+04  0.28030560580E+04 0.  0.
        5    1    3    3  502    0  0.59506149310E+03 -0.12684987008E+04 -0.90337485719E+02  0.14040548728E+04  0.46999998093E+01 0.  1.
       -5    1    3    3    0  502 -0.59506149310E+03  0.12684987008E+04 -0.15606029272E+03  0.14098099302E+04  0.46999998093E+01 0. -1.
</event>
<event>
 5   0  0.1361741E-07  0.2796263E+04  0.7818609E-02  0.8304429E-01
       -1   -1    0    0    0  501  0.00000000000E+00  0.00000000000E+00  0.75454996413E+03  0.75454996414E+03  0.50400001928E-02 0.  1.
        1   -1    0    0  501    0  0.00000000000E+00  0.00000000000E+00 -0.25906464629E+04  0.25906464629E+04  0.50400001928E-02 0. -1.
    10030    2    1    2    0    0  0.00000000000E+00  0.00000000000E+00 -0.18360964988E+04  0.33451964271E+04  0.27962633608E+04 0.  0.
        5    1    3    3  502    0 -0.17251311607E+03 -0.73500225523E+03 -0.23258158516E+04  0.24452874179E+04  0.46999998093E+01 0. -1.
       -5    1    3    3    0  502  0.17251311607E+03  0.73500225523E+03  0.48971935278E+03  0.89990900923E+03  0.46999998093E+01 0.  1.
</event>
<event>
 5   0  0.1366235E-07  0.2800804E+04  0.7818609E-02  0.8303019E-01
       -1   -1    0    0    0  501  0.00000000000E+00  0.00000000000E+00  0.85931049278E+03  0.85931049279E+03  0.50400001928E-02 0. -1.
        1   -1    0    0  501    0  0.00000000000E+00  0.00000000000E+00 -0.22822089227E+04  0.22822089227E+04  0.50400001928E-02 0.  1.
    10030    2    1    2    0    0  0.00000000000E+00  0.00000000000E+00 -0.14228984299E+04  0.31415194155E+04  0.28008042231E+04 0.  0.
        2    1    3    3  502    0  0.13005820187E+04  0.49901387333E+03 -0.87242692195E+03  0.16436718551E+04  0.25500000920E-02 0. -1.
       -2    1    3    3    0  502 -0.13005820187E+04 -0.49901387333E+03 -0.55047150794E+03  0.14978475604E+04  0.25500000920E-02 0.  1.
</event>
<event>
 5   0  0.1366235E-07  0.2809970E+04  0.7818609E-02  0.8300180E-01
       -1   -1    0    0    0  501  0.00000000000E+00  0.00000000000E+00  0.14297553047E+04  0.14297553047E+04  0.50400001928E-02 0. -1.
        1   -1    0    0  501    0  0.00000000000E+00  0.00000000000E+00 -0.13806434424E+04  0.13806434424E+04  0.50400001928E-02 0.  1.
    10030    2    1    2    0    0  0.00000000000E+00  0.00000000000E+00  0.49111862225E+02  0.28103987471E+04  0.28099695982E+04 0.  0.
        2    1    3    3  502    0  0.80086758267E+03  0.67417237103E+03  0.96176094823E+03  0.14215770793E+04  0.25500000920E-02 0.  1.
       -2    1    3    3    0  502 -0.80086758267E+03 -0.67417237103E+03 -0.91264908601E+03  0.13888216678E+04  0.25500000920E-02 0. -1.
</event>
<event>
 5   0  0.1366235E-07  0.2801175E+04  0.7818609E-02  0.8302904E-01
        1   -1    0    0  501    0  0.00000000000E+00  0.00000000000E+00  0.13514954404E+04  0.13514954404E+04  0.50400001928E-02 0. -1.
       -1   -1    0    0    0  501  0.00000000000E+00  0.00000000000E+00 -0.14514630247E+04  0.14514630247E+04  0.50400001928E-02 0.  1.
    10030    2    1    2    0    0  0.00000000000E+00  0.00000000000E+00 -0.99967584315E+02  0.28029584651E+04  0.28011752247E+04 0.  0.
        2    1    3    3  502    0  0.47275979501E+03 -0.11261303359E+04 -0.73596693229E+03  0.14259448385E+04  0.25500000920E-02 0. -1.
       -2    1    3    3    0  502 -0.47275979501E+03  0.11261303359E+04  0.63599934798E+03  0.13770136266E+04  0.25500000920E-02 0.  1.
</event>
<event>
 5   0  0.3557628E-07  0.2799393E+04  0.7818609E-02  0.8303457E-01
       -2   -1    0    0    0  501  0.00000000000E+00  0.00000000000E+00  0.76427268262E+03  0.76427268262E+03  0.25500000920E-02 0. -1.
        2   -1    0    0  501    0  0.00000000000E+00  0.00000000000E+00 -0.25634172975E+04  0.25634172975E+04  0.25500000920E-02 0.  1.
    10030    2    1    2    0    0  0.00000000000E+00  0.00000000000E+00 -0.17991446148E+04  0.33276899801E+04  0.27993926589E+04 0.  0.
        5    1    3    3  502    0  0.13108973229E+04 -0.46451395020E+03 -0.10871591886E+04  0.17652654736E+04  0.46999998093E+01 0. -1.
       -5    1    3    3    0  502 -0.13108973229E+04  0.46451395020E+03 -0.71198542629E+03  0.15624245065E+04  0.46999998093E+01 0.  1.
</event>
<event>
 5   0  0.1346049E-07  0.2799735E+04  0.7818609E-02  0.8303351E-01
        1   -1    0    0  501    0  0.00000000000E+00  0.00000000000E+00  0.13916441429E+04  0.13916441429E+04  0.50400001928E-02 0.  1.
       -1   -1    0    0    0  501  0.00000000000E+00  0.00000000000E+00 -0.14081395239E+04  0.14081395239E+04  0.50400001928E-02 0. -1.
    10030    2    1    2    0    0  0.00000000000E+00  0.00000000000E+00 -0.16495381068E+02  0.27997836668E+04  0.27997350738E+04 0.  0.
        1    1    3    3  502    0 -0.31634477664E+03 -0.58193208000E+03 -0.12415209581E+04  0.14071578635E+04  0.50400001928E-02 0. -1.
       -1    1    3    3    0  502  0.31634477664E+03  0.58193208000E+03  0.12250255771E+04  0.13926258033E+04  0.50400001928E-02 0.  1.
</event>
<event>
 5   0  0.1173363E-07  0.2799664E+04  0.7818609E-02  0.8303373E-01
       -3   -1    0    0    0  501  0.00000000000E+00  0.00000000000E+00  0.15818991569E+04  0.15818991601E+04  0.10100000352E+00 0. -1.
        3   -1    0    0  501    0  0.00000000000E+00  0.00000000000E+00 -0.12387192492E+04  0.12387192533E+04  0.10100000352E+00 0.  1.
    10030    2    1    2    0    0  0.00000000000E+00  0.00000000000E+00  0.34317990769E+03  0.28206184134E+04  0.27996635128E+04 0.  0.
        5    1    3    3  502    0 -0.43176411276E+03  0.77606814919E+03 -0.91854622505E+03  0.12776741677E+04  0.46999998093E+01 0.  1.
       -5    1    3    3    0  502  0.43176411276E+03 -0.77606814919E+03  0.12617261327E+04  0.15429442457E+04  0.46999998093E+01 0. -1.
</event>
<event>
 5   0  0.3502141E-07  0.2799585E+04  0.7818609E-02  0.8303397E-01
        2   -1    0    0  501    0  0.00000000000E+00  0.00000000000E+00  0.12439594199E+04  0.12439594199E+04  0.25500000920E-02 0. -1.
       -2   -1    0    0    0  501  0.00000000000E+00  0.00000000000E+00 -0.15751474298E+04  0.15751474298E+04  0.25500000920E-02 0.  1.
    10030    2    1    2    0    0  0.00000000000E+00  0.00000000000E+00 -0.33118800990E+03  0.28191068496E+04  0.27995853142E+04 0.  0.
        3    1    3    3  502    0  0.59285288256E+02  0.12185994003E+04 -0.85661541489E+03  0.14907344576E+04  0.10100000352E+00 0. -1.
       -3    1    3    3    0  502 -0.59285288256E+02 -0.12185994003E+04  0.52542740499E+03  0.13283723920E+04  0.10100000352E+00 0.  1.
</event>
<event>
 5   0  0.1357902E-07  0.2800066E+04  0.7818609E-02  0.8303248E-01
       -1   -1    0    0    0  501  0.00000000000E+00  0.00000000000E+00  0.13963319649E+04  0.13963319649E+04  0.50400001928E-02 0.  1.
        1   -1    0    0  501    0  0.00000000000E+00  0.00000000000E+00 -0.14037438521E+04  0.14037438521E+04  0.50400001928E-02 0. -1.
    10030    2    1    2    0    0  0.00000000000E+00  0.00000000000E+00 -0.74118871831E+01  0.28000758171E+04  0.28000660073E+04 0.  0.
        4    1    3    3  502    0 -0.44454359329E+02  0.32221906781E+03 -0.13654336966E+04  0.14036424440E+04  0.12699999809E+01 0. -1.
       -4    1    3    3    0  502  0.44454359329E+02 -0.32221906781E+03  0.13580218094E+04  0.13964333731E+04  0.12699999809E+01 0.  1.
</event>
<event>
 5   0  0.3406920E-07  0.2800055E+04  0.7818609E-02  0.8303251E-01
        2   -1    0    0  501    0  0.00000000000E+00  0.00000000000E+00  0.12721536375E+04  0.12721536375E+04  0.25500000920E-02 0.  1.
       -2   -1    0    0    0  501  0.00000000000E+00  0.00000000000E+00 -0.15407554270E+04  0.15407554270E+04  0.25500000920E-02 0. -1.
    10030    2    1    2    0    0  0.00000000000E+00  0.00000000000E+00 -0.26860178944E+03  0.28129090645E+04  0.28000554430E+04 0.  0.
        4    1    3    3  502    0 -0.50329259789E+03  0.12874903693E+04  0.88394675282E+02  0.13851895616E+04  0.12699999809E+01 0.  1.
       -4    1    3    3    0  502  0.50329259789E+03 -0.12874903693E+04 -0.35699646473E+03  0.14277195029E+04  0.12699999809E+01 0. -1.
</event>
<event>
 5   0  0.3522569E-07  0.2799813E+04  0.7818609E-02  0.8303326E-01
       -2   -1    0    0    0  501  0.00000000000E+00  0.00000000000E+00  0.13573311232E+04  0.13573311232E+04  0.25500000920E-02 0.  1.
        2   -1    0    0  501    0  0.00000000000E+00  0.00000000000E+00 -0.14438174997E+04  0.14438174998E+04  0.25500000920E-02 0. -1.
    10030    2    1    2    0    0  0.00000000000E+00  0.00000000000E+00 -0.86486376594E+02  0.28011486229E+04  0.27998131570E+04 0.  0.
        1    1    3    3  502    0 -0.12725691493E+04 -0.16954056628E+03 -0.60168698701E+03  0.14178164457E+04  0.50400001928E-02 0. -1.
       -1    1    3    3    0  502  0.12725691493E+04  0.16954056628E+03  0.51520061042E+03  0.13833321772E+04  0.50400001928E-02 0.  1.
</event>
<event>
 5   0  0.1374680E-07  0.2801668E+04  0.7818609E-02  0.8302751E-01
       -1   -1    0    0    0  501  0.00000000000E+00  0.00000000000E+00  0.14996991824E+04  0.14996991824E+04  0.50400001928E-02 0.  1.
        1   -1    0    0  501    0  0.00000000000E+00  0.00000000000E+00 -0.13084867197E+04  0.13084867197E+04  0.50400001928E-02 0. -1.
    10030    2    1    2    0    0  0.00000000000E+00  0.00000000000E+00  0.19121246266E+03  0.28081859021E+04  0.28016684056E+04 0.  0.
        3    1    3    3  502    0  0.50100824925E+03 -0.10818301836E+04  0.83282429916E+03  0.14542909391E+04  0.10100000352E+00 0.  1.
       -3    1    3    3    0  502 -0.50100824925E+03  0.10818301836E+04 -0.64161183650E+03  0.13538949630E+04  0.10100000352E+00 0. -1.
</event>
<event>
 5   0  0.3502141E-07  0.2800117E+04  0.7818609E-02  0.8303232E-01
        2   -1    0    0  501    0  0.00000000000E+00  0.00000000000E+00  0.10544859520E+04  0.10544859520E+04  0.25500000920E-02 0. -1.
       -2   -1    0    0    0  501  0.00000000000E+00  0.00000000000E+00 -0.18588802976E+04  0.18588802976E+04  0.25500000920E-02 0.  1.
    10030    2    1    2    0    0  0.00000000000E+00  0.00000000000E+00 -0.80439434561E+03  0.29133662496E+04  0.28001165407E+04 0.  0.
        3    1    3    3  502    0 -0.79197363551E+03 -0.80041348828E+03 -0.12678816025E+04  0.16957027333E+04  0.10100000352E+00 0.  1.
       -3    1    3    3    0  502  0.79197363551E+03  0.80041348828E+03  0.46348725687E+03  0.12176635163E+04  0.10100000352E+00 0. -1.
</event>
<event>
 5   0  0.1357902E-07  0.2800019E+04  0.7818609E-02  0.8303263E-01
       -1   -1    0    0    0  501  0.00000000000E+00  0.00000000000E+00  0.32714375822E+04  0.32714375822E+04  0.50400001928E-02 0.  1.
        1   -1    0    0  501    0  0.00000000000E+00  0.00000000000E+00 -0.59913293988E+03  0.59913293990E+03  0.50400001928E-02 0. -1.
    10030    2    1    2    0    0  0.00000000000E+00  0.00000000000E+00  0.26723046423E+04  0.38705705221E+04  0.28000185830E+04 0.  0.
        4    1    3    3  502    0  0.35136394456E+03  0.12099213716E+04  0.49229440588E+03  0.13526720748E+04  0.12699999809E+01 0. -1.
       -4    1    3    3    0  502 -0.35136394456E+03 -0.12099213716E+04  0.21800102364E+04  0.25178984473E+04  0.12699999809E+01 0.  1.
</event>
<event>
 5   0  0.3571498E-07  0.2800866E+04  0.7818609E-02  0.8303000E-01
        2   -1    0    0  501    0  0.00000000000E+00  0.00000000000E+00  0.14542115873E+04  0.14542115873E+04  0.25500000920E-02 0. -1.
       -2   -1    0    0    0  501  0.00000000000E+00  0.00000000000E+00 -0.13486428740E+04  0.13486428740E+04  0.25500000920E-02 0.  1.
    10030    2    1    2    0    0  0.00000000000E+00  0.00000000000E+00  0.10556871322E+03  0.28028544613E+04  0.28008656480E+04 0.  0.
        2    1    3    3  502    0 -0.11657105477E+04 -0.39352204506E+03  0.72219238770E+03  0.14266402931E+04  0.25500000920E-02 0. -1.
       -2    1    3    3    0  502  0.11657105477E+04  0.39352204506E+03 -0.61662367448E+03  0.13762141682E+04  0.25500000920E-02 0.  1.
</event>
<event>
 5   0  0.1357902E-07  0.2800489E+04  0.7818609E-02  0.8303117E-01
        1   -1    0    0  501    0  0.00000000000E+00  0.00000000000E+00  0.19351278102E+04  0.19351278102E+04  0.50400001928E-02 0. -1.
       -1   -1    0    0    0  501  0.00000000000E+00  0.00000000000E+00 -0.10132067468E+04  0.10132067468E+04  0.50400001928E-02 0.  1.
    10030    2    1    2    0    0  0.00000000000E+00  0.00000000000E+00  0.92192106342E+03  0.29483345570E+04  0.28004889238E+04 0.  0.
        4    1    3    3  502    0  0.75954663089E+03 -0.31101105867E+03  0.16553324855E+04  0.18476380093E+04  0.12699999809E+01 0. -1.
       -4    1    3    3    0  502 -0.75954663089E+03  0.31101105867E+03 -0.73341142205E+03  0.11006965476E+04  0.12699999809E+01 0.  1.
</event>
<event>
 5   0  0.1357902E-07  0.2799975E+04  0.7818609E-02  0.8303276E-01
        1   -1    0    0  501    0  0.00000000000E+00  0.00000000000E+00  0.28662697322E+04  0.28662697322E+04  0.50400001928E-02 0.  1.
       -1   -1    0    0    0  501  0.00000000000E+00  0.00000000000E+00 -0.68380320264E+03  0.68380320266E+03  0.50400001928E-02 0. -1.
    10030    2    1    2    0    0  0.00000000000E+00  0.00000000000E+00  0.21824665296E+04  0.35500729349E+04  0.27999745874E+04 0.  0.
        4    1    3    3  502    0 -0.12147745020E+04  0.21636601429E+03  0.25262709741E+03  0.12594893434E+04  0.12699999809E+01 0. -1.
       -4    1    3    3    0  502  0.12147745020E+04 -0.21636601429E+03  0.19298394322E+04  0.22905835915E+04  0.12699999809E+01 0.  1.
</event>
<event>
 5   0  0.1366235E-07  0.2799137E+04  0.7818609E-02  0.8303536E-01
       -1   -1    0    0    0  501  0.00000000000E+00  0.00000000000E+00  0.10414461817E+04  0.10414461817E+04  0.50400001928E-02 0.  1.
        1   -1    0    0  501    0  0.00000000000E+00  0.00000000000E+00 -0.18808389533E+04  0.18808389533E+04  0.50400001928E-02 0. -1.
    10030    2    1    2    0    0  0.00000000000E+00  0.00000000000E+00 -0.83939277159E+03  0.29222851351E+04  0.27991374003E+04 0.  0.
        2    1    3    3  502    0  0.79134939345E+03  0.63241929759E+03  0.58850462595E+03  0.11715484306E+04  0.25500000920E-02 0.  1.
       -2    1    3    3    0  502 -0.79134939345E+03 -0.63241929759E+03 -0.14278973975E+04  0.17507367045E+04  0.25500000920E-02 0. -1.
</event>
<event>
 5   0  0.3571498E-07  0.2781211E+04  0.7818609E-02  0.8309125E-01
        2   -1    0    0  501    0  0.00000000000E+00  0.00000000000E+00  0.16188029500E+04  0.16188029500E+04  0.25500000920E-02 0.  1.
       -2   -1    0    0    0  501  0.00000000000E+00  0.00000000000E+00 -0.11945765055E+04  0.11945765055E+04  0.25500000920E-02 0. -1.
    10030    2    1    2    0    0  0.00000000000E+00  0.00000000000E+00  0.42422644453E+03  0.28133794555E+04  0.27812112261E+04 0.  0.
        2    1    3    3  502    0 -0.95285054825E+03 -0.91895136107E+03 -0.21870975069E+03  0.13417263977E+04  0.25500000920E-02 0. -1.
       -2    1    3    3    0  502  0.95285054825E+03  0.91895136107E+03  0.64293619522E+03  0.14716530578E+04  0.25500000920E-02 0.  1.
</event>
<event>
 5   0  0.3522569E-07  0.2800028E+04  0.7818609E-02  0.8303260E-01
        2   -1    0    0  501    0  0.00000000000E+00  0.00000000000E+00  0.23013522349E+04  0.23013522349E+04  0.25500000920E-02 0. -1.
       -2   -1    0    0    0  501  0.00000000000E+00  0.00000000000E+00 -0.85169022433E+03  0.85169022434E+03  0.25500000920E-02 0.  1.
    10030    2    1    2    0    0  0.00000000000E+00  0.00000000000E+00  0.14496620105E+04  0.31530424592E+04  0.28000280007E+04 0.  0.
        1    1    3    3  502    0  0.50154408248E+03 -0.19250806565E+03  0.21806654153E+04  0.22458645274E+04  0.50400001928E-02 0. -1.
       -1    1    3    3    0  502 -0.50154408248E+03  0.19250806565E+03 -0.73100340480E+03  0.90717793176E+03  0.50400001928E-02 0.  1.
</event>
<event>
 5   0  0.3557628E-07  0.2799640E+04  0.7818609E-02  0.8303380E-01
        2   -1    0    0  501    0  0.00000000000E+00  0.00000000000E+00  0.18180684033E+04  0.18180684033E+04  0.25500000920E-02 0. -1.
       -2   -1    0    0    0  501  0.00000000000E+00  0.00000000000E+00 -0.10777900019E+04  0.10777900019E+04  0.25500000920E-02 0.  1.
    10030    2    1    2    0    0  0.00000000000E+00  0.00000000000E+00  0.74027840135E+03  0.28958584053E+04  0.27996399397E+04 0.  0.
        5    1    3    3  502    0 -0.10522131462E+04  0.48939956146E+03  0.11798647810E+04  0.16549221817E+04  0.46999998093E+01 0. -1.
       -5    1    3    3    0  502  0.10522131462E+04 -0.48939956146E+03 -0.43958637969E+03  0.12409362236E+04  0.46999998093E+01 0.  1.
</event>
<event>
 5   0  0.3522569E-07  0.2799894E+04  0.7818609E-02  0.8303301E-01
       -2   -1    0    0    0  501  0.00000000000E+00  0.00000000000E+00  0.13521434058E+04  0.13521434058E+04  0.25500000920E-02 0.  1.
        2   -1    0    0  501    0  0.00000000000E+00  0.00000000000E+00 -0.14494404348E+04  0.14494404348E+04  0.25500000920E-02 0. -1.
    10030    2    1    2    0    0  0.00000000000E+00  0.00000000000E+00 -0.97297028997E+02  0.28015838405E+04  0.27998938022E+04 0.  0.
        1    1    3    3  502    0  0.87390138555E+03 -0.10285205174E+04  0.32345394400E+03  0.13878690646E+04  0.50400001928E-02 0.  1.
       -1    1    3    3    0  502 -0.87390138555E+03  0.10285205174E+04 -0.42075097300E+03  0.14137147760E+04  0.50400001928E-02 0. -1.
</event>
<event>
 5   0  0.1346049E-07  0.2799269E+04  0.7818609E-02  0.8303495E-01
        1   -1    0    0  501    0  0.00000000000E+00  0.00000000000E+00  0.12228970002E+04  0.12228970002E+04  0.50400001928E-02 0. -1.
       -1   -1    0    0    0  501  0.00000000000E+00  0.00000000000E+00 -0.16019152812E+04  0.16019152812E+04  0.50400001928E-02 0.  1.
    10030    2    1    2    0    0  0.00000000000E+00  0.00000000000E+00 -0.37901828104E+03  0.28248122814E+04  0.27992694704E+04 0.  0.
        1    1    3    3  502    0  0.12700373913E+04 -0.46392628760E+03 -0.55440903076E+03  0.14613664663E+04  0.50400001928E-02 0.  1.
       -1    1    3    3    0  502 -0.12700373913E+04  0.46392628760E+03  0.17539074973E+03  0.13634458151E+04  0.50400001928E-02 0. -1.
</event>
<event>
 5   0  0.3557628E-07  0.2799788E+04  0.7818609E-02  0.8303334E-01
       -2   -1    0    0    0  501  0.00000000000E+00  0.00000000000E+00  0.12805518889E+04  0.12805518889E+04  0.25500000920E-02 0.  1.
        2   -1    0    0  501    0  0.00000000000E+00  0.00000000000E+00 -0.15303577688E+04  0.15303577688E+04  0.25500000920E-02 0. -1.
    10030    2    1    2    0    0  0.00000000000E+00  0.00000000000E+00 -0.24980587996E+03  0.28109096577E+04  0.27997875144E+04 0.  0.
        5    1    3    3  502    0  0.92125678174E+03  0.40179644435E+00 -0.11831138691E+04  0.14994981616E+04  0.46999998093E+01 0. -1.
       -5    1    3    3    0  502 -0.92125678174E+03 -0.40179644435E+00  0.93330798918E+03  0.13114114961E+04  0.46999998093E+01 0.  1.
</event>
<event>
 5   0  0.3406920E-07  0.2805371E+04  0.7818609E-02  0.8301603E-01
        2   -1    0    0  501    0  0.00000000000E+00  0.00000000000E+00  0.21285087920E+04  0.21285087920E+04  0.25500000920E-02 0. -1.
       -2   -1    0    0    0  501  0.00000000000E+00  0.00000000000E+00 -0.92436870707E+03  0.92436870707E+03  0.25500000920E-02 0.  1.
    10030    2    1    2    0    0  0.00000000000E+00  0.00000000000E+00  0.12041400849E+04  0.30528774991E+04  0.28053712197E+04 0.  0.
        4    1    3    3  502    0 -0.46496141003E+03 -0.14394135975E+03 -0.82952284964E+03  0.96177856019E+03  0.12699999809E+01 0.  1.
       -4    1    3    3    0  502  0.46496141003E+03  0.14394135975E+03  0.20336629346E+04  0.20910989389E+04  0.12699999809E+01 0. -1.
</event>
<event>
 5   0  0.3406920E-07  0.2799987E+04  0.7818609E-02  0.8303272E-01
        2   -1    0    0  501    0  0.00000000000E+00  0.00000000000E+00  0.14028169271E+04  0.14028169271E+04  0.25500000920E-02 0. -1.
       -2   -1    0    0    0  501  0.00000000000E+00  0.00000000000E+00 -0.13971762439E+04  0.13971762439E+04  0.25500000920E-02 0.  1.
    10030    2    1    2    0    0  0.00000000000E+00  0.00000000000E+00  0.56406832557E+01  0.27999931710E+04  0.27999874894E+04 0.  0.
        4    1    3    3  502    0  0.11523587833E+04 -0.30207352550E+03 -0.73257335346E+03  0.13985151094E+04  0.12699999809E+01 0.  1.
       -4    1    3    3    0  502 -0.11523587833E+04  0.30207352550E+03  0.73821403672E+03  0.14014780616E+04  0.12699999809E+01 0. -1.
</event>
<event>
 5   0  0.1366235E-07  0.2799878E+04  0.7818609E-02  0.8303306E-01
        1   -1    0    0  501    0  0.00000000000E+00  0.00000000000E+00  0.12817709555E+04  0.12817709555E+04  0.50400001928E-02 0.  1.
       -1   -1    0    0    0  501  0.00000000000E+00  0.00000000000E+00 -0.15290011967E+04  0.15290011968E+04  0.50400001928E-02 0. -1.
    10030    2    1    2    0    0  0.00000000000E+00  0.00000000000E+00 -0.24723024130E+03  0.28107721522E+04  0.27998780865E+04 0.  0.
        2    1    3    3  502    0  0.24921495699E+03 -0.10575672926E+04 -0.10098140849E+04  0.14833344732E+04  0.25500000920E-02 0. -1.
       -2    1    3    3    0  502 -0.24921495699E+03  0.10575672926E+04  0.76258384362E+03  0.13274376790E+04  0.25500000920E-02 0.  1.
</event>
<event>
 5   0  0.1374680E-07  0.2799693E+04  0.7818609E-02  0.8303364E-01
        1   -1    0    0  501    0  0.00000000000E+00  0.00000000000E+00  0.14223072300E+04  0.14223072300E+04  0.50400001928E-02 0.  1.
       -1   -1    0    0    0  501  0.00000000000E+00  0.00000000000E+00 -0.13777407199E+04  0.13777407200E+04  0.50400001928E-02 0. -1.
    10030    2    1    2    0    0  0.00000000000E+00  0.00000000000E+00  0.44566510063E+02  0.28000479500E+04  0.27996932597E+04 0.  0.
        3    1    3    3  502    0  0.11199244519E+04 -0.58065483955E+03 -0.58457179412E+03  0.13903650648E+04  0.10100000352E+00 0.  1.
       -3    1    3    3    0  502 -0.11199244519E+04  0.58065483955E+03  0.62913830419E+03  0.14096828852E+04  0.10100000352E+00 0. -1.
</event>
<event>
 5   0  0.1361741E-07  0.2800452E+04  0.7818609E-02  0.8303128E-01
        1   -1    0    0  501    0  0.00000000000E+00  0.00000000000E+00  0.15986657805E+04  0.15986657805E+04  0.50400001928E-02 0. -1.
       -1   -1    0    0    0  501  0.00000000000E+00  0.00000000000E+00 -0.12264184577E+04  0.12264184577E+04  0.50400001928E-02 0.  1.
    10030    2    1    2    0    0  0.00000000000E+00  0.00000000000E+00  0.37224732283E+03  0.28250842383E+04  0.28004522642E+04 0.  0.
        5    1    3    3  502    0  0.50455799151E+03 -0.13039312374E+04  0.10932460475E+03  0.14024226888E+04  0.46999998093E+01 0. -1.
       -5    1    3    3    0  502 -0.50455799151E+03  0.13039312374E+04  0.26292271808E+03  0.14226615495E+04  0.46999998093E+01 0.  1.
</event>
<event>
 5   0  0.3406920E-07  0.2799782E+04  0.7818609E-02  0.8303336E-01
       -2   -1    0    0    0  501  0.00000000000E+00  0.00000000000E+00  0.11357349103E+04  0.11357349103E+04  0.25500000920E-02 0.  1.
        2   -1    0    0  501    0  0.00000000000E+00  0.00000000000E+00 -0.17254860822E+04  0.17254860822E+04  0.25500000920E-02 0. -1.
    10030    2    1    2    0    0  0.00000000000E+00  0.00000000000E+00 -0.58975117191E+03  0.28612209925E+04  0.27997819778E+04 0.  0.
        4    1    3    3  502    0  0.12865876559E+04 -0.54884490062E+03 -0.35227435144E+03  0.14424414556E+04  0.12699999809E+01 0.  1.
       -4    1    3    3    0  502 -0.12865876559E+04  0.54884490062E+03 -0.23747682047E+03  0.14187795369E+04  0.12699999809E+01 0. -1.
</event>
<event>
 5   0  0.3557628E-07  0.2799377E+04  0.7818609E-02  0.8303462E-01
        2   -1    0    0  501    0  0.00000000000E+00  0.00000000000E+00  0.12416383794E+04  0.12416383794E+04  0.25500000920E-02 0. -1.
       -2   -1    0    0    0  501  0.00000000000E+00  0.00000000000E+00 -0.15778572681E+04  0.15778572681E+04  0.25500000920E-02 0.  1.
    10030    2    1    2    0    0  0.00000000000E+00  0.00000000000E+00 -0.33621888865E+03  0.28194956475E+04  0.27993771745E+04 0.  0.
        5    1    3    3  502    0 -0.19482375846E+03  0.12669374109E+04  0.39808662488E+03  0.13422301408E+04  0.46999998093E+01 0. -1.
       -5    1    3    3    0  502  0.19482375846E+03 -0.12669374109E+04 -0.73430551353E+03  0.14772655067E+04  0.46999998093E+01 0.  1.
</event>
<event>
 5   0  0.3522569E-07  0.2799397E+04  0.7818609E-02  0.8303456E-01
       -2   -1    0    0    0  501  0.00000000000E+00  0.00000000000E+00  0.11281576552E+04  0.11281576552E+04  0.25500000920E-02 0.  1.
        2   -1    0    0  501    0  0.00000000000E+00  0.00000000000E+00 -0.17365971902E+04  0.17365971902E+04  0.25500000920E-02 0. -1.
    10030    2    1    2    0    0  0.00000000000E+00  0.00000000000E+00 -0.60843953498E+03  0.28647548455E+04  0.27993966594E+04 0.  0.
        1    1    3    3  502    0 -0.13746904906E+04 -0.24130675850E+03 -0.19614869009E+03  0.14094244234E+04  0.50400001928E-02 0.  1.
       -1    1    3    3    0  502  0.13746904906E+04  0.24130675850E+03 -0.41229084488E+03  0.14553304221E+04  0.50400001928E-02 0. -1.
</event>
<event>
 5   0  0.3522569E-07  0.2798339E+04  0.7818609E-02  0.8303784E-01
       -2   -1    0    0    0  501  0.00000000000E+00  0.00000000000E+00  0.11772247972E+04  0.11772247972E+04  0.25500000920E-02 0. -1.
        2   -1    0    0  501    0  0.00000000000E+00  0.00000000000E+00 -0.16629576037E+04  0.16629576037E+04  0.25500000920E-02 0.  1.
    10030    2    1    2    0    0  0.00000000000E+00  0.00000000000E+00 -0.48573280657E+03  0.28401824009E+04  0.27983387413E+04 0.  0.
        1    1    3    3  502    0 -0.33795673683E+03  0.27177243897E+03 -0.15930209744E+04  0.16509969229E+04  0.50400001928E-02 0.  1.
       -1    1    3    3    0  502  0.33795673683E+03 -0.27177243897E+03  0.11072881678E+04  0.11891854780E+04  0.50400001928E-02 0. -1.
</event>
<event>
 5   0  0.1173363E-07  0.2800964E+04  0.7818609E-02  0.8302969E-01
       -3   -1    0    0    0  501  0.00000000000E+00  0.00000000000E+00  0.13577028667E+04  0.13577028704E+04  0.10100000352E+00 0. -1.
        3   -1    0    0  501    0  0.00000000000E+00  0.00000000000E+00 -0.14446090502E+04  0.14446090537E+04  0.10100000352E+00 0.  1.
    10030    2    1    2    0    0  0.00000000000E+00  0.00000000000E+00 -0.86906183543E+02  0.28023119242E+04  0.28009640190E+04 0.  0.
        4    1    3    3  502    0  0.59782168422E+03 -0.72480154743E+03 -0.10825192943E+04  0.14333798117E+04  0.12699999809E+01 0.  1.
       -4    1    3    3    0  502 -0.59782168422E+03  0.72480154743E+03  0.99561311075E+03  0.13689321124E+04  0.12699999809E+01 0. -1.
</event>
<event>
 5   0  0.1173363E-07  0.2800016E+04  0.7818609E-02  0.8303263E-01
       -3   -1    0    0    0  501  0.00000000000E+00  0.00000000000E+00  0.20036556794E+04  0.20036556820E+04  0.10100000352E+00 0.  1.
        3   -1    0    0  501    0  0.00000000000E+00  0.00000000000E+00 -0.97822342214E+03  0.97822342736E+03  0.10100000352E+00 0. -1.
    10030    2    1    2    0    0  0.00000000000E+00  0.00000000000E+00  0.10254322573E+04  0.29818791093E+04  0.28000163765E+04 0.  0.
        4    1    3    3  502    0 -0.31802665269E+03  0.54649709546E+03  0.18429333330E+04  0.19483852057E+04  0.12699999809E+01 0.  1.
       -4    1    3    3    0  502  0.31802665269E+03 -0.54649709546E+03 -0.81750107568E+03  0.10334939036E+04  0.12699999809E+01 0. -1.
</event>
<event>
 5   0  0.3406920E-07  0.2799962E+04  0.7818609E-02  0.8303280E-01
        2   -1    0    0  501    0  0.00000000000E+00  0.00000000000E+00  0.14752381529E+04  0.14752381529E+04  0.25500000920E-02 0. -1.
       -2   -1    0    0    0  501  0.00000000000E+00  0.00000000000E+00 -0.13285632030E+04  0.13285632030E+04  0.25500000920E-02 0.  1.
    10030    2    1    2    0    0  0.00000000000E+00  0.00000000000E+00  0.14667494995E+03  0.28038013559E+04  0.27999622323E+04 0.  0.
        4    1    3    3  502    0 -0.20808851017E+03  0.77754398842E+03 -0.10736893535E+04  0.13418963905E+04  0.12699999809E+01 0.  1.
       -4    1    3    3    0  502  0.20808851017E+03 -0.77754398842E+03  0.12203643035E+04  0.14619049655E+04  0.12699999809E+01 0. -1.
</event>
<event>
 5   0  0.1357902E-07  0.2799655E+04  0.7818609E-02  0.8303375E-01
        1   -1    0    0  501    0  0.00000000000E+00  0.00000000000E+00  0.13855507472E+04  0.13855507472E+04  0.50400001928E-02 0.  1.
       -1   -1    0    0    0  501  0.00000000000E+00  0.00000000000E+00 -0.14142512903E+04  0.14142512903E+04  0.50400001928E-02 0. -1.
    10030    2    1    2    0    0  0.00000000000E+00  0.00000000000E+00 -0.28700543134E+02  0.27998020375E+04  0.27996549301E+04 0.  0.
        4    1    3    3  502    0 -0.12008964543E+04 -0.42039721259E+03  0.56931487757E+03  0.13939179147E+04  0.12699999809E+01 0. -1.
       -4    1    3    3    0  502  0.12008964543E+04  0.42039721259E+03 -0.59801542071E+03  0.14058841227E+04  0.12699999809E+01 0.  1.
</event>
<event>
 5   0  0.3406920E-07  0.2798558E+04  0.7818609E-02  0.8303716E-01
       -2   -1    0    0    0  501  0.00000000000E+00  0.00000000000E+00  0.14136120828E+04  0.14136120828E+04  0.25500000920E-02 0. -1.
        2   -1    0    0  501    0  0.00000000000E+00  0.00000000000E+00 -0.13850911834E+04  0.13850911834E+04  0.25500000920E-02 0.  1.
    10030    2    1    2    0    0  0.00000000000E+00  0.00000000000E+00  0.28520899346E+02  0.27987032662E+04  0.27985579377E+04 0.  0.
        4    1    3    3  502    0 -0.16522238193E+03  0.57590556109E+03 -0.12503266158E+04  0.13864645361E+04  0.12699999809E+01 0.  1.
       -4    1    3    3    0  502  0.16522238193E+03 -0.57590556109E+03  0.12788475152E+04  0.14122387301E+04  0.12699999809E+01 0. -1.
</event>
<event>
 5   0  0.1374680E-07  0.2794115E+04  0.7818609E-02  0.8305098E-01
        1   -1    0    0  501    0  0.00000000000E+00  0.00000000000E+00  0.20762723294E+04  0.20762723294E+04  0.50400001928E-02 0. -1.
       -1   -1    0    0    0  501  0.00000000000E+00  0.00000000000E+00 -0.94003566297E+03  0.94003566299E+03  0.50400001928E-02 0.  1.
    10030    2    1    2    0    0  0.00000000000E+00  0.00000000000E+00  0.11362366664E+04  0.30163079924E+04  0.27941152701E+04 0.  0.
        3    1    3    3  502    0 -0.96302806689E+03 -0.21069463959E+03  0.16367655876E+04  0.19107110948E+04  0.10100000352E+00 0. -1.
       -3    1    3    3    0  502  0.96302806689E+03  0.21069463959E+03 -0.50052892121E+03  0.11055968976E+04  0.10100000352E+00 0.  1.
</event>
<event>
 5   0  0.1357902E-07  0.2800762E+04  0.7818609E-02  0.8303032E-01
       -1   -1    0    0    0  501  0.00000000000E+00  0.00000000000E+00  0.80000649373E+03  0.80000649375E+03  0.50400001928E-02 0.  1.
        1   -1    0    0  501    0  0.00000000000E+00  0.00000000000E+00 -0.24513141378E+04  0.24513141378E+04  0.50400001928E-02 0. -1.
    10030    2    1    2    0    0  0.00000000000E+00  0.00000000000E+00 -0.16513076441E+04  0.32513206316E+04  0.28007622023E+04 0.  0.
        4    1    3    3  502    0 -0.85298744438E+03 -0.93342947650E+03 -0.15242886959E+04  0.19804887804E+04  0.12699999809E+01 0.  1.
       -4    1    3    3    0  502  0.85298744438E+03  0.93342947650E+03 -0.12701894818E+03  0.12708318512E+04  0.12699999809E+01 0. -1.
</event>
<event>
 5   0  0.1366235E-07  0.2799981E+04  0.7818609E-02  0.8303274E-01
        1   -1    0    0  501    0  0.00000000000E+00  0.00000000000E+00  0.17574787887E+04  0.17574787887E+04  0.50400001928E-02 0.  1.
       -1   -1    0    0    0  501  0.00000000000E+00  0.00000000000E+00 -0.11152189988E+04  0.11152189988E+04  0.50400001928E-02 0. -1.
    10030    2    1    2    0    0  0.00000000000E+00  0.00000000000E+00  0.64225978988E+03  0.28726977875E+04  0.27999812393E+04 0.  0.
        2    1    3    3  502    0 -0.92540631227E+03  0.86895465021E+03  0.92681288068E+03  0.15717637045E+04  0.25500000920E-02 0.  1.
       -2    1    3    3    0  502  0.92540631227E+03 -0.86895465021E+03 -0.28455309080E+03  0.13009340830E+04  0.25500000920E-02 0. -1.
</event>
<event>
 5   0  0.3522569E-07  0.2790265E+04  0.7818609E-02  0.8306297E-01
       -2   -1    0    0    0  501  0.00000000000E+00  0.00000000000E+00  0.13264995064E+04  0.13264995064E+04  0.25500000920E-02 0. -1.
        2   -1    0    0  501    0  0.00000000000E+00  0.00000000000E+00 -0.14673168213E+04  0.14673168213E+04  0.25500000920E-02 0.  1.
    10030    2    1    2    0    0  0.00000000000E+00  0.00000000000E+00 -0.14081731494E+03  0.27938163277E+04  0.27902652485E+04 0.  0.
        1    1    3    3  502    0 -0.71611599560E+03 -0.83174294153E+03  0.79195198069E+03  0.13534424183E+04  0.50400001928E-02 0. -1.
       -1    1    3    3    0  502  0.71611599560E+03  0.83174294153E+03 -0.93276929564E+03  0.14403739094E+04  0.50400001928E-02 0.  1.
</event>
<event>
 5   0  0.1346049E-07  0.2800242E+04  0.7818609E-02  0.8303193E-01
        1   -1    0    0  501    0  0.00000000000E+00  0.00000000000E+00  0.19401967200E+04  0.19401967200E+04  0.50400001928E-02 0.  1.
       -1   -1    0    0    0  501  0.00000000000E+00  0.00000000000E+00 -0.10103812261E+04  0.10103812261E+04  0.50400001928E-02 0. -1.
    10030    2    1    2    0    0  0.00000000000E+00  0.00000000000E+00  0.92981549390E+03  0.29505779461E+04  0.28002416615E+04 0.  0.
        1    1    3    3  502    0  0.69270777444E+03 -0.64837190277E+03  0.15498001477E+04  0.18171710659E+04  0.50400001928E-02 0.  1.
       -1    1    3    3    0  502 -0.69270777444E+03  0.64837190277E+03 -0.61998465375E+03  0.11334068802E+04  0.50400001928E-02 0. -1.
</event>
<event>
 5   0  0.3522569E-07  0.2800227E+04  0.7818609E-02  0.8303198E-01
        2   -1    0    0  501    0  0.00000000000E+00  0.00000000000E+00  0.13398061948E+04  0.13398061948E+04  0.25500000920E-02 0. -1.
       -2   -1    0    0    0  501  0.00000000000E+00  0.00000000000E+00 -0.14631355038E+04  0.14631355038E+04  0.25500000920E-02 0.  1.
    10030    2    1    2    0    0  0.00000000000E+00  0.00000000000E+00 -0.12332930903E+03  0.28029416986E+04  0.28002271421E+04 0.  0.
        1    1    3    3  502    0  0.59124291456E+03 -0.64936060520E+03  0.10298421724E+04  0.13534445979E+04  0.50400001928E-02 0. -1.
       -1    1    3    3    0  502 -0.59124291456E+03  0.64936060520E+03 -0.11531714814E+04  0.14494971008E+04  0.50400001928E-02 0.  1.
</event>
<event>
 5   0  0.3571498E-07  0.2798562E+04  0.7818609E-02  0.8303715E-01
        2   -1    0    0  501    0  0.00000000000E+00  0.00000000000E+00  0.12385947779E+04  0.12385947779E+04  0.25500000920E-02 0. -1.
       -2   -1    0    0    0  501  0.00000000000E+00  0.00000000000E+00 -0.15808138498E+04  0.15808138498E+04  0.25500000920E-02 0.  1.
    10030    2    1    2    0    0  0.00000000000E+00  0.00000000000E+00 -0.34221907192E+03  0.28194086277E+04  0.27985623303E+04 0.  0.
        2    1    3    3  502    0  0.13602340200E+03  0.34181423250E+03 -0.15312209802E+04  0.15747942804E+04  0.25500000920E-02 0.  1.
       -2    1    3    3    0  502 -0.13602340200E+03 -0.34181423250E+03  0.11890019083E+04  0.12446143472E+04  0.25500000920E-02 0. -1.
</event>
<event>
 5   0  0.3406920E-07  0.2800928E+04  0.7818609E-02  0.8302980E-01
       -2   -1    0    0    0  501  0.00000000000E+00  0.00000000000E+00  0.86881871990E+03  0.86881871991E+03  0.25500000920E-02 0.  1.
        2   -1    0    0  501    0  0.00000000000E+00  0.00000000000E+00 -0.22574320786E+04  0.22574320786E+04  0.25500000920E-02 0. -1.
    10030    2    1    2    0    0  0.00000000000E+00  0.00000000000E+00 -0.13886133587E+04  0.31262507985E+04  0.28009278811E+04 0.  0.
        4    1    3    3  502    0  0.87747472087E+03 -0.32379357549E+03  0.46911043824E+03  0.10463605409E+04  0.12699999809E+01 0.  1.
       -4    1    3    3    0  502 -0.87747472087E+03  0.32379357549E+03 -0.18577237970E+04  0.20798902577E+04  0.12699999809E+01 0. -1.
</event>
<event>
 5   0  0.1357902E-07  0.2799600E+04  0.7818609E-02  0.8303393E-01
       -1   -1    0    0    0  501  0.00000000000E+00  0.00000000000E+00  0.10571122018E+04  0.10571122018E+04  0.50400001928E-02 0. -1.
        1   -1    0    0  501    0  0.00000000000E+00  0.00000000000E+00 -0.18535782092E+04  0.18535782092E+04  0.50400001928E-02 0.  1.
    10030    2    1    2    0    0  0.00000000000E+00  0.00000000000E+00 -0.79646600740E+03  0.29106904111E+04  0.27996000729E+04 0.  0.
        4    1    3    3  502    0 -0.12368339655E+04 -0.16761578279E+03 -0.10570865371E+04  0.16356304194E+04  0.12699999809E+01 0.  1.
       -4    1    3    3    0  502  0.12368339655E+04  0.16761578279E+03  0.26062052974E+03  0.12750599917E+04  0.12699999809E+01 0. -1.
</event>
<event>
 5   0  0.1346049E-07  0.2799676E+04  0.7818609E-02  0.8303369E-01
        1   -1    0    0  501    0  0.00000000000E+00  0.00000000000E+00  0.27215248608E+04  0.27215248608E+04  0.50400001928E-02 0.  1.
       -1   -1    0    0    0  501  0.00000000000E+00  0.00000000000E+00 -0.72001791164E+03  0.72001791165E+03  0.50400001928E-02 0. -1.
    10030    2    1    2    0    0  0.00000000000E+00  0.00000000000E+00  0.20015069492E+04  0.34415427725E+04  0.27996761576E+04 0.  0.
        1    1    3    3  502    0 -0.95026339604E+02 -0.13826501441E+04  0.12428756043E+04  0.18615829807E+04  0.50400001928E-02 0.  1.
       -1    1    3    3    0  502  0.95026339604E+02  0.13826501441E+04  0.75863134491E+03  0.15799597918E+04  0.50400001928E-02 0. -1.
</event>
<event>
 5   0  0.3406920E-07  0.2800211E+04  0.7818609E-02  0.8303203E-01
       -2   -1    0    0    0  501  0.00000000000E+00  0.00000000000E+00  0.12356622647E+04  0.12356622647E+04  0.25500000920E-02 0. -1.
        2   -1    0    0  501    0  0.00000000000E+00  0.00000000000E+00 -0.15864330223E+04  0.15864330223E+04  0.25500000920E-02 0.  1.
    10030    2    1    2    0    0  0.00000000000E+00  0.00000000000E+00 -0.35077075756E+03  0.28220952870E+04  0.28002110072E+04 0.  0.
        4    1    3    3  502    0  0.11862066676E+04 -0.27873758779E+03  0.51957824005E+03  0.13246675286E+04  0.12699999809E+01 0. -1.
       -4    1    3    3    0  502 -0.11862066676E+04  0.27873758779E+03 -0.87034899762E+03  0.14974277584E+04  0.12699999809E+01 0.  1.
</event>
<event>
 5   0  0.3557628E-07  0.2800856E+04  0.7818609E-02  0.8303003E-01
       -2   -1    0    0    0  501  0.00000000000E+00  0.00000000000E+00  0.18379573725E+04  0.18379573725E+04  0.25500000920E-02 0. -1.
        2   -1    0    0  501    0  0.00000000000E+00  0.00000000000E+00 -0.10670533527E+04  0.10670533527E+04  0.25500000920E-02 0.  1.
    10030    2    1    2    0    0  0.00000000000E+00  0.00000000000E+00  0.77090401985E+03  0.29050107252E+04  0.28008559951E+04 0.  0.
        5    1    3    3  502    0  0.52835386453E+03  0.10174614426E+04 -0.44868791379E+03  0.12311492709E+04  0.46999998093E+01 0.  1.
       -5    1    3    3    0  502 -0.52835386453E+03 -0.10174614426E+04  0.12195919336E+04  0.16738614542E+04  0.46999998093E+01 0. -1.
</event>
<event>
 5   0  0.1366235E-07  0.2801278E+04  0.7818609E-02  0.8302872E-01
       -1   -1    0    0    0  501  0.00000000000E+00  0.00000000000E+00  0.11242802219E+04  0.11242802219E+04  0.50400001928E-02 0.  1.
        1   -1    0    0  501    0  0.00000000000E+00  0.00000000000E+00 -0.17449296177E+04  0.17449296177E+04  0.50400001928E-02 0. -1.
    10030    2    1    2    0    0  0.00000000000E+00  0.00000000000E+00 -0.62064939582E+03  0.28692098396E+04  0.28012781781E+04 0.  0.
        2    1    3    3  502    0  0.82443124636E+03 -0.12938523770E+00  0.84943369739E+03  0.11837332905E+04  0.25500000920E-02 0.  1.
       -2    1    3    3    0  502 -0.82443124636E+03  0.12938523770E+00 -0.14700830932E+04  0.16854765491E+04  0.25500000920E-02 0. -1.
</event>
<event>
 5   0  0.1374680E-07  0.2801906E+04  0.7818609E-02  0.8302677E-01
       -1   -1    0    0    0  501  0.00000000000E+00  0.00000000000E+00  0.15152680481E+04  0.15152680481E+04  0.50400001928E-02 0.  1.
        1   -1    0    0  501    0  0.00000000000E+00  0.00000000000E+00 -0.12952621956E+04  0.12952621956E+04  0.50400001928E-02 0. -1.
    10030    2    1    2    0    0  0.00000000000E+00  0.00000000000E+00  0.22000585245E+03  0.28105302437E+04  0.28019060790E+04 0.  0.
        3    1    3    3  502    0 -0.81260071283E+03 -0.93556734529E+02  0.12508675849E+04  0.14945710108E+04  0.10100000352E+00 0.  1.
       -3    1    3    3    0  502  0.81260071283E+03  0.93556734529E+02 -0.10308617324E+04  0.13159592329E+04  0.10100000352E+00 0. -1.
</event>
<event>
 5   0  0.3571498E-07  0.2798608E+04  0.7818609E-02  0.8303701E-01
       -2   -1    0    0    0  501  0.00000000000E+00  0.00000000000E+00  0.15009520664E+04  0.15009520664E+04  0.25500000920E-02 0. -1.
        2   -1    0    0  501    0  0.00000000000E+00  0.00000000000E+00 -0.13045400079E+04  0.13045400079E+04  0.25500000920E-02 0.  1.
    10030    2    1    2    0    0  0.00000000000E+00  0.00000000000E+00  0.19641205851E+03  0.28054920744E+04  0.27986082403E+04 0.  0.
        2    1    3    3  502    0  0.57224621429E+03  0.70343328297E+03 -0.97013949291E+03  0.13279513354E+04  0.25500000920E-02 0.  1.
       -2    1    3    3    0  502 -0.57224621429E+03 -0.70343328297E+03  0.11665515514E+04  0.14775407390E+04  0.25500000920E-02 0. -1.
</event>
<event>
 5   0  0.3406920E-07  0.2799384E+04  0.7818609E-02  0.8303460E-01
       -2   -1    0    0    0  501  0.00000000000E+00  0.00000000000E+00  0.95048819356E+03  0.95048819356E+03  0.25500000920E-02 0.  1.
        2   -1    0    0  501    0  0.00000000000E+00  0.00000000000E+00 -0.20611914628E+04  0.20611914628E+04  0.25500000920E-02 0. -1.
    10030    2    1    2    0    0  0.00000000000E+00  0.00000000000E+00 -0.11107032692E+04  0.30116796563E+04  0.27993843252E+04 0.  0.
        4    1    3    3  502    0 -0.16594194519E+03  0.40111012490E+02  0.93924459087E+03  0.95463481860E+03  0.12699999809E+01 0.  1.
       -4    1    3    3    0  502  0.16594194519E+03 -0.40111012490E+02 -0.20499478601E+04  0.20570448378E+04  0.12699999809E+01 0. -1.
</event>
<event>
 5   0  0.1346049E-07  0.2800565E+04  0.7818609E-02  0.8303093E-01
        1   -1    0    0  501    0  0.00000000000E+00  0.00000000000E+00  0.20792238687E+04  0.20792238687E+04  0.50400001928E-02 0.  1.
       -1   -1    0    0    0  501  0.00000000000E+00  0.00000000000E+00 -0.94303982031E+03  0.94303982032E+03  0.50400001928E-02 0. -1.
    10030    2    1    2    0    0  0.00000000000E+00  0.00000000000E+00  0.11361840484E+04  0.30222636890E+04  0.28005648741E+04 0.  0.
        1    1    3    3  502    0  0.42954226861E+03 -0.11912184985E+04 -0.76957100064E+02  0.12686333067E+04  0.50400001928E-02 0. -1.
       -1    1    3    3    0  502 -0.42954226861E+03  0.11912184985E+04  0.12131411485E+04  0.17536303823E+04  0.50400001928E-02 0.  1.
</event>
<event>
 5   0  0.1346049E-07  0.2801742E+04  0.7818609E-02  0.8302728E-01
        1   -1    0    0  501    0  0.00000000000E+00  0.00000000000E+00  0.20579239730E+04  0.20579239730E+04  0.50400001928E-02 0.  1.
       -1   -1    0    0    0  501  0.00000000000E+00  0.00000000000E+00 -0.95360163373E+03  0.95360163374E+03  0.50400001928E-02 0. -1.
    10030    2    1    2    0    0  0.00000000000E+00  0.00000000000E+00  0.11043223393E+04  0.30115256068E+04  0.28017420744E+04 0.  0.
        1    1    3    3  502    0 -0.10172886774E+04  0.39997196743E+03  0.14938813650E+04  0.18510903167E+04  0.50400001928E-02 0.  1.
       -1    1    3    3    0  502  0.10172886774E+04 -0.39997196743E+03 -0.38955902571E+03  0.11604352901E+04  0.50400001928E-02 0. -1.
</event>
<event>
 5   0  0.3502141E-07  0.2799866E+04  0.7818609E-02  0.8303310E-01
        2   -1    0    0  501    0  0.00000000000E+00  0.00000000000E+00  0.17705721593E+04  0.17705721593E+04  0.25500000920E-02 0. -1.
       -2   -1    0    0    0  501  0.00000000000E+00  0.00000000000E+00 -0.11068811182E+04  0.11068811182E+04  0.25500000920E-02 0.  1.
    10030    2    1    2    0    0  0.00000000000E+00  0.00000000000E+00  0.66369104116E+03  0.28774532775E+04  0.27998663479E+04 0.  0.
        3    1    3    3  502    0  0.17984147693E+03  0.33658641756E+03  0.17160846076E+04  0.17580044835E+04  0.10100000352E+00 0. -1.
       -3    1    3    3    0  502 -0.17984147693E+03 -0.33658641756E+03 -0.10523935665E+04  0.11194487940E+04  0.10100000352E+00 0.  1.
</event>
<event>
 5   0  0.1357902E-07  0.2799463E+04  0.7818609E-02  0.8303435E-01
        1   -1    0    0  501    0  0.00000000000E+00  0.00000000000E+00  0.17802808328E+04  0.17802808328E+04  0.50400001928E-02 0. -1.
       -1   -1    0    0    0  501  0.00000000000E+00  0.00000000000E+00 -0.11005273485E+04  0.11005273485E+04  0.50400001928E-02 0.  1.
    10030    2    1    2    0    0  0.00000000000E+00  0.00000000000E+00  0.67975348426E+03  0.28808081814E+04  0.27994626231E+04 0.  0.
        4    1    3    3  502    0  0.69879488187E+03  0.10351070862E+04  0.99029091526E+03  0.15938753642E+04  0.12699999809E+01 0. -1.
       -4    1    3    3    0  502 -0.69879488187E+03 -0.10351070862E+04 -0.31053743099E+03  0.12869328171E+04  0.12699999809E+01 0.  1.
</event>
<event>
 5   0  0.1374680E-07  0.2798619E+04  0.7818609E-02  0.8303697E-01
       -1   -1    0    0    0  501  0.00000000000E+00  0.00000000000E+00  0.11514644487E+04  0.11514644487E+04  0.50400001928E-02 0. -1.
        1   -1    0    0  501    0  0.00000000000E+00  0.00000000000E+00 -0.17005019464E+04  0.17005019464E+04  0.50400001928E-02 0.  1.
    10030    2    1    2    0    0  0.00000000000E+00  0.00000000000E+00 -0.54903749769E+03  0.28519663950E+04  0.27986193283E+04 0.  0.
        3    1    3    3  502    0 -0.29424443010E+03 -0.80733634867E+03  0.85093157890E+03  0.12093206054E+04  0.10100000352E+00 0.  1.
       -3    1    3    3    0  502  0.29424443010E+03  0.80733634867E+03 -0.13999690766E+04  0.16426457896E+04  0.10100000352E+00 0. -1.
</event>
<event>
 5   0  0.1346049E-07  0.2799618E+04  0.7818609E-02  0.8303387E-01
       -1   -1    0    0    0  501  0.00000000000E+00  0.00000000000E+00  0.12857491053E+04  0.12857491053E+04  0.50400001928E-02 0.  1.
        1   -1    0    0  501    0  0.00000000000E+00  0.00000000000E+00 -0.15239868874E+04  0.15239868875E+04  0.50400001928E-02 0. -1.
    10030    2    1    2    0    0  0.00000000000E+00  0.00000000000E+00 -0.23823778215E+03  0.28097359928E+04  0.27996176718E+04 0.  0.
        1    1    3    3  502    0 -0.62348020709E+03 -0.11233231650E+04  0.43866155157E+03  0.13575737396E+04  0.50400001928E-02 0.  1.
       -1    1    3    3    0  502  0.62348020709E+03  0.11233231650E+04 -0.67689933372E+03  0.14521622532E+04  0.50400001928E-02 0. -1.
</event>
<event>
 5   0  0.1374680E-07  0.2797012E+04  0.7818609E-02  0.8304197E-01
       -1   -1    0    0    0  501  0.00000000000E+00  0.00000000000E+00  0.11615904621E+04  0.11615904621E+04  0.50400001928E-02 0.  1.
        1   -1    0    0  501    0  0.00000000000E+00  0.00000000000E+00 -0.16837418738E+04  0.16837418738E+04  0.50400001928E-02 0. -1.
    10030    2    1    2    0    0  0.00000000000E+00  0.00000000000E+00 -0.52215141173E+03  0.28453323359E+04  0.27970116205E+04 0.  0.
        3    1    3    3  502    0 -0.24475980688E+03  0.76021797718E+03 -0.14289419301E+04  0.16369831355E+04  0.10100000352E+00 0. -1.
       -3    1    3    3    0  502  0.24475980688E+03 -0.76021797718E+03  0.90679051839E+03  0.12083492005E+04  0.10100000352E+00 0.  1.
</event>
<event>
 5   0  0.3557628E-07  0.2798765E+04  0.7818609E-02  0.8303652E-01
       -2   -1    0    0    0  501  0.00000000000E+00  0.00000000000E+00  0.11829189850E+04  0.11829189850E+04  0.25500000920E-02 0.  1.
        2   -1    0    0  501    0  0.00000000000E+00  0.00000000000E+00 -0.16554567795E+04  0.16554567795E+04  0.25500000920E-02 0. -1.
    10030    2    1    2    0    0  0.00000000000E+00  0.00000000000E+00 -0.47253779451E+03  0.28383757645E+04  0.27987649085E+04 0.  0.
        5    1    3    3  502    0 -0.44932095465E+03 -0.21767579416E+03  0.10895114914E+04  0.11984696290E+04  0.46999998093E+01 0.  1.
       -5    1    3    3    0  502  0.44932095465E+03  0.21767579416E+03 -0.15620492859E+04  0.16399061355E+04  0.46999998093E+01 0. -1.
</event>
<event>
 5   0  0.1357902E-07  0.2798973E+04  0.7818609E-02  0.8303587E-01
       -1   -1    0    0    0  501  0.00000000000E+00  0.00000000000E+00  0.84623752425E+03  0.84623752427E+03  0.50400001928E-02 0.  1.
        1   -1    0    0  501    0  0.00000000000E+00  0.00000000000E+00 -0.23144351769E+04  0.23144351769E+04  0.50400001928E-02 0. -1.
    10030    2    1    2    0    0  0.00000000000E+00  0.00000000000E+00 -0.14681976527E+04  0.31606727012E+04  0.27989725931E+04 0.  0.
        4    1    3    3  502    0  0.12699232634E+04 -0.56906101319E+03 -0.90168429957E+03  0.16581832591E+04  0.12699999809E+01 0.  1.
       -4    1    3    3    0  502 -0.12699232634E+04  0.56906101319E+03 -0.56651335310E+03  0.15024894421E+04  0.12699999809E+01 0. -1.
</event>
<event>
 5   0  0.1346049E-07  0.2800250E+04  0.7818609E-02  0.8303191E-01
       -1   -1    0    0    0  501  0.00000000000E+00  0.00000000000E+00  0.11392793334E+04  0.11392793334E+04  0.50400001928E-02 0. -1.
        1   -1    0    0  501    0  0.00000000000E+00  0.00000000000E+00 -0.17206929848E+04  0.17206929848E+04  0.50400001928E-02 0.  1.
    10030    2    1    2    0    0  0.00000000000E+00  0.00000000000E+00 -0.58141365138E+03  0.28599723182E+04  0.28002499579E+04 0.  0.
        1    1    3    3  502    0 -0.26480756220E+03  0.12167646730E+04  0.36303105774E+03  0.12970855267E+04  0.50400001928E-02 0.  1.
       -1    1    3    3    0  502  0.26480756220E+03 -0.12167646730E+04 -0.94444470912E+03  0.15628867915E+04  0.50400001928E-02 0. -1.
</event>
<event>
 5   0  0.1374680E-07  0.2799462E+04  0.7818609E-02  0.8303435E-01
        1   -1    0    0  501    0  0.00000000000E+00  0.00000000000E+00  0.14775172775E+04  0.14775172776E+04  0.50400001928E-02 0. -1.
       -1   -1    0    0    0  501  0.00000000000E+00  0.00000000000E+00 -0.13260401157E+04  0.13260401157E+04  0.50400001928E-02 0.  1.
    10030    2    1    2    0    0  0.00000000000E+00  0.00000000000E+00  0.15147716182E+03  0.28035573933E+04  0.27994622210E+04 0.  0.
        3    1    3    3  502    0 -0.70882890668E+03 -0.11457019216E+04  0.45599899319E+03  0.14223242964E+04  0.10100000352E+00 0.  1.
       -3    1    3    3    0  502  0.70882890668E+03  0.11457019216E+04 -0.30452183137E+03  0.13812330969E+04  0.10100000352E+00 0. -1.
</event>
<event>
 5   0  0.3557628E-07  0.2800078E+04  0.7818609E-02  0.8303244E-01
        2   -1    0    0  501    0  0.00000000000E+00  0.00000000000E+00  0.18141442042E+04  0.18141442042E+04  0.25500000920E-02 0.  1.
       -2   -1    0    0    0  501  0.00000000000E+00  0.00000000000E+00 -0.10804593165E+04  0.10804593165E+04  0.25500000920E-02 0. -1.
    10030    2    1    2    0    0  0.00000000000E+00  0.00000000000E+00  0.73368488767E+03  0.28946035207E+04  0.28000778610E+04 0.  0.
        5    1    3    3  502    0 -0.10556707543E+04  0.30836937429E+03 -0.52874933040E+03  0.12202992899E+04  0.46999998093E+01 0. -1.
       -5    1    3    3    0  502  0.10556707543E+04 -0.30836937429E+03  0.12624342181E+04  0.16743042309E+04  0.46999998093E+01 0.  1.
</event>
<event>
 5   0  0.3406920E-07  0.2800743E+04  0.7818609E-02  0.8303038E-01
       -2   -1    0    0    0  501  0.00000000000E+00  0.00000000000E+00  0.11640898440E+04  0.11640898440E+04  0.25500000920E-02 0. -1.
        2   -1    0    0  501    0  0.00000000000E+00  0.00000000000E+00 -0.16846127878E+04  0.16846127878E+04  0.25500000920E-02 0.  1.
    10030    2    1    2    0    0  0.00000000000E+00  0.00000000000E+00 -0.52052294378E+03  0.28487026318E+04  0.28007432138E+04 0.  0.
        4    1    3    3  502    0  0.32010998325E+03 -0.95318957618E+03  0.73110728566E+03  0.12432056329E+04  0.12699999809E+01 0. -1.
       -4    1    3    3    0  502 -0.32010998325E+03  0.95318957618E+03 -0.12516302294E+04  0.16054969990E+04  0.12699999809E+01 0.  1.
</event>
<event>
 5   0  0.1361741E-07  0.2803037E+04  0.7818609E-02  0.8302326E-01
        1   -1    0    0  501    0  0.00000000000E+00  0.00000000000E+00  0.14296206880E+04  0.14296206880E+04  0.50400001928E-02 0. -1.
       -1   -1    0    0    0  501  0.00000000000E+00  0.00000000000E+00 -0.13739683762E+04  0.13739683762E+04  0.50400001928E-02 0.  1.
    10030    2    1    2    0    0  0.00000000000E+00  0.00000000000E+00  0.55652311812E+02  0.28035890642E+04  0.28030366499E+04 0.  0.
        5    1    3    3  502    0  0.10257230804E+04 -0.30237395271E+03 -0.87827383411E+03  0.13838081018E+04  0.46999998093E+01 0.  1.
       -5    1    3    3    0  502 -0.10257230804E+04  0.30237395271E+03  0.93392614592E+03  0.14197809623E+04  0.46999998093E+01 0. -1.
</event>
<event>
 5   0  0.3406920E-07  0.2804234E+04  0.7818609E-02  0.8301955E-01
       -2   -1    0    0    0  501  0.00000000000E+00  0.00000000000E+00  0.11435630306E+04  0.11435630306E+04  0.25500000920E-02 0. -1.
        2   -1    0    0  501    0  0.00000000000E+00  0.00000000000E+00 -0.17191292480E+04  0.17191292480E+04  0.25500000920E-02 0.  1.
    10030    2    1    2    0    0  0.00000000000E+00  0.00000000000E+00 -0.57556621735E+03  0.28626922786E+04  0.28042344074E+04 0.  0.
        4    1    3    3  502    0 -0.99989605080E+03  0.31528669456E+03  0.66260955690E+03  0.12402624117E+04  0.12699999809E+01 0. -1.
       -4    1    3    3    0  502  0.99989605080E+03 -0.31528669456E+03 -0.12381757742E+04  0.16224298669E+04  0.12699999809E+01 0.  1.
</event>
<event>
 5   0  0.1374680E-07  0.2799687E+04  0.7818609E-02  0.8303366E-01
       -1   -1    0    0    0  501  0.00000000000E+00  0.00000000000E+00  0.11913805794E+04  0.11913805794E+04  0.50400001928E-02 0.  1.
        1   -1    0    0  501    0  0.00000000000E+00  0.00000000000E+00 -0.16447819806E+04  0.16447819806E+04  0.50400001928E-02 0. -1.
    10030    2    1    2    0    0  0.00000000000E+00  0.00000000000E+00 -0.45340140124E+03  0.28361625600E+04  0.27996866318E+04 0.  0.
        3    1    3    3  502    0  0.10991912298E+04  0.10856217785E+03  0.64447689469E+03  0.12788110040E+04  0.10100000352E+00 0.  1.
       -3    1    3    3    0  502 -0.10991912298E+04 -0.10856217785E+03 -0.10978782959E+04  0.15573515560E+04  0.10100000352E+00 0. -1.
</event>
<event>
 5   0  0.3571498E-07  0.2800338E+04  0.7818609E-02  0.8303163E-01
        2   -1    0    0  501    0  0.00000000000E+00  0.00000000000E+00  0.11259277804E+04  0.11259277804E+04  0.25500000920E-02 0. -1.
       -2   -1    0    0    0  501  0.00000000000E+00  0.00000000000E+00 -0.17412067892E+04  0.17412067892E+04  0.25500000920E-02 0.  1.
    10030    2    1    2    0    0  0.00000000000E+00  0.00000000000E+00 -0.61527900883E+03  0.28671345696E+04  0.28003379048E+04 0.  0.
        2    1    3    3  502    0  0.43273028884E+03 -0.13186736637E+04 -0.49730772976E+03  0.14742695521E+04  0.25500000920E-02 0.  1.
       -2    1    3    3    0  502 -0.43273028884E+03  0.13186736637E+04 -0.11797127907E+03  0.13928650175E+04  0.25500000920E-02 0. -1.
</event>
<event>
 5   0  0.3522569E-07  0.2802441E+04  0.7818609E-02  0.8302511E-01
        2   -1    0    0  501    0  0.00000000000E+00  0.00000000000E+00  0.18603774320E+04  0.18603774320E+04  0.25500000920E-02 0. -1.
       -2   -1    0    0    0  501  0.00000000000E+00  0.00000000000E+00 -0.10553876002E+04  0.10553876002E+04  0.25500000920E-02 0.  1.
    10030    2    1    2    0    0  0.00000000000E+00  0.00000000000E+00  0.80498983186E+03  0.29157650322E+04  0.28024412739E+04 0.  0.
        1    1    3    3  502    0 -0.71388495551E+03 -0.43876168483E+03  0.15709742123E+04  0.17804784530E+04  0.50400001928E-02 0. -1.
       -1    1    3    3    0  502  0.71388495551E+03  0.43876168483E+03 -0.76598438046E+03  0.11352865792E+04  0.50400001928E-02 0.  1.
</event>
<event>
 5   0  0.1357902E-07  0.2799389E+04  0.7818609E-02  0.8303458E-01
        1   -1    0    0  501    0  0.00000000000E+00  0.00000000000E+00  0.18008859466E+04  0.18008859466E+04  0.50400001928E-02 0.  1.
       -1   -1    0    0    0  501  0.00000000000E+00  0.00000000000E+00 -0.10878780667E+04  0.10878780667E+04  0.50400001928E-02 0. -1.
    10030    2    1    2    0    0  0.00000000000E+00  0.00000000000E+00  0.71300787997E+03  0.28887640133E+04  0.27993887346E+04 0.  0.
        4    1    3    3  502    0 -0.29977715070E+03  0.38408526168E+03 -0.99754548176E+03  0.11101740537E+04  0.12699999809E+01 0. -1.
       -4    1    3    3    0  502  0.29977715070E+03 -0.38408526168E+03  0.17105533617E+04  0.17785899597E+04  0.12699999809E+01 0.  1.
</event>
<event>
 5   0  0.3522569E-07  0.2799680E+04  0.7818609E-02  0.8303368E-01
       -2   -1    0    0    0  501  0.00000000000E+00  0.00000000000E+00  0.10707036793E+04  0.10707036793E+04  0.25500000920E-02 0.  1.
        2   -1    0    0  501    0  0.00000000000E+00  0.00000000000E+00 -0.18301529722E+04  0.18301529722E+04  0.25500000920E-02 0. -1.
    10030    2    1    2    0    0  0.00000000000E+00  0.00000000000E+00 -0.75944929288E+03  0.29008566515E+04  0.27996796395E+04 0.  0.
        1    1    3    3  502    0  0.13585735660E+04  0.33726179191E+03 -0.37023559636E+03  0.14479440760E+04  0.50400001928E-02 0. -1.
       -1    1    3    3    0  502 -0.13585735660E+04 -0.33726179191E+03 -0.38921369652E+03  0.14529125755E+04  0.50400001928E-02 0.  1.
</event>
<event>
 5   0  0.1366235E-07  0.2799492E+04  0.7818609E-02  0.8303426E-01
        1   -1    0    0  501    0  0.00000000000E+00  0.00000000000E+00  0.11173904441E+04  0.11173904441E+04  0.50400001928E-02 0.  1.
       -1   -1    0    0    0  501  0.00000000000E+00  0.00000000000E+00 -0.17534505964E+04  0.17534505964E+04  0.50400001928E-02 0. -1.
    10030    2    1    2    0    0  0.00000000000E+00  0.00000000000E+00 -0.63606015228E+03  0.28708410405E+04  0.27994920544E+04 0.  0.
        2    1    3    3  502    0  0.31575966964E+03 -0.57960205724E+03  0.94778999362E+03  0.11549669198E+04  0.25500000920E-02 0.  1.
       -2    1    3    3    0  502 -0.31575966964E+03  0.57960205724E+03 -0.15838501459E+04  0.17158741208E+04  0.25500000920E-02 0. -1.
</event>
<event>
 5   0  0.3406920E-07  0.2800676E+04  0.7818609E-02  0.8303058E-01
       -2   -1    0    0    0  501  0.00000000000E+00  0.00000000000E+00  0.99091883562E+03  0.99091883562E+03  0.25500000920E-02 0.  1.
        2   -1    0    0  501    0  0.00000000000E+00  0.00000000000E+00 -0.19789176785E+04  0.19789176785E+04  0.25500000920E-02 0. -1.
    10030    2    1    2    0    0  0.00000000000E+00  0.00000000000E+00 -0.98799884287E+03  0.29698365141E+04  0.28006762053E+04 0.  0.
        4    1    3    3  502    0  0.33608573324E+03  0.12845348453E+03 -0.19290660572E+04  0.19623331480E+04  0.12699999809E+01 0. -1.
       -4    1    3    3    0  502 -0.33608573324E+03 -0.12845348453E+03  0.94106721437E+03  0.10075033661E+04  0.12699999809E+01 0.  1.
</event>
<event>
 5   0  0.3502141E-07  0.2799939E+04  0.7818609E-02  0.8303287E-01
       -2   -1    0    0    0  501  0.00000000000E+00  0.00000000000E+00  0.10086592083E+04  0.10086592083E+04  0.25500000920E-02 0.  1.
        2   -1    0    0  501    0  0.00000000000E+00  0.00000000000E+00 -0.19430895850E+04  0.19430895850E+04  0.25500000920E-02 0. -1.
    10030    2    1    2    0    0  0.00000000000E+00  0.00000000000E+00 -0.93443037670E+03  0.29517487933E+04  0.27999394296E+04 0.  0.
        3    1    3    3  502    0 -0.13972946499E+04  0.86392780955E+02 -0.46260294097E+03  0.14744143049E+04  0.10100000352E+00 0.  1.
       -3    1    3    3    0  502  0.13972946499E+04 -0.86392780955E+02 -0.47182743573E+03  0.14773344884E+04  0.10100000352E+00 0. -1.
</event>
<event>
 5   0  0.1366235E-07  0.2803622E+04  0.7818609E-02  0.8302145E-01
       -1   -1    0    0    0  501  0.00000000000E+00  0.00000000000E+00  0.15065695713E+04  0.15065695713E+04  0.50400001928E-02 0. -1.
        1   -1    0    0  501    0  0.00000000000E+00  0.00000000000E+00 -0.13043366802E+04  0.13043366803E+04  0.50400001928E-02 0.  1.
    10030    2    1    2    0    0  0.00000000000E+00  0.00000000000E+00  0.20223289106E+03  0.28109062516E+04  0.28036219098E+04 0.  0.
        2    1    3    3  502    0  0.10839257476E+04  0.78548420430E+03 -0.31613005241E+03  0.13754339939E+04  0.25500000920E-02 0.  1.
       -2    1    3    3    0  502 -0.10839257476E+04 -0.78548420430E+03  0.51836294347E+03  0.14354722577E+04  0.25500000920E-02 0. -1.
</event>
<event>
 5   0  0.1357902E-07  0.2803223E+04  0.7818609E-02  0.8302268E-01
       -1   -1    0    0    0  501  0.00000000000E+00  0.00000000000E+00  0.13390956853E+04  0.13390956853E+04  0.50400001928E-02 0. -1.
        1   -1    0    0  501    0  0.00000000000E+00  0.00000000000E+00 -0.14670460666E+04  0.14670460666E+04  0.50400001928E-02 0.  1.
    10030    2    1    2    0    0  0.00000000000E+00  0.00000000000E+00 -0.12795038136E+03  0.28061417519E+04  0.28032231862E+04 0.  0.
        4    1    3    3  502    0 -0.32659253225E+03  0.12848521974E+04  0.39147718261E+03  0.13823038193E+04  0.12699999809E+01 0. -1.
       -4    1    3    3    0  502  0.32659253225E+03 -0.12848521974E+04 -0.51942756397E+03  0.14238379326E+04  0.12699999809E+01 0.  1.
</event>
<event>
 5   0  0.1374680E-07  0.2800386E+04  0.7818609E-02  0.8303148E-01
        1   -1    0    0  501    0  0.00000000000E+00  0.00000000000E+00  0.18364599238E+04  0.18364599238E+04  0.50400001928E-02 0. -1.
       -1   -1    0    0    0  501  0.00000000000E+00  0.00000000000E+00 -0.10675652252E+04  0.10675652252E+04  0.50400001928E-02 0.  1.
    10030    2    1    2    0    0  0.00000000000E+00  0.00000000000E+00  0.76889469864E+03  0.29040251490E+04  0.28003862249E+04 0.  0.
        3    1    3    3  502    0  0.20425671249E+03 -0.14262626161E+03  0.18132925781E+04  0.18303259379E+04  0.10100000352E+00 0. -1.
       -3    1    3    3    0  502 -0.20425671249E+03  0.14262626161E+03 -0.10443978795E+04  0.10736992111E+04  0.10100000352E+00 0.  1.
</event>
<event>
 5   0  0.1374680E-07  0.2800539E+04  0.7818609E-02  0.8303101E-01
        1   -1    0    0  501    0  0.00000000000E+00  0.00000000000E+00  0.17727566762E+04  0.17727566762E+04  0.50400001928E-02 0.  1.
       -1   -1    0    0    0  501  0.00000000000E+00  0.00000000000E+00 -0.11060484950E+04  0.11060484950E+04  0.50400001928E-02 0. -1.
    10030    2    1    2    0    0  0.00000000000E+00  0.00000000000E+00  0.66670818123E+03  0.28788051713E+04  0.28005391294E+04 0.  0.
        3    1    3    3  502    0 -0.69270434601E+03 -0.37678097790E+03 -0.85611475846E+03  0.11639311432E+04  0.10100000352E+00 0. -1.
       -3    1    3    3    0  502  0.69270434601E+03  0.37678097790E+03  0.15228229397E+04  0.17148740281E+04  0.10100000352E+00 0.  1.
</event>
<event>
 5   0  0.3522569E-07  0.2799647E+04  0.7818609E-02  0.8303378E-01
       -2   -1    0    0    0  501  0.00000000000E+00  0.00000000000E+00  0.10288197400E+04  0.10288197400E+04  0.25500000920E-02 0. -1.
        2   -1    0    0  501    0  0.00000000000E+00  0.00000000000E+00 -0.19046156025E+04  0.19046156025E+04  0.25500000920E-02 0.  1.
    10030    2    1    2    0    0  0.00000000000E+00  0.00000000000E+00 -0.87579586248E+03  0.29334353424E+04  0.27996472127E+04 0.  0.
        1    1    3    3  502    0  0.32148850507E+03  0.69709485845E+02  0.98774464481E+03  0.10410829721E+04  0.50400001928E-02 0. -1.
       -1    1    3    3    0  502 -0.32148850507E+03 -0.69709485845E+02 -0.18635405073E+04  0.18923523704E+04  0.50400001928E-02 0.  1.
</event>
<event>
 5   0  0.3557628E-07  0.2799841E+04  0.7818609E-02  0.8303318E-01
       -2   -1    0    0    0  501  0.00000000000E+00  0.00000000000E+00  0.27643192945E+04  0.27643192945E+04  0.25500000920E-02 0.  1.
        2   -1    0    0  501    0  0.00000000000E+00  0.00000000000E+00 -0.70895502099E+03  0.70895502099E+03  0.25500000920E-02 0. -1.
    10030    2    1    2    0    0  0.00000000000E+00  0.00000000000E+00  0.20553642735E+04  0.34732743155E+04  0.27998414551E+04 0.  0.
        5    1    3    3  502    0 -0.88920878689E+03  0.16913882997E+03 -0.29710122026E+03  0.95267593418E+03  0.46999998093E+01 0. -1.
       -5    1    3    3    0  502  0.88920878689E+03 -0.16913882997E+03  0.23524654938E+04  0.25205983813E+04  0.46999998093E+01 0.  1.
</event>
<event>
 5   0  0.3571498E-07  0.2801238E+04  0.7818609E-02  0.8302884E-01
        2   -1    0    0  501    0  0.00000000000E+00  0.00000000000E+00  0.93578555274E+03  0.93578555274E+03  0.25500000920E-02 0.  1.
       -2   -1    0    0    0  501  0.00000000000E+00  0.00000000000E+00 -0.20963499708E+04  0.20963499708E+04  0.25500000920E-02 0. -1.
    10030    2    1    2    0    0  0.00000000000E+00  0.00000000000E+00 -0.11605644181E+04  0.30321355236E+04  0.28012383092E+04 0.  0.
        2    1    3    3  502    0 -0.58226939042E+03  0.75362275898E+03 -0.16919451687E+04  0.19415620927E+04  0.25500000920E-02 0. -1.
       -2    1    3    3    0  502  0.58226939042E+03 -0.75362275898E+03  0.53138075066E+03  0.10905734308E+04  0.25500000920E-02 0.  1.
</event>
<event>
 5   0  0.1346049E-07  0.2798840E+04  0.7818609E-02  0.8303628E-01
       -1   -1    0    0    0  501  0.00000000000E+00  0.00000000000E+00  0.98616961463E+03  0.98616961465E+03  0.50400001928E-02 0.  1.
        1   -1    0    0  501    0  0.00000000000E+00  0.00000000000E+00 -0.19858416935E+04  0.19858416935E+04  0.50400001928E-02 0. -1.
    10030    2    1    2    0    0  0.00000000000E+00  0.00000000000E+00 -0.99967207884E+03  0.29720113081E+04  0.27988402867E+04 0.  0.
        1    1    3    3  502    0  0.71104550723E+03  0.11830146721E+04 -0.74491313419E+03  0.15684403097E+04  0.50400001928E-02 0. -1.
       -1    1    3    3    0  502 -0.71104550723E+03 -0.11830146721E+04 -0.25475894465E+03  0.14035709984E+04  0.50400001928E-02 0.  1.
</event>
<event>
 5   0  0.3571498E-07  0.2800127E+04  0.7818609E-02  0.8303229E-01
       -2   -1    0    0    0  501  0.00000000000E+00  0.00000000000E+00  0.13143710115E+04  0.13143710115E+04  0.25500000920E-02 0.  1.
        2   -1    0    0  501    0  0.00000000000E+00  0.00000000000E+00 -0.14913432799E+04  0.14913432799E+04  0.25500000920E-02 0. -1.
    10030    2    1    2    0    0  0.00000000000E+00  0.00000000000E+00 -0.17697226842E+03  0.28057142914E+04  0.28001274081E+04 0.  0.
        2    1    3    3  502    0  0.86909542934E+03 -0.99959039180E+03  0.36592787898E+03  0.13741946839E+04  0.25500000920E-02 0.  1.
       -2    1    3    3    0  502 -0.86909542934E+03  0.99959039180E+03 -0.54290014740E+03  0.14315196075E+04  0.25500000920E-02 0. -1.
</event>
<event>
 5   0  0.1346049E-07  0.2800520E+04  0.7818609E-02  0.8303107E-01
       -1   -1    0    0    0  501  0.00000000000E+00  0.00000000000E+00  0.90676862090E+03  0.90676862091E+03  0.50400001928E-02 0.  1.
        1   -1    0    0  501    0  0.00000000000E+00  0.00000000000E+00 -0.21623249547E+04  0.21623249547E+04  0.50400001928E-02 0. -1.
    10030    2    1    2    0    0  0.00000000000E+00  0.00000000000E+00 -0.12555563338E+04  0.30690935756E+04  0.28005202496E+04 0.  0.
        1    1    3    3  502    0  0.33528197879E+03  0.69385388987E+03  0.65348044247E+03  0.10103880020E+04  0.50400001928E-02 0.  1.
       -1    1    3    3    0  502 -0.33528197879E+03 -0.69385388987E+03 -0.19090367762E+04  0.20587055736E+04  0.50400001928E-02 0. -1.
</event>
<event>
 5   0  0.1361741E-07  0.2800585E+04  0.7818609E-02  0.8303087E-01
        1   -1    0    0  501    0  0.00000000000E+00  0.00000000000E+00  0.14280832356E+04  0.14280832356E+04  0.50400001928E-02 0. -1.
       -1   -1    0    0    0  501  0.00000000000E+00  0.00000000000E+00 -0.13730421888E+04  0.13730421888E+04  0.50400001928E-02 0.  1.
    10030    2    1    2    0    0  0.00000000000E+00  0.00000000000E+00  0.55041046780E+02  0.28011254244E+04  0.28005846044E+04 0.  0.
        5    1    3    3  502    0  0.39340920530E+03 -0.12671124199E+04 -0.42028432252E+03  0.13917635177E+04  0.46999998093E+01 0.  1.
       -5    1    3    3    0  502 -0.39340920530E+03  0.12671124199E+04  0.47532536930E+03  0.14093619067E+04  0.46999998093E+01 0. -1.
</event>
<event>
 5   0  0.3406920E-07  0.2801126E+04  0.7818609E-02  0.8302919E-01
        2   -1    0    0  501    0  0.00000000000E+00  0.00000000000E+00  0.17020526508E+04  0.17020526508E+04  0.25500000920E-02 0.  1.
       -2   -1    0    0    0  501  0.00000000000E+00  0.00000000000E+00 -0.11524770103E+04  0.11524770103E+04  0.25500000920E-02 0. -1.
    10030    2    1    2    0    0  0.00000000000E+00  0.00000000000E+00  0.54957564058E+03  0.28545296611E+04  0.28011258811E+04 0.  0.
        4    1    3    3  502    0  0.10602302028E+04 -0.83750559044E+03  0.65069888228E+03  0.14996380714E+04  0.12699999809E+01 0.  1.
       -4    1    3    3    0  502 -0.10602302028E+04  0.83750559044E+03 -0.10112324171E+03  0.13548915897E+04  0.12699999809E+01 0. -1.
</event>
<event>
 5   0  0.1374680E-07  0.2804531E+04  0.7818609E-02  0.8301863E-01
       -1   -1    0    0    0  501  0.00000000000E+00  0.00000000000E+00  0.69378793742E+03  0.69378793744E+03  0.50400001928E-02 0. -1.
        1   -1    0    0  501    0  0.00000000000E+00  0.00000000000E+00 -0.28342218863E+04  0.28342218863E+04  0.50400001928E-02 0.  1.
    10030    2    1    2    0    0  0.00000000000E+00  0.00000000000E+00 -0.21404339489E+04  0.35280098238E+04  0.28045313026E+04 0.  0.
        3    1    3    3  502    0  0.16609482026E+03  0.35887101508E+03 -0.27626268406E+04  0.27907853671E+04  0.10100000352E+00 0.  1.
       -3    1    3    3    0  502 -0.16609482026E+03 -0.35887101508E+03  0.62219289170E+03  0.73722445664E+03  0.10100000352E+00 0. -1.
</event>
<event>
 5   0  0.1173363E-07  0.2800009E+04  0.7818609E-02  0.8303266E-01
        3   -1    0    0  501    0  0.00000000000E+00  0.00000000000E+00  0.15664347864E+04  0.15664347896E+04  0.10100000352E+00 0. -1.
       -3   -1    0    0    0  501  0.00000000000E+00  0.00000000000E+00 -0.12512568231E+04  0.12512568272E+04  0.10100000352E+00 0.  1.
    10030    2    1    2    0    0  0.00000000000E+00  0.00000000000E+00  0.31517796327E+03  0.28176916168E+04  0.28000087319E+04 0.  0.
        5    1    3    3  502    0  0.74084803082E+03  0.30706021902E+03 -0.99719820515E+03  0.12796750108E+04  0.46999998093E+01 0.  1.
       -5    1    3    3    0  502 -0.74084803082E+03 -0.30706021902E+03  0.13123761684E+04  0.15380166060E+04  0.46999998093E+01 0. -1.
</event>
<event>
 5   0  0.1346049E-07  0.2787647E+04  0.7818609E-02  0.8307114E-01
       -1   -1    0    0    0  501  0.00000000000E+00  0.00000000000E+00  0.13648111609E+04  0.13648111609E+04  0.50400001928E-02 0.  1.
        1   -1    0    0  501    0  0.00000000000E+00  0.00000000000E+00 -0.14234527896E+04  0.14234527896E+04  0.50400001928E-02 0. -1.
    10030    2    1    2    0    0  0.00000000000E+00  0.00000000000E+00 -0.58641628679E+02  0.27882639505E+04  0.27876472189E+04 0.  0.
        1    1    3    3  502    0  0.65283077898E+02 -0.23288124807E+03 -0.14023038888E+04  0.14230079946E+04  0.50400001928E-02 0. -1.
       -1    1    3    3    0  502 -0.65283077898E+02  0.23288124807E+03  0.13436622601E+04  0.13652559560E+04  0.50400001928E-02 0.  1.
</event>
<event>
 5   0  0.1366235E-07  0.2798938E+04  0.7818609E-02  0.8303598E-01
       -1   -1    0    0    0  501  0.00000000000E+00  0.00000000000E+00  0.15111338449E+04  0.15111338449E+04  0.50400001928E-02 0.  1.
        1   -1    0    0  501    0  0.00000000000E+00  0.00000000000E+00 -0.12960553822E+04  0.12960553822E+04  0.50400001928E-02 0. -1.
    10030    2    1    2    0    0  0.00000000000E+00  0.00000000000E+00  0.21507846276E+03  0.28071892271E+04  0.27989377649E+04 0.  0.
        2    1    3    3  502    0  0.54289328819E+03 -0.31674778440E+03  0.13616057298E+04  0.14996774469E+04  0.25500000920E-02 0.  1.
       -2    1    3    3    0  502 -0.54289328819E+03  0.31674778440E+03 -0.11465272670E+04  0.13075117802E+04  0.25500000920E-02 0. -1.
</event>
<event>
 5   0  0.1357902E-07  0.2798724E+04  0.7818609E-02  0.8303665E-01
        1   -1    0    0  501    0  0.00000000000E+00  0.00000000000E+00  0.26363654521E+04  0.26363654521E+04  0.50400001928E-02 0.  1.
       -1   -1    0    0    0  501  0.00000000000E+00  0.00000000000E+00 -0.74277021972E+03  0.74277021974E+03  0.50400001928E-02 0. -1.
    10030    2    1    2    0    0  0.00000000000E+00  0.00000000000E+00  0.18935952324E+04  0.33791356719E+04  0.27987238136E+04 0.  0.
        4    1    3    3  502    0 -0.11876118365E+04  0.58660933390E+03  0.14917010077E+04  0.19949200219E+04  0.12699999809E+01 0.  1.
       -4    1    3    3    0  502  0.11876118365E+04 -0.58660933390E+03  0.40189422473E+03  0.13842156499E+04  0.12699999809E+01 0. -1.
</event>
<event>
 5   0  0.1173363E-07  0.2799436E+04  0.7818609E-02  0.8303443E-01
       -3   -1    0    0    0  501  0.00000000000E+00  0.00000000000E+00  0.15408284624E+04  0.15408284657E+04  0.10100000352E+00 0. -1.
        3   -1    0    0  501    0  0.00000000000E+00  0.00000000000E+00 -0.12715308362E+04  0.12715308402E+04  0.10100000352E+00 0.  1.
    10030    2    1    2    0    0  0.00000000000E+00  0.00000000000E+00  0.26929762623E+03  0.28123593059E+04  0.27994363100E+04 0.  0.
        4    1    3    3  502    0  0.10585404360E+04  0.34402511162E+03 -0.71800245451E+03  0.13245339820E+04  0.12699999809E+01 0.  1.
       -4    1    3    3    0  502 -0.10585404360E+04 -0.34402511162E+03  0.98730008074E+03  0.14878253239E+04  0.12699999809E+01 0. -1.
</event>
<event>
 5   0  0.3522569E-07  0.2797045E+04  0.7818609E-02  0.8304186E-01
       -2   -1    0    0    0  501  0.00000000000E+00  0.00000000000E+00  0.78200689199E+03  0.78200689199E+03  0.25500000920E-02 0. -1.
        2   -1    0    0  501    0  0.00000000000E+00  0.00000000000E+00 -0.25010849428E+04  0.25010849428E+04  0.25500000920E-02 0.  1.
    10030    2    1    2    0    0  0.00000000000E+00  0.00000000000E+00 -0.17190780508E+04  0.32830918348E+04  0.27970453430E+04 0.  0.
        1    1    3    3  502    0  0.62151222429E+03  0.12243066280E+04 -0.11715536461E+04  0.18049216355E+04  0.50400001928E-02 0.  1.
       -1    1    3    3    0  502 -0.62151222429E+03 -0.12243066280E+04 -0.54752440469E+03  0.14781701993E+04  0.50400001928E-02 0. -1.
</event>
<event>
 5   0  0.1366235E-07  0.2798507E+04  0.7818609E-02  0.8303732E-01
        1   -1    0    0  501    0  0.00000000000E+00  0.00000000000E+00  0.92607563605E+03  0.92607563607E+03  0.50400001928E-02 0. -1.
       -1   -1    0    0    0  501  0.00000000000E+00  0.00000000000E+00 -0.21142019408E+04  0.21142019408E+04  0.50400001928E-02 0.  1.
    10030    2    1    2    0    0  0.00000000000E+00  0.00000000000E+00 -0.11881263047E+04  0.30402775768E+04  0.27985073929E+04 0.  0.
        2    1    3    3  502    0  0.30309877643E+02 -0.28227130340E+03 -0.20825855301E+04  0.21018463949E+04  0.25500000920E-02 0.  1.
       -2    1    3    3    0  502 -0.30309877643E+02  0.28227130340E+03  0.89445922539E+03  0.93843118197E+03  0.25500000920E-02 0. -1.
</event>
<event>
 5   0  0.3502141E-07  0.2801989E+04  0.7818609E-02  0.8302651E-01
        2   -1    0    0  501    0  0.00000000000E+00  0.00000000000E+00  0.14256359817E+04  0.14256359817E+04  0.25500000920E-02 0.  1.
       -2   -1    0    0    0  501  0.00000000000E+00  0.00000000000E+00 -0.13767785756E+04  0.13767785756E+04  0.25500000920E-02 0. -1.
    10030    2    1    2    0    0  0.00000000000E+00  0.00000000000E+00  0.48857406119E+02  0.28024145573E+04  0.28019886340E+04 0.  0.
        3    1    3    3  502    0  0.74390244136E+03  0.11657906739E+04 -0.19994070132E+03  0.13972956136E+04  0.10100000352E+00 0. -1.
       -3    1    3    3    0  502 -0.74390244136E+03 -0.11657906739E+04  0.24879810744E+03  0.14051189437E+04  0.10100000352E+00 0.  1.
</event>
<event>
 5   0  0.1357902E-07  0.2799376E+04  0.7818609E-02  0.8303462E-01
        1   -1    0    0  501    0  0.00000000000E+00  0.00000000000E+00  0.12714990445E+04  0.12714990445E+04  0.50400001928E-02 0. -1.
       -1   -1    0    0    0  501  0.00000000000E+00  0.00000000000E+00 -0.15408006904E+04  0.15408006904E+04  0.50400001928E-02 0.  1.
    10030    2    1    2    0    0  0.00000000000E+00  0.00000000000E+00 -0.26930164591E+03  0.28122997349E+04  0.27993760773E+04 0.  0.
        4    1    3    3  502    0 -0.85897689317E+03  0.77040813420E+03  0.66131688325E+03  0.13299291820E+04  0.12699999809E+01 0. -1.
       -4    1    3    3    0  502  0.85897689317E+03 -0.77040813420E+03 -0.93061852916E+03  0.14823705529E+04  0.12699999809E+01 0.  1.
</event>
<event>
 5   0  0.3522569E-07  0.2802804E+04  0.7818609E-02  0.8302399E-01
       -2   -1    0    0    0  501  0.00000000000E+00  0.00000000000E+00  0.96330017217E+03  0.96330017217E+03  0.25500000920E-02 0.  1.
        2   -1    0    0  501    0  0.00000000000E+00  0.00000000000E+00 -0.20387486218E+04  0.20387486218E+04  0.25500000920E-02 0. -1.
    10030    2    1    2    0    0  0.00000000000E+00  0.00000000000E+00 -0.10754484497E+04  0.30020487940E+04  0.28028035239E+04 0.  0.
        1    1    3    3  502    0  0.69566304176E+03  0.10790655810E+04  0.63992015553E+02  0.12854666755E+04  0.50400001928E-02 0.  1.
       -1    1    3    3    0  502 -0.69566304176E+03 -0.10790655810E+04 -0.11394404652E+04  0.17165821185E+04  0.50400001928E-02 0. -1.
</event>
<event>
 5   0  0.1374680E-07  0.2798966E+04  0.7818609E-02  0.8303589E-01
       -1   -1    0    0    0  501  0.00000000000E+00  0.00000000000E+00  0.10288825603E+04  0.10288825603E+04  0.50400001928E-02 0.  1.
        1   -1    0    0  501    0  0.00000000000E+00  0.00000000000E+00 -0.19035728357E+04  0.19035728357E+04  0.50400001928E-02 0. -1.
    10030    2    1    2    0    0  0.00000000000E+00  0.00000000000E+00 -0.87469027539E+03  0.29324553961E+04  0.27989661613E+04 0.  0.
        3    1    3    3  502    0 -0.24459594748E+03  0.93997718248E+03 -0.14929535815E+04  0.17810936775E+04  0.10100000352E+00 0. -1.
       -3    1    3    3    0  502  0.24459594748E+03 -0.93997718248E+03  0.61826330615E+03  0.11513617186E+04  0.10100000352E+00 0.  1.
</event>
<event>
 5   0  0.3406920E-07  0.2799684E+04  0.7818609E-02  0.8303367E-01
        2   -1    0    0  501    0  0.00000000000E+00  0.00000000000E+00  0.19048520199E+04  0.19048520199E+04  0.25500000920E-02 0. -1.
       -2   -1    0    0    0  501  0.00000000000E+00  0.00000000000E+00 -0.10287189793E+04  0.10287189793E+04  0.25500000920E-02 0.  1.
    10030    2    1    2    0    0  0.00000000000E+00  0.00000000000E+00  0.87613304060E+03  0.29335709991E+04  0.27996838575E+04 0.  0.
        4    1    3    3  502    0 -0.13281225553E+04  0.39517789638E+03  0.64626624333E+03  0.15289659126E+04  0.12699999809E+01 0. -1.
       -4    1    3    3    0  502  0.13281225553E+04 -0.39517789638E+03  0.22986679727E+03  0.14046050865E+04  0.12699999809E+01 0.  1.
</event>
<event>
 5   0  0.3406920E-07  0.2799687E+04  0.7818609E-02  0.8303366E-01
       -2   -1    0    0    0  501  0.00000000000E+00  0.00000000000E+00  0.96562125131E+03  0.96562125131E+03  0.25500000920E-02 0. -1.
        2   -1    0    0  501    0  0.00000000000E+00  0.00000000000E+00 -0.20293276651E+04  0.20293276651E+04  0.25500000920E-02 0.  1.
    10030    2    1    2    0    0  0.00000000000E+00  0.00000000000E+00 -0.10637064138E+04  0.29949489164E+04  0.27996870677E+04 0.  0.
        4    1    3    3  502    0 -0.10669281009E+04  0.78050752582E+03 -0.39267975592E+02  0.13225245394E+04  0.12699999809E+01 0.  1.
       -4    1    3    3    0  502  0.10669281009E+04 -0.78050752582E+03 -0.10244384382E+04  0.16724243771E+04  0.12699999809E+01 0. -1.
</event>
<event>
 5   0  0.3557628E-07  0.2800208E+04  0.7818609E-02  0.8303204E-01
       -2   -1    0    0    0  501  0.00000000000E+00  0.00000000000E+00  0.11250071014E+04  0.11250071014E+04  0.25500000920E-02 0. -1.
        2   -1    0    0  501    0  0.00000000000E+00  0.00000000000E+00 -0.17424698030E+04  0.17424698030E+04  0.25500000920E-02 0.  1.
    10030    2    1    2    0    0  0.00000000000E+00  0.00000000000E+00 -0.61746270161E+03  0.28674769044E+04  0.28002077797E+04 0.  0.
        5    1    3    3  502    0 -0.13718304999E+04  0.23473703780E+03 -0.15259416613E+03  0.14001169476E+04  0.46999998093E+01 0. -1.
       -5    1    3    3    0  502  0.13718304999E+04 -0.23473703780E+03 -0.46486853548E+03  0.14673599568E+04  0.46999998093E+01 0.  1.
</event>
<event>
 5   0  0.3571498E-07  0.2800957E+04  0.7818609E-02  0.8302971E-01
       -2   -1    0    0    0  501  0.00000000000E+00  0.00000000000E+00  0.14110338471E+04  0.14110338471E+04  0.25500000920E-02 0. -1.
        2   -1    0    0  501    0  0.00000000000E+00  0.00000000000E+00 -0.13900018108E+04  0.13900018108E+04  0.25500000920E-02 0.  1.
    10030    2    1    2    0    0  0.00000000000E+00  0.00000000000E+00  0.21032036311E+02  0.28010356579E+04  0.28009566955E+04 0.  0.
        2    1    3    3  502    0  0.93565942276E+03  0.34596777169E+03 -0.97245998606E+03  0.13931369922E+04  0.25500000920E-02 0.  1.
       -2    1    3    3    0  502 -0.93565942276E+03 -0.34596777169E+03  0.99349202237E+03  0.14078986657E+04  0.25500000920E-02 0. -1.
</event>
<event>
 5   0  0.3502141E-07  0.2797437E+04  0.7818609E-02  0.8304065E-01
        2   -1    0    0  501    0  0.00000000000E+00  0.00000000000E+00  0.19323774343E+04  0.19323774343E+04  0.25500000920E-02 0. -1.
       -2   -1    0    0    0  501  0.00000000000E+00  0.00000000000E+00 -0.10124384581E+04  0.10124384582E+04  0.25500000920E-02 0.  1.
    10030    2    1    2    0    0  0.00000000000E+00  0.00000000000E+00  0.91993897612E+03  0.29448158924E+04  0.27974368483E+04 0.  0.
        3    1    3    3  502    0  0.77066100288E+03 -0.43047133919E+03  0.16021138585E+04  0.18292055054E+04  0.10100000352E+00 0. -1.
       -3    1    3    3    0  502 -0.77066100288E+03  0.43047133919E+03 -0.68217488239E+03  0.11156103870E+04  0.10100000352E+00 0.  1.
</event>
<event>
 5   0  0.3502141E-07  0.2800755E+04  0.7818609E-02  0.8303034E-01
        2   -1    0    0  501    0  0.00000000000E+00  0.00000000000E+00  0.19911409123E+04  0.19911409123E+04  0.25500000920E-02 0. -1.
       -2   -1    0    0    0  501  0.00000000000E+00  0.00000000000E+00 -0.98489138547E+03  0.98489138548E+03  0.25500000920E-02 0.  1.
    10030    2    1    2    0    0  0.00000000000E+00  0.00000000000E+00  0.10062495269E+04  0.29760322978E+04  0.28007552780E+04 0.  0.
        3    1    3    3  502    0  0.13292506812E+04 -0.30199269144E+03  0.84406388579E+03  0.16032937387E+04  0.10100000352E+00 0.  1.
       -3    1    3    3    0  502 -0.13292506812E+04  0.30199269144E+03  0.16218564108E+03  0.13727385591E+04  0.10100000352E+00 0. -1.
</event>
<event>
 5   0  0.3571498E-07  0.2802910E+04  0.7818609E-02  0.8302365E-01
       -2   -1    0    0    0  501  0.00000000000E+00  0.00000000000E+00  0.97709016973E+03  0.97709016973E+03  0.25500000920E-02 0.  1.
        2   -1    0    0  501    0  0.00000000000E+00  0.00000000000E+00 -0.20101281305E+04  0.20101281305E+04  0.25500000920E-02 0. -1.
    10030    2    1    2    0    0  0.00000000000E+00  0.00000000000E+00 -0.10330379608E+04  0.29872183003E+04  0.28029102278E+04 0.  0.
        2    1    3    3  502    0  0.10044958507E+04  0.32754784655E+02 -0.15574694340E+04  0.18535899837E+04  0.25500000920E-02 0. -1.
       -2    1    3    3    0  502 -0.10044958507E+04 -0.32754784655E+02  0.52443147321E+03  0.11336283165E+04  0.25500000920E-02 0.  1.
</event>
<event>
 5   0  0.3557628E-07  0.2800134E+04  0.7818609E-02  0.8303227E-01
       -2   -1    0    0    0  501  0.00000000000E+00  0.00000000000E+00  0.10401924966E+04  0.10401924966E+04  0.25500000920E-02 0.  1.
        2   -1    0    0  501    0  0.00000000000E+00  0.00000000000E+00 -0.18844472724E+04  0.18844472724E+04  0.25500000920E-02 0. -1.
    10030    2    1    2    0    0  0.00000000000E+00  0.00000000000E+00 -0.84425477576E+03  0.29246397690E+04  0.28001342204E+04 0.  0.
        5    1    3    3  502    0 -0.11435132047E+04  0.39633300158E+03 -0.11573170243E+04  0.16745468289E+04  0.46999998093E+01 0. -1.
       -5    1    3    3    0  502  0.11435132047E+04 -0.39633300158E+03  0.31306224857E+03  0.12500929401E+04  0.46999998093E+01 0.  1.
</event>
<event>
 5   0  0.3502141E-07  0.2800476E+04  0.7818609E-02  0.8303121E-01
        2   -1    0    0  501    0  0.00000000000E+00  0.00000000000E+00  0.15391844063E+04  0.15391844063E+04  0.25500000920E-02 0.  1.
       -2   -1    0    0    0  501  0.00000000000E+00  0.00000000000E+00 -0.12738347267E+04  0.12738347267E+04  0.25500000920E-02 0. -1.
    10030    2    1    2    0    0  0.00000000000E+00  0.00000000000E+00  0.26534967956E+03  0.28130191330E+04  0.28004760649E+04 0.  0.
        3    1    3    3  502    0 -0.35855306271E+03 -0.13535365288E+04  0.13942086215E+03  0.14071459130E+04  0.10100000352E+00 0.  1.
       -3    1    3    3    0  502  0.35855306271E+03  0.13535365288E+04  0.12592881741E+03  0.14058732200E+04  0.10100000352E+00 0. -1.
</event>
<event>
 5   0  0.1357902E-07  0.2801685E+04  0.7818609E-02  0.8302745E-01
        1   -1    0    0  501    0  0.00000000000E+00  0.00000000000E+00  0.10131529895E+04  0.10131529895E+04  0.50400001928E-02 0.  1.
       -1   -1    0    0    0  501  0.00000000000E+00  0.00000000000E+00 -0.19368838703E+04  0.19368838704E+04  0.50400001928E-02 0. -1.
    10030    2    1    2    0    0  0.00000000000E+00  0.00000000000E+00 -0.92373088086E+03  0.29500368599E+04  0.28016849813E+04 0.  0.
        4    1    3    3  502    0  0.11793318518E+04 -0.53533411479E+03  0.10020904663E+03  0.12990187439E+04  0.12699999809E+01 0. -1.
       -4    1    3    3    0  502 -0.11793318518E+04  0.53533411479E+03 -0.10239399275E+04  0.16510181159E+04  0.12699999809E+01 0.  1.
</event>
<event>
 5   0  0.3522569E-07  0.2801542E+04  0.7818609E-02  0.8302790E-01
       -2   -1    0    0    0  501  0.00000000000E+00  0.00000000000E+00  0.16228070202E+04  0.16228070202E+04  0.25500000920E-02 0. -1.
        2   -1    0    0  501    0  0.00000000000E+00  0.00000000000E+00 -0.12091141693E+04  0.12091141693E+04  0.25500000920E-02 0.  1.
    10030    2    1    2    0    0  0.00000000000E+00  0.00000000000E+00  0.41369285089E+03  0.28319211895E+04  0.28015416914E+04 0.  0.
        1    1    3    3  502    0 -0.13202058936E+04 -0.11520290639E+03  0.66557762328E+03  0.14829729882E+04  0.50400001928E-02 0. -1.
       -1    1    3    3    0  502  0.13202058936E+04  0.11520290639E+03 -0.25188477239E+03  0.13489482013E+04  0.50400001928E-02 0.  1.
</event>
<event>
 5   0  0.3571498E-07  0.2798300E+04  0.7818609E-02  0.8303796E-01
        2   -1    0    0  501    0  0.00000000000E+00  0.00000000000E+00  0.12615238851E+04  0.12615238851E+04  0.25500000920E-02 0. -1.
       -2   -1    0    0    0  501  0.00000000000E+00  0.00000000000E+00 -0.15517908302E+04  0.15517908302E+04  0.25500000920E-02 0.  1.
    10030    2    1    2    0    0  0.00000000000E+00  0.00000000000E+00 -0.29026694518E+03  0.28133147153E+04  0.27983003391E+04 0.  0.
        2    1    3    3  502    0  0.24104183288E+03 -0.12798836390E+03  0.12345046385E+04  0.12643116266E+04  0.25500000920E-02 0. -1.
       -2    1    3    3    0  502 -0.24104183288E+03  0.12798836390E+03 -0.15247715837E+04  0.15490030888E+04  0.25500000920E-02 0.  1.
</event>
<event>
 5   0  0.1366235E-07  0.2798815E+04  0.7818609E-02  0.8303636E-01
       -1   -1    0    0    0  501  0.00000000000E+00  0.00000000000E+00  0.76461714610E+03  0.76461714611E+03  0.50400001928E-02 0.  1.
        1   -1    0    0  501    0  0.00000000000E+00  0.00000000000E+00 -0.25612050007E+04  0.25612050007E+04  0.50400001928E-02 0. -1.
    10030    2    1    2    0    0  0.00000000000E+00  0.00000000000E+00 -0.17965878546E+04  0.33258221468E+04  0.27988149337E+04 0.  0.
        2    1    3    3  502    0 -0.68955063238E+03  0.97652208532E+03 -0.17627874717E+04  0.21299049575E+04  0.25500000920E-02 0. -1.
       -2    1    3    3    0  502  0.68955063238E+03 -0.97652208532E+03 -0.33800382904E+02  0.11959171893E+04  0.25500000920E-02 0.  1.
</event>
<event>
 5   0  0.3557628E-07  0.2800728E+04  0.7818609E-02  0.8303042E-01
        2   -1    0    0  501    0  0.00000000000E+00  0.00000000000E+00  0.20768998169E+04  0.20768998169E+04  0.25500000920E-02 0.  1.
       -2   -1    0    0    0  501  0.00000000000E+00  0.00000000000E+00 -0.94420493329E+03  0.94420493330E+03  0.25500000920E-02 0. -1.
    10030    2    1    2    0    0  0.00000000000E+00  0.00000000000E+00  0.11326948836E+04  0.30211047502E+04  0.28007278004E+04 0.  0.
        5    1    3    3  502    0 -0.82981220244E+03  0.22777404974E+03  0.17580522548E+04  0.19573551364E+04  0.46999998093E+01 0.  1.
       -5    1    3    3    0  502  0.82981220244E+03 -0.22777404974E+03 -0.62535737128E+03  0.10637496138E+04  0.46999998093E+01 0. -1.
</event>
<event>
 5   0  0.1374680E-07  0.2799392E+04  0.7818609E-02  0.8303457E-01
        1   -1    0    0  501    0  0.00000000000E+00  0.00000000000E+00  0.16572484146E+04  0.16572484147E+04  0.50400001928E-02 0.  1.
       -1   -1    0    0    0  501  0.00000000000E+00  0.00000000000E+00 -0.11821695768E+04  0.11821695768E+04  0.50400001928E-02 0. -1.
    10030    2    1    2    0    0  0.00000000000E+00  0.00000000000E+00  0.47507883784E+03  0.28394179915E+04  0.27993918318E+04 0.  0.
        3    1    3    3  502    0 -0.13119823550E+04 -0.14819577767E+03  0.70882142065E+03  0.14985618122E+04  0.10100000352E+00 0.  1.
       -3    1    3    3    0  502  0.13119823550E+04  0.14819577767E+03 -0.23374258281E+03  0.13408561793E+04  0.10100000352E+00 0. -1.
</event>
<event>
 5   0  0.1374680E-07  0.2800813E+04  0.7818609E-02  0.8303016E-01
        1   -1    0    0  501    0  0.00000000000E+00  0.00000000000E+00  0.14398614109E+04  0.14398614109E+04  0.50400001928E-02 0.  1.
       -1   -1    0    0    0  501  0.00000000000E+00  0.00000000000E+00 -0.13620326025E+04  0.13620326025E+04  0.50400001928E-02 0. -1.
    10030    2    1    2    0    0  0.00000000000E+00  0.00000000000E+00  0.77828808379E+02  0.28018940134E+04  0.28008128711E+04 0.  0.
        3    1    3    3  502    0 -0.13381186517E+04 -0.37904230864E+03 -0.12517200867E+03  0.13963891434E+04  0.10100000352E+00 0. -1.
       -3    1    3    3    0  502  0.13381186517E+04  0.37904230864E+03  0.20300081705E+03  0.14055048701E+04  0.10100000352E+00 0.  1.
</event>
<event>
 5   0  0.1357902E-07  0.2800134E+04  0.7818609E-02  0.8303227E-01
       -1   -1    0    0    0  501  0.00000000000E+00  0.00000000000E+00  0.16659215893E+04  0.16659215893E+04  0.50400001928E-02 0.  1.
        1   -1    0    0  501    0  0.00000000000E+00  0.00000000000E+00 -0.11766387558E+04  0.11766387558E+04  0.50400001928E-02 0. -1.
    10030    2    1    2    0    0  0.00000000000E+00  0.00000000000E+00  0.48928283344E+03  0.28425603451E+04  0.28001342155E+04 0.  0.
        4    1    3    3  502    0  0.51420756825E+03  0.18265087703E+03 -0.10642410138E+04  0.11959854993E+04  0.12699999809E+01 0. -1.
       -4    1    3    3    0  502 -0.51420756825E+03 -0.18265087703E+03  0.15535238472E+04  0.16465748459E+04  0.12699999809E+01 0.  1.
</event>
<event>
 5   0  0.3406920E-07  0.2799536E+04  0.7818609E-02  0.8303412E-01
        2   -1    0    0  501    0  0.00000000000E+00  0.00000000000E+00  0.20689787795E+04  0.20689787795E+04  0.25500000920E-02 0.  1.
       -2   -1    0    0    0  501  0.00000000000E+00  0.00000000000E+00 -0.94701329854E+03  0.94701329854E+03  0.25500000920E-02 0. -1.
    10030    2    1    2    0    0  0.00000000000E+00  0.00000000000E+00  0.11219654810E+04  0.30159920781E+04  0.27995359748E+04 0.  0.
        4    1    3    3  502    0 -0.65056160201E+03 -0.56889562816E+03 -0.62527961817E+03  0.10666999801E+04  0.12699999809E+01 0. -1.
       -4    1    3    3    0  502  0.65056160201E+03  0.56889562816E+03  0.17472450991E+04  0.19492920980E+04  0.12699999809E+01 0.  1.
</event>
<event>
 5   0  0.3571498E-07  0.2804054E+04  0.7818609E-02  0.8302011E-01
        2   -1    0    0  501    0  0.00000000000E+00  0.00000000000E+00  0.21458475775E+04  0.21458475775E+04  0.25500000920E-02 0.  1.
       -2   -1    0    0    0  501  0.00000000000E+00  0.00000000000E+00 -0.91603858391E+03  0.91603858391E+03  0.25500000920E-02 0. -1.
    10030    2    1    2    0    0  0.00000000000E+00  0.00000000000E+00  0.12298089936E+04  0.30618861614E+04  0.28040536202E+04 0.  0.
        2    1    3    3  502    0 -0.13830480951E+04 -0.22953147032E+03  0.60056511329E+03  0.15251836560E+04  0.25500000920E-02 0. -1.
       -2    1    3    3    0  502  0.13830480951E+04  0.22953147032E+03  0.62924388030E+03  0.15367025054E+04  0.25500000920E-02 0.  1.
</event>
<event>
 5   0  0.3406920E-07  0.2802509E+04  0.7818609E-02  0.8302490E-01
       -2   -1    0    0    0  501  0.00000000000E+00  0.00000000000E+00  0.78846155844E+03  0.78846155845E+03  0.25500000920E-02 0.  1.
        2   -1    0    0  501    0  0.00000000000E+00  0.00000000000E+00 -0.24903104022E+04  0.24903104022E+04  0.25500000920E-02 0. -1.
    10030    2    1    2    0    0  0.00000000000E+00  0.00000000000E+00 -0.17018488437E+04  0.32787719606E+04  0.28025088908E+04 0.  0.
        4    1    3    3  502    0  0.56812397094E+03  0.18990590974E+03  0.63111201361E+03  0.87013394804E+03  0.12699999809E+01 0.  1.
       -4    1    3    3    0  502 -0.56812397094E+03 -0.18990590974E+03 -0.23329608573E+04  0.24086380126E+04  0.12699999809E+01 0. -1.
</event>
<event>
 5   0  0.3522569E-07  0.2798178E+04  0.7818609E-02  0.8303834E-01
       -2   -1    0    0    0  501  0.00000000000E+00  0.00000000000E+00  0.14670704031E+04  0.14670704031E+04  0.25500000920E-02 0. -1.
        2   -1    0    0  501    0  0.00000000000E+00  0.00000000000E+00 -0.13342575580E+04  0.13342575580E+04  0.25500000920E-02 0.  1.
    10030    2    1    2    0    0  0.00000000000E+00  0.00000000000E+00  0.13281284510E+03  0.28013279612E+04  0.27981778168E+04 0.  0.
        1    1    3    3  502    0 -0.13118344946E+04 -0.45385834589E+03 -0.10858347527E+03  0.13923675917E+04  0.50400001928E-02 0.  1.
       -1    1    3    3    0  502  0.13118344946E+04  0.45385834589E+03  0.24139632036E+03  0.14089603695E+04  0.50400001928E-02 0. -1.
</event>
<event>
 5   0  0.3502141E-07  0.2799969E+04  0.7818609E-02  0.8303278E-01
        2   -1    0    0  501    0  0.00000000000E+00  0.00000000000E+00  0.16134080015E+04  0.16134080015E+04  0.25500000920E-02 0. -1.
       -2   -1    0    0    0  501  0.00000000000E+00  0.00000000000E+00 -0.12147926075E+04  0.12147926075E+04  0.25500000920E-02 0.  1.
    10030    2    1    2    0    0  0.00000000000E+00  0.00000000000E+00  0.39861539402E+03  0.28282006090E+04  0.27999686520E+04 0.  0.
        3    1    3    3  502    0  0.11431883855E+04  0.55721621076E+03 -0.39190284966E+03  0.13307732504E+04  0.10100000352E+00 0.  1.
       -3    1    3    3    0  502 -0.11431883855E+04 -0.55721621076E+03  0.79051824368E+03  0.14974273585E+04  0.10100000352E+00 0. -1.
</event>
<event>
 5   0  0.1346049E-07  0.2800314E+04  0.7818609E-02  0.8303171E-01
       -1   -1    0    0    0  501  0.00000000000E+00  0.00000000000E+00  0.87773626025E+03  0.87773626027E+03  0.50400001928E-02 0. -1.
        1   -1    0    0  501    0  0.00000000000E+00  0.00000000000E+00 -0.22335181995E+04  0.22335181995E+04  0.50400001928E-02 0.  1.
    10030    2    1    2    0    0  0.00000000000E+00  0.00000000000E+00 -0.13557819392E+04  0.31112544598E+04  0.28003142050E+04 0.  0.
        1    1    3    3  502    0 -0.50725097949E+02 -0.13258049652E+04 -0.11748963275E+04  0.17722057504E+04  0.50400001928E-02 0. -1.
       -1    1    3    3    0  502  0.50725097949E+02  0.13258049652E+04 -0.18088561172E+03  0.13390487093E+04  0.50400001928E-02 0.  1.
</event>
<event>
 5   0  0.3571498E-07  0.2801997E+04  0.7818609E-02  0.8302649E-01
        2   -1    0    0  501    0  0.00000000000E+00  0.00000000000E+00  0.17392407106E+04  0.17392407106E+04  0.25500000920E-02 0. -1.
       -2   -1    0    0    0  501  0.00000000000E+00  0.00000000000E+00 -0.11285368500E+04  0.11285368500E+04  0.25500000920E-02 0.  1.
    10030    2    1    2    0    0  0.00000000000E+00  0.00000000000E+00  0.61070386057E+03  0.28677775606E+04  0.28019973111E+04 0.  0.
        2    1    3    3  502    0  0.13383213498E+04 -0.83801515621E+02 -0.10997075653E+03  0.13454442748E+04  0.25500000920E-02 0.  1.
       -2    1    3    3    0  502 -0.13383213498E+04  0.83801515621E+02  0.72067461710E+03  0.15223332858E+04  0.25500000920E-02 0. -1.
</event>
<event>
 5   0  0.1366235E-07  0.2799797E+04  0.7818609E-02  0.8303331E-01
       -1   -1    0    0    0  501  0.00000000000E+00  0.00000000000E+00  0.13634276797E+04  0.13634276797E+04  0.50400001928E-02 0. -1.
        1   -1    0    0  501    0  0.00000000000E+00  0.00000000000E+00 -0.14373453881E+04  0.14373453881E+04  0.50400001928E-02 0.  1.
    10030    2    1    2    0    0  0.00000000000E+00  0.00000000000E+00 -0.73917708357E+02  0.28007730678E+04  0.27997974837E+04 0.  0.
        2    1    3    3  502    0  0.10282173852E+04 -0.93173066262E+03 -0.22239730879E+03  0.14052806061E+04  0.25500000920E-02 0.  1.
       -2    1    3    3    0  502 -0.10282173852E+04  0.93173066262E+03  0.14847960044E+03  0.13954924617E+04  0.25500000920E-02 0. -1.
</event>
<event>
 5   0  0.3406920E-07  0.2800794E+04  0.7818609E-02  0.8303022E-01
        2   -1    0    0  501    0  0.00000000000E+00  0.00000000000E+00  0.22288230544E+04  0.22288230544E+04  0.25500000920E-02 0.  1.
       -2   -1    0    0    0  501  0.00000000000E+00  0.00000000000E+00 -0.87988680020E+03  0.87988680021E+03  0.25500000920E-02 0. -1.
    10030    2    1    2    0    0  0.00000000000E+00  0.00000000000E+00  0.13489362542E+04  0.31087098546E+04  0.28007941628E+04 0.  0.
        4    1    3    3  502    0 -0.11876138141E+04 -0.69961243445E+03  0.39982559015E+03  0.14351816071E+04  0.12699999809E+01 0. -1.
       -4    1    3    3    0  502  0.11876138141E+04  0.69961243445E+03  0.94911066407E+03  0.16735282476E+04  0.12699999809E+01 0.  1.
</event>
<event>
 5   0  0.3406920E-07  0.2800791E+04  0.7818609E-02  0.8303023E-01
       -2   -1    0    0    0  501  0.00000000000E+00  0.00000000000E+00  0.14560989062E+04  0.14560989063E+04  0.25500000920E-02 0. -1.
        2   -1    0    0  501    0  0.00000000000E+00  0.00000000000E+00 -0.13468231167E+04  0.13468231167E+04  0.25500000920E-02 0.  1.
    10030    2    1    2    0    0  0.00000000000E+00  0.00000000000E+00  0.10927578952E+03  0.28029220230E+04  0.28007910791E+04 0.  0.
        4    1    3    3  502    0  0.21268944706E+03  0.62682657655E+03  0.12896585510E+04  0.14496099989E+04  0.12699999809E+01 0. -1.
       -4    1    3    3    0  502 -0.21268944706E+03 -0.62682657655E+03 -0.11803827615E+04  0.13533120241E+04  0.12699999809E+01 0.  1.
</event>
<event>
 5   0  0.1346049E-07  0.2800005E+04  0.7818609E-02  0.8303267E-01
        1   -1    0    0  501    0  0.00000000000E+00  0.00000000000E+00  0.15239385423E+04  0.15239385423E+04  0.50400001928E-02 0. -1.
       -1   -1    0    0    0  501  0.00000000000E+00  0.00000000000E+00 -0.12861457138E+04  0.12861457138E+04  0.50400001928E-02 0.  1.
    10030    2    1    2    0    0  0.00000000000E+00  0.00000000000E+00  0.23779282851E+03  0.28100842561E+04  0.28000050173E+04 0.  0.
        1    1    3    3  502    0 -0.16031589869E+03 -0.42426443536E+03  0.14481662444E+04  0.15175265961E+04  0.50400001928E-02 0. -1.
       -1    1    3    3    0  502  0.16031589869E+03  0.42426443536E+03 -0.12103734159E+04  0.12925576600E+04  0.50400001928E-02 0.  1.
</event>
<event>
 5   0  0.1374680E-07  0.2801229E+04  0.7818609E-02  0.8302887E-01
       -1   -1    0    0    0  501  0.00000000000E+00  0.00000000000E+00  0.20807799035E+04  0.20807799035E+04  0.50400001928E-02 0.  1.
        1   -1    0    0  501    0  0.00000000000E+00  0.00000000000E+00 -0.94278185452E+03  0.94278185454E+03  0.50400001928E-02 0. -1.
    10030    2    1    2    0    0  0.00000000000E+00  0.00000000000E+00  0.11379980490E+04  0.30235617581E+04  0.28012293989E+04 0.  0.
        3    1    3    3  502    0 -0.89889662659E+03  0.48575560746E+02 -0.58917346951E+03  0.10758717943E+04  0.10100000352E+00 0. -1.
       -3    1    3    3    0  502  0.89889662659E+03 -0.48575560746E+02  0.17271715185E+04  0.19476899638E+04  0.10100000352E+00 0.  1.
</event>
<event>
 5   0  0.3502141E-07  0.2797916E+04  0.7818609E-02  0.8303916E-01
        2   -1    0    0  501    0  0.00000000000E+00  0.00000000000E+00  0.15921392876E+04  0.15921392876E+04  0.25500000920E-02 0.  1.
       -2   -1    0    0    0  501  0.00000000000E+00  0.00000000000E+00 -0.12292161370E+04  0.12292161370E+04  0.25500000920E-02 0. -1.
    10030    2    1    2    0    0  0.00000000000E+00  0.00000000000E+00  0.36292315061E+03  0.28213554247E+04  0.27979158706E+04 0.  0.
        3    1    3    3  502    0 -0.98770768421E+03  0.87187738792E+03  0.65587789612E+03  0.14717039355E+04  0.10100000352E+00 0.  1.
       -3    1    3    3    0  502  0.98770768421E+03 -0.87187738792E+03 -0.29295474551E+03  0.13496514891E+04  0.10100000352E+00 0. -1.
</event>
<event>
 5   0  0.1361741E-07  0.2799726E+04  0.7818609E-02  0.8303353E-01
       -1   -1    0    0    0  501  0.00000000000E+00  0.00000000000E+00  0.23547045974E+04  0.23547045974E+04  0.50400001928E-02 0. -1.
        1   -1    0    0  501    0  0.00000000000E+00  0.00000000000E+00 -0.83221314714E+03  0.83221314715E+03  0.50400001928E-02 0.  1.
    10030    2    1    2    0    0  0.00000000000E+00  0.00000000000E+00  0.15224914502E+04  0.31869177445E+04  0.27997257891E+04 0.  0.
        5    1    3    3  502    0  0.29172588258E+03  0.13440912261E+04  0.46461342103E+03  0.14517482343E+04  0.46999998093E+01 0. -1.
       -5    1    3    3    0  502 -0.29172588258E+03 -0.13440912261E+04  0.10578780292E+04  0.17351695102E+04  0.46999998093E+01 0.  1.
</event>
<event>
 5   0  0.1357902E-07  0.2799887E+04  0.7818609E-02  0.8303303E-01
       -1   -1    0    0    0  501  0.00000000000E+00  0.00000000000E+00  0.13089173326E+04  0.13089173326E+04  0.50400001928E-02 0. -1.
        1   -1    0    0  501    0  0.00000000000E+00  0.00000000000E+00 -0.14972997592E+04  0.14972997592E+04  0.50400001928E-02 0.  1.
    10030    2    1    2    0    0  0.00000000000E+00  0.00000000000E+00 -0.18838242658E+03  0.28062170918E+04  0.27998868598E+04 0.  0.
        4    1    3    3  502    0 -0.12811388026E+04 -0.41275191077E+03 -0.47997602767E+03  0.14290064281E+04  0.12699999809E+01 0.  1.
       -4    1    3    3    0  502  0.12811388026E+04  0.41275191077E+03  0.29159360109E+03  0.13772106638E+04  0.12699999809E+01 0. -1.
</event>
<event>
 5   0  0.3406920E-07  0.2803474E+04  0.7818609E-02  0.8302191E-01
        2   -1    0    0  501    0  0.00000000000E+00  0.00000000000E+00  0.13810568780E+04  0.13810568780E+04  0.25500000920E-02 0.  1.
       -2   -1    0    0    0  501  0.00000000000E+00  0.00000000000E+00 -0.14227272333E+04  0.14227272333E+04  0.25500000920E-02 0. -1.
    10030    2    1    2    0    0  0.00000000000E+00  0.00000000000E+00 -0.41670355268E+02  0.28037841113E+04  0.28034744379E+04 0.  0.
        4    1    3    3  502    0 -0.11446331777E+04 -0.17522306425E+03  0.76917446903E+03  0.13901507869E+04  0.12699999809E+01 0.  1.
       -4    1    3    3    0  502  0.11446331777E+04  0.17522306425E+03 -0.81084482430E+03  0.14136333243E+04  0.12699999809E+01 0. -1.
</event>
<event>
 5   0  0.3522569E-07  0.2798612E+04  0.7818609E-02  0.8303699E-01
        2   -1    0    0  501    0  0.00000000000E+00  0.00000000000E+00  0.16895352194E+04  0.16895352194E+04  0.25500000920E-02 0. -1.
       -2   -1    0    0    0  501  0.00000000000E+00  0.00000000000E+00 -0.11589327502E+04  0.11589327502E+04  0.25500000920E-02 0.  1.
    10030    2    1    2    0    0  0.00000000000E+00  0.00000000000E+00  0.53060246922E+03  0.28484679697E+04  0.27986122979E+04 0.  0.
        1    1    3    3  502    0  0.57296700264E+02  0.43991054631E+03  0.16160654178E+04  0.16758495264E+04  0.50400001928E-02 0. -1.
       -1    1    3    3    0  502 -0.57296700264E+02 -0.43991054631E+03 -0.10854629486E+04  0.11726184432E+04  0.50400001928E-02 0.  1.
</event>
<event>
 5   0  0.1366235E-07  0.2797915E+04  0.7818609E-02  0.8303916E-01
       -1   -1    0    0    0  501  0.00000000000E+00  0.00000000000E+00  0.11793478293E+04  0.11793478293E+04  0.50400001928E-02 0.  1.
        1   -1    0    0  501    0  0.00000000000E+00  0.00000000000E+00 -0.16594617883E+04  0.16594617883E+04  0.50400001928E-02 0. -1.
    10030    2    1    2    0    0  0.00000000000E+00  0.00000000000E+00 -0.48011395899E+03  0.28388096177E+04  0.27979154083E+04 0.  0.
        2    1    3    3  502    0  0.59227607372E+03 -0.41663880149E+03  0.97439374222E+03  0.12140107097E+04  0.25500000920E-02 0.  1.
       -2    1    3    3    0  502 -0.59227607372E+03  0.41663880149E+03 -0.14545077012E+04  0.16247989080E+04  0.25500000920E-02 0. -1.
</event>
<event>
 5   0  0.3571498E-07  0.2809164E+04  0.7818609E-02  0.8300429E-01
        2   -1    0    0  501    0  0.00000000000E+00  0.00000000000E+00  0.12179858775E+04  0.12179858775E+04  0.25500000920E-02 0. -1.
       -2   -1    0    0    0  501  0.00000000000E+00  0.00000000000E+00 -0.16197651297E+04  0.16197651297E+04  0.25500000920E-02 0.  1.
    10030    2    1    2    0    0  0.00000000000E+00  0.00000000000E+00 -0.40177925218E+03  0.28377510072E+04  0.28091643262E+04 0.  0.
        2    1    3    3  502    0  0.43823518336E+03 -0.14998205909E+03  0.11386156088E+04  0.12292234129E+04  0.25500000920E-02 0. -1.
       -2    1    3    3    0  502 -0.43823518336E+03  0.14998205909E+03 -0.15403948610E+04  0.16085275944E+04  0.25500000920E-02 0.  1.
</event>
<event>
 5   0  0.3522569E-07  0.2800152E+04  0.7818609E-02  0.8303221E-01
        2   -1    0    0  501    0  0.00000000000E+00  0.00000000000E+00  0.13207914239E+04  0.13207914239E+04  0.25500000920E-02 0. -1.
       -2   -1    0    0    0  501  0.00000000000E+00  0.00000000000E+00 -0.14841198411E+04  0.14841198411E+04  0.25500000920E-02 0.  1.
    10030    2    1    2    0    0  0.00000000000E+00  0.00000000000E+00 -0.16332841720E+03  0.28049112651E+04  0.28001519661E+04 0.  0.
        1    1    3    3  502    0  0.10939397148E+04 -0.87336470397E+03 -0.54364400469E+02  0.14008659799E+04  0.50400001928E-02 0. -1.
       -1    1    3    3    0  502 -0.10939397148E+04  0.87336470397E+03 -0.10896401673E+03  0.14040452851E+04  0.50400001928E-02 0.  1.
</event>
<event>
 5   0  0.3502141E-07  0.2800818E+04  0.7818609E-02  0.8303014E-01
       -2   -1    0    0    0  501  0.00000000000E+00  0.00000000000E+00  0.12946101442E+04  0.12946101442E+04  0.25500000920E-02 0.  1.
        2   -1    0    0  501    0  0.00000000000E+00  0.00000000000E+00 -0.15148543868E+04  0.15148543868E+04  0.25500000920E-02 0. -1.
    10030    2    1    2    0    0  0.00000000000E+00  0.00000000000E+00 -0.22024424257E+03  0.28094645310E+04  0.28008183491E+04 0.  0.
        3    1    3    3  502    0  0.11284191592E+04  0.34874094419E+03 -0.86490481315E+03  0.14639024527E+04  0.10100000352E+00 0. -1.
       -3    1    3    3    0  502 -0.11284191592E+04 -0.34874094419E+03  0.64466057058E+03  0.13455620783E+04  0.10100000352E+00 0.  1.
</event>
<event>
 5   0  0.3571498E-07  0.2800515E+04  0.7818609E-02  0.8303108E-01
        2   -1    0    0  501    0  0.00000000000E+00  0.00000000000E+00  0.90645086300E+03  0.90645086300E+03  0.25500000920E-02 0. -1.
       -2   -1    0    0    0  501  0.00000000000E+00  0.00000000000E+00 -0.21630748791E+04  0.21630748791E+04  0.25500000920E-02 0.  1.
    10030    2    1    2    0    0  0.00000000000E+00  0.00000000000E+00 -0.12566240161E+04  0.30695257421E+04  0.28005150176E+04 0.  0.
        2    1    3    3  502    0 -0.12744437394E+04 -0.26931092934E+03 -0.11914615229E+04  0.17653089764E+04  0.25500000920E-02 0.  1.
       -2    1    3    3    0  502  0.12744437394E+04  0.26931092934E+03 -0.65162493177E+02  0.13042167657E+04  0.25500000920E-02 0. -1.
</event>
<event>
 5   0  0.1361741E-07  0.2800039E+04  0.7818609E-02  0.8303256E-01
        1   -1    0    0  501    0  0.00000000000E+00  0.00000000000E+00  0.15565104902E+04  0.15565104902E+04  0.50400001928E-02 0. -1.
       -1   -1    0    0    0  501  0.00000000000E+00  0.00000000000E+00 -0.12592616532E+04  0.12592616532E+04  0.50400001928E-02 0.  1.
    10030    2    1    2    0    0  0.00000000000E+00  0.00000000000E+00  0.29724883700E+03  0.28157721435E+04  0.28000385520E+04 0.  0.
        5    1    3    3  502    0  0.11866429613E+03  0.87127099414E+03  0.12441666697E+04  0.15235377095E+04  0.46999998093E+01 0. -1.
       -5    1    3    3    0  502 -0.11866429613E+03 -0.87127099414E+03 -0.94691783268E+03  0.12922344339E+04  0.46999998093E+01 0.  1.
</event>
<event>
 5   0  0.3406920E-07  0.2802861E+04  0.7818609E-02  0.8302381E-01
        2   -1    0    0  501    0  0.00000000000E+00  0.00000000000E+00  0.17311391364E+04  0.17311391364E+04  0.25500000920E-02 0.  1.
       -2   -1    0    0    0  501  0.00000000000E+00  0.00000000000E+00 -0.11345172964E+04  0.11345172964E+04  0.25500000920E-02 0. -1.
    10030    2    1    2    0    0  0.00000000000E+00  0.00000000000E+00  0.59662183996E+03  0.28656564328E+04  0.28028608904E+04 0.  0.
        4    1    3    3  502    0 -0.21852083457E+03 -0.12705264775E+04  0.86018386977E+03  0.15498086294E+04  0.12699999809E+01 0.  1.
       -4    1    3    3    0  502  0.21852083457E+03  0.12705264775E+04 -0.26356202981E+03  0.13158478034E+04  0.12699999809E+01 0. -1.
</event>
<event>
 5   0  0.1374680E-07  0.2799177E+04  0.7818609E-02  0.8303524E-01
        1   -1    0    0  501    0  0.00000000000E+00  0.00000000000E+00  0.22791703707E+04  0.22791703707E+04  0.50400001928E-02 0. -1.
       -1   -1    0    0    0  501  0.00000000000E+00  0.00000000000E+00 -0.85945638529E+03  0.85945638530E+03  0.50400001928E-02 0.  1.
    10030    2    1    2    0    0  0.00000000000E+00  0.00000000000E+00  0.14197139854E+04  0.31386267560E+04  0.27991766849E+04 0.  0.
        3    1    3    3  502    0 -0.12691423015E+01 -0.13941836107E+04  0.57208257046E+03  0.15069930420E+04  0.10100000352E+00 0. -1.
       -3    1    3    3    0  502  0.12691423015E+01  0.13941836107E+04  0.84763141499E+03  0.16316337141E+04  0.10100000352E+00 0.  1.
</event>
<event>
 5   0  0.1374680E-07  0.2800372E+04  0.7818609E-02  0.8303153E-01
        1   -1    0    0  501    0  0.00000000000E+00  0.00000000000E+00  0.12471840194E+04  0.12471840194E+04  0.50400001928E-02 0.  1.
       -1   -1    0    0    0  501  0.00000000000E+00  0.00000000000E+00 -0.15719576549E+04  0.15719576549E+04  0.50400001928E-02 0. -1.
    10030    2    1    2    0    0  0.00000000000E+00  0.00000000000E+00 -0.32477363549E+03  0.28191416743E+04  0.28003717371E+04 0.  0.
        3    1    3    3  502    0  0.56531162320E+03  0.10332371780E+04 -0.92467026018E+03  0.14973881921E+04  0.10100000352E+00 0. -1.
       -3    1    3    3    0  502 -0.56531162320E+03 -0.10332371780E+04  0.59989662469E+03  0.13217534823E+04  0.10100000352E+00 0.  1.
</event>
<event>
 5   0  0.3502141E-07  0.2796275E+04  0.7818609E-02  0.8304426E-01
       -2   -1    0    0    0  501  0.00000000000E+00  0.00000000000E+00  0.13208936576E+04  0.13208936576E+04  0.25500000920E-02 0.  1.
        2   -1    0    0  501    0  0.00000000000E+00  0.00000000000E+00 -0.14798987612E+04  0.14798987612E+04  0.25500000920E-02 0. -1.
    10030    2    1    2    0    0  0.00000000000E+00  0.00000000000E+00 -0.15900510356E+03  0.28007924188E+04  0.27962752994E+04 0.  0.
        3    1    3    3  502    0  0.11412690604E+04 -0.10595240782E+03  0.72245800770E+03  0.13548677293E+04  0.10100000352E+00 0.  1.
       -3    1    3    3    0  502 -0.11412690604E+04  0.10595240782E+03 -0.88146311127E+03  0.14459246895E+04  0.10100000352E+00 0. -1.
</event>
<event>
 5   0  0.1173363E-07  0.2800183E+04  0.7818609E-02  0.8303211E-01
        3   -1    0    0  501    0  0.00000000000E+00  0.00000000000E+00  0.16893074559E+04  0.16893074589E+04  0.10100000352E+00 0.  1.
       -3   -1    0    0    0  501  0.00000000000E+00  0.00000000000E+00 -0.11603906571E+04  0.11603906615E+04  0.10100000352E+00 0. -1.
    10030    2    1    2    0    0  0.00000000000E+00  0.00000000000E+00  0.52891679877E+03  0.28496981204E+04  0.28001832793E+04 0.  0.
        5    1    3    3  502    0  0.97017201482E+03  0.70992584068E+03  0.99478744413E+03  0.15604014184E+04  0.46999998093E+01 0. -1.
       -5    1    3    3    0  502 -0.97017201482E+03 -0.70992584068E+03 -0.46587064536E+03  0.12892967020E+04  0.46999998093E+01 0.  1.
</event>
<event>
 5   0  0.1374680E-07  0.2800540E+04  0.7818609E-02  0.8303101E-01
        1   -1    0    0  501    0  0.00000000000E+00  0.00000000000E+00  0.19703261502E+04  0.19703261502E+04  0.50400001928E-02 0.  1.
       -1   -1    0    0    0  501  0.00000000000E+00  0.00000000000E+00 -0.99514318067E+03  0.99514318068E+03  0.50400001928E-02 0. -1.
    10030    2    1    2    0    0  0.00000000000E+00  0.00000000000E+00  0.97518296954E+03  0.29654693309E+04  0.28005403994E+04 0.  0.
        3    1    3    3  502    0  0.80489452561E+03  0.89481106327E+03 -0.27024858701E+03  0.12335219274E+04  0.10100000352E+00 0. -1.
       -3    1    3    3    0  502 -0.80489452561E+03 -0.89481106327E+03  0.12454315566E+04  0.17319474035E+04  0.10100000352E+00 0.  1.
</event>
<event>
 5   0  0.1357902E-07  0.2800396E+04  0.7818609E-02  0.8303145E-01
       -1   -1    0    0    0  501  0.00000000000E+00  0.00000000000E+00  0.70892974502E+03  0.70892974504E+03  0.50400001928E-02 0. -1.
        1   -1    0    0  501    0  0.00000000000E+00  0.00000000000E+00 -0.27655129337E+04  0.27655129337E+04  0.50400001928E-02 0.  1.
    10030    2    1    2    0    0  0.00000000000E+00  0.00000000000E+00 -0.20565831886E+04  0.34744426787E+04  0.28003959570E+04 0.  0.
        4    1    3    3  502    0  0.92183908896E+03 -0.49499005664E+03  0.12612360317E+03  0.10539028600E+04  0.12699999809E+01 0. -1.
       -4    1    3    3    0  502 -0.92183908896E+03  0.49499005664E+03 -0.21827067918E+04  0.24205398187E+04  0.12699999809E+01 0.  1.
</event>
<event>
 5   0  0.1361741E-07  0.2799078E+04  0.7818609E-02  0.8303555E-01
       -1   -1    0    0    0  501  0.00000000000E+00  0.00000000000E+00  0.15376072991E+04  0.15376072991E+04  0.50400001928E-02 0. -1.
        1   -1    0    0  501    0  0.00000000000E+00  0.00000000000E+00 -0.12738685651E+04  0.12738685651E+04  0.50400001928E-02 0.  1.
    10030    2    1    2    0    0  0.00000000000E+00  0.00000000000E+00  0.26373873400E+03  0.28114758642E+04  0.27990781367E+04 0.  0.
        5    1    3    3  502    0  0.26986857578E+03 -0.13582544062E+04  0.33525929874E+03  0.14248175208E+04  0.46999998093E+01 0.  1.
       -5    1    3    3    0  502 -0.26986857578E+03  0.13582544062E+04 -0.71520564734E+02  0.13866583434E+04  0.46999998093E+01 0. -1.
</event>
<event>
 5   0  0.1357902E-07  0.2798796E+04  0.7818609E-02  0.8303642E-01
        1   -1    0    0  501    0  0.00000000000E+00  0.00000000000E+00  0.16879111503E+04  0.16879111504E+04  0.50400001928E-02 0.  1.
       -1   -1    0    0    0  501  0.00000000000E+00  0.00000000000E+00 -0.11602000372E+04  0.11602000372E+04  0.50400001928E-02 0. -1.
    10030    2    1    2    0    0  0.00000000000E+00  0.00000000000E+00  0.52771111314E+03  0.28481111876E+04  0.27987958693E+04 0.  0.
        4    1    3    3  502    0  0.10111943266E+04  0.39206097625E+03  0.11637950314E+04  0.15908005102E+04  0.12699999809E+01 0.  1.
       -4    1    3    3    0  502 -0.10111943266E+04 -0.39206097625E+03 -0.63608391828E+03  0.12573106773E+04  0.12699999809E+01 0. -1.
</event>
<event>
 5   0  0.3502141E-07  0.2800228E+04  0.7818609E-02  0.8303198E-01
        2   -1    0    0  501    0  0.00000000000E+00  0.00000000000E+00  0.17851460907E+04  0.17851460907E+04  0.25500000920E-02 0.  1.
       -2   -1    0    0    0  501  0.00000000000E+00  0.00000000000E+00 -0.10981280252E+04  0.10981280253E+04  0.25500000920E-02 0. -1.
    10030    2    1    2    0    0  0.00000000000E+00  0.00000000000E+00  0.68701806543E+03  0.28832741159E+04  0.28002278131E+04 0.  0.
        3    1    3    3  502    0  0.48866736356E+03 -0.58569381446E+02 -0.10061245439E+04  0.11200503438E+04  0.10100000352E+00 0. -1.
       -3    1    3    3    0  502 -0.48866736356E+03  0.58569381446E+02  0.16931426094E+04  0.17632237721E+04  0.10100000352E+00 0.  1.
</event>
<event>
 5   0  0.1346049E-07  0.2799275E+04  0.7818609E-02  0.8303494E-01
       -1   -1    0    0    0  501  0.00000000000E+00  0.00000000000E+00  0.17888626625E+04  0.17888626625E+04  0.50400001928E-02 0. -1.
        1   -1    0    0  501    0  0.00000000000E+00  0.00000000000E+00 -0.10951008471E+04  0.10951008471E+04  0.50400001928E-02 0.  1.
    10030    2    1    2    0    0  0.00000000000E+00  0.00000000000E+00  0.69376181547E+03  0.28839635096E+04  0.27992749183E+04 0.  0.
        1    1    3    3  502    0  0.90907344207E+03 -0.51502398582E+03  0.13063568416E+04  0.16727918062E+04  0.50400001928E-02 0. -1.
       -1    1    3    3    0  502 -0.90907344207E+03  0.51502398582E+03 -0.61259502618E+03  0.12111717034E+04  0.50400001928E-02 0.  1.
</event>
<event>
 5   0  0.3502141E-07  0.2803207E+04  0.7818609E-02  0.8302273E-01
        2   -1    0    0  501    0  0.00000000000E+00  0.00000000000E+00  0.22347380617E+04  0.22347380617E+04  0.25500000920E-02 0.  1.
       -2   -1    0    0    0  501  0.00000000000E+00  0.00000000000E+00 -0.87907060377E+03  0.87907060377E+03  0.25500000920E-02 0. -1.
    10030    2    1    2    0    0  0.00000000000E+00  0.00000000000E+00  0.13556674579E+04  0.31138086655E+04  0.28032071184E+04 0.  0.
        3    1    3    3  502    0 -0.86339368757E+03 -0.10676328585E+04  0.99044896961E+03  0.16930084914E+04  0.10100000352E+00 0. -1.
       -3    1    3    3    0  502  0.86339368757E+03  0.10676328585E+04  0.36521848833E+03  0.14208001741E+04  0.10100000352E+00 0.  1.
</event>
<event>
 5   0  0.3406920E-07  0.2799578E+04  0.7818609E-02  0.8303399E-01
       -2   -1    0    0    0  501  0.00000000000E+00  0.00000000000E+00  0.85971917104E+03  0.85971917104E+03  0.25500000920E-02 0. -1.
        2   -1    0    0  501    0  0.00000000000E+00  0.00000000000E+00 -0.22791274076E+04  0.22791274076E+04  0.25500000920E-02 0.  1.
    10030    2    1    2    0    0  0.00000000000E+00  0.00000000000E+00 -0.14194082366E+04  0.31388465787E+04  0.27995782008E+04 0.  0.
        4    1    3    3  502    0  0.68996054424E+03 -0.11171007535E+04 -0.12537371061E+04  0.18154387872E+04  0.12699999809E+01 0.  1.
       -4    1    3    3    0  502 -0.68996054424E+03  0.11171007535E+04 -0.16567113048E+03  0.13234077914E+04  0.12699999809E+01 0. -1.
</event>
<event>
 5   0  0.1357902E-07  0.2800318E+04  0.7818609E-02  0.8303170E-01
        1   -1    0    0  501    0  0.00000000000E+00  0.00000000000E+00  0.11421947987E+04  0.11421947987E+04  0.50400001928E-02 0. -1.
       -1   -1    0    0    0  501  0.00000000000E+00  0.00000000000E+00 -0.17163846190E+04  0.17163846190E+04  0.50400001928E-02 0.  1.
    10030    2    1    2    0    0  0.00000000000E+00  0.00000000000E+00 -0.57418982025E+03  0.28585794177E+04  0.28003182565E+04 0.  0.
        4    1    3    3  502    0  0.10134114441E+04  0.70572665570E+03 -0.96066477093E+03  0.15645866171E+04  0.12699999809E+01 0.  1.
       -4    1    3    3    0  502 -0.10134114441E+04 -0.70572665570E+03  0.38647495068E+03  0.12939928006E+04  0.12699999809E+01 0. -1.
</event>
<event>
 5   0  0.1346049E-07  0.2795585E+04  0.7818609E-02  0.8304640E-01
        1   -1    0    0  501    0  0.00000000000E+00  0.00000000000E+00  0.15218589994E+04  0.15218589994E+04  0.50400001928E-02 0. -1.
       -1   -1    0    0    0  501  0.00000000000E+00  0.00000000000E+00 -0.12838398641E+04  0.12838398641E+04  0.50400001928E-02 0.  1.
    10030    2    1    2    0    0  0.00000000000E+00  0.00000000000E+00  0.23801913528E+03  0.28056988635E+04  0.27955845550E+04 0.  0.
        1    1    3    3  502    0 -0.11478827851E+04  0.13878433120E+03  0.90729846247E+03  0.14697232661E+04  0.50400001928E-02 0. -1.
       -1    1    3    3    0  502  0.11478827851E+04 -0.13878433120E+03 -0.66927932719E+03  0.13359755974E+04  0.50400001928E-02 0.  1.
</event>
<event>
 5   0  0.3571498E-07  0.2800430E+04  0.7818609E-02  0.8303135E-01
       -2   -1    0    0    0  501  0.00000000000E+00  0.00000000000E+00  0.30216376703E+04  0.30216376703E+04  0.25500000920E-02 0.  1.
        2   -1    0    0  501    0  0.00000000000E+00  0.00000000000E+00 -0.64885391175E+03  0.64885391176E+03  0.25500000920E-02 0. -1.
    10030    2    1    2    0    0  0.00000000000E+00  0.00000000000E+00  0.23727837585E+04  0.36704915821E+04  0.28004295544E+04 0.  0.
        2    1    3    3  502    0 -0.37241000392E+03 -0.11828312695E+04  0.20386645710E+04  0.23861961898E+04  0.25500000920E-02 0.  1.
       -2    1    3    3    0  502  0.37241000392E+03  0.11828312695E+04  0.33411918751E+03  0.12842953922E+04  0.25500000920E-02 0. -1.
</event>
<event>
 5   0  0.3502141E-07  0.2800759E+04  0.7818609E-02  0.8303033E-01
        2   -1    0    0  501    0  0.00000000000E+00  0.00000000000E+00  0.13226807923E+04  0.13226807923E+04  0.25500000920E-02 0. -1.
       -2   -1    0    0    0  501  0.00000000000E+00  0.00000000000E+00 -0.14826429209E+04  0.14826429209E+04  0.25500000920E-02 0.  1.
    10030    2    1    2    0    0  0.00000000000E+00  0.00000000000E+00 -0.15996212862E+03  0.28053237132E+04  0.28007594066E+04 0.  0.
        3    1    3    3  502    0  0.39738391130E+03  0.54141365372E+03  0.11508504673E+04  0.13324787149E+04  0.10100000352E+00 0. -1.
       -3    1    3    3    0  502 -0.39738391130E+03 -0.54141365372E+03 -0.13108125959E+04  0.14728449983E+04  0.10100000352E+00 0.  1.
</event>
<event>
 5   0  0.1357902E-07  0.2798583E+04  0.7818609E-02  0.8303708E-01
        1   -1    0    0  501    0  0.00000000000E+00  0.00000000000E+00  0.15241278673E+04  0.15241278673E+04  0.50400001928E-02 0. -1.
       -1   -1    0    0    0  501  0.00000000000E+00  0.00000000000E+00 -0.12846802117E+04  0.12846802117E+04  0.50400001928E-02 0.  1.
    10030    2    1    2    0    0  0.00000000000E+00  0.00000000000E+00  0.23944765561E+03  0.28088080790E+04  0.27985831495E+04 0.  0.
        4    1    3    3  502    0 -0.96359492774E+03 -0.20525385517E+03 -0.87757205820E+03  0.13193857132E+04  0.12699999809E+01 0.  1.
       -4    1    3    3    0  502  0.96359492774E+03  0.20525385517E+03  0.11170197138E+04  0.14894223658E+04  0.12699999809E+01 0. -1.
</event>
<event>
 5   0  0.1366235E-07  0.2797496E+04  0.7818609E-02  0.8304046E-01
        1   -1    0    0  501    0  0.00000000000E+00  0.00000000000E+00  0.14913162699E+04  0.14913162699E+04  0.50400001928E-02 0.  1.
       -1   -1    0    0    0  501  0.00000000000E+00  0.00000000000E+00 -0.13119257594E+04  0.13119257594E+04  0.50400001928E-02 0. -1.
    10030    2    1    2    0    0  0.00000000000E+00  0.00000000000E+00  0.17939051049E+03  0.28032420293E+04  0.27974961876E+04 0.  0.
        2    1    3    3  502    0 -0.87488590673E+03 -0.51809680922E+03 -0.87282256728E+03  0.13400257040E+04  0.25500000920E-02 0.  1.
       -2    1    3    3    0  502  0.87488590673E+03  0.51809680922E+03  0.10522130778E+04  0.14632163253E+04  0.25500000920E-02 0. -1.
</event>
<event>
 5   0  0.1346049E-07  0.2800986E+04  0.7818609E-02  0.8302962E-01
       -1   -1    0    0    0  501  0.00000000000E+00  0.00000000000E+00  0.10918993080E+04  0.10918993080E+04  0.50400001928E-02 0. -1.
        1   -1    0    0  501    0  0.00000000000E+00  0.00000000000E+00 -0.17963011330E+04  0.17963011330E+04  0.50400001928E-02 0.  1.
    10030    2    1    2    0    0  0.00000000000E+00  0.00000000000E+00 -0.70440182498E+03  0.28882004410E+04  0.28009855152E+04 0.  0.
        1    1    3    3  502    0  0.13822011056E+04  0.97282150332E+02 -0.14230368905E+03  0.13929084870E+04  0.50400001928E-02 0. -1.
       -1    1    3    3    0  502 -0.13822011056E+04 -0.97282150332E+02 -0.56209813593E+03  0.14952919540E+04  0.50400001928E-02 0.  1.
</event>
<event>
 5   0  0.3571498E-07  0.2800317E+04  0.7818609E-02  0.8303170E-01
       -2   -1    0    0    0  501  0.00000000000E+00  0.00000000000E+00  0.21470674667E+04  0.21470674667E+04  0.25500000920E-02 0.  1.
        2   -1    0    0  501    0  0.00000000000E+00  0.00000000000E+00 -0.91307975772E+03  0.91307975772E+03  0.25500000920E-02 0. -1.
    10030    2    1    2    0    0  0.00000000000E+00  0.00000000000E+00  0.12339877090E+04  0.30601472245E+04  0.28003170123E+04 0.  0.
        2    1    3    3  502    0 -0.10269848585E+04 -0.35146633117E+03  0.15834871540E+04  0.19198067737E+04  0.25500000920E-02 0.  1.
       -2    1    3    3    0  502  0.10269848585E+04  0.35146633117E+03 -0.34949944500E+03  0.11403404507E+04  0.25500000920E-02 0. -1.
</event>
<event>
 5   0  0.1361741E-07  0.2799414E+04  0.7818609E-02  0.8303450E-01
        1   -1    0    0  501    0  0.00000000000E+00  0.00000000000E+00  0.13925643887E+04  0.13925643887E+04  0.50400001928E-02 0. -1.
       -1   -1    0    0    0  501  0.00000000000E+00  0.00000000000E+00 -0.14068861737E+04  0.14068861737E+04  0.50400001928E-02 0.  1.
    10030    2    1    2    0    0  0.00000000000E+00  0.00000000000E+00 -0.14321784984E+02  0.27994505624E+04  0.27994139275E+04 0.  0.
        5    1    3    3  502    0  0.12936456944E+04  0.38098826393E+03 -0.38198075802E+03  0.14016428323E+04  0.46999998093E+01 0.  1.
       -5    1    3    3    0  502 -0.12936456944E+04 -0.38098826393E+03  0.36765897304E+03  0.13978077301E+04  0.46999998093E+01 0. -1.
</event>
<event>
 5   0  0.1374680E-07  0.2799245E+04  0.7818609E-02  0.8303503E-01
        1   -1    0    0  501    0  0.00000000000E+00  0.00000000000E+00  0.11311469726E+04  0.11311469726E+04  0.50400001928E-02 0.  1.
       -1   -1    0    0    0  501  0.00000000000E+00  0.00000000000E+00 -0.17318202994E+04  0.17318202994E+04  0.50400001928E-02 0. -1.
    10030    2    1    2    0    0  0.00000000000E+00  0.00000000000E+00 -0.60067332674E+03  0.28629672720E+04  0.27992451045E+04 0.  0.
        3    1    3    3  502    0 -0.21669275249E+01  0.10931173784E+04  0.59365096528E+03  0.12439179142E+04  0.10100000352E+00 0.  1.
       -3    1    3    3    0  502  0.21669275249E+01 -0.10931173784E+04 -0.11943242920E+04  0.16190493578E+04  0.10100000352E+00 0. -1.
</event>
<event>
 5   0  0.3502141E-07  0.2801436E+04  0.7818609E-02  0.8302823E-01
       -2   -1    0    0    0  501  0.00000000000E+00  0.00000000000E+00  0.12934602788E+04  0.12934602788E+04  0.25500000920E-02 0. -1.
        2   -1    0    0  501    0  0.00000000000E+00  0.00000000000E+00 -0.15168695553E+04  0.15168695553E+04  0.25500000920E-02 0.  1.
    10030    2    1    2    0    0  0.00000000000E+00  0.00000000000E+00 -0.22340927652E+03  0.28103298340E+04  0.28014357161E+04 0.  0.
        3    1    3    3  502    0  0.58952637118E+02  0.87539847817E+03 -0.12070560845E+04  0.14922407012E+04  0.10100000352E+00 0.  1.
       -3    1    3    3    0  502 -0.58952637118E+02 -0.87539847817E+03  0.98364680799E+03  0.13180891328E+04  0.10100000352E+00 0. -1.
</event>
<event>
 5   0  0.3502141E-07  0.2799713E+04  0.7818609E-02  0.8303357E-01
       -2   -1    0    0    0  501  0.00000000000E+00  0.00000000000E+00  0.17378131478E+04  0.17378131478E+04  0.25500000920E-02 0. -1.
        2   -1    0    0  501    0  0.00000000000E+00  0.00000000000E+00 -0.11276234507E+04  0.11276234507E+04  0.25500000920E-02 0.  1.
    10030    2    1    2    0    0  0.00000000000E+00  0.00000000000E+00  0.61018969712E+03  0.28654365985E+04  0.27997134556E+04 0.  0.
        3    1    3    3  502    0  0.11172464124E+04  0.83689911505E+03  0.41223841991E+03  0.14555343348E+04  0.10100000352E+00 0. -1.
       -3    1    3    3    0  502 -0.11172464124E+04 -0.83689911505E+03  0.19795127721E+03  0.14099022637E+04  0.10100000352E+00 0.  1.
</event>
<event>
 5   0  0.1346049E-07  0.2803979E+04  0.7818609E-02  0.8302034E-01
        1   -1    0    0  501    0  0.00000000000E+00  0.00000000000E+00  0.13649985285E+04  0.13649985285E+04  0.50400001928E-02 0. -1.
       -1   -1    0    0    0  501  0.00000000000E+00  0.00000000000E+00 -0.14399830621E+04  0.14399830621E+04  0.50400001928E-02 0.  1.
    10030    2    1    2    0    0  0.00000000000E+00  0.00000000000E+00 -0.74984533515E+02  0.28049815906E+04  0.28039791446E+04 0.  0.
        1    1    3    3  502    0  0.99351352616E+03  0.48207243521E+03 -0.90157870870E+03  0.14255900980E+04  0.50400001928E-02 0.  1.
       -1    1    3    3    0  502 -0.99351352616E+03 -0.48207243521E+03  0.82659417518E+03  0.13793914926E+04  0.50400001928E-02 0. -1.
</event>
<event>
 5   0  0.3522569E-07  0.2800395E+04  0.7818609E-02  0.8303146E-01
       -2   -1    0    0    0  501  0.00000000000E+00  0.00000000000E+00  0.10253165967E+04  0.10253165967E+04  0.25500000920E-02 0. -1.
        2   -1    0    0  501    0  0.00000000000E+00  0.00000000000E+00 -0.19121437431E+04  0.19121437431E+04  0.25500000920E-02 0.  1.
    10030    2    1    2    0    0  0.00000000000E+00  0.00000000000E+00 -0.88682714645E+03  0.29374603398E+04  0.28003947686E+04 0.  0.
        1    1    3    3  502    0  0.11002056649E+04  0.33324787255E+03 -0.12819440206E+04  0.17218847585E+04  0.50400001928E-02 0.  1.
       -1    1    3    3    0  502 -0.11002056649E+04 -0.33324787255E+03  0.39511687419E+03  0.12155755813E+04  0.50400001928E-02 0. -1.
</event>
<event>
 5   0  0.1366235E-07  0.2802793E+04  0.7818609E-02  0.8302402E-01
        1   -1    0    0  501    0  0.00000000000E+00  0.00000000000E+00  0.10819211378E+04  0.10819211378E+04  0.50400001928E-02 0.  1.
       -1   -1    0    0    0  501  0.00000000000E+00  0.00000000000E+00 -0.18152079151E+04  0.18152079151E+04  0.50400001928E-02 0. -1.
    10030    2    1    2    0    0  0.00000000000E+00  0.00000000000E+00 -0.73328677734E+03  0.28971290529E+04  0.28027927593E+04 0.  0.
        2    1    3    3  502    0  0.60734212232E+02 -0.60953827509E+03 -0.16694979091E+04  0.17783275350E+04  0.25500000920E-02 0. -1.
       -2    1    3    3    0  502 -0.60734212232E+02  0.60953827509E+03  0.93621113171E+03  0.11188015179E+04  0.25500000920E-02 0.  1.
</event>
<event>
 5   0  0.1346049E-07  0.2798505E+04  0.7818609E-02  0.8303733E-01
        1   -1    0    0  501    0  0.00000000000E+00  0.00000000000E+00  0.10936919646E+04  0.10936919646E+04  0.50400001928E-02 0.  1.
       -1   -1    0    0    0  501  0.00000000000E+00  0.00000000000E+00 -0.17901819838E+04  0.17901819838E+04  0.50400001928E-02 0. -1.
    10030    2    1    2    0    0  0.00000000000E+00  0.00000000000E+00 -0.69649001917E+03  0.28838739484E+04  0.27985050658E+04 0.  0.
        1    1    3    3  502    0 -0.25278856637E+03  0.24476081719E+03 -0.17438464646E+04  0.17789914022E+04  0.50400001928E-02 0. -1.
       -1    1    3    3    0  502  0.25278856637E+03 -0.24476081719E+03  0.10473564455E+04  0.11048825462E+04  0.50400001928E-02 0.  1.
</event>
<event>
 5   0  0.1173363E-07  0.2799438E+04  0.7818609E-02  0.8303443E-01
       -4   -1    0    0    0  501  0.00000000000E+00  0.00000000000E+00  0.12978620930E+04  0.12978627144E+04  0.12699999809E+01 0. -1.
        4   -1    0    0  501    0  0.00000000000E+00  0.00000000000E+00 -0.15095683806E+04  0.15095689149E+04  0.12699999809E+01 0.  1.
    10030    2    1    2    0    0  0.00000000000E+00  0.00000000000E+00 -0.21170628763E+03  0.28074316293E+04  0.27994379437E+04 0.  0.
        1    1    3    3  502    0 -0.10875804238E+04 -0.77618054483E+03 -0.52408809979E+03  0.14352545951E+04  0.50400001928E-02 0.  1.
       -1    1    3    3    0  502  0.10875804238E+04  0.77618054483E+03  0.31238181217E+03  0.13721770341E+04  0.50400001928E-02 0. -1.
</event>
<event>
 5   0  0.3522569E-07  0.2799424E+04  0.7818609E-02  0.8303447E-01
       -2   -1    0    0    0  501  0.00000000000E+00  0.00000000000E+00  0.14145059851E+04  0.14145059851E+04  0.25500000920E-02 0.  1.
        2   -1    0    0  501    0  0.00000000000E+00  0.00000000000E+00 -0.13850725433E+04  0.13850725433E+04  0.25500000920E-02 0. -1.
    10030    2    1    2    0    0  0.00000000000E+00  0.00000000000E+00  0.29433441812E+02  0.27995785284E+04  0.27994237995E+04 0.  0.
        1    1    3    3  502    0 -0.10396812312E+04 -0.56737209045E+02  0.95020267003E+03  0.14096245201E+04  0.50400001928E-02 0. -1.
       -1    1    3    3    0  502  0.10396812312E+04  0.56737209045E+02 -0.92076922822E+03  0.13899540083E+04  0.50400001928E-02 0.  1.
</event>
<event>
 5   0  0.1357902E-07  0.2785347E+04  0.7818609E-02  0.8307832E-01
       -1   -1    0    0    0  501  0.00000000000E+00  0.00000000000E+00  0.10950889109E+04  0.10950889110E+04  0.50400001928E-02 0.  1.
        1   -1    0    0  501    0  0.00000000000E+00  0.00000000000E+00 -0.17711248091E+04  0.17711248091E+04  0.50400001928E-02 0. -1.
    10030    2    1    2    0    0  0.00000000000E+00  0.00000000000E+00 -0.67603589816E+03  0.28662137201E+04  0.27853467564E+04 0.  0.
        4    1    3    3  502    0  0.78541050113E+03  0.75255181464E+03  0.55690574910E+03  0.12220268063E+04  0.12699999809E+01 0.  1.
       -4    1    3    3    0  502 -0.78541050113E+03 -0.75255181464E+03 -0.12329416473E+04  0.16441869138E+04  0.12699999809E+01 0. -1.
</event>
<event>
 5   0  0.1366235E-07  0.2798661E+04  0.7818609E-02  0.8303684E-01
        1   -1    0    0  501    0  0.00000000000E+00  0.00000000000E+00  0.15893746630E+04  0.15893746630E+04  0.50400001928E-02 0.  1.
       -1   -1    0    0    0  501  0.00000000000E+00  0.00000000000E+00 -0.12320106193E+04  0.12320106193E+04  0.50400001928E-02 0. -1.
    10030    2    1    2    0    0  0.00000000000E+00  0.00000000000E+00  0.35736404370E+03  0.28213852824E+04  0.27986614393E+04 0.  0.
        2    1    3    3  502    0  0.11330021997E+04  0.45022811488E+03  0.87108265501E+03  0.14983939175E+04  0.25500000920E-02 0.  1.
       -2    1    3    3    0  502 -0.11330021997E+04 -0.45022811488E+03 -0.51371861131E+03  0.13229913649E+04  0.25500000920E-02 0. -1.
</event>
<event>
 5   0  0.3571498E-07  0.2799917E+04  0.7818609E-02  0.8303294E-01
       -2   -1    0    0    0  501  0.00000000000E+00  0.00000000000E+00  0.13091951078E+04  0.13091951078E+04  0.25500000920E-02 0. -1.
        2   -1    0    0  501    0  0.00000000000E+00  0.00000000000E+00 -0.14970138585E+04  0.14970138585E+04  0.25500000920E-02 0.  1.
    10030    2    1    2    0    0  0.00000000000E+00  0.00000000000E+00 -0.18781875069E+03  0.28062089664E+04  0.27999165844E+04 0.  0.
        2    1    3    3  502    0  0.65378787499E+03 -0.10237041746E+04 -0.79151557351E+03  0.14497950633E+04  0.25500000920E-02 0.  1.
       -2    1    3    3    0  502 -0.65378787499E+03  0.10237041746E+04  0.60369682282E+03  0.13564139030E+04  0.25500000920E-02 0. -1.
</event>
<event>
 5   0  0.1374680E-07  0.2800573E+04  0.7818609E-02  0.8303090E-01
       -1   -1    0    0    0  501  0.00000000000E+00  0.00000000000E+00  0.10810032618E+04  0.10810032618E+04  0.50400001928E-02 0. -1.
        1   -1    0    0  501    0  0.00000000000E+00  0.00000000000E+00 -0.18138730704E+04  0.18138730704E+04  0.50400001928E-02 0.  1.
    10030    2    1    2    0    0  0.00000000000E+00  0.00000000000E+00 -0.73286980860E+03  0.28948763321E+04  0.28005733024E+04 0.  0.
        3    1    3    3  502    0 -0.61620782161E+03 -0.51427712748E+03 -0.15525083653E+04  0.17477057183E+04  0.10100000352E+00 0.  1.
       -3    1    3    3    0  502  0.61620782161E+03  0.51427712748E+03  0.81963855674E+03  0.11471706138E+04  0.10100000352E+00 0. -1.
</event>
<event>
 5   0  0.3557628E-07  0.2798900E+04  0.7818609E-02  0.8303610E-01
        2   -1    0    0  501    0  0.00000000000E+00  0.00000000000E+00  0.13211992576E+04  0.13211992576E+04  0.25500000920E-02 0.  1.
       -2   -1    0    0    0  501  0.00000000000E+00  0.00000000000E+00 -0.14823354235E+04  0.14823354235E+04  0.25500000920E-02 0. -1.
    10030    2    1    2    0    0  0.00000000000E+00  0.00000000000E+00 -0.16113616588E+03  0.28035346811E+04  0.27989001133E+04 0.  0.
        5    1    3    3  502    0  0.35423900735E+03 -0.12713378285E+04  0.38566287744E+03  0.13749702155E+04  0.46999998093E+01 0. -1.
       -5    1    3    3    0  502 -0.35423900735E+03  0.12713378285E+04 -0.54679904332E+03  0.14285644656E+04  0.46999998093E+01 0.  1.
</event>
<event>
 5   0  0.1374680E-07  0.2798966E+04  0.7818609E-02  0.8303590E-01
       -1   -1    0    0    0  501  0.00000000000E+00  0.00000000000E+00  0.11291406867E+04  0.11291406868E+04  0.50400001928E-02 0. -1.
        1   -1    0    0  501    0  0.00000000000E+00  0.00000000000E+00 -0.17345508872E+04  0.17345508872E+04  0.50400001928E-02 0.  1.
    10030    2    1    2    0    0  0.00000000000E+00  0.00000000000E+00 -0.60541020042E+03  0.28636915739E+04  0.27989655089E+04 0.  0.
        3    1    3    3  502    0 -0.36627284665E+03 -0.89927335908E+03 -0.13338321742E+04  0.16498353408E+04  0.10100000352E+00 0.  1.
       -3    1    3    3    0  502  0.36627284665E+03  0.89927335908E+03  0.72842197383E+03  0.12138562331E+04  0.10100000352E+00 0. -1.
</event>
<event>
 5   0  0.3571498E-07  0.2799220E+04  0.7818609E-02  0.8303511E-01
        2   -1    0    0  501    0  0.00000000000E+00  0.00000000000E+00  0.15459425736E+04  0.15459425736E+04  0.25500000920E-02 0. -1.
       -2   -1    0    0    0  501  0.00000000000E+00  0.00000000000E+00 -0.12671282818E+04  0.12671282818E+04  0.25500000920E-02 0.  1.
    10030    2    1    2    0    0  0.00000000000E+00  0.00000000000E+00  0.27881429176E+03  0.28130708554E+04  0.27992195748E+04 0.  0.
        2    1    3    3  502    0  0.58885584570E+03  0.33223504343E+03  0.13709408934E+04  0.15285974827E+04  0.25500000920E-02 0. -1.
       -2    1    3    3    0  502 -0.58885584570E+03 -0.33223504343E+03 -0.10921266016E+04  0.12844733726E+04  0.25500000920E-02 0.  1.
</event>
<event>
 5   0  0.3571498E-07  0.2797364E+04  0.7818609E-02  0.8304087E-01
       -2   -1    0    0    0  501  0.00000000000E+00  0.00000000000E+00  0.18261151983E+04  0.18261151983E+04  0.25500000920E-02 0.  1.
        2   -1    0    0  501    0  0.00000000000E+00  0.00000000000E+00 -0.10712970891E+04  0.10712970891E+04  0.25500000920E-02 0. -1.
    10030    2    1    2    0    0  0.00000000000E+00  0.00000000000E+00  0.75481810921E+03  0.28974122874E+04  0.27973643998E+04 0.  0.
        2    1    3    3  502    0  0.60565811974E+03  0.15755395807E+03  0.16730128155E+04  0.17862297972E+04  0.25500000920E-02 0.  1.
       -2    1    3    3    0  502 -0.60565811974E+03 -0.15755395807E+03 -0.91819470630E+03  0.11111824901E+04  0.25500000920E-02 0. -1.
</event>
<event>
 5   0  0.1346049E-07  0.2800189E+04  0.7818609E-02  0.8303210E-01
        1   -1    0    0  501    0  0.00000000000E+00  0.00000000000E+00  0.13792329904E+04  0.13792329904E+04  0.50400001928E-02 0. -1.
       -1   -1    0    0    0  501  0.00000000000E+00  0.00000000000E+00 -0.14212719649E+04  0.14212719649E+04  0.50400001928E-02 0.  1.
    10030    2    1    2    0    0  0.00000000000E+00  0.00000000000E+00 -0.42038974477E+02  0.28005049554E+04  0.28001894096E+04 0.  0.
        1    1    3    3  502    0  0.10696546530E+02 -0.12917866392E+04 -0.56093034233E+03  0.14083571942E+04  0.50400001928E-02 0.  1.
       -1    1    3    3    0  502 -0.10696546530E+02  0.12917866392E+04  0.51889136786E+03  0.13921477612E+04  0.50400001928E-02 0. -1.
</event>
<event>
 5   0  0.3502141E-07  0.2799505E+04  0.7818609E-02  0.8303422E-01
        2   -1    0    0  501    0  0.00000000000E+00  0.00000000000E+00  0.13435000790E+04  0.13435000790E+04  0.25500000920E-02 0.  1.
       -2   -1    0    0    0  501  0.00000000000E+00  0.00000000000E+00 -0.14583601651E+04  0.14583601651E+04  0.25500000920E-02 0. -1.
    10030    2    1    2    0    0  0.00000000000E+00  0.00000000000E+00 -0.11486008607E+03  0.28018602442E+04  0.27995049542E+04 0.  0.
        3    1    3    3  502    0 -0.39187493208E+03 -0.61647460192E+03  0.11376013580E+04  0.13519407373E+04  0.10100000352E+00 0.  1.
       -3    1    3    3    0  502  0.39187493208E+03  0.61647460192E+03 -0.12524614441E+04  0.14499195069E+04  0.10100000352E+00 0. -1.
</event>
<event>
 5   0  0.3571498E-07  0.2799515E+04  0.7818609E-02  0.8303419E-01
        2   -1    0    0  501    0  0.00000000000E+00  0.00000000000E+00  0.19893902090E+04  0.19893902090E+04  0.25500000920E-02 0.  1.
       -2   -1    0    0    0  501  0.00000000000E+00  0.00000000000E+00 -0.98488506841E+03  0.98488506841E+03  0.25500000920E-02 0. -1.
    10030    2    1    2    0    0  0.00000000000E+00  0.00000000000E+00  0.10045051406E+04  0.29742752775E+04  0.27995147523E+04 0.  0.
        2    1    3    3  502    0 -0.11205134321E+04 -0.46838661905E+03  0.12416764057E+04  0.17368640340E+04  0.25500000920E-02 0.  1.
       -2    1    3    3    0  502  0.11205134321E+04  0.46838661905E+03 -0.23717126502E+03  0.12374112434E+04  0.25500000920E-02 0. -1.
</event>
<event>
 5   0  0.1374680E-07  0.2799886E+04  0.7818609E-02  0.8303304E-01
        1   -1    0    0  501    0  0.00000000000E+00  0.00000000000E+00  0.12441595808E+04  0.12441595808E+04  0.50400001928E-02 0. -1.
       -1   -1    0    0    0  501  0.00000000000E+00  0.00000000000E+00 -0.15752322753E+04  0.15752322754E+04  0.50400001928E-02 0.  1.
    10030    2    1    2    0    0  0.00000000000E+00  0.00000000000E+00 -0.33107269459E+03  0.28193918561E+04  0.27998859458E+04 0.  0.
        3    1    3    3  502    0  0.62628553287E+03  0.41279708448E+03 -0.13558056000E+04  0.15494656617E+04  0.10100000352E+00 0.  1.
       -3    1    3    3    0  502 -0.62628553287E+03 -0.41279708448E+03  0.10247329054E+04  0.12699261944E+04  0.10100000352E+00 0. -1.
</event>
<event>
 5   0  0.1374680E-07  0.2801755E+04  0.7818609E-02  0.8302724E-01
       -1   -1    0    0    0  501  0.00000000000E+00  0.00000000000E+00  0.98910487164E+03  0.98910487165E+03  0.50400001928E-02 0.  1.
        1   -1    0    0  501    0  0.00000000000E+00  0.00000000000E+00 -0.19840740363E+04  0.19840740363E+04  0.50400001928E-02 0. -1.
    10030    2    1    2    0    0  0.00000000000E+00  0.00000000000E+00 -0.99496916463E+03  0.29731789079E+04  0.28017546609E+04 0.  0.
        3    1    3    3  502    0 -0.64181935730E+03 -0.56702150806E+03  0.67895321043E+03  0.10928965871E+04  0.10100000352E+00 0.  1.
       -3    1    3    3    0  502  0.64181935730E+03  0.56702150806E+03 -0.16739223751E+04  0.18802823208E+04  0.10100000352E+00 0. -1.
</event>
<event>
 5   0  0.1357902E-07  0.2799542E+04  0.7818609E-02  0.8303411E-01
        1   -1    0    0  501    0  0.00000000000E+00  0.00000000000E+00  0.19104165399E+04  0.19104165399E+04  0.50400001928E-02 0.  1.
       -1   -1    0    0    0  501  0.00000000000E+00  0.00000000000E+00 -0.10256183918E+04  0.10256183918E+04  0.50400001928E-02 0. -1.
    10030    2    1    2    0    0  0.00000000000E+00  0.00000000000E+00  0.88479814807E+03  0.29360349318E+04  0.27995416335E+04 0.  0.
        4    1    3    3  502    0 -0.71993148226E+03 -0.86383138607E+02 -0.81330491909E+03  0.10896007939E+04  0.12699999809E+01 0. -1.
       -4    1    3    3    0  502  0.71993148226E+03  0.86383138607E+02  0.16981030672E+04  0.18464341378E+04  0.12699999809E+01 0.  1.
</event>
<event>
 5   0  0.3502141E-07  0.2801355E+04  0.7818609E-02  0.8302848E-01
       -2   -1    0    0    0  501  0.00000000000E+00  0.00000000000E+00  0.12286460282E+04  0.12286460282E+04  0.25500000920E-02 0. -1.
        2   -1    0    0  501    0  0.00000000000E+00  0.00000000000E+00 -0.15967968633E+04  0.15967968633E+04  0.25500000920E-02 0.  1.
    10030    2    1    2    0    0  0.00000000000E+00  0.00000000000E+00 -0.36815083512E+03  0.28254428914E+04  0.28013554747E+04 0.  0.
        3    1    3    3  502    0 -0.37372888423E+03 -0.55191171783E+03  0.10584337109E+04  0.12508244296E+04  0.10100000352E+00 0. -1.
       -3    1    3    3    0  502  0.37372888423E+03  0.55191171783E+03 -0.14265845460E+04  0.15746184618E+04  0.10100000352E+00 0.  1.
</event>
<event>
 5   0  0.3571498E-07  0.2801766E+04  0.7818609E-02  0.8302720E-01
       -2   -1    0    0    0  501  0.00000000000E+00  0.00000000000E+00  0.74551784052E+03  0.74551784053E+03  0.25500000920E-02 0.  1.
        2   -1    0    0  501    0  0.00000000000E+00  0.00000000000E+00 -0.26323620723E+04  0.26323620723E+04  0.25500000920E-02 0. -1.
    10030    2    1    2    0    0  0.00000000000E+00  0.00000000000E+00 -0.18868442318E+04  0.33778799129E+04  0.28017657915E+04 0.  0.
        2    1    3    3  502    0  0.12912372084E+04  0.35512588795E+03 -0.44769898438E+03  0.14120348102E+04  0.25500000920E-02 0. -1.
       -2    1    3    3    0  502 -0.12912372084E+04 -0.35512588795E+03 -0.14391452474E+04  0.19658451027E+04  0.25500000920E-02 0.  1.
</event>
<event>
 5   0  0.3406920E-07  0.2800095E+04  0.7818609E-02  0.8303239E-01
        2   -1    0    0  501    0  0.00000000000E+00  0.00000000000E+00  0.24917372669E+04  0.24917372669E+04  0.25500000920E-02 0. -1.
       -2   -1    0    0    0  501  0.00000000000E+00  0.00000000000E+00 -0.78665305137E+03  0.78665305137E+03  0.25500000920E-02 0.  1.
    10030    2    1    2    0    0  0.00000000000E+00  0.00000000000E+00  0.17050842155E+04  0.32783903182E+04  0.28000948014E+04 0.  0.
        4    1    3    3  502    0 -0.18674957034E+03 -0.28445379205E+03 -0.73749998656E+03  0.81221746159E+03  0.12699999809E+01 0.  1.
       -4    1    3    3    0  502  0.18674957034E+03  0.28445379205E+03  0.24425842021E+04  0.24661728567E+04  0.12699999809E+01 0. -1.
</event>
<event>
 5   0  0.1366235E-07  0.2800168E+04  0.7818609E-02  0.8303216E-01
       -1   -1    0    0    0  501  0.00000000000E+00  0.00000000000E+00  0.14550955912E+04  0.14550955912E+04  0.50400001928E-02 0. -1.
        1   -1    0    0  501    0  0.00000000000E+00  0.00000000000E+00 -0.13471517704E+04  0.13471517704E+04  0.50400001928E-02 0.  1.
    10030    2    1    2    0    0  0.00000000000E+00  0.00000000000E+00  0.10794382079E+03  0.28022473616E+04  0.28001675677E+04 0.  0.
        2    1    3    3  502    0 -0.11756697796E+04  0.61523569352E+03  0.50098052957E+03  0.14183426526E+04  0.25500000920E-02 0. -1.
       -2    1    3    3    0  502  0.11756697796E+04 -0.61523569352E+03 -0.39303670879E+03  0.13839047090E+04  0.25500000920E-02 0.  1.
</event>
<event>
 5   0  0.3522569E-07  0.2802626E+04  0.7818609E-02  0.8302454E-01
       -2   -1    0    0    0  501  0.00000000000E+00  0.00000000000E+00  0.13102705902E+04  0.13102705902E+04  0.25500000920E-02 0. -1.
        2   -1    0    0  501    0  0.00000000000E+00  0.00000000000E+00 -0.14986809838E+04  0.14986809838E+04  0.25500000920E-02 0.  1.
    10030    2    1    2    0    0  0.00000000000E+00  0.00000000000E+00 -0.18841039363E+03  0.28089515740E+04  0.28026256384E+04 0.  0.
        1    1    3    3  502    0 -0.70496929544E+03 -0.56845896354E+02  0.11182627063E+04  0.13231495168E+04  0.50400001928E-02 0. -1.
       -1    1    3    3    0  502  0.70496929544E+03  0.56845896354E+02 -0.13066730999E+04  0.14858020573E+04  0.50400001928E-02 0.  1.
</event>
<event>
 5   0  0.3571498E-07  0.2800280E+04  0.7818609E-02  0.8303181E-01
       -2   -1    0    0    0  501  0.00000000000E+00  0.00000000000E+00  0.81583474802E+03  0.81583474803E+03  0.25500000920E-02 0. -1.
        2   -1    0    0  501    0  0.00000000000E+00  0.00000000000E+00 -0.24029281665E+04  0.24029281665E+04  0.25500000920E-02 0.  1.
    10030    2    1    2    0    0  0.00000000000E+00  0.00000000000E+00 -0.15870934185E+04  0.32187629146E+04  0.28002801969E+04 0.  0.
        2    1    3    3  502    0  0.34837220247E+03 -0.64930049706E+03  0.57493668122E+03  0.93461570410E+03  0.25500000920E-02 0. -1.
       -2    1    3    3    0  502 -0.34837220247E+03  0.64930049706E+03 -0.21620300997E+04  0.22841472105E+04  0.25500000920E-02 0.  1.
</event>
<event>
 5   0  0.1346049E-07  0.2797771E+04  0.7818609E-02  0.8303961E-01
       -1   -1    0    0    0  501  0.00000000000E+00  0.00000000000E+00  0.10298505883E+04  0.10298505883E+04  0.50400001928E-02 0.  1.
        1   -1    0    0  501    0  0.00000000000E+00  0.00000000000E+00 -0.19001599402E+04  0.19001599402E+04  0.50400001928E-02 0. -1.
    10030    2    1    2    0    0  0.00000000000E+00  0.00000000000E+00 -0.87030935188E+03  0.29300105284E+04  0.27977711359E+04 0.  0.
        1    1    3    3  502    0 -0.38296766800E+01 -0.94502465494E+03 -0.15153091768E+04  0.17858466245E+04  0.50400001928E-02 0. -1.
       -1    1    3    3    0  502  0.38296766800E+01  0.94502465494E+03  0.64499982495E+03  0.11441639039E+04  0.50400001928E-02 0.  1.
</event>
<event>
 5   0  0.1374680E-07  0.2806533E+04  0.7818609E-02  0.8301243E-01
       -1   -1    0    0    0  501  0.00000000000E+00  0.00000000000E+00  0.13166079017E+04  0.13166079017E+04  0.50400001928E-02 0.  1.
        1   -1    0    0  501    0  0.00000000000E+00  0.00000000000E+00 -0.14956289597E+04  0.14956289597E+04  0.50400001928E-02 0. -1.
    10030    2    1    2    0    0  0.00000000000E+00  0.00000000000E+00 -0.17902105801E+03  0.28122368615E+04  0.28065330260E+04 0.  0.
        3    1    3    3  502    0 -0.12581387852E+04  0.56484528332E+03  0.17023337794E+03  0.13895836823E+04  0.10100000352E+00 0.  1.
       -3    1    3    3    0  502  0.12581387852E+04 -0.56484528332E+03 -0.34925443595E+03  0.14226531792E+04  0.10100000352E+00 0. -1.
</event>
<event>
 5   0  0.1357902E-07  0.2800009E+04  0.7818609E-02  0.8303266E-01
        1   -1    0    0  501    0  0.00000000000E+00  0.00000000000E+00  0.14024993958E+04  0.14024993958E+04  0.50400001928E-02 0. -1.
       -1   -1    0    0    0  501  0.00000000000E+00  0.00000000000E+00 -0.13975141247E+04  0.13975141247E+04  0.50400001928E-02 0.  1.
    10030    2    1    2    0    0  0.00000000000E+00  0.00000000000E+00  0.49852711534E+01  0.28000135205E+04  0.28000090825E+04 0.  0.
        4    1    3    3  502    0  0.50777541529E+03  0.28977862114E+03  0.12745809622E+04  0.14022716441E+04  0.12699999809E+01 0. -1.
       -4    1    3    3    0  502 -0.50777541529E+03 -0.28977862114E+03 -0.12695956910E+04  0.13977418765E+04  0.12699999809E+01 0.  1.
</event>
<event>
 5   0  0.1374680E-07  0.2799116E+04  0.7818609E-02  0.8303543E-01
       -1   -1    0    0    0  501  0.00000000000E+00  0.00000000000E+00  0.86813021296E+03  0.86813021298E+03  0.50400001928E-02 0. -1.
        1   -1    0    0  501    0  0.00000000000E+00  0.00000000000E+00 -0.22563012330E+04  0.22563012330E+04  0.50400001928E-02 0.  1.
    10030    2    1    2    0    0  0.00000000000E+00  0.00000000000E+00 -0.13881710201E+04  0.31244314460E+04  0.27991164820E+04 0.  0.
        3    1    3    3  502    0  0.56319211410E+03  0.12423910164E+04 -0.10435935244E+04  0.17175005821E+04  0.10100000352E+00 0.  1.
       -3    1    3    3    0  502 -0.56319211410E+03 -0.12423910164E+04 -0.34457749564E+03  0.14069308639E+04  0.10100000352E+00 0. -1.
</event>
<event>
 5   0  0.3502141E-07  0.2798512E+04  0.7818609E-02  0.8303730E-01
       -2   -1    0    0    0  501  0.00000000000E+00  0.00000000000E+00  0.16738997929E+04  0.16738997929E+04  0.25500000920E-02 0. -1.
        2   -1    0    0  501    0  0.00000000000E+00  0.00000000000E+00 -0.11696743012E+04  0.11696743012E+04  0.25500000920E-02 0.  1.
    10030    2    1    2    0    0  0.00000000000E+00  0.00000000000E+00  0.50422549165E+03  0.28435740941E+04  0.27985121550E+04 0.  0.
        3    1    3    3  502    0 -0.32364996506E+03  0.11312063773E+03 -0.11263345250E+04  0.11773593550E+04  0.10100000352E+00 0.  1.
       -3    1    3    3    0  502  0.32364996506E+03 -0.11312063773E+03  0.16305600166E+04  0.16662147390E+04  0.10100000352E+00 0. -1.
</event>
<event>
 5   0  0.1366235E-07  0.2808548E+04  0.7818609E-02  0.8300619E-01
        1   -1    0    0  501    0  0.00000000000E+00  0.00000000000E+00  0.14459985893E+04  0.14459985893E+04  0.50400001928E-02 0. -1.
       -1   -1    0    0    0  501  0.00000000000E+00  0.00000000000E+00 -0.13637534016E+04  0.13637534016E+04  0.50400001928E-02 0.  1.
    10030    2    1    2    0    0  0.00000000000E+00  0.00000000000E+00  0.82245187651E+02  0.28097519909E+04  0.28085480198E+04 0.  0.
        2    1    3    3  502    0 -0.71745888146E+03  0.19545910189E+03 -0.11506201948E+04  0.13699920948E+04  0.25500000920E-02 0.  1.
       -2    1    3    3    0  502  0.71745888146E+03 -0.19545910189E+03  0.12328653825E+04  0.14397598961E+04  0.25500000920E-02 0. -1.
</event>
<event>
 5   0  0.3522569E-07  0.2799166E+04  0.7818609E-02  0.8303527E-01
       -2   -1    0    0    0  501  0.00000000000E+00  0.00000000000E+00  0.99066413475E+03  0.99066413475E+03  0.25500000920E-02 0. -1.
        2   -1    0    0  501    0  0.00000000000E+00  0.00000000000E+00 -0.19772928829E+04  0.19772928829E+04  0.25500000920E-02 0.  1.
    10030    2    1    2    0    0  0.00000000000E+00  0.00000000000E+00 -0.98662874816E+03  0.29679570177E+04  0.27991664066E+04 0.  0.
        1    1    3    3  502    0 -0.69258304003E+02 -0.15307193525E+03 -0.19665616592E+04  0.19737255355E+04  0.50400001928E-02 0.  1.
       -1    1    3    3    0  502  0.69258304003E+02  0.15307193525E+03  0.97993291102E+03  0.99423148218E+03  0.50400001928E-02 0. -1.
</event>
<event>
 5   0  0.1366235E-07  0.2799443E+04  0.7818609E-02  0.8303441E-01
       -1   -1    0    0    0  501  0.00000000000E+00  0.00000000000E+00  0.93246373812E+03  0.93246373814E+03  0.50400001928E-02 0.  1.
        1   -1    0    0  501    0  0.00000000000E+00  0.00000000000E+00 -0.21011223697E+04  0.21011223697E+04  0.50400001928E-02 0. -1.
    10030    2    1    2    0    0  0.00000000000E+00  0.00000000000E+00 -0.11686586316E+04  0.30335861079E+04  0.27994431012E+04 0.  0.
        2    1    3    3  502    0 -0.19932040866E+03 -0.12189052869E+04 -0.12980204155E+04  0.17917353942E+04  0.25500000920E-02 0. -1.
       -2    1    3    3    0  502  0.19932040866E+03  0.12189052869E+04  0.12936178391E+03  0.12418507136E+04  0.25500000920E-02 0.  1.
</event>
<event>
 5   0  0.1374680E-07  0.2800935E+04  0.7818609E-02  0.8302978E-01
        1   -1    0    0  501    0  0.00000000000E+00  0.00000000000E+00  0.18401261693E+04  0.18401261693E+04  0.50400001928E-02 0. -1.
       -1   -1    0    0    0  501  0.00000000000E+00  0.00000000000E+00 -0.10658554950E+04  0.10658554950E+04  0.50400001928E-02 0.  1.
    10030    2    1    2    0    0  0.00000000000E+00  0.00000000000E+00  0.77427067433E+03  0.29059816643E+04  0.28009345504E+04 0.  0.
        3    1    3    3  502    0 -0.61434857985E+03 -0.80875331789E+03 -0.61329132429E+03  0.11864368358E+04  0.10100000352E+00 0.  1.
       -3    1    3    3    0  502  0.61434857985E+03  0.80875331789E+03  0.13875619986E+04  0.17195448284E+04  0.10100000352E+00 0. -1.
</event>
<event>
 5   0  0.3406920E-07  0.2800083E+04  0.7818609E-02  0.8303242E-01
        2   -1    0    0  501    0  0.00000000000E+00  0.00000000000E+00  0.26676565245E+04  0.26676565245E+04  0.25500000920E-02 0. -1.
       -2   -1    0    0    0  501  0.00000000000E+00  0.00000000000E+00 -0.73477104041E+03  0.73477104041E+03  0.25500000920E-02 0.  1.
    10030    2    1    2    0    0  0.00000000000E+00  0.00000000000E+00  0.19328854841E+04  0.34024275649E+04  0.28000833987E+04 0.  0.
        4    1    3    3  502    0  0.10603505613E+02 -0.10512011016E+04 -0.15711561479E+03  0.10629313805E+04  0.12699999809E+01 0.  1.
       -4    1    3    3    0  502 -0.10603505613E+02  0.10512011016E+04  0.20900010989E+04  0.23394961844E+04  0.12699999809E+01 0. -1.
</event>
<event>
 5   0  0.1357902E-07  0.2801363E+04  0.7818609E-02  0.8302845E-01
        1   -1    0    0  501    0  0.00000000000E+00  0.00000000000E+00  0.20986155542E+04  0.20986155542E+04  0.50400001928E-02 0. -1.
       -1   -1    0    0    0  501  0.00000000000E+00  0.00000000000E+00 -0.93485843167E+03  0.93485843168E+03  0.50400001928E-02 0.  1.
    10030    2    1    2    0    0  0.00000000000E+00  0.00000000000E+00  0.11637571225E+04  0.30334739859E+04  0.28013628438E+04 0.  0.
        4    1    3    3  502    0  0.36660292144E+03  0.13036964868E+04  0.19463871656E+03  0.13681769164E+04  0.12699999809E+01 0.  1.
       -4    1    3    3    0  502 -0.36660292144E+03 -0.13036964868E+04  0.96911840594E+03  0.16652970694E+04  0.12699999809E+01 0. -1.
</event>
<event>
 5   0  0.3571498E-07  0.2796839E+04  0.7818609E-02  0.8304250E-01
        2   -1    0    0  501    0  0.00000000000E+00  0.00000000000E+00  0.12410539957E+04  0.12410539957E+04  0.25500000920E-02 0.  1.
       -2   -1    0    0    0  501  0.00000000000E+00  0.00000000000E+00 -0.15757394204E+04  0.15757394204E+04  0.25500000920E-02 0. -1.
    10030    2    1    2    0    0  0.00000000000E+00  0.00000000000E+00 -0.33468542465E+03  0.28167934161E+04  0.27968394333E+04 0.  0.
        2    1    3    3  502    0 -0.32402740943E+03 -0.56878630929E+03  0.10772188315E+04  0.12605205428E+04  0.25500000920E-02 0.  1.
       -2    1    3    3    0  502  0.32402740943E+03  0.56878630929E+03 -0.14119042562E+04  0.15562728734E+04  0.25500000920E-02 0. -1.
</event>
<event>
 5   0  0.1361741E-07  0.2800054E+04  0.7818609E-02  0.8303252E-01
        1   -1    0    0  501    0  0.00000000000E+00  0.00000000000E+00  0.13794307163E+04  0.13794307163E+04  0.50400001928E-02 0.  1.
       -1   -1    0    0    0  501  0.00000000000E+00  0.00000000000E+00 -0.14209303619E+04  0.14209303619E+04  0.50400001928E-02 0. -1.
    10030    2    1    2    0    0  0.00000000000E+00  0.00000000000E+00 -0.41499645576E+02  0.28003610782E+04  0.28000535616E+04 0.  0.
        5    1    3    3  502    0 -0.91432344993E+03  0.10106321115E+04  0.29973546213E+03  0.13954311424E+04  0.46999998093E+01 0. -1.
       -5    1    3    3    0  502  0.91432344993E+03 -0.10106321115E+04 -0.34123510771E+03  0.14049299358E+04  0.46999998093E+01 0.  1.
</event>
<event>
 5   0  0.3502141E-07  0.2801731E+04  0.7818609E-02  0.8302731E-01
        2   -1    0    0  501    0  0.00000000000E+00  0.00000000000E+00  0.18359690816E+04  0.18359690816E+04  0.25500000920E-02 0. -1.
       -2   -1    0    0    0  501  0.00000000000E+00  0.00000000000E+00 -0.10688767950E+04  0.10688767950E+04  0.25500000920E-02 0.  1.
    10030    2    1    2    0    0  0.00000000000E+00  0.00000000000E+00  0.76709228654E+03  0.29048458766E+04  0.28017314273E+04 0.  0.
        3    1    3    3  502    0  0.27181124811E+03  0.28187598973E+03 -0.10109797955E+04  0.10841658477E+04  0.10100000352E+00 0.  1.
       -3    1    3    3    0  502 -0.27181124811E+03 -0.28187598973E+03  0.17780720821E+04  0.18206800288E+04  0.10100000352E+00 0. -1.
</event>
<event>
 5   0  0.1366235E-07  0.2800469E+04  0.7818609E-02  0.8303123E-01
       -1   -1    0    0    0  501  0.00000000000E+00  0.00000000000E+00  0.15008308382E+04  0.15008308382E+04  0.50400001928E-02 0.  1.
        1   -1    0    0  501    0  0.00000000000E+00  0.00000000000E+00 -0.13063809408E+04  0.13063809408E+04  0.50400001928E-02 0. -1.
    10030    2    1    2    0    0  0.00000000000E+00  0.00000000000E+00  0.19444989738E+03  0.28072117790E+04  0.28004691053E+04 0.  0.
        2    1    3    3  502    0  0.11976384452E+04 -0.22491891962E+03 -0.59416786399E+03  0.13557145040E+04  0.25500000920E-02 0.  1.
       -2    1    3    3    0  502 -0.11976384452E+04  0.22491891962E+03  0.78861776137E+03  0.14514972750E+04  0.25500000920E-02 0. -1.
</event>
<event>
 5   0  0.3571498E-07  0.2800780E+04  0.7818609E-02  0.8303026E-01
        2   -1    0    0  501    0  0.00000000000E+00  0.00000000000E+00  0.21046071904E+04  0.21046071904E+04  0.25500000920E-02 0.  1.
       -2   -1    0    0    0  501  0.00000000000E+00  0.00000000000E+00 -0.93180940236E+03  0.93180940237E+03  0.25500000920E-02 0. -1.
    10030    2    1    2    0    0  0.00000000000E+00  0.00000000000E+00  0.11727977880E+04  0.30364165927E+04  0.28007804400E+04 0.  0.
        2    1    3    3  502    0  0.13777493083E+04  0.21545722604E+03  0.72556447768E+03  0.15719601725E+04  0.25500000920E-02 0.  1.
       -2    1    3    3    0  502 -0.13777493083E+04 -0.21545722604E+03  0.44723331034E+03  0.14644564202E+04  0.25500000920E-02 0. -1.
</event>
<event>
 5   0  0.3522569E-07  0.2799047E+04  0.7818609E-02  0.8303564E-01
        2   -1    0    0  501    0  0.00000000000E+00  0.00000000000E+00  0.22525292446E+04  0.22525292446E+04  0.25500000920E-02 0. -1.
       -2   -1    0    0    0  501  0.00000000000E+00  0.00000000000E+00 -0.86954076122E+03  0.86954076123E+03  0.25500000920E-02 0.  1.
    10030    2    1    2    0    0  0.00000000000E+00  0.00000000000E+00  0.13829884834E+04  0.31220700058E+04  0.27990469764E+04 0.  0.
        1    1    3    3  502    0 -0.78385483687E+03  0.77446538728E+03 -0.27088794942E+03  0.11347269815E+04  0.50400001928E-02 0.  1.
       -1    1    3    3    0  502  0.78385483687E+03 -0.77446538728E+03  0.16538764328E+04  0.19873430243E+04  0.50400001928E-02 0. -1.
</event>
<event>
 5   0  0.1374680E-07  0.2803020E+04  0.7818609E-02  0.8302331E-01
       -1   -1    0    0    0  501  0.00000000000E+00  0.00000000000E+00  0.87929186528E+03  0.87929186529E+03  0.50400001928E-02 0. -1.
        1   -1    0    0  501    0  0.00000000000E+00  0.00000000000E+00 -0.22338778249E+04  0.22338778249E+04  0.50400001928E-02 0.  1.
    10030    2    1    2    0    0  0.00000000000E+00  0.00000000000E+00 -0.13545859596E+04  0.31131696902E+04  0.28030202279E+04 0.  0.
        3    1    3    3  502    0  0.90057392735E+02 -0.12321127654E+04 -0.14123528833E+04  0.18764202295E+04  0.10100000352E+00 0.  1.
       -3    1    3    3    0  502 -0.90057392735E+02  0.12321127654E+04  0.57766923679E+02  0.12367494606E+04  0.10100000352E+00 0. -1.
</event>
<event>
 5   0  0.1357902E-07  0.2799943E+04  0.7818609E-02  0.8303286E-01
        1   -1    0    0  501    0  0.00000000000E+00  0.00000000000E+00  0.14831715894E+04  0.14831715894E+04  0.50400001928E-02 0.  1.
       -1   -1    0    0    0  501  0.00000000000E+00  0.00000000000E+00 -0.13214382835E+04  0.13214382835E+04  0.50400001928E-02 0. -1.
    10030    2    1    2    0    0  0.00000000000E+00  0.00000000000E+00  0.16173330590E+03  0.28046098729E+04  0.27999426560E+04 0.  0.
        4    1    3    3  502    0  0.16730677790E+03 -0.13864898546E+04 -0.17135237928E+02  0.13966534660E+04  0.12699999809E+01 0. -1.
       -4    1    3    3    0  502 -0.16730677790E+03  0.13864898546E+04  0.17886854382E+03  0.14079564069E+04  0.12699999809E+01 0.  1.
</event>
<event>
 5   0  0.3571498E-07  0.2792147E+04  0.7818609E-02  0.8305711E-01
       -2   -1    0    0    0  501  0.00000000000E+00  0.00000000000E+00  0.10073134802E+04  0.10073134802E+04  0.25500000920E-02 0. -1.
        2   -1    0    0  501    0  0.00000000000E+00  0.00000000000E+00 -0.19348700107E+04  0.19348700107E+04  0.25500000920E-02 0.  1.
    10030    2    1    2    0    0  0.00000000000E+00  0.00000000000E+00 -0.92755653049E+03  0.29421834910E+04  0.27921465895E+04 0.  0.
        2    1    3    3  502    0  0.11366973990E+04  0.53286990032E+03 -0.11073244901E+04  0.16739769514E+04  0.25500000920E-02 0.  1.
       -2    1    3    3    0  502 -0.11366973990E+04 -0.53286990032E+03  0.17976795957E+03  0.12682065395E+04  0.25500000920E-02 0. -1.
</event>
<event>
 5   0  0.3406920E-07  0.2800051E+04  0.7818609E-02  0.8303253E-01
        2   -1    0    0  501    0  0.00000000000E+00  0.00000000000E+00  0.24894288605E+04  0.24894288605E+04  0.25500000920E-02 0.  1.
       -2   -1    0    0    0  501  0.00000000000E+00  0.00000000000E+00 -0.78735781284E+03  0.78735781284E+03  0.25500000920E-02 0. -1.
    10030    2    1    2    0    0  0.00000000000E+00  0.00000000000E+00  0.17020710477E+04  0.32767866733E+04  0.28000509016E+04 0.  0.
        4    1    3    3  502    0  0.10068540863E+04 -0.89505780337E+03  0.40512815084E+03  0.14067743437E+04  0.12699999809E+01 0.  1.
       -4    1    3    3    0  502 -0.10068540863E+04  0.89505780337E+03  0.12969428968E+04  0.18700123297E+04  0.12699999809E+01 0. -1.
</event>
<event>
 5   0  0.3502141E-07  0.2800691E+04  0.7818609E-02  0.8303054E-01
       -2   -1    0    0    0  501  0.00000000000E+00  0.00000000000E+00  0.11376193127E+04  0.11376193127E+04  0.25500000920E-02 0.  1.
        2   -1    0    0  501    0  0.00000000000E+00  0.00000000000E+00 -0.17237471041E+04  0.17237471041E+04  0.25500000920E-02 0. -1.
    10030    2    1    2    0    0  0.00000000000E+00  0.00000000000E+00 -0.58612779139E+03  0.28613664168E+04  0.28006913403E+04 0.  0.
        3    1    3    3  502    0 -0.75784167875E+02  0.10205095819E+04 -0.12696942648E+04  0.16307380486E+04  0.10100000352E+00 0. -1.
       -3    1    3    3    0  502  0.75784167875E+02 -0.10205095819E+04  0.68356647341E+03  0.12306283682E+04  0.10100000352E+00 0.  1.
</event>
<event>
 5   0  0.3557628E-07  0.2800580E+04  0.7818609E-02  0.8303088E-01
       -2   -1    0    0    0  501  0.00000000000E+00  0.00000000000E+00  0.79190487448E+03  0.79190487449E+03  0.25500000920E-02 0. -1.
        2   -1    0    0  501    0  0.00000000000E+00  0.00000000000E+00 -0.24760693453E+04  0.24760693453E+04  0.25500000920E-02 0.  1.
    10030    2    1    2    0    0  0.00000000000E+00  0.00000000000E+00 -0.16841644708E+04  0.32679742198E+04  0.28005795001E+04 0.  0.
        5    1    3    3  502    0 -0.92725313994E+03 -0.29712373297E+03  0.33220116453E+03  0.10288151447E+04  0.46999998093E+01 0. -1.
       -5    1    3    3    0  502  0.92725313994E+03  0.29712373297E+03 -0.20163656354E+04  0.22391590751E+04  0.46999998093E+01 0.  1.
</event>
<event>
 5   0  0.1357902E-07  0.2802028E+04  0.7818609E-02  0.8302639E-01
        1   -1    0    0  501    0  0.00000000000E+00  0.00000000000E+00  0.24779804187E+04  0.24779804187E+04  0.50400001928E-02 0.  1.
       -1   -1    0    0    0  501  0.00000000000E+00  0.00000000000E+00 -0.79211271943E+03  0.79211271944E+03  0.50400001928E-02 0. -1.
    10030    2    1    2    0    0  0.00000000000E+00  0.00000000000E+00  0.16858676993E+04  0.32700931381E+04  0.28020277002E+04 0.  0.
        4    1    3    3  502    0  0.87235386247E+03  0.86241874285E+03  0.16328009482E+04  0.20422555909E+04  0.12699999809E+01 0.  1.
       -4    1    3    3    0  502 -0.87235386247E+03 -0.86241874285E+03  0.53066751088E+02  0.12278375472E+04  0.12699999809E+01 0. -1.
</event>
<event>
 5   0  0.1361741E-07  0.2800885E+04  0.7818609E-02  0.8302994E-01
        1   -1    0    0  501    0  0.00000000000E+00  0.00000000000E+00  0.13974568569E+04  0.13974568569E+04  0.50400001928E-02 0. -1.
       -1   -1    0    0    0  501  0.00000000000E+00  0.00000000000E+00 -0.14034347494E+04  0.14034347494E+04  0.50400001928E-02 0.  1.
    10030    2    1    2    0    0  0.00000000000E+00  0.00000000000E+00 -0.59778924276E+01  0.28008916063E+04  0.28008852271E+04 0.  0.
        5    1    3    3  502    0  0.28767002755E+03 -0.12897189278E+04 -0.46676631318E+03  0.14014356348E+04  0.46999998093E+01 0.  1.
       -5    1    3    3    0  502 -0.28767002755E+03  0.12897189278E+04  0.46078842075E+03  0.13994559715E+04  0.46999998093E+01 0. -1.
</event>
<event>
 5   0  0.1346049E-07  0.2801934E+04  0.7818609E-02  0.8302668E-01
       -1   -1    0    0    0  501  0.00000000000E+00  0.00000000000E+00  0.12977350516E+04  0.12977350516E+04  0.50400001928E-02 0. -1.
        1   -1    0    0  501    0  0.00000000000E+00  0.00000000000E+00 -0.15124111910E+04  0.15124111910E+04  0.50400001928E-02 0.  1.
    10030    2    1    2    0    0  0.00000000000E+00  0.00000000000E+00 -0.21467613940E+03  0.28101462426E+04  0.28019343426E+04 0.  0.
        1    1    3    3  502    0 -0.50559453594E+03 -0.96401663145E+03 -0.99182700653E+03  0.14726420853E+04  0.50400001928E-02 0.  1.
       -1    1    3    3    0  502  0.50559453594E+03  0.96401663145E+03  0.77715086713E+03  0.13375041573E+04  0.50400001928E-02 0. -1.
</event>
<event>
 5   0  0.3406920E-07  0.2805714E+04  0.7818609E-02  0.8301497E-01
        2   -1    0    0  501    0  0.00000000000E+00  0.00000000000E+00  0.17853673879E+04  0.17853673879E+04  0.25500000920E-02 0.  1.
       -2   -1    0    0    0  501  0.00000000000E+00  0.00000000000E+00 -0.11022984366E+04  0.11022984366E+04  0.25500000920E-02 0. -1.
    10030    2    1    2    0    0  0.00000000000E+00  0.00000000000E+00  0.68306895129E+03  0.28876658246E+04  0.28057139416E+04 0.  0.
        4    1    3    3  502    0 -0.33663038772E+03  0.16218694864E+03 -0.10501377033E+04  0.11146369064E+04  0.12699999809E+01 0. -1.
       -4    1    3    3    0  502  0.33663038772E+03 -0.16218694864E+03  0.17332066546E+04  0.17730289182E+04  0.12699999809E+01 0.  1.
</event>
<event>
 5   0  0.3406920E-07  0.2800288E+04  0.7818609E-02  0.8303179E-01
        2   -1    0    0  501    0  0.00000000000E+00  0.00000000000E+00  0.18069662533E+04  0.18069662533E+04  0.25500000920E-02 0. -1.
       -2   -1    0    0    0  501  0.00000000000E+00  0.00000000000E+00 -0.10849141947E+04  0.10849141947E+04  0.25500000920E-02 0.  1.
    10030    2    1    2    0    0  0.00000000000E+00  0.00000000000E+00  0.72205205866E+03  0.28918804480E+04  0.28002880834E+04 0.  0.
        4    1    3    3  502    0 -0.96189494126E+03 -0.14384116859E+03 -0.67912675003E+03  0.11862322350E+04  0.12699999809E+01 0.  1.
       -4    1    3    3    0  502  0.96189494126E+03  0.14384116859E+03  0.14011788087E+04  0.17056482130E+04  0.12699999809E+01 0. -1.
</event>
<event>
 5   0  0.1173363E-07  0.2799990E+04  0.7818609E-02  0.8303272E-01
       -3   -1    0    0    0  501  0.00000000000E+00  0.00000000000E+00  0.61135149033E+03  0.61135149868E+03  0.10100000352E+00 0.  1.
        3   -1    0    0  501    0  0.00000000000E+00  0.00000000000E+00 -0.32059883810E+04  0.32059883826E+04  0.10100000352E+00 0. -1.
    10030    2    1    2    0    0  0.00000000000E+00  0.00000000000E+00 -0.25946368907E+04  0.38173398813E+04  0.27999898526E+04 0.  0.
        1    1    3    3  502    0 -0.23671989179E+03  0.13285960436E+04 -0.18052100156E+04  0.22538826400E+04  0.50400001928E-02 0.  1.
       -1    1    3    3    0  502  0.23671989179E+03 -0.13285960436E+04 -0.78942687508E+03  0.15634572413E+04  0.50400001928E-02 0. -1.
</event>
<event>
 5   0  0.3571498E-07  0.2800340E+04  0.7818609E-02  0.8303163E-01
       -2   -1    0    0    0  501  0.00000000000E+00  0.00000000000E+00  0.12592961759E+04  0.12592961759E+04  0.25500000920E-02 0. -1.
        2   -1    0    0  501    0  0.00000000000E+00  0.00000000000E+00 -0.15568034552E+04  0.15568034552E+04  0.25500000920E-02 0.  1.
    10030    2    1    2    0    0  0.00000000000E+00  0.00000000000E+00 -0.29750727936E+03  0.28160996311E+04  0.28003404348E+04 0.  0.
        2    1    3    3  502    0 -0.10684856289E+04 -0.87896202858E+03 -0.36500064030E+03  0.14308952632E+04  0.25500000920E-02 0. -1.
       -2    1    3    3    0  502  0.10684856289E+04  0.87896202858E+03  0.67493360934E+02  0.13852043679E+04  0.25500000920E-02 0.  1.
</event>
<event>
 5   0  0.1366235E-07  0.2798331E+04  0.7818609E-02  0.8303787E-01
        1   -1    0    0  501    0  0.00000000000E+00  0.00000000000E+00  0.18241173116E+04  0.18241173116E+04  0.50400001928E-02 0. -1.
       -1   -1    0    0    0  501  0.00000000000E+00  0.00000000000E+00 -0.10732118068E+04  0.10732118068E+04  0.50400001928E-02 0.  1.
    10030    2    1    2    0    0  0.00000000000E+00  0.00000000000E+00  0.75090550485E+03  0.28973291184E+04  0.27983310996E+04 0.  0.
        2    1    3    3  502    0  0.28644245118E+03 -0.12271285612E+04  0.10050529189E+04  0.16118390594E+04  0.25500000920E-02 0. -1.
       -2    1    3    3    0  502 -0.28644245118E+03  0.12271285612E+04 -0.25414741407E+03  0.12854900590E+04  0.25500000920E-02 0.  1.
</event>
<event>
 5   0  0.1374680E-07  0.2799167E+04  0.7818609E-02  0.8303527E-01
       -1   -1    0    0    0  501  0.00000000000E+00  0.00000000000E+00  0.94876672106E+03  0.94876672107E+03  0.50400001928E-02 0. -1.
        1   -1    0    0  501    0  0.00000000000E+00  0.00000000000E+00 -0.20646100620E+04  0.20646100620E+04  0.50400001928E-02 0.  1.
    10030    2    1    2    0    0  0.00000000000E+00  0.00000000000E+00 -0.11158433410E+04  0.30133767831E+04  0.27991665323E+04 0.  0.
        3    1    3    3  502    0  0.52225058968E+03  0.74203137138E+02 -0.19535008877E+04  0.20234667065E+04  0.10100000352E+00 0.  1.
       -3    1    3    3    0  502 -0.52225058968E+03 -0.74203137138E+02  0.83765754671E+03  0.98991007659E+03  0.10100000352E+00 0. -1.
</event>
<event>
 5   0  0.3557628E-07  0.2800658E+04  0.7818609E-02  0.8303064E-01
        2   -1    0    0  501    0  0.00000000000E+00  0.00000000000E+00  0.22606604030E+04  0.22606604030E+04  0.25500000920E-02 0. -1.
       -2   -1    0    0    0  501  0.00000000000E+00  0.00000000000E+00 -0.86741111787E+03  0.86741111788E+03  0.25500000920E-02 0.  1.
    10030    2    1    2    0    0  0.00000000000E+00  0.00000000000E+00  0.13932492852E+04  0.31280715209E+04  0.28006584707E+04 0.  0.
        5    1    3    3  502    0  0.42013111196E+03  0.31758354791E+03 -0.75257095597E+03  0.91856115470E+03  0.46999998093E+01 0.  1.
       -5    1    3    3    0  502 -0.42013111196E+03 -0.31758354791E+03  0.21458202411E+04  0.22095103662E+04  0.46999998093E+01 0. -1.
</event>
<event>
 5   0  0.3522569E-07  0.2799824E+04  0.7818609E-02  0.8303323E-01
        2   -1    0    0  501    0  0.00000000000E+00  0.00000000000E+00  0.24870274817E+04  0.24870274817E+04  0.25500000920E-02 0.  1.
       -2   -1    0    0    0  501  0.00000000000E+00  0.00000000000E+00 -0.78799047352E+03  0.78799047353E+03  0.25500000920E-02 0. -1.
    10030    2    1    2    0    0  0.00000000000E+00  0.00000000000E+00  0.16990370082E+04  0.32750179553E+04  0.27998242538E+04 0.  0.
        1    1    3    3  502    0  0.10368043716E+04  0.71609529329E+03  0.13608528581E+03  0.12673890402E+04  0.50400001928E-02 0. -1.
       -1    1    3    3    0  502 -0.10368043716E+04 -0.71609529329E+03  0.15629517224E+04  0.20076289151E+04  0.50400001928E-02 0.  1.
</event>
<event>
 5   0  0.1357902E-07  0.2798591E+04  0.7818609E-02  0.8303706E-01
       -1   -1    0    0    0  501  0.00000000000E+00  0.00000000000E+00  0.14931387660E+04  0.14931387660E+04  0.50400001928E-02 0.  1.
        1   -1    0    0  501    0  0.00000000000E+00  0.00000000000E+00 -0.13113497911E+04  0.13113497911E+04  0.50400001928E-02 0. -1.
    10030    2    1    2    0    0  0.00000000000E+00  0.00000000000E+00  0.18178897489E+03  0.28044885571E+04  0.27985905087E+04 0.  0.
        4    1    3    3  502    0  0.65565719838E+03 -0.11950754560E+04  0.40768393655E+03  0.14227787995E+04  0.12699999809E+01 0.  1.
       -4    1    3    3    0  502 -0.65565719838E+03  0.11950754560E+04 -0.22589496166E+03  0.13817097575E+04  0.12699999809E+01 0. -1.
</event>
<event>
 5   0  0.1357902E-07  0.2799825E+04  0.7818609E-02  0.8303323E-01
        1   -1    0    0  501    0  0.00000000000E+00  0.00000000000E+00  0.10980096965E+04  0.10980096966E+04  0.50400001928E-02 0.  1.
       -1   -1    0    0    0  501  0.00000000000E+00  0.00000000000E+00 -0.17848252692E+04  0.17848252692E+04  0.50400001928E-02 0. -1.
    10030    2    1    2    0    0  0.00000000000E+00  0.00000000000E+00 -0.68681557262E+03  0.28828349657E+04  0.27998253176E+04 0.  0.
        4    1    3    3  502    0 -0.77561738602E+03  0.76738375509E+03 -0.12465058841E+04  0.16565743838E+04  0.12699999809E+01 0. -1.
       -4    1    3    3    0  502  0.77561738602E+03 -0.76738375509E+03  0.55969031150E+03  0.12262605819E+04  0.12699999809E+01 0.  1.
</event>
<event>
 5   0  0.1361741E-07  0.2799112E+04  0.7818609E-02  0.8303544E-01
       -1   -1    0    0    0  501  0.00000000000E+00  0.00000000000E+00  0.13080751099E+04  0.13080751099E+04  0.50400001928E-02 0.  1.
        1   -1    0    0  501    0  0.00000000000E+00  0.00000000000E+00 -0.14974341713E+04  0.14974341713E+04  0.50400001928E-02 0. -1.
    10030    2    1    2    0    0  0.00000000000E+00  0.00000000000E+00 -0.18935906141E+03  0.28055092812E+04  0.27991115506E+04 0.  0.
        5    1    3    3  502    0  0.64288232248E+03 -0.47030362079E+03 -0.12480708405E+04  0.14806032855E+04  0.46999998093E+01 0. -1.
       -5    1    3    3    0  502 -0.64288232248E+03  0.47030362079E+03  0.10587117791E+04  0.13249059957E+04  0.46999998093E+01 0.  1.
</event>
<event>
 5   0  0.3406920E-07  0.2797769E+04  0.7818609E-02  0.8303961E-01
       -2   -1    0    0    0  501  0.00000000000E+00  0.00000000000E+00  0.10068070489E+04  0.10068070489E+04  0.25500000920E-02 0.  1.
        2   -1    0    0  501    0  0.00000000000E+00  0.00000000000E+00 -0.19436473381E+04  0.19436473381E+04  0.25500000920E-02 0. -1.
    10030    2    1    2    0    0  0.00000000000E+00  0.00000000000E+00 -0.93684028920E+03  0.29504543870E+04  0.27977689973E+04 0.  0.
        4    1    3    3  502    0  0.48529243761E+03  0.90363194017E+03  0.53471022339E+03  0.11567091550E+04  0.12699999809E+01 0.  1.
       -4    1    3    3    0  502 -0.48529243761E+03 -0.90363194017E+03 -0.14715505126E+04  0.17937452320E+04  0.12699999809E+01 0. -1.
</event>
<event>
 5   0  0.1361741E-07  0.2803486E+04  0.7818609E-02  0.8302187E-01
       -1   -1    0    0    0  501  0.00000000000E+00  0.00000000000E+00  0.17372864104E+04  0.17372864105E+04  0.50400001928E-02 0.  1.
        1   -1    0    0  501    0  0.00000000000E+00  0.00000000000E+00 -0.11310074817E+04  0.11310074817E+04  0.50400001928E-02 0. -1.
    10030    2    1    2    0    0  0.00000000000E+00  0.00000000000E+00  0.60627892872E+03  0.28682938922E+04  0.28034863496E+04 0.  0.
        5    1    3    3  502    0 -0.89280128001E+02  0.34351591336E+03  0.16905430351E+04  0.17274061386E+04  0.46999998093E+01 0.  1.
       -5    1    3    3    0  502  0.89280128001E+02 -0.34351591336E+03 -0.10842641064E+04  0.11408877536E+04  0.46999998093E+01 0. -1.
</event>
<event>
 5   0  0.3502141E-07  0.2796386E+04  0.7818609E-02  0.8304391E-01
        2   -1    0    0  501    0  0.00000000000E+00  0.00000000000E+00  0.22866228042E+04  0.22866228042E+04  0.25500000920E-02 0.  1.
       -2   -1    0    0    0  501  0.00000000000E+00  0.00000000000E+00 -0.85494832258E+03  0.85494832259E+03  0.25500000920E-02 0. -1.
    10030    2    1    2    0    0  0.00000000000E+00  0.00000000000E+00  0.14316744816E+04  0.31415711268E+04  0.27963864760E+04 0.  0.
        3    1    3    3  502    0  0.10411848694E+04 -0.70592011915E+03  0.30120103957E+02  0.12582910545E+04  0.10100000352E+00 0. -1.
       -3    1    3    3    0  502 -0.10411848694E+04  0.70592011915E+03  0.14015543776E+04  0.18832800723E+04  0.10100000352E+00 0.  1.
</event>
<event>
 5   0  0.3502141E-07  0.2802811E+04  0.7818609E-02  0.8302396E-01
       -2   -1    0    0    0  501  0.00000000000E+00  0.00000000000E+00  0.11313000719E+04  0.11313000719E+04  0.25500000920E-02 0. -1.
        2   -1    0    0  501    0  0.00000000000E+00  0.00000000000E+00 -0.17360003761E+04  0.17360003761E+04  0.25500000920E-02 0.  1.
    10030    2    1    2    0    0  0.00000000000E+00  0.00000000000E+00 -0.60470030422E+03  0.28673004480E+04  0.28028109820E+04 0.  0.
        3    1    3    3  502    0  0.11542050093E+04 -0.79458745630E+03 -0.32226366899E+03  0.14378498919E+04  0.10100000352E+00 0.  1.
       -3    1    3    3    0  502 -0.11542050093E+04  0.79458745630E+03 -0.28243663523E+03  0.14294505561E+04  0.10100000352E+00 0. -1.
</event>
<event>
 5   0  0.1173363E-07  0.2796735E+04  0.7818609E-02  0.8304283E-01
        3   -1    0    0  501    0  0.00000000000E+00  0.00000000000E+00  0.14108568056E+04  0.14108568092E+04  0.10100000352E+00 0. -1.
       -3   -1    0    0    0  501  0.00000000000E+00  0.00000000000E+00 -0.13859884116E+04  0.13859884153E+04  0.10100000352E+00 0.  1.
    10030    2    1    2    0    0  0.00000000000E+00  0.00000000000E+00  0.24868393996E+02  0.27968452244E+04  0.27967346625E+04 0.  0.
        5    1    3    3  502    0 -0.88581952927E+03 -0.85558882589E+03 -0.64993678083E+03  0.13925330827E+04  0.46999998093E+01 0.  1.
       -5    1    3    3    0  502  0.88581952927E+03  0.85558882589E+03  0.67480517482E+03  0.14043121417E+04  0.46999998093E+01 0. -1.
</event>
<event>
 5   0  0.1361741E-07  0.2799524E+04  0.7818609E-02  0.8303416E-01
       -1   -1    0    0    0  501  0.00000000000E+00  0.00000000000E+00  0.10180719320E+04  0.10180719320E+04  0.50400001928E-02 0.  1.
        1   -1    0    0  501    0  0.00000000000E+00  0.00000000000E+00 -0.19245530354E+04  0.19245530354E+04  0.50400001928E-02 0. -1.
    10030    2    1    2    0    0  0.00000000000E+00  0.00000000000E+00 -0.90648110341E+03  0.29426249674E+04  0.27995238360E+04 0.  0.
        5    1    3    3  502    0 -0.12771279180E+04  0.31458325189E+03  0.50081710812E+02  0.13162631230E+04  0.46999998093E+01 0.  1.
       -5    1    3    3    0  502  0.12771279180E+04 -0.31458325189E+03 -0.95656281422E+03  0.16263618444E+04  0.46999998093E+01 0. -1.
</event>
<event>
 5   0  0.3502141E-07  0.2799512E+04  0.7818609E-02  0.8303420E-01
       -2   -1    0    0    0  501  0.00000000000E+00  0.00000000000E+00  0.10148821655E+04  0.10148821655E+04  0.25500000920E-02 0. -1.
        2   -1    0    0  501    0  0.00000000000E+00  0.00000000000E+00 -0.19305853463E+04  0.19305853463E+04  0.25500000920E-02 0.  1.
    10030    2    1    2    0    0  0.00000000000E+00  0.00000000000E+00 -0.91570318078E+03  0.29454675119E+04  0.27995118411E+04 0.  0.
        3    1    3    3  502    0 -0.99898796303E+03  0.47679668401E+03 -0.13592594045E+04  0.17529683874E+04  0.10100000352E+00 0.  1.
       -3    1    3    3    0  502  0.99898796303E+03 -0.47679668401E+03  0.44355622373E+03  0.11924991245E+04  0.10100000352E+00 0. -1.
</event>
<event>
 5   0  0.3571498E-07  0.2806644E+04  0.7818609E-02  0.8301209E-01
        2   -1    0    0  501    0  0.00000000000E+00  0.00000000000E+00  0.17469541606E+04  0.17469541606E+04  0.25500000920E-02 0.  1.
       -2   -1    0    0    0  501  0.00000000000E+00  0.00000000000E+00 -0.11272831779E+04  0.11272831779E+04  0.25500000920E-02 0. -1.
    10030    2    1    2    0    0  0.00000000000E+00  0.00000000000E+00  0.61967098272E+03  0.28742373385E+04  0.28066435740E+04 0.  0.
        2    1    3    3  502    0  0.11542739222E+03 -0.36083288289E+02  0.17416076920E+04  0.17458014891E+04  0.25500000920E-02 0.  1.
       -2    1    3    3    0  502 -0.11542739222E+03  0.36083288289E+02 -0.11219367093E+04  0.11284358494E+04  0.25500000920E-02 0. -1.
</event>
<event>
 5   0  0.3522569E-07  0.2801688E+04  0.7818609E-02  0.8302745E-01
       -2   -1    0    0    0  501  0.00000000000E+00  0.00000000000E+00  0.14513049327E+04  0.14513049327E+04  0.25500000920E-02 0. -1.
        2   -1    0    0  501    0  0.00000000000E+00  0.00000000000E+00 -0.13521373310E+04  0.13521373310E+04  0.25500000920E-02 0.  1.
    10030    2    1    2    0    0  0.00000000000E+00  0.00000000000E+00  0.99167601661E+02  0.28034422637E+04  0.28016877615E+04 0.  0.
        1    1    3    3  502    0  0.63209005156E+03 -0.14548574728E+03  0.12919972245E+04  0.14456696594E+04  0.50400001928E-02 0. -1.
       -1    1    3    3    0  502 -0.63209005156E+03  0.14548574728E+03 -0.11928296229E+04  0.13577726043E+04  0.50400001928E-02 0.  1.
</event>
<event>
 5   0  0.1346049E-07  0.2784501E+04  0.7818609E-02  0.8308096E-01
        1   -1    0    0  501    0  0.00000000000E+00  0.00000000000E+00  0.16208170254E+04  0.16208170254E+04  0.50400001928E-02 0.  1.
       -1   -1    0    0    0  501  0.00000000000E+00  0.00000000000E+00 -0.11959166398E+04  0.11959166398E+04  0.50400001928E-02 0. -1.
    10030    2    1    2    0    0  0.00000000000E+00  0.00000000000E+00  0.42490038567E+03  0.28167336652E+04  0.27845014281E+04 0.  0.
        1    1    3    3  502    0  0.12010415090E+04 -0.70377443367E+03  0.23645014974E+03  0.14119871930E+04  0.50400001928E-02 0. -1.
       -1    1    3    3    0  502 -0.12010415090E+04  0.70377443367E+03  0.18845023593E+03  0.14047464722E+04  0.50400001928E-02 0.  1.
</event>
<event>
 5   0  0.3406920E-07  0.2800309E+04  0.7818609E-02  0.8303172E-01
        2   -1    0    0  501    0  0.00000000000E+00  0.00000000000E+00  0.30240248341E+04  0.30240248341E+04  0.25500000920E-02 0. -1.
       -2   -1    0    0    0  501  0.00000000000E+00  0.00000000000E+00 -0.64828584115E+03  0.64828584116E+03  0.25500000920E-02 0.  1.
    10030    2    1    2    0    0  0.00000000000E+00  0.00000000000E+00  0.23757389929E+04  0.36723106752E+04  0.28003088996E+04 0.  0.
        4    1    3    3  502    0  0.17388075470E+03 -0.97352027456E+02  0.30053316817E+04  0.30119316168E+04  0.12699999809E+01 0. -1.
       -4    1    3    3    0  502 -0.17388075470E+03  0.97352027456E+02 -0.62959268882E+03  0.66037905843E+03  0.12699999809E+01 0.  1.
</event>
<event>
 5   0  0.3406920E-07  0.2799993E+04  0.7818609E-02  0.8303271E-01
        2   -1    0    0  501    0  0.00000000000E+00  0.00000000000E+00  0.26044281869E+04  0.26044281869E+04  0.25500000920E-02 0.  1.
       -2   -1    0    0    0  501  0.00000000000E+00  0.00000000000E+00 -0.75256061136E+03  0.75256061137E+03  0.25500000920E-02 0. -1.
    10030    2    1    2    0    0  0.00000000000E+00  0.00000000000E+00  0.18518675756E+04  0.33569887983E+04  0.27999929061E+04 0.  0.
        4    1    3    3  502    0  0.10861479467E+04 -0.86077662288E+03  0.11637168288E+04  0.18096663304E+04  0.12699999809E+01 0. -1.
       -4    1    3    3    0  502 -0.10861479467E+04  0.86077662288E+03  0.68815074672E+03  0.15473224679E+04  0.12699999809E+01 0.  1.
</event>
<event>
 5   0  0.3502141E-07  0.2802255E+04  0.7818609E-02  0.8302569E-01
        2   -1    0    0  501    0  0.00000000000E+00  0.00000000000E+00  0.14344256908E+04  0.14344256908E+04  0.25500000920E-02 0. -1.
       -2   -1    0    0    0  501  0.00000000000E+00  0.00000000000E+00 -0.13686025813E+04  0.13686025813E+04  0.25500000920E-02 0.  1.
    10030    2    1    2    0    0  0.00000000000E+00  0.00000000000E+00  0.65823109568E+02  0.28030282721E+04  0.28022553082E+04 0.  0.
        3    1    3    3  502    0 -0.30766631754E+03  0.64562172742E+03  0.12380977121E+04  0.14298153492E+04  0.10100000352E+00 0. -1.
       -3    1    3    3    0  502  0.30766631754E+03 -0.64562172742E+03 -0.11722746025E+04  0.13732129229E+04  0.10100000352E+00 0.  1.
</event>
<event>
 5   0  0.1357902E-07  0.2799022E+04  0.7818609E-02  0.8303572E-01
       -1   -1    0    0    0  501  0.00000000000E+00  0.00000000000E+00  0.10044424512E+04  0.10044424512E+04  0.50400001928E-02 0.  1.
        1   -1    0    0  501    0  0.00000000000E+00  0.00000000000E+00 -0.19499679417E+04  0.19499679417E+04  0.50400001928E-02 0. -1.
    10030    2    1    2    0    0  0.00000000000E+00  0.00000000000E+00 -0.94552549045E+03  0.29544103929E+04  0.27990216713E+04 0.  0.
        4    1    3    3  502    0 -0.20935467833E+02 -0.10987710672E+04  0.44188429972E+03  0.11844827981E+04  0.12699999809E+01 0.  1.
       -4    1    3    3    0  502  0.20935467833E+02  0.10987710672E+04 -0.13874097902E+04  0.17699275947E+04  0.12699999809E+01 0. -1.
</event>
<event>
 5   0  0.1366235E-07  0.2799267E+04  0.7818609E-02  0.8303496E-01
       -1   -1    0    0    0  501  0.00000000000E+00  0.00000000000E+00  0.12206192458E+04  0.12206192458E+04  0.50400001928E-02 0.  1.
        1   -1    0    0  501    0  0.00000000000E+00  0.00000000000E+00 -0.16049019041E+04  0.16049019041E+04  0.50400001928E-02 0. -1.
    10030    2    1    2    0    0  0.00000000000E+00  0.00000000000E+00 -0.38428265831E+03  0.28255211499E+04  0.27992671553E+04 0.  0.
        2    1    3    3  502    0 -0.14775250193E+03 -0.32625771940E+03 -0.15578646200E+04  0.15985046373E+04  0.25500000920E-02 0. -1.
       -2    1    3    3    0  502  0.14775250193E+03  0.32625771940E+03  0.11735819617E+04  0.12270165125E+04  0.25500000920E-02 0.  1.
</event>
<event>
 5   0  0.3502141E-07  0.2799590E+04  0.7818609E-02  0.8303396E-01
       -2   -1    0    0    0  501  0.00000000000E+00  0.00000000000E+00  0.77750990753E+03  0.77750990753E+03  0.25500000920E-02 0. -1.
        2   -1    0    0  501    0  0.00000000000E+00  0.00000000000E+00 -0.25201305582E+04  0.25201305582E+04  0.25500000920E-02 0.  1.
    10030    2    1    2    0    0  0.00000000000E+00  0.00000000000E+00 -0.17426206507E+04  0.32976404658E+04  0.27995903110E+04 0.  0.
        3    1    3    3  502    0 -0.48651844702E+03  0.67539661170E+02 -0.24152887000E+04  0.24647274332E+04  0.10100000352E+00 0.  1.
       -3    1    3    3    0  502  0.48651844702E+03 -0.67539661170E+02  0.67266804932E+03  0.83291303261E+03  0.10100000352E+00 0. -1.
</event>
<event>
 5   0  0.3406920E-07  0.2799219E+04  0.7818609E-02  0.8303511E-01
       -2   -1    0    0    0  501  0.00000000000E+00  0.00000000000E+00  0.98282572227E+03  0.98282572227E+03  0.25500000920E-02 0. -1.
        2   -1    0    0  501    0  0.00000000000E+00  0.00000000000E+00 -0.19931374995E+04  0.19931374995E+04  0.25500000920E-02 0.  1.
    10030    2    1    2    0    0  0.00000000000E+00  0.00000000000E+00 -0.10103117772E+04  0.29759632218E+04  0.27992190357E+04 0.  0.
        4    1    3    3  502    0 -0.26079224794E+03 -0.30820521999E+03 -0.19298840551E+04  0.19716635447E+04  0.12699999809E+01 0.  1.
       -4    1    3    3    0  502  0.26079224794E+03  0.30820521999E+03  0.91957227791E+03  0.10042996771E+04  0.12699999809E+01 0. -1.
</event>
<event>
 5   0  0.3406920E-07  0.2799591E+04  0.7818609E-02  0.8303395E-01
       -2   -1    0    0    0  501  0.00000000000E+00  0.00000000000E+00  0.12435007219E+04  0.12435007219E+04  0.25500000920E-02 0.  1.
        2   -1    0    0  501    0  0.00000000000E+00  0.00000000000E+00 -0.15757349902E+04  0.15757349902E+04  0.25500000920E-02 0. -1.
    10030    2    1    2    0    0  0.00000000000E+00  0.00000000000E+00 -0.33223426830E+03  0.28192357122E+04  0.27995911115E+04 0.  0.
        4    1    3    3  502    0  0.10191880132E+04 -0.20595473416E+03  0.77761648889E+03  0.12984030866E+04  0.12699999809E+01 0.  1.
       -4    1    3    3    0  502 -0.10191880132E+04  0.20595473416E+03 -0.11098507572E+04  0.15208326255E+04  0.12699999809E+01 0. -1.
</event>
<event>
 5   0  0.1374680E-07  0.2799888E+04  0.7818609E-02  0.8303303E-01
       -1   -1    0    0    0  501  0.00000000000E+00  0.00000000000E+00  0.11238915192E+04  0.11238915192E+04  0.50400001928E-02 0. -1.
        1   -1    0    0  501    0  0.00000000000E+00  0.00000000000E+00 -0.17438006194E+04  0.17438006194E+04  0.50400001928E-02 0.  1.
    10030    2    1    2    0    0  0.00000000000E+00  0.00000000000E+00 -0.61990910022E+03  0.28676921386E+04  0.27998876601E+04 0.  0.
        3    1    3    3  502    0  0.13780411043E+04 -0.18622103306E+03 -0.47563459544E+03  0.14696611299E+04  0.10100000352E+00 0. -1.
       -3    1    3    3    0  502 -0.13780411043E+04  0.18622103306E+03 -0.14427450478E+03  0.13980310086E+04  0.10100000352E+00 0.  1.
</event>
<event>
 5   0  0.1346049E-07  0.2799630E+04  0.7818609E-02  0.8303383E-01
       -1   -1    0    0    0  501  0.00000000000E+00  0.00000000000E+00  0.11900613839E+04  0.11900613839E+04  0.50400001928E-02 0.  1.
        1   -1    0    0  501    0  0.00000000000E+00  0.00000000000E+00 -0.16465382799E+04  0.16465382800E+04  0.50400001928E-02 0. -1.
    10030    2    1    2    0    0  0.00000000000E+00  0.00000000000E+00 -0.45647689609E+03  0.28365996638E+04  0.27996297070E+04 0.  0.
        1    1    3    3  502    0 -0.21389316515E+03 -0.30908004918E+03  0.11379744575E+04  0.11984434191E+04  0.50400001928E-02 0.  1.
       -1    1    3    3    0  502  0.21389316515E+03  0.30908004918E+03 -0.15944513536E+04  0.16381562447E+04  0.50400001928E-02 0. -1.
</event>
<event>
 5   0  0.1357902E-07  0.2792098E+04  0.7818609E-02  0.8305726E-01
        1   -1    0    0  501    0  0.00000000000E+00  0.00000000000E+00  0.21950004296E+04  0.21950004296E+04  0.50400001928E-02 0.  1.
       -1   -1    0    0    0  501  0.00000000000E+00  0.00000000000E+00 -0.88790520958E+03  0.88790520959E+03  0.50400001928E-02 0. -1.
    10030    2    1    2    0    0  0.00000000000E+00  0.00000000000E+00  0.13070952200E+04  0.30829056392E+04  0.27920976462E+04 0.  0.
        4    1    3    3  502    0 -0.76001983125E+03  0.50992656812E+03 -0.51042938966E+03  0.10479480061E+04  0.12699999809E+01 0. -1.
       -4    1    3    3    0  502  0.76001983125E+03 -0.50992656812E+03  0.18175246096E+04  0.20349576331E+04  0.12699999809E+01 0.  1.
</event>
<event>
 5   0  0.3522569E-07  0.2800930E+04  0.7818609E-02  0.8302980E-01
       -2   -1    0    0    0  501  0.00000000000E+00  0.00000000000E+00  0.12289231696E+04  0.12289231696E+04  0.25500000920E-02 0.  1.
        2   -1    0    0  501    0  0.00000000000E+00  0.00000000000E+00 -0.15959519453E+04  0.15959519453E+04  0.25500000920E-02 0. -1.
    10030    2    1    2    0    0  0.00000000000E+00  0.00000000000E+00 -0.36702877565E+03  0.28248751149E+04  0.28009300764E+04 0.  0.
        1    1    3    3  502    0 -0.12390391662E+04 -0.30051933007E+03  0.40089809447E+03  0.13365063431E+04  0.50400001928E-02 0.  1.
       -1    1    3    3    0  502  0.12390391662E+04  0.30051933007E+03 -0.76792687011E+03  0.14883687718E+04  0.50400001928E-02 0. -1.
</event>
<event>
 5   0  0.3406920E-07  0.2802429E+04  0.7818609E-02  0.8302515E-01
        2   -1    0    0  501    0  0.00000000000E+00  0.00000000000E+00  0.27240719146E+04  0.27240719146E+04  0.25500000920E-02 0.  1.
       -2   -1    0    0    0  501  0.00000000000E+00  0.00000000000E+00 -0.72075995256E+03  0.72075995257E+03  0.25500000920E-02 0. -1.
    10030    2    1    2    0    0  0.00000000000E+00  0.00000000000E+00  0.20033119620E+04  0.34448318672E+04  0.28024289065E+04 0.  0.
        4    1    3    3  502    0 -0.76273343565E+03 -0.21007465331E+03  0.24232690439E+04  0.25491426257E+04  0.12699999809E+01 0.  1.
       -4    1    3    3    0  502  0.76273343565E+03  0.21007465331E+03 -0.41995708189E+03  0.89568924151E+03  0.12699999809E+01 0. -1.
</event>
<event>
 5   0  0.1361741E-07  0.2800394E+04  0.7818609E-02  0.8303146E-01
        1   -1    0    0  501    0  0.00000000000E+00  0.00000000000E+00  0.20600831294E+04  0.20600831294E+04  0.50400001928E-02 0. -1.
       -1   -1    0    0    0  501  0.00000000000E+00  0.00000000000E+00 -0.95168594108E+03  0.95168594109E+03  0.50400001928E-02 0.  1.
    10030    2    1    2    0    0  0.00000000000E+00  0.00000000000E+00  0.11083971883E+04  0.30117690705E+04  0.28003943663E+04 0.  0.
        5    1    3    3  502    0 -0.63773745051E+03  0.12111890031E+04  0.23726527868E+03  0.13892461119E+04  0.46999998093E+01 0.  1.
       -5    1    3    3    0  502  0.63773745051E+03 -0.12111890031E+04  0.87113190964E+03  0.16225229586E+04  0.46999998093E+01 0. -1.
</event>
<event>
 5   0  0.3522569E-07  0.2793560E+04  0.7818609E-02  0.8305270E-01
       -2   -1    0    0    0  501  0.00000000000E+00  0.00000000000E+00  0.13418437279E+04  0.13418437279E+04  0.25500000920E-02 0.  1.
        2   -1    0    0  501    0  0.00000000000E+00  0.00000000000E+00 -0.14539658855E+04  0.14539658855E+04  0.25500000920E-02 0. -1.
    10030    2    1    2    0    0  0.00000000000E+00  0.00000000000E+00 -0.11212215764E+03  0.27958096134E+04  0.27935604550E+04 0.  0.
        1    1    3    3  502    0 -0.15183948480E+03  0.12774834283E+04 -0.60053573466E+03  0.14197402253E+04  0.50400001928E-02 0. -1.
       -1    1    3    3    0  502  0.15183948480E+03 -0.12774834283E+04  0.48841357702E+03  0.13760693881E+04  0.50400001928E-02 0.  1.
</event>
<event>
 5   0  0.1374680E-07  0.2801169E+04  0.7818609E-02  0.8302905E-01
       -1   -1    0    0    0  501  0.00000000000E+00  0.00000000000E+00  0.13046678789E+04  0.13046678789E+04  0.50400001928E-02 0. -1.
        1   -1    0    0  501    0  0.00000000000E+00  0.00000000000E+00 -0.15035530457E+04  0.15035530457E+04  0.50400001928E-02 0.  1.
    10030    2    1    2    0    0  0.00000000000E+00  0.00000000000E+00 -0.19888516681E+03  0.28082209246E+04  0.28011693008E+04 0.  0.
        3    1    3    3  502    0  0.90838713872E+02  0.56593125113E+03 -0.13805905735E+04  0.14948445386E+04  0.10100000352E+00 0.  1.
       -3    1    3    3    0  502 -0.90838713872E+02 -0.56593125113E+03  0.11817054067E+04  0.13133763860E+04  0.10100000352E+00 0. -1.
</event>
<event>
 5   0  0.1173363E-07  0.2799090E+04  0.7818609E-02  0.8303551E-01
       -3   -1    0    0    0  501  0.00000000000E+00  0.00000000000E+00  0.99456509381E+03  0.99456509893E+03  0.10100000352E+00 0. -1.
        3   -1    0    0  501    0  0.00000000000E+00  0.00000000000E+00 -0.19694295973E+04  0.19694295998E+04  0.10100000352E+00 0.  1.
    10030    2    1    2    0    0  0.00000000000E+00  0.00000000000E+00 -0.97486450345E+03  0.29639946988E+04  0.27990898118E+04 0.  0.
        4    1    3    3  502    0  0.10804611640E+04 -0.77299872790E+03 -0.21268432988E+02  0.13286750240E+04  0.12699999809E+01 0. -1.
       -4    1    3    3    0  502 -0.10804611640E+04  0.77299872790E+03 -0.95359607047E+03  0.16353196748E+04  0.12699999809E+01 0.  1.
</event>
<event>
 5   0  0.1361741E-07  0.2800304E+04  0.7818609E-02  0.8303174E-01
        1   -1    0    0  501    0  0.00000000000E+00  0.00000000000E+00  0.25244010869E+04  0.25244010869E+04  0.50400001928E-02 0. -1.
       -1   -1    0    0    0  501  0.00000000000E+00  0.00000000000E+00 -0.77659043648E+03  0.77659043649E+03  0.50400001928E-02 0.  1.
    10030    2    1    2    0    0  0.00000000000E+00  0.00000000000E+00  0.17478106504E+04  0.33009915234E+04  0.28003040849E+04 0.  0.
        5    1    3    3  502    0 -0.73588380477E+03  0.53555872408E+03 -0.38031282306E+03  0.98641170636E+03  0.46999998093E+01 0.  1.
       -5    1    3    3    0  502  0.73588380477E+03 -0.53555872408E+03  0.21281234735E+04  0.23145798170E+04  0.46999998093E+01 0. -1.
</event>
<event>
 5   0  0.3557628E-07  0.2801379E+04  0.7818609E-02  0.8302840E-01
        2   -1    0    0  501    0  0.00000000000E+00  0.00000000000E+00  0.21547467455E+04  0.21547467456E+04  0.25500000920E-02 0.  1.
       -2   -1    0    0    0  501  0.00000000000E+00  0.00000000000E+00 -0.91051583242E+03  0.91051583242E+03  0.25500000920E-02 0. -1.
    10030    2    1    2    0    0  0.00000000000E+00  0.00000000000E+00  0.12442309131E+04  0.30652625780E+04  0.28013789652E+04 0.  0.
        5    1    3    3  502    0  0.82406753098E+02  0.88372197247E+03  0.18077702614E+04  0.20139043685E+04  0.46999998093E+01 0.  1.
       -5    1    3    3    0  502 -0.82406753098E+02 -0.88372197247E+03 -0.56353934824E+03  0.10513582095E+04  0.46999998093E+01 0. -1.
</event>
<event>
 5   0  0.3557628E-07  0.2799459E+04  0.7818609E-02  0.8303436E-01
       -2   -1    0    0    0  501  0.00000000000E+00  0.00000000000E+00  0.20447725876E+04  0.20447725876E+04  0.25500000920E-02 0. -1.
        2   -1    0    0  501    0  0.00000000000E+00  0.00000000000E+00 -0.95817118790E+03  0.95817118790E+03  0.25500000920E-02 0.  1.
    10030    2    1    2    0    0  0.00000000000E+00  0.00000000000E+00  0.10866013997E+04  0.30029437755E+04  0.27994586471E+04 0.  0.
        5    1    3    3  502    0 -0.78719921460E+03  0.10165104316E+04  0.11369185595E+04  0.17162697812E+04  0.46999998093E+01 0. -1.
       -5    1    3    3    0  502  0.78719921460E+03 -0.10165104316E+04 -0.50317159858E+02  0.12866739943E+04  0.46999998093E+01 0.  1.
</event>
<event>
 5   0  0.3406920E-07  0.2799182E+04  0.7818609E-02  0.8303522E-01
        2   -1    0    0  501    0  0.00000000000E+00  0.00000000000E+00  0.16750024187E+04  0.16750024187E+04  0.25500000920E-02 0. -1.
       -2   -1    0    0    0  501  0.00000000000E+00  0.00000000000E+00 -0.11694638856E+04  0.11694638856E+04  0.25500000920E-02 0.  1.
    10030    2    1    2    0    0  0.00000000000E+00  0.00000000000E+00  0.50553853312E+03  0.28444663043E+04  0.27991819069E+04 0.  0.
        4    1    3    3  502    0 -0.63237425765E+03 -0.71329879809E+03 -0.78858279798E+03  0.12371567481E+04  0.12699999809E+01 0.  1.
       -4    1    3    3    0  502  0.63237425765E+03  0.71329879809E+03  0.12941213311E+04  0.16073095562E+04  0.12699999809E+01 0. -1.
</event>
<event>
 5   0  0.1346049E-07  0.2800564E+04  0.7818609E-02  0.8303093E-01
        1   -1    0    0  501    0  0.00000000000E+00  0.00000000000E+00  0.15776175543E+04  0.15776175543E+04  0.50400001928E-02 0. -1.
       -1   -1    0    0    0  501  0.00000000000E+00  0.00000000000E+00 -0.12428805421E+04  0.12428805421E+04  0.50400001928E-02 0.  1.
    10030    2    1    2    0    0  0.00000000000E+00  0.00000000000E+00  0.33473701219E+03  0.28204980964E+04  0.28005643439E+04 0.  0.
        1    1    3    3  502    0  0.13444135459E+03 -0.69390171548E+03  0.13847802279E+04  0.15547316000E+04  0.50400001928E-02 0. -1.
       -1    1    3    3    0  502 -0.13444135459E+03  0.69390171548E+03 -0.10500432157E+04  0.12657664964E+04  0.50400001928E-02 0.  1.
</event>
<event>
 5   0  0.3557628E-07  0.2799761E+04  0.7818609E-02  0.8303342E-01
        2   -1    0    0  501    0  0.00000000000E+00  0.00000000000E+00  0.16012877474E+04  0.16012877474E+04  0.25500000920E-02 0. -1.
       -2   -1    0    0    0  501  0.00000000000E+00  0.00000000000E+00 -0.12238061572E+04  0.12238061572E+04  0.25500000920E-02 0.  1.
    10030    2    1    2    0    0  0.00000000000E+00  0.00000000000E+00  0.37748159028E+03  0.28250939046E+04  0.27997612789E+04 0.  0.
        5    1    3    3  502    0 -0.73545468646E+03 -0.53681370370E+02 -0.10119283058E+04  0.12521167164E+04  0.46999998093E+01 0.  1.
       -5    1    3    3    0  502  0.73545468646E+03  0.53681370370E+02  0.13894098961E+04  0.15729771882E+04  0.46999998093E+01 0. -1.
</event>
<event>
 5   0  0.1361741E-07  0.2798481E+04  0.7818609E-02  0.8303740E-01
       -1   -1    0    0    0  501  0.00000000000E+00  0.00000000000E+00  0.11228803045E+04  0.11228803045E+04  0.50400001928E-02 0.  1.
        1   -1    0    0  501    0  0.00000000000E+00  0.00000000000E+00 -0.17436174868E+04  0.17436174868E+04  0.50400001928E-02 0. -1.
    10030    2    1    2    0    0  0.00000000000E+00  0.00000000000E+00 -0.62073718233E+03  0.28664977913E+04  0.27984808268E+04 0.  0.
        5    1    3    3  502    0  0.13999111749E+03 -0.60957177375E+03 -0.15924598057E+04  0.17108844447E+04  0.46999998093E+01 0. -1.
       -5    1    3    3    0  502 -0.13999111749E+03  0.60957177375E+03  0.97172262333E+03  0.11556133467E+04  0.46999998093E+01 0.  1.
</event>
<event>
 5   0  0.3502141E-07  0.2801591E+04  0.7818609E-02  0.8302775E-01
        2   -1    0    0  501    0  0.00000000000E+00  0.00000000000E+00  0.16696203982E+04  0.16696203982E+04  0.25500000920E-02 0.  1.
       -2   -1    0    0    0  501  0.00000000000E+00  0.00000000000E+00 -0.11752537946E+04  0.11752537946E+04  0.25500000920E-02 0. -1.
    10030    2    1    2    0    0  0.00000000000E+00  0.00000000000E+00  0.49436660365E+03  0.28448741928E+04  0.28015907685E+04 0.  0.
        3    1    3    3  502    0  0.82119488149E+03 -0.10224848235E+04  0.74712230149E+03  0.15093137484E+04  0.10100000352E+00 0.  1.
       -3    1    3    3    0  502 -0.82119488149E+03  0.10224848235E+04 -0.25275569784E+03  0.13355604444E+04  0.10100000352E+00 0. -1.
</event>
<event>
 5   0  0.3557628E-07  0.2800121E+04  0.7818609E-02  0.8303231E-01
        2   -1    0    0  501    0  0.00000000000E+00  0.00000000000E+00  0.24653349827E+04  0.24653349827E+04  0.25500000920E-02 0.  1.
       -2   -1    0    0    0  501  0.00000000000E+00  0.00000000000E+00 -0.79509265383E+03  0.79509265383E+03  0.25500000920E-02 0. -1.
    10030    2    1    2    0    0  0.00000000000E+00  0.00000000000E+00  0.16702423289E+04  0.32604276365E+04  0.28001212359E+04 0.  0.
        5    1    3    3  502    0 -0.23760865830E+03  0.31875679581E+03  0.23982156492E+04  0.24309512870E+04  0.46999998093E+01 0.  1.
       -5    1    3    3    0  502  0.23760865830E+03 -0.31875679581E+03 -0.72797332035E+03  0.82947634958E+03  0.46999998093E+01 0. -1.
</event>
<event>
 5   0  0.1357902E-07  0.2800256E+04  0.7818609E-02  0.8303189E-01
       -1   -1    0    0    0  501  0.00000000000E+00  0.00000000000E+00  0.13994383442E+04  0.13994383443E+04  0.50400001928E-02 0. -1.
        1   -1    0    0  501    0  0.00000000000E+00  0.00000000000E+00 -0.14008181053E+04  0.14008181053E+04  0.50400001928E-02 0.  1.
    10030    2    1    2    0    0  0.00000000000E+00  0.00000000000E+00 -0.13797610385E+01  0.28002564495E+04  0.28002561096E+04 0.  0.
        4    1    3    3  502    0 -0.13000541787E+04  0.97283184361E+02 -0.51132882808E+03  0.14003798302E+04  0.12699999809E+01 0.  1.
       -4    1    3    3    0  502  0.13000541787E+04 -0.97283184361E+02  0.50994906704E+03  0.13998766193E+04  0.12699999809E+01 0. -1.
</event>
<event>
 5   0  0.3502141E-07  0.2795481E+04  0.7818609E-02  0.8304673E-01
        2   -1    0    0  501    0  0.00000000000E+00  0.00000000000E+00  0.31458237906E+04  0.31458237906E+04  0.25500000920E-02 0.  1.
       -2   -1    0    0    0  501  0.00000000000E+00  0.00000000000E+00 -0.62103874732E+03  0.62103874732E+03  0.25500000920E-02 0. -1.
    10030    2    1    2    0    0  0.00000000000E+00  0.00000000000E+00  0.25247850433E+04  0.37668625379E+04  0.27954809720E+04 0.  0.
        3    1    3    3  502    0  0.18740653205E+03  0.13783459274E+04  0.14467553152E+04  0.20070026547E+04  0.10100000352E+00 0.  1.
       -3    1    3    3    0  502 -0.18740653205E+03 -0.13783459274E+04  0.10780297281E+04  0.17598598832E+04  0.10100000352E+00 0. -1.
</event>
<event>
 5   0  0.3571498E-07  0.2801344E+04  0.7818609E-02  0.8302851E-01
        2   -1    0    0  501    0  0.00000000000E+00  0.00000000000E+00  0.17703836794E+04  0.17703836794E+04  0.25500000920E-02 0. -1.
       -2   -1    0    0    0  501  0.00000000000E+00  0.00000000000E+00 -0.11081676988E+04  0.11081676988E+04  0.25500000920E-02 0.  1.
    10030    2    1    2    0    0  0.00000000000E+00  0.00000000000E+00  0.66221598058E+03  0.28785513781E+04  0.28013439688E+04 0.  0.
        2    1    3    3  502    0  0.92857288199E+03  0.29564598393E+03 -0.70271620349E+03  0.12014425528E+04  0.25500000920E-02 0.  1.
       -2    1    3    3    0  502 -0.92857288199E+03 -0.29564598393E+03  0.13649321841E+04  0.16771088254E+04  0.25500000920E-02 0. -1.
</event>
<event>
 5   0  0.3406920E-07  0.2810517E+04  0.7818609E-02  0.8300011E-01
        2   -1    0    0  501    0  0.00000000000E+00  0.00000000000E+00  0.11803519361E+04  0.11803519361E+04  0.25500000920E-02 0.  1.
       -2   -1    0    0    0  501  0.00000000000E+00  0.00000000000E+00 -0.16730194296E+04  0.16730194296E+04  0.25500000920E-02 0. -1.
    10030    2    1    2    0    0  0.00000000000E+00  0.00000000000E+00 -0.49266749353E+03  0.28533713657E+04  0.28105171928E+04 0.  0.
        4    1    3    3  502    0  0.10484057218E+03 -0.55909666052E+03 -0.15509052262E+04  0.16519350032E+04  0.12699999809E+01 0. -1.
       -4    1    3    3    0  502 -0.10484057218E+03  0.55909666052E+03  0.10582377326E+04  0.12014363625E+04  0.12699999809E+01 0.  1.
</event>
<event>
 5   0  0.3502141E-07  0.2805545E+04  0.7818609E-02  0.8301549E-01
        2   -1    0    0  501    0  0.00000000000E+00  0.00000000000E+00  0.19811705832E+04  0.19811705832E+04  0.25500000920E-02 0.  1.
       -2   -1    0    0    0  501  0.00000000000E+00  0.00000000000E+00 -0.99323640882E+03  0.99323640883E+03  0.25500000920E-02 0. -1.
    10030    2    1    2    0    0  0.00000000000E+00  0.00000000000E+00  0.98793417433E+03  0.29744069920E+04  0.28055450489E+04 0.  0.
        3    1    3    3  502    0 -0.65417290157E+03 -0.99787054633E+03 -0.28804901967E+03  0.12274608182E+04  0.10100000352E+00 0. -1.
       -3    1    3    3    0  502  0.65417290157E+03  0.99787054633E+03  0.12759831940E+04  0.17469461737E+04  0.10100000352E+00 0.  1.
</event>
<event>
 5   0  0.3522569E-07  0.2797396E+04  0.7818609E-02  0.8304077E-01
        2   -1    0    0  501    0  0.00000000000E+00  0.00000000000E+00  0.15990694367E+04  0.15990694367E+04  0.25500000920E-02 0. -1.
       -2   -1    0    0    0  501  0.00000000000E+00  0.00000000000E+00 -0.12234337935E+04  0.12234337935E+04  0.25500000920E-02 0.  1.
    10030    2    1    2    0    0  0.00000000000E+00  0.00000000000E+00  0.37563564318E+03  0.28225032302E+04  0.27973956367E+04 0.  0.
        1    1    3    3  502    0 -0.10882754104E+04 -0.36963444895E+02 -0.69792572482E+03  0.12933715563E+04  0.50400001928E-02 0.  1.
       -1    1    3    3    0  502  0.10882754104E+04  0.36963444895E+02  0.10735613680E+04  0.15291316739E+04  0.50400001928E-02 0. -1.
</event>
<event>
 5   0  0.3522569E-07  0.2804314E+04  0.7818609E-02  0.8301930E-01
        2   -1    0    0  501    0  0.00000000000E+00  0.00000000000E+00  0.16765974568E+04  0.16765974568E+04  0.25500000920E-02 0. -1.
       -2   -1    0    0    0  501  0.00000000000E+00  0.00000000000E+00 -0.11726396740E+04  0.11726396740E+04  0.25500000920E-02 0.  1.
    10030    2    1    2    0    0  0.00000000000E+00  0.00000000000E+00  0.50395778281E+03  0.28492371307E+04  0.28043143155E+04 0.  0.
        1    1    3    3  502    0  0.81753546378E+03 -0.93960545491E+03  0.90636311861E+03  0.15403625379E+04  0.50400001928E-02 0. -1.
       -1    1    3    3    0  502 -0.81753546378E+03  0.93960545491E+03 -0.40240533580E+03  0.13088745928E+04  0.50400001928E-02 0.  1.
</event>
<event>
 5   0  0.1346049E-07  0.2799654E+04  0.7818609E-02  0.8303376E-01
        1   -1    0    0  501    0  0.00000000000E+00  0.00000000000E+00  0.29186794145E+04  0.29186794145E+04  0.50400001928E-02 0. -1.
       -1   -1    0    0    0  501  0.00000000000E+00  0.00000000000E+00 -0.67137051451E+03  0.67137051453E+03  0.50400001928E-02 0.  1.
    10030    2    1    2    0    0  0.00000000000E+00  0.00000000000E+00  0.22473088999E+04  0.35900499290E+04  0.27996537645E+04 0.  0.
        1    1    3    3  502    0  0.60366507514E+03 -0.10344464354E+04  0.20528045678E+04  0.23766567998E+04  0.50400001928E-02 0. -1.
       -1    1    3    3    0  502 -0.60366507514E+03  0.10344464354E+04  0.19450433220E+03  0.12133931292E+04  0.50400001928E-02 0.  1.
</event>
<event>
 5   0  0.1366235E-07  0.2799840E+04  0.7818609E-02  0.8303318E-01
       -1   -1    0    0    0  501  0.00000000000E+00  0.00000000000E+00  0.13290103516E+04  0.13290103516E+04  0.50400001928E-02 0.  1.
        1   -1    0    0  501    0  0.00000000000E+00  0.00000000000E+00 -0.14746125596E+04  0.14746125596E+04  0.50400001928E-02 0. -1.
    10030    2    1    2    0    0  0.00000000000E+00  0.00000000000E+00 -0.14560220794E+03  0.28036229112E+04  0.27998395356E+04 0.  0.
        2    1    3    3  502    0 -0.21157631829E+03 -0.12473065268E+04 -0.67297504912E+03  0.14329806443E+04  0.25500000920E-02 0. -1.
       -2    1    3    3    0  502  0.21157631829E+03  0.12473065268E+04  0.52737284117E+03  0.13706422669E+04  0.25500000920E-02 0.  1.
</event>
<event>
 5   0  0.3522569E-07  0.2799620E+04  0.7818609E-02  0.8303386E-01
       -2   -1    0    0    0  501  0.00000000000E+00  0.00000000000E+00  0.25392252528E+04  0.25392252528E+04  0.25500000920E-02 0. -1.
        2   -1    0    0  501    0  0.00000000000E+00  0.00000000000E+00 -0.77167970382E+03  0.77167970383E+03  0.25500000920E-02 0.  1.
    10030    2    1    2    0    0  0.00000000000E+00  0.00000000000E+00  0.17675455490E+04  0.33109049566E+04  0.27996203964E+04 0.  0.
        1    1    3    3  502    0 -0.25150217949E+03 -0.11882662996E+04  0.17067298789E+04  0.20947928357E+04  0.50400001928E-02 0. -1.
       -1    1    3    3    0  502  0.25150217949E+03  0.11882662996E+04  0.60815670097E+02  0.12161121209E+04  0.50400001928E-02 0.  1.
</event>
<event>
 5   0  0.1361741E-07  0.2800440E+04  0.7818609E-02  0.8303132E-01
        1   -1    0    0  501    0  0.00000000000E+00  0.00000000000E+00  0.80986519700E+03  0.80986519702E+03  0.50400001928E-02 0. -1.
       -1   -1    0    0    0  501  0.00000000000E+00  0.00000000000E+00 -0.24209157553E+04  0.24209157553E+04  0.50400001928E-02 0.  1.
    10030    2    1    2    0    0  0.00000000000E+00  0.00000000000E+00 -0.16110505583E+04  0.32307809523E+04  0.28004395477E+04 0.  0.
        5    1    3    3  502    0 -0.74344243693E+03  0.11612276382E+04 -0.10867865272E+04  0.17556432811E+04  0.46999998093E+01 0.  1.
       -5    1    3    3    0  502  0.74344243693E+03 -0.11612276382E+04 -0.52426403106E+03  0.14751376712E+04  0.46999998093E+01 0. -1.
</event>
<event>
 5   0  0.3557628E-07  0.2799269E+04  0.7818609E-02  0.8303495E-01
        2   -1    0    0  501    0  0.00000000000E+00  0.00000000000E+00  0.15098915590E+04  0.15098915590E+04  0.25500000920E-02 0.  1.
       -2   -1    0    0    0  501  0.00000000000E+00  0.00000000000E+00 -0.12974291828E+04  0.12974291828E+04  0.25500000920E-02 0. -1.
    10030    2    1    2    0    0  0.00000000000E+00  0.00000000000E+00  0.21246237616E+03  0.28073207417E+04  0.27992694557E+04 0.  0.
        5    1    3    3  502    0  0.29687532697E+03 -0.13591567493E+04  0.26001254274E+03  0.14152987817E+04  0.46999998093E+01 0.  1.
       -5    1    3    3    0  502 -0.29687532697E+03  0.13591567493E+04 -0.47550166579E+02  0.13920219601E+04  0.46999998093E+01 0. -1.
</event>
<event>
 5   0  0.1374680E-07  0.2800235E+04  0.7818609E-02  0.8303195E-01
       -1   -1    0    0    0  501  0.00000000000E+00  0.00000000000E+00  0.16738816845E+04  0.16738816845E+04  0.50400001928E-02 0.  1.
        1   -1    0    0  501    0  0.00000000000E+00  0.00000000000E+00 -0.11711274816E+04  0.11711274816E+04  0.50400001928E-02 0. -1.
    10030    2    1    2    0    0  0.00000000000E+00  0.00000000000E+00  0.50275420292E+03  0.28450091661E+04  0.28002348771E+04 0.  0.
        3    1    3    3  502    0 -0.89780405189E+03  0.26149594143E+03 -0.80734857025E+03  0.12354124684E+04  0.10100000352E+00 0. -1.
       -3    1    3    3    0  502  0.89780405189E+03 -0.26149594143E+03  0.13101027732E+04  0.16095966978E+04  0.10100000352E+00 0.  1.
</event>
<event>
 5   0  0.3571498E-07  0.2799927E+04  0.7818609E-02  0.8303291E-01
        2   -1    0    0  501    0  0.00000000000E+00  0.00000000000E+00  0.23075279218E+04  0.23075279218E+04  0.25500000920E-02 0. -1.
       -2   -1    0    0    0  501  0.00000000000E+00  0.00000000000E+00 -0.84934977746E+03  0.84934977747E+03  0.25500000920E-02 0.  1.
    10030    2    1    2    0    0  0.00000000000E+00  0.00000000000E+00  0.14581781444E+04  0.31568776993E+04  0.27999273754E+04 0.  0.
        2    1    3    3  502    0  0.13226267548E+03 -0.41138270499E+03 -0.77227520313E+03  0.88495092217E+03  0.25500000920E-02 0.  1.
       -2    1    3    3    0  502 -0.13226267548E+03  0.41138270499E+03  0.22304533475E+04  0.22719267771E+04  0.25500000920E-02 0. -1.
</event>
<event>
 5   0  0.1357902E-07  0.2800788E+04  0.7818609E-02  0.8303024E-01
        1   -1    0    0  501    0  0.00000000000E+00  0.00000000000E+00  0.22307219505E+04  0.22307219505E+04  0.50400001928E-02 0. -1.
       -1   -1    0    0    0  501  0.00000000000E+00  0.00000000000E+00 -0.87913413771E+03  0.87913413772E+03  0.50400001928E-02 0.  1.
    10030    2    1    2    0    0  0.00000000000E+00  0.00000000000E+00  0.13515878128E+04  0.31098560882E+04  0.28007883307E+04 0.  0.
        4    1    3    3  502    0  0.83674060246E+03 -0.49033428650E+03  0.17974893263E+04  0.20424328727E+04  0.12699999809E+01 0.  1.
       -4    1    3    3    0  502 -0.83674060246E+03  0.49033428650E+03 -0.44590151355E+03  0.10674232155E+04  0.12699999809E+01 0. -1.
</event>
<event>
 5   0  0.1361741E-07  0.2799016E+04  0.7818609E-02  0.8303574E-01
        1   -1    0    0  501    0  0.00000000000E+00  0.00000000000E+00  0.15995930770E+04  0.15995930770E+04  0.50400001928E-02 0. -1.
       -1   -1    0    0    0  501  0.00000000000E+00  0.00000000000E+00 -0.12244504292E+04  0.12244504293E+04  0.50400001928E-02 0.  1.
    10030    2    1    2    0    0  0.00000000000E+00  0.00000000000E+00  0.37514264778E+03  0.28240435063E+04  0.27990158483E+04 0.  0.
        5    1    3    3  502    0 -0.11703799805E+04 -0.56001560831E+03 -0.34170827990E+03  0.13417128675E+04  0.46999998093E+01 0.  1.
       -5    1    3    3    0  502  0.11703799805E+04  0.56001560831E+03  0.71685092768E+03  0.14823306388E+04  0.46999998093E+01 0. -1.
</event>
<event>
 5   0  0.1346049E-07  0.2801097E+04  0.7818609E-02  0.8302928E-01
       -1   -1    0    0    0  501  0.00000000000E+00  0.00000000000E+00  0.14625069008E+04  0.14625069008E+04  0.50400001928E-02 0.  1.
        1   -1    0    0  501    0  0.00000000000E+00  0.00000000000E+00 -0.13412153290E+04  0.13412153290E+04  0.50400001928E-02 0. -1.
    10030    2    1    2    0    0  0.00000000000E+00  0.00000000000E+00  0.12129157178E+03  0.28037222298E+04  0.28010974093E+04 0.  0.
        1    1    3    3  502    0 -0.11724889540E+04 -0.49097819963E+03  0.64919910961E+03  0.14273224666E+04  0.50400001928E-02 0.  1.
       -1    1    3    3    0  502  0.11724889540E+04  0.49097819963E+03 -0.52790753783E+03  0.13763997632E+04  0.50400001928E-02 0. -1.
</event>
<event>
 5   0  0.1366235E-07  0.2799481E+04  0.7818609E-02  0.8303430E-01
        1   -1    0    0  501    0  0.00000000000E+00  0.00000000000E+00  0.17518578194E+04  0.17518578194E+04  0.50400001928E-02 0.  1.
       -1   -1    0    0    0  501  0.00000000000E+00  0.00000000000E+00 -0.11183971718E+04  0.11183971718E+04  0.50400001928E-02 0. -1.
    10030    2    1    2    0    0  0.00000000000E+00  0.00000000000E+00  0.63346064755E+03  0.28702549912E+04  0.27994805451E+04 0.  0.
        2    1    3    3  502    0 -0.31932893307E+03  0.59448246881E+03 -0.94060587095E+03  0.11576354252E+04  0.25500000920E-02 0. -1.
       -2    1    3    3    0  502  0.31932893307E+03 -0.59448246881E+03  0.15740665185E+04  0.17126195660E+04  0.25500000920E-02 0.  1.
</event>
<event>
 5   0  0.3502141E-07  0.2800242E+04  0.7818609E-02  0.8303193E-01
       -2   -1    0    0    0  501  0.00000000000E+00  0.00000000000E+00  0.96095001840E+03  0.96095001840E+03  0.25500000920E-02 0. -1.
        2   -1    0    0  501    0  0.00000000000E+00  0.00000000000E+00 -0.20400012628E+04  0.20400012628E+04  0.25500000920E-02 0.  1.
    10030    2    1    2    0    0  0.00000000000E+00  0.00000000000E+00 -0.10790512444E+04  0.30009512812E+04  0.28002423117E+04 0.  0.
        3    1    3    3  502    0  0.50607033644E+03  0.74798272170E+03  0.60709407487E+03  0.10881859048E+04  0.10100000352E+00 0. -1.
       -3    1    3    3    0  502 -0.50607033644E+03 -0.74798272170E+03 -0.16861453193E+04  0.19127653764E+04  0.10100000352E+00 0.  1.
</event>
<event>
 5   0  0.3522569E-07  0.2800922E+04  0.7818609E-02  0.8302982E-01
        2   -1    0    0  501    0  0.00000000000E+00  0.00000000000E+00  0.11568748491E+04  0.11568748491E+04  0.25500000920E-02 0.  1.
       -2   -1    0    0    0  501  0.00000000000E+00  0.00000000000E+00 -0.16953352499E+04  0.16953352499E+04  0.25500000920E-02 0. -1.
    10030    2    1    2    0    0  0.00000000000E+00  0.00000000000E+00 -0.53846040080E+03  0.28522100991E+04  0.28009217851E+04 0.  0.
        1    1    3    3  502    0  0.61623451838E+03  0.61742504842E+03  0.84642817758E+03  0.12154831681E+04  0.50400001928E-02 0.  1.
       -1    1    3    3    0  502 -0.61623451838E+03 -0.61742504842E+03 -0.13848885784E+04  0.16367269310E+04  0.50400001928E-02 0. -1.
</event>
<event>
 5   0  0.1366235E-07  0.2799876E+04  0.7818609E-02  0.8303307E-01
       -1   -1    0    0    0  501  0.00000000000E+00  0.00000000000E+00  0.96694484160E+03  0.96694484161E+03  0.50400001928E-02 0. -1.
        1   -1    0    0  501    0  0.00000000000E+00  0.00000000000E+00 -0.20268232021E+04  0.20268232021E+04  0.50400001928E-02 0.  1.
    10030    2    1    2    0    0  0.00000000000E+00  0.00000000000E+00 -0.10598783605E+04  0.29937680437E+04  0.27998758830E+04 0.  0.
        2    1    3    3  502    0 -0.42603931126E+03  0.11217767567E+04  0.24105896441E+03  0.12239289239E+04  0.25500000920E-02 0. -1.
       -2    1    3    3    0  502  0.42603931126E+03 -0.11217767567E+04 -0.13009373249E+04  0.17698391198E+04  0.25500000920E-02 0.  1.
</event>
<event>
 5   0  0.1357902E-07  0.2799406E+04  0.7818609E-02  0.8303453E-01
       -1   -1    0    0    0  501  0.00000000000E+00  0.00000000000E+00  0.10079060942E+04  0.10079060942E+04  0.50400001928E-02 0.  1.
        1   -1    0    0  501    0  0.00000000000E+00  0.00000000000E+00 -0.19438012096E+04  0.19438012096E+04  0.50400001928E-02 0. -1.
    10030    2    1    2    0    0  0.00000000000E+00  0.00000000000E+00 -0.93589511543E+03  0.29517073038E+04  0.27994064264E+04 0.  0.
        4    1    3    3  502    0 -0.71065702344E+03  0.80320089885E+03 -0.14163272267E+04  0.17765555198E+04  0.12699999809E+01 0. -1.
       -4    1    3    3    0  502  0.71065702344E+03 -0.80320089885E+03  0.48043211129E+03  0.11751517840E+04  0.12699999809E+01 0.  1.
</event>
<event>
 5   0  0.1374680E-07  0.2799599E+04  0.7818609E-02  0.8303393E-01
       -1   -1    0    0    0  501  0.00000000000E+00  0.00000000000E+00  0.12902087284E+04  0.12902087284E+04  0.50400001928E-02 0. -1.
        1   -1    0    0  501    0  0.00000000000E+00  0.00000000000E+00 -0.15186984609E+04  0.15186984609E+04  0.50400001928E-02 0.  1.
    10030    2    1    2    0    0  0.00000000000E+00  0.00000000000E+00 -0.22848973253E+03  0.28089071894E+04  0.27995985499E+04 0.  0.
        3    1    3    3  502    0 -0.75061411242E+03  0.60133459920E+03  0.90619788983E+03  0.13214459776E+04  0.10100000352E+00 0. -1.
       -3    1    3    3    0  502  0.75061411242E+03 -0.60133459920E+03 -0.11346876224E+04  0.14874612118E+04  0.10100000352E+00 0.  1.
</event>
<event>
 5   0  0.1357902E-07  0.2800190E+04  0.7818609E-02  0.8303209E-01
        1   -1    0    0  501    0  0.00000000000E+00  0.00000000000E+00  0.98658593974E+03  0.98658593975E+03  0.50400001928E-02 0. -1.
       -1   -1    0    0    0  501  0.00000000000E+00  0.00000000000E+00 -0.19869180918E+04  0.19869180918E+04  0.50400001928E-02 0.  1.
    10030    2    1    2    0    0  0.00000000000E+00  0.00000000000E+00 -0.10003321520E+04  0.29735040315E+04  0.28001896027E+04 0.  0.
        4    1    3    3  502    0 -0.12190638052E+04 -0.67098831328E+03 -0.66440628620E+03  0.15420049299E+04  0.12699999809E+01 0.  1.
       -4    1    3    3    0  502  0.12190638052E+04  0.67098831328E+03 -0.33592586581E+03  0.14314991016E+04  0.12699999809E+01 0. -1.
</event>
<event>
 5   0  0.3571498E-07  0.2803622E+04  0.7818609E-02  0.8302145E-01
       -2   -1    0    0    0  501  0.00000000000E+00  0.00000000000E+00  0.15458869826E+04  0.15458869826E+04  0.25500000920E-02 0.  1.
        2   -1    0    0  501    0  0.00000000000E+00  0.00000000000E+00 -0.12711630062E+04  0.12711630062E+04  0.25500000920E-02 0. -1.
    10030    2    1    2    0    0  0.00000000000E+00  0.00000000000E+00  0.27472397638E+03  0.28170499887E+04  0.28036221885E+04 0.  0.
        2    1    3    3  502    0  0.66212501035E+03  0.90556019099E+03 -0.70727429787E+03  0.13261544862E+04  0.25500000920E-02 0. -1.
       -2    1    3    3    0  502 -0.66212501035E+03 -0.90556019099E+03  0.98199827425E+03  0.14908955025E+04  0.25500000920E-02 0.  1.
</event>
<event>
 5   0  0.3522569E-07  0.2792713E+04  0.7818609E-02  0.8305534E-01
        2   -1    0    0  501    0  0.00000000000E+00  0.00000000000E+00  0.20466080343E+04  0.20466080343E+04  0.25500000920E-02 0. -1.
       -2   -1    0    0    0  501  0.00000000000E+00  0.00000000000E+00 -0.95270397270E+03  0.95270397270E+03  0.25500000920E-02 0.  1.
    10030    2    1    2    0    0  0.00000000000E+00  0.00000000000E+00  0.10939040616E+04  0.29993120071E+04  0.27927130930E+04 0.  0.
        1    1    3    3  502    0 -0.63623500589E+03 -0.42401382197E+03  0.18018200802E+04  0.19573293809E+04  0.50400001928E-02 0. -1.
       -1    1    3    3    0  502  0.63623500589E+03  0.42401382197E+03 -0.70791601852E+03  0.10419826262E+04  0.50400001928E-02 0.  1.
</event>
<event>
 5   0  0.1346049E-07  0.2799340E+04  0.7818609E-02  0.8303473E-01
        1   -1    0    0  501    0  0.00000000000E+00  0.00000000000E+00  0.20001840328E+04  0.20001840328E+04  0.50400001928E-02 0.  1.
       -1   -1    0    0    0  501  0.00000000000E+00  0.00000000000E+00 -0.97944777834E+03  0.97944777835E+03  0.50400001928E-02 0. -1.
    10030    2    1    2    0    0  0.00000000000E+00  0.00000000000E+00  0.10207362545E+04  0.29796318111E+04  0.27993397845E+04 0.  0.
        1    1    3    3  502    0 -0.44635108897E+03 -0.79777017555E+03 -0.61780560960E+03  0.11033359955E+04  0.50400001928E-02 0. -1.
       -1    1    3    3    0  502  0.44635108897E+03  0.79777017555E+03  0.16385418640E+04  0.18762958157E+04  0.50400001928E-02 0.  1.
</event>
<event>
 5   0  0.3571498E-07  0.2797059E+04  0.7818609E-02  0.8304182E-01
        2   -1    0    0  501    0  0.00000000000E+00  0.00000000000E+00  0.77432527705E+03  0.77432527705E+03  0.25500000920E-02 0.  1.
       -2   -1    0    0    0  501  0.00000000000E+00  0.00000000000E+00 -0.25259219139E+04  0.25259219139E+04  0.25500000920E-02 0. -1.
    10030    2    1    2    0    0  0.00000000000E+00  0.00000000000E+00 -0.17515966369E+04  0.33002471910E+04  0.27970593028E+04 0.  0.
        2    1    3    3  502    0 -0.85878125086E+03  0.11016306647E+04 -0.95745744663E+03  0.16934639412E+04  0.25500000920E-02 0. -1.
       -2    1    3    3    0  502  0.85878125086E+03 -0.11016306647E+04 -0.79413919023E+03  0.16067832497E+04  0.25500000920E-02 0.  1.
</event>
<event>
 5   0  0.1374680E-07  0.2799249E+04  0.7818609E-02  0.8303502E-01
       -1   -1    0    0    0  501  0.00000000000E+00  0.00000000000E+00  0.18771328844E+04  0.18771328844E+04  0.50400001928E-02 0. -1.
        1   -1    0    0  501    0  0.00000000000E+00  0.00000000000E+00 -0.10435856017E+04  0.10435856017E+04  0.50400001928E-02 0.  1.
    10030    2    1    2    0    0  0.00000000000E+00  0.00000000000E+00  0.83354728275E+03  0.29207184861E+04  0.27992490783E+04 0.  0.
        3    1    3    3  502    0  0.53883989464E+03 -0.16964237383E+03  0.17528968048E+04  0.18416770036E+04  0.10100000352E+00 0. -1.
       -3    1    3    3    0  502 -0.53883989464E+03  0.16964237383E+03 -0.91934952206E+03  0.10790414825E+04  0.10100000352E+00 0.  1.
</event>
<event>
 5   0  0.3522569E-07  0.2800238E+04  0.7818609E-02  0.8303194E-01
       -2   -1    0    0    0  501  0.00000000000E+00  0.00000000000E+00  0.74196701204E+03  0.74196701204E+03  0.25500000920E-02 0. -1.
        2   -1    0    0  501    0  0.00000000000E+00  0.00000000000E+00 -0.26420758852E+04  0.26420758852E+04  0.25500000920E-02 0.  1.
    10030    2    1    2    0    0  0.00000000000E+00  0.00000000000E+00 -0.19001088732E+04  0.33840428973E+04  0.28002379543E+04 0.  0.
        1    1    3    3  502    0 -0.10423607058E+04  0.92134281995E+03 -0.75918771464E+03  0.15848515448E+04  0.50400001928E-02 0. -1.
       -1    1    3    3    0  502  0.10423607058E+04 -0.92134281995E+03 -0.11409211585E+04  0.17991913525E+04  0.50400001928E-02 0.  1.
</event>
<event>
 5   0  0.1374680E-07  0.2812123E+04  0.7818609E-02  0.8299515E-01
       -1   -1    0    0    0  501  0.00000000000E+00  0.00000000000E+00  0.13214663104E+04  0.13214663104E+04  0.50400001928E-02 0.  1.
        1   -1    0    0  501    0  0.00000000000E+00  0.00000000000E+00 -0.14960719297E+04  0.14960719297E+04  0.50400001928E-02 0. -1.
    10030    2    1    2    0    0  0.00000000000E+00  0.00000000000E+00 -0.17460561934E+03  0.28175382401E+04  0.28121227946E+04 0.  0.
        3    1    3    3  502    0  0.11892792681E+04  0.36203691073E+03  0.57088900609E+03  0.13679803251E+04  0.10100000352E+00 0.  1.
       -3    1    3    3    0  502 -0.11892792681E+04 -0.36203691073E+03 -0.74549462543E+03  0.14495579150E+04  0.10100000352E+00 0. -1.
</event>
<event>
 5   0  0.3557628E-07  0.2800030E+04  0.7818609E-02  0.8303259E-01
        2   -1    0    0  501    0  0.00000000000E+00  0.00000000000E+00  0.21430737033E+04  0.21430737033E+04  0.25500000920E-02 0.  1.
       -2   -1    0    0    0  501  0.00000000000E+00  0.00000000000E+00 -0.91459409076E+03  0.91459409076E+03  0.25500000920E-02 0. -1.
    10030    2    1    2    0    0  0.00000000000E+00  0.00000000000E+00  0.12284796126E+04  0.30576677941E+04  0.28000303892E+04 0.  0.
        5    1    3    3  502    0  0.69387722236E+03 -0.90199474287E+03 -0.27624276882E+03  0.11710645897E+04  0.46999998093E+01 0. -1.
       -5    1    3    3    0  502 -0.69387722236E+03  0.90199474287E+03  0.15047223814E+04  0.18866032044E+04  0.46999998093E+01 0.  1.
</event>
<event>
 5   0  0.3522569E-07  0.2799709E+04  0.7818609E-02  0.8303359E-01
       -2   -1    0    0    0  501  0.00000000000E+00  0.00000000000E+00  0.11927673550E+04  0.11927673550E+04  0.25500000920E-02 0.  1.
        2   -1    0    0  501    0  0.00000000000E+00  0.00000000000E+00 -0.16428953368E+04  0.16428953368E+04  0.25500000920E-02 0. -1.
    10030    2    1    2    0    0  0.00000000000E+00  0.00000000000E+00 -0.45012798171E+03  0.28356626918E+04  0.27997085030E+04 0.  0.
        1    1    3    3  502    0  0.58933615693E+03 -0.10334234068E+04  0.52218486960E+03  0.12992144094E+04  0.50400001928E-02 0.  1.
       -1    1    3    3    0  502 -0.58933615693E+03  0.10334234068E+04 -0.97231285131E+03  0.15364482824E+04  0.50400001928E-02 0. -1.
</event>
<event>
 5   0  0.1366235E-07  0.2803332E+04  0.7818609E-02  0.8302235E-01
        1   -1    0    0  501    0  0.00000000000E+00  0.00000000000E+00  0.25765912714E+04  0.25765912714E+04  0.50400001928E-02 0. -1.
       -1   -1    0    0    0  501  0.00000000000E+00  0.00000000000E+00 -0.76250657781E+03  0.76250657782E+03  0.50400001928E-02 0.  1.
    10030    2    1    2    0    0  0.00000000000E+00  0.00000000000E+00  0.18140846936E+04  0.33390978492E+04  0.28033321550E+04 0.  0.
        2    1    3    3  502    0  0.10691985460E+04 -0.47207240860E+03 -0.14539244107E+02  0.11688666645E+04  0.25500000920E-02 0.  1.
       -2    1    3    3    0  502 -0.10691985460E+04  0.47207240860E+03  0.18286239377E+04  0.21702311848E+04  0.25500000920E-02 0. -1.
</event>
<event>
 5   0  0.3571498E-07  0.2799916E+04  0.7818609E-02  0.8303294E-01
        2   -1    0    0  501    0  0.00000000000E+00  0.00000000000E+00  0.20636786842E+04  0.20636786842E+04  0.25500000920E-02 0. -1.
       -2   -1    0    0    0  501  0.00000000000E+00  0.00000000000E+00 -0.94970328909E+03  0.94970328910E+03  0.25500000920E-02 0.  1.
    10030    2    1    2    0    0  0.00000000000E+00  0.00000000000E+00  0.11139753951E+04  0.30133819733E+04  0.27999160230E+04 0.  0.
        2    1    3    3  502    0  0.66439316885E+03 -0.65769409876E+03 -0.56452610082E+03  0.10920941026E+04  0.25500000920E-02 0.  1.
       -2    1    3    3    0  502 -0.66439316885E+03  0.65769409876E+03  0.16785014959E+04  0.19212878707E+04  0.25500000920E-02 0. -1.
</event>
<event>
 5   0  0.3522569E-07  0.2798800E+04  0.7818609E-02  0.8303641E-01
        2   -1    0    0  501    0  0.00000000000E+00  0.00000000000E+00  0.22139616158E+04  0.22139616158E+04  0.25500000920E-02 0. -1.
       -2   -1    0    0    0  501  0.00000000000E+00  0.00000000000E+00 -0.88453207526E+03  0.88453207526E+03  0.25500000920E-02 0.  1.
    10030    2    1    2    0    0  0.00000000000E+00  0.00000000000E+00  0.13294295405E+04  0.30984936911E+04  0.27987997875E+04 0.  0.
        1    1    3    3  502    0  0.12124977080E+03 -0.10625394866E+04  0.16639288752E+04  0.19779663721E+04  0.50400001928E-02 0. -1.
       -1    1    3    3    0  502 -0.12124977080E+03  0.10625394866E+04 -0.33449933468E+03  0.11205273189E+04  0.50400001928E-02 0.  1.
</event>
<event>
 5   0  0.1366235E-07  0.2799722E+04  0.7818609E-02  0.8303355E-01
       -1   -1    0    0    0  501  0.00000000000E+00  0.00000000000E+00  0.10550172952E+04  0.10550172952E+04  0.50400001928E-02 0. -1.
        1   -1    0    0  501    0  0.00000000000E+00  0.00000000000E+00 -0.18574202962E+04  0.18574202962E+04  0.50400001928E-02 0.  1.
    10030    2    1    2    0    0  0.00000000000E+00  0.00000000000E+00 -0.80240300097E+03  0.29124375914E+04  0.27997217983E+04 0.  0.
        2    1    3    3  502    0 -0.11468764443E+04  0.43767958894E+03  0.29873287996E+03  0.12633805186E+04  0.25500000920E-02 0. -1.
       -2    1    3    3    0  502  0.11468764443E+04 -0.43767958894E+03 -0.11011358809E+04  0.16490570728E+04  0.25500000920E-02 0.  1.
</event>
<event>
 5   0  0.1357902E-07  0.2800409E+04  0.7818609E-02  0.8303141E-01
        1   -1    0    0  501    0  0.00000000000E+00  0.00000000000E+00  0.11597498707E+04  0.11597498707E+04  0.50400001928E-02 0.  1.
       -1   -1    0    0    0  501  0.00000000000E+00  0.00000000000E+00 -0.16905129717E+04  0.16905129717E+04  0.50400001928E-02 0. -1.
    10030    2    1    2    0    0  0.00000000000E+00  0.00000000000E+00 -0.53076310097E+03  0.28502628424E+04  0.28004086848E+04 0.  0.
        4    1    3    3  502    0 -0.13674551054E+04  0.28870865860E+03 -0.17851324208E+03  0.14089551963E+04  0.12699999809E+01 0.  1.
       -4    1    3    3    0  502  0.13674551054E+04 -0.28870865860E+03 -0.35224985888E+03  0.14413076461E+04  0.12699999809E+01 0. -1.
</event>
<event>
 5   0  0.3557628E-07  0.2801679E+04  0.7818609E-02  0.8302747E-01
       -2   -1    0    0    0  501  0.00000000000E+00  0.00000000000E+00  0.11110330547E+04  0.11110330547E+04  0.25500000920E-02 0.  1.
        2   -1    0    0  501    0  0.00000000000E+00  0.00000000000E+00 -0.17662403166E+04  0.17662403166E+04  0.25500000920E-02 0. -1.
    10030    2    1    2    0    0  0.00000000000E+00  0.00000000000E+00 -0.65520726184E+03  0.28772733713E+04  0.28016790497E+04 0.  0.
        5    1    3    3  502    0 -0.72715096409E+03 -0.11815518221E+04 -0.52652035808E+03  0.14839336273E+04  0.46999998093E+01 0.  1.
       -5    1    3    3    0  502  0.72715096409E+03  0.11815518221E+04 -0.12868690376E+03  0.13933397440E+04  0.46999998093E+01 0. -1.
</event>
<event>
 5   0  0.1361741E-07  0.2800292E+04  0.7818609E-02  0.8303178E-01
       -1   -1    0    0    0  501  0.00000000000E+00  0.00000000000E+00  0.12440457453E+04  0.12440457453E+04  0.50400001928E-02 0.  1.
        1   -1    0    0  501    0  0.00000000000E+00  0.00000000000E+00 -0.15758332565E+04  0.15758332565E+04  0.50400001928E-02 0. -1.
    10030    2    1    2    0    0  0.00000000000E+00  0.00000000000E+00 -0.33178751123E+03  0.28198790018E+04  0.28002918834E+04 0.  0.
        5    1    3    3  502    0 -0.79128594064E+03 -0.30991911793E+02  0.99686578367E+03  0.12731289876E+04  0.46999998093E+01 0.  1.
       -5    1    3    3    0  502  0.79128594064E+03  0.30991911793E+02 -0.13286532949E+04  0.15467500142E+04  0.46999998093E+01 0. -1.
</event>
<event>
 5   0  0.1374680E-07  0.2799798E+04  0.7818609E-02  0.8303331E-01
       -1   -1    0    0    0  501  0.00000000000E+00  0.00000000000E+00  0.12225642054E+04  0.12225642054E+04  0.50400001928E-02 0.  1.
        1   -1    0    0  501    0  0.00000000000E+00  0.00000000000E+00 -0.16029562973E+04  0.16029562973E+04  0.50400001928E-02 0. -1.
    10030    2    1    2    0    0  0.00000000000E+00  0.00000000000E+00 -0.38039209185E+03  0.28255205027E+04  0.27997978441E+04 0.  0.
        3    1    3    3  502    0 -0.23806602511E+03 -0.41332883580E+03 -0.15184187772E+04  0.15915752423E+04  0.10100000352E+00 0. -1.
       -3    1    3    3    0  502  0.23806602511E+03  0.41332883580E+03  0.11380266854E+04  0.12339452604E+04  0.10100000352E+00 0.  1.
</event>
<event>
 5   0  0.3502141E-07  0.2799178E+04  0.7818609E-02  0.8303524E-01
       -2   -1    0    0    0  501  0.00000000000E+00  0.00000000000E+00  0.99664511389E+03  0.99664511390E+03  0.25500000920E-02 0.  1.
        2   -1    0    0  501    0  0.00000000000E+00  0.00000000000E+00 -0.19654428635E+04  0.19654428635E+04  0.25500000920E-02 0. -1.
    10030    2    1    2    0    0  0.00000000000E+00  0.00000000000E+00 -0.96879774957E+03  0.29620879774E+04  0.27991777553E+04 0.  0.
        3    1    3    3  502    0  0.11439059294E+04 -0.39075979998E+03  0.26208931768E+03  0.12368932118E+04  0.10100000352E+00 0.  1.
       -3    1    3    3    0  502 -0.11439059294E+04  0.39075979998E+03 -0.12308870672E+04  0.17251947656E+04  0.10100000352E+00 0. -1.
</event>
<event>
 5   0  0.3557628E-07  0.2800524E+04  0.7818609E-02  0.8303106E-01
        2   -1    0    0  501    0  0.00000000000E+00  0.00000000000E+00  0.17379398294E+04  0.17379398294E+04  0.25500000920E-02 0.  1.
       -2   -1    0    0    0  501  0.00000000000E+00  0.00000000000E+00 -0.11281940033E+04  0.11281940033E+04  0.25500000920E-02 0. -1.
    10030    2    1    2    0    0  0.00000000000E+00  0.00000000000E+00  0.60974582618E+03  0.28661338327E+04  0.28005237322E+04 0.  0.
        5    1    3    3  502    0 -0.46032415968E+03 -0.66985412836E+03 -0.86206292258E+03  0.11848111486E+04  0.46999998093E+01 0. -1.
       -5    1    3    3    0  502  0.46032415968E+03  0.66985412836E+03  0.14718087488E+04  0.16813226841E+04  0.46999998093E+01 0.  1.
</event>
<event>
 5   0  0.1361741E-07  0.2799787E+04  0.7818609E-02  0.8303334E-01
       -1   -1    0    0    0  501  0.00000000000E+00  0.00000000000E+00  0.97016627354E+03  0.97016627356E+03  0.50400001928E-02 0.  1.
        1   -1    0    0  501    0  0.00000000000E+00  0.00000000000E+00 -0.20199654939E+04  0.20199654939E+04  0.50400001928E-02 0. -1.
    10030    2    1    2    0    0  0.00000000000E+00  0.00000000000E+00 -0.10497992204E+04  0.29901317675E+04  0.27997874176E+04 0.  0.
        5    1    3    3  502    0  0.42650315674E+03  0.36361848256E+03  0.84510405717E+03  0.10140741102E+04  0.46999998093E+01 0.  1.
       -5    1    3    3    0  502 -0.42650315674E+03 -0.36361848256E+03 -0.18949032775E+04  0.19760576573E+04  0.46999998093E+01 0. -1.
</event>
<event>
 5   0  0.1366235E-07  0.2798319E+04  0.7818609E-02  0.8303790E-01
       -1   -1    0    0    0  501  0.00000000000E+00  0.00000000000E+00  0.92285136395E+03  0.92285136396E+03  0.50400001928E-02 0. -1.
        1   -1    0    0  501    0  0.00000000000E+00  0.00000000000E+00 -0.21213032627E+04  0.21213032627E+04  0.50400001928E-02 0.  1.
    10030    2    1    2    0    0  0.00000000000E+00  0.00000000000E+00 -0.11984518987E+04  0.30441546266E+04  0.27983192165E+04 0.  0.
        2    1    3    3  502    0  0.10139530048E+04 -0.92729116493E+03 -0.31207033025E+03  0.14090271437E+04  0.25500000920E-02 0.  1.
       -2    1    3    3    0  502 -0.10139530048E+04  0.92729116493E+03 -0.88638156846E+03  0.16351274830E+04  0.25500000920E-02 0. -1.
</event>
<event>
 5   0  0.3406920E-07  0.2799181E+04  0.7818609E-02  0.8303523E-01
       -2   -1    0    0    0  501  0.00000000000E+00  0.00000000000E+00  0.85317883490E+03  0.85317883491E+03  0.25500000920E-02 0. -1.
        2   -1    0    0  501    0  0.00000000000E+00  0.00000000000E+00 -0.22959469879E+04  0.22959469879E+04  0.25500000920E-02 0.  1.
    10030    2    1    2    0    0  0.00000000000E+00  0.00000000000E+00 -0.14427681530E+04  0.31491258228E+04  0.27991808631E+04 0.  0.
        4    1    3    3  502    0 -0.73853388685E+03  0.17758129061E+03  0.60111355041E+03  0.96866223741E+03  0.12699999809E+01 0. -1.
       -4    1    3    3    0  502  0.73853388685E+03 -0.17758129061E+03 -0.20438817034E+04  0.21804635854E+04  0.12699999809E+01 0.  1.
</event>
<event>
 5   0  0.3557628E-07  0.2800548E+04  0.7818609E-02  0.8303098E-01
       -2   -1    0    0    0  501  0.00000000000E+00  0.00000000000E+00  0.89833858243E+03  0.89833858243E+03  0.25500000920E-02 0. -1.
        2   -1    0    0  501    0  0.00000000000E+00  0.00000000000E+00 -0.21826602280E+04  0.21826602280E+04  0.25500000920E-02 0.  1.
    10030    2    1    2    0    0  0.00000000000E+00  0.00000000000E+00 -0.12843216456E+04  0.30809988104E+04  0.28005484428E+04 0.  0.
        5    1    3    3  502    0  0.44801789756E+03  0.51567124100E+03 -0.19869046935E+04  0.21010590702E+04  0.46999998093E+01 0.  1.
       -5    1    3    3    0  502 -0.44801789756E+03 -0.51567124100E+03  0.70258304792E+03  0.97993974027E+03  0.46999998093E+01 0. -1.
</event>
<event>
 5   0  0.1346049E-07  0.2783202E+04  0.7818609E-02  0.8308503E-01
       -1   -1    0    0    0  501  0.00000000000E+00  0.00000000000E+00  0.13356489001E+04  0.13356489001E+04  0.50400001928E-02 0.  1.
        1   -1    0    0  501    0  0.00000000000E+00  0.00000000000E+00 -0.14498969217E+04  0.14498969217E+04  0.50400001928E-02 0. -1.
    10030    2    1    2    0    0  0.00000000000E+00  0.00000000000E+00 -0.11424802154E+03  0.27855458218E+04  0.27832019177E+04 0.  0.
        1    1    3    3  502    0 -0.99190814094E+03  0.32098587751E+03  0.86541119408E+03  0.13549355071E+04  0.50400001928E-02 0.  1.
       -1    1    3    3    0  502  0.99190814094E+03 -0.32098587751E+03 -0.97965921561E+03  0.14306103147E+04  0.50400001928E-02 0. -1.
</event>
<event>
 5   0  0.3571498E-07  0.2795659E+04  0.7818609E-02  0.8304617E-01
       -2   -1    0    0    0  501  0.00000000000E+00  0.00000000000E+00  0.93570362397E+03  0.93570362398E+03  0.25500000920E-02 0.  1.
        2   -1    0    0  501    0  0.00000000000E+00  0.00000000000E+00 -0.20881911317E+04  0.20881911317E+04  0.25500000920E-02 0. -1.
    10030    2    1    2    0    0  0.00000000000E+00  0.00000000000E+00 -0.11524875077E+04  0.30238947557E+04  0.27956594996E+04 0.  0.
        2    1    3    3  502    0  0.13270961248E+04  0.42853067590E+03 -0.47303165783E+03  0.14726104760E+04  0.25500000920E-02 0. -1.
       -2    1    3    3    0  502 -0.13270961248E+04 -0.42853067590E+03 -0.67945584988E+03  0.15512842797E+04  0.25500000920E-02 0.  1.
</event>
<event>
 5   0  0.1366235E-07  0.2799648E+04  0.7818609E-02  0.8303378E-01
       -1   -1    0    0    0  501  0.00000000000E+00  0.00000000000E+00  0.80622826320E+03  0.80622826322E+03  0.50400001928E-02 0.  1.
        1   -1    0    0  501    0  0.00000000000E+00  0.00000000000E+00 -0.24304625988E+04  0.24304625988E+04  0.50400001928E-02 0. -1.
    10030    2    1    2    0    0  0.00000000000E+00  0.00000000000E+00 -0.16242343356E+04  0.32366908620E+04  0.27996482921E+04 0.  0.
        2    1    3    3  502    0 -0.12908888835E+04  0.53573918711E+03 -0.72184419217E+03  0.15730446986E+04  0.25500000920E-02 0. -1.
       -2    1    3    3    0  502  0.12908888835E+04 -0.53573918711E+03 -0.90239014341E+03  0.16636461634E+04  0.25500000920E-02 0.  1.
</event>
<event>
 5   0  0.3522569E-07  0.2798940E+04  0.7818609E-02  0.8303597E-01
        2   -1    0    0  501    0  0.00000000000E+00  0.00000000000E+00  0.13331643935E+04  0.13331643935E+04  0.25500000920E-02 0. -1.
       -2   -1    0    0    0  501  0.00000000000E+00  0.00000000000E+00 -0.14690737422E+04  0.14690737422E+04  0.25500000920E-02 0.  1.
    10030    2    1    2    0    0  0.00000000000E+00  0.00000000000E+00 -0.13590934866E+03  0.28022381356E+04  0.27989403741E+04 0.  0.
        1    1    3    3  502    0 -0.65556258685E+03 -0.10344458224E+04 -0.74600911005E+03  0.14340049013E+04  0.50400001928E-02 0.  1.
       -1    1    3    3    0  502  0.65556258685E+03  0.10344458224E+04  0.61009976139E+03  0.13682332343E+04  0.50400001928E-02 0. -1.
</event>
<event>
 5   0  0.1374680E-07  0.2795694E+04  0.7818609E-02  0.8304606E-01
       -1   -1    0    0    0  501  0.00000000000E+00  0.00000000000E+00  0.13053366916E+04  0.13053366916E+04  0.50400001928E-02 0.  1.
        1   -1    0    0  501    0  0.00000000000E+00  0.00000000000E+00 -0.14969138034E+04  0.14969138034E+04  0.50400001928E-02 0. -1.
    10030    2    1    2    0    0  0.00000000000E+00  0.00000000000E+00 -0.19157711182E+03  0.28022504951E+04  0.27956941977E+04 0.  0.
        3    1    3    3  502    0 -0.85182450305E+03  0.42422504165E+03 -0.11221061048E+04  0.14712899070E+04  0.10100000352E+00 0. -1.
       -3    1    3    3    0  502  0.85182450305E+03 -0.42422504165E+03  0.93052899295E+03  0.13309605880E+04  0.10100000352E+00 0.  1.
</event>
<event>
 5   0  0.1374680E-07  0.2799697E+04  0.7818609E-02  0.8303363E-01
       -1   -1    0    0    0  501  0.00000000000E+00  0.00000000000E+00  0.25399111636E+04  0.25399111636E+04  0.50400001928E-02 0. -1.
        1   -1    0    0  501    0  0.00000000000E+00  0.00000000000E+00 -0.77151339679E+03  0.77151339680E+03  0.50400001928E-02 0.  1.
    10030    2    1    2    0    0  0.00000000000E+00  0.00000000000E+00  0.17683977668E+04  0.33114245604E+04  0.27996967617E+04 0.  0.
        3    1    3    3  502    0  0.27585957086E+03 -0.32940510452E+02  0.25069760683E+04  0.25223228575E+04  0.10100000352E+00 0. -1.
       -3    1    3    3    0  502 -0.27585957086E+03  0.32940510452E+02 -0.73857830145E+03  0.78910170298E+03  0.10100000352E+00 0.  1.
</event>
<event>
 5   0  0.3406920E-07  0.2800204E+04  0.7818609E-02  0.8303205E-01
       -2   -1    0    0    0  501  0.00000000000E+00  0.00000000000E+00  0.14277067507E+04  0.14277067507E+04  0.25500000920E-02 0.  1.
        2   -1    0    0  501    0  0.00000000000E+00  0.00000000000E+00 -0.13730310423E+04  0.13730310423E+04  0.25500000920E-02 0. -1.
    10030    2    1    2    0    0  0.00000000000E+00  0.00000000000E+00  0.54675708400E+02  0.28007377930E+04  0.28002040554E+04 0.  0.
        4    1    3    3  502    0 -0.76420145050E+03  0.71406335520E+03 -0.90364230417E+03  0.13821943998E+04  0.12699999809E+01 0. -1.
       -4    1    3    3    0  502  0.76420145050E+03 -0.71406335520E+03  0.95831801257E+03  0.14185433932E+04  0.12699999809E+01 0.  1.
</event>
<event>
 5   0  0.3522569E-07  0.2800112E+04  0.7818609E-02  0.8303233E-01
        2   -1    0    0  501    0  0.00000000000E+00  0.00000000000E+00  0.13801610261E+04  0.13801610261E+04  0.25500000920E-02 0.  1.
       -2   -1    0    0    0  501  0.00000000000E+00  0.00000000000E+00 -0.14202382120E+04  0.14202382120E+04  0.25500000920E-02 0. -1.
    10030    2    1    2    0    0  0.00000000000E+00  0.00000000000E+00 -0.40077185822E+02  0.28003992381E+04  0.28001124463E+04 0.  0.
        1    1    3    3  502    0  0.76178292748E+03 -0.18536321741E+03 -0.11801076875E+04  0.14168016464E+04  0.50400001928E-02 0. -1.
       -1    1    3    3    0  502 -0.76178292748E+03  0.18536321741E+03  0.11400305017E+04  0.13835975917E+04  0.50400001928E-02 0.  1.
</event>
<event>
 5   0  0.1173363E-07  0.2802177E+04  0.7818609E-02  0.8302593E-01
        4   -1    0    0  501    0  0.00000000000E+00  0.00000000000E+00  0.13131421665E+04  0.13131427806E+04  0.12699999809E+01 0.  1.
       -4   -1    0    0    0  501  0.00000000000E+00  0.00000000000E+00 -0.14949233967E+04  0.14949239362E+04  0.12699999809E+01 0. -1.
    10030    2    1    2    0    0  0.00000000000E+00  0.00000000000E+00 -0.18178123024E+03  0.28080667168E+04  0.28021767022E+04 0.  0.
        3    1    3    3  502    0 -0.28667266266E+03  0.13628019544E+04  0.63179665933E+02  0.13940595622E+04  0.10100000352E+00 0. -1.
       -3    1    3    3    0  502  0.28667266266E+03 -0.13628019544E+04 -0.24496089617E+03  0.14140071546E+04  0.10100000352E+00 0.  1.
</event>
<event>
 5   0  0.1357902E-07  0.2799475E+04  0.7818609E-02  0.8303431E-01
       -1   -1    0    0    0  501  0.00000000000E+00  0.00000000000E+00  0.15238651784E+04  0.15238651784E+04  0.50400001928E-02 0.  1.
        1   -1    0    0  501    0  0.00000000000E+00  0.00000000000E+00 -0.12857206334E+04  0.12857206334E+04  0.50400001928E-02 0. -1.
    10030    2    1    2    0    0  0.00000000000E+00  0.00000000000E+00  0.23814454505E+03  0.28095858118E+04  0.27994748811E+04 0.  0.
        4    1    3    3  502    0  0.12099908026E+04  0.38100024934E+03  0.71283763520E+03  0.14551213143E+04  0.12699999809E+01 0.  1.
       -4    1    3    3    0  502 -0.12099908026E+04 -0.38100024934E+03 -0.47469309015E+03  0.13544644975E+04  0.12699999809E+01 0. -1.
</event>
<event>
 5   0  0.1361741E-07  0.2800420E+04  0.7818609E-02  0.8303138E-01
        1   -1    0    0  501    0  0.00000000000E+00  0.00000000000E+00  0.17609747739E+04  0.17609747739E+04  0.50400001928E-02 0.  1.
       -1   -1    0    0    0  501  0.00000000000E+00  0.00000000000E+00 -0.11133540280E+04  0.11133540280E+04  0.50400001928E-02 0. -1.
    10030    2    1    2    0    0  0.00000000000E+00  0.00000000000E+00  0.64762074591E+03  0.28743288019E+04  0.28004202240E+04 0.  0.
        5    1    3    3  502    0 -0.79294295019E+03 -0.94579472201E+03 -0.35491344971E+03  0.12842397849E+04  0.46999998093E+01 0. -1.
       -5    1    3    3    0  502  0.79294295019E+03  0.94579472201E+03  0.10025341956E+04  0.15900890170E+04  0.46999998093E+01 0.  1.
</event>
<event>
 5   0  0.3571498E-07  0.2800393E+04  0.7818609E-02  0.8303146E-01
        2   -1    0    0  501    0  0.00000000000E+00  0.00000000000E+00  0.24008897249E+04  0.24008897249E+04  0.25500000920E-02 0.  1.
       -2   -1    0    0    0  501  0.00000000000E+00  0.00000000000E+00 -0.81659336748E+03  0.81659336748E+03  0.25500000920E-02 0. -1.
    10030    2    1    2    0    0  0.00000000000E+00  0.00000000000E+00  0.15842963574E+04  0.32174830924E+04  0.28003932762E+04 0.  0.
        2    1    3    3  502    0 -0.12594600390E+04 -0.41800832280E+03  0.27886640775E+03  0.13560003766E+04  0.25500000920E-02 0.  1.
       -2    1    3    3    0  502  0.12594600390E+04  0.41800832280E+03  0.13054299497E+04  0.18614827158E+04  0.25500000920E-02 0. -1.
</event>
<event>
 5   0  0.1357902E-07  0.2799894E+04  0.7818609E-02  0.8303301E-01
        1   -1    0    0  501    0  0.00000000000E+00  0.00000000000E+00  0.18001305307E+04  0.18001305307E+04  0.50400001928E-02 0.  1.
       -1   -1    0    0    0  501  0.00000000000E+00  0.00000000000E+00 -0.10887273737E+04  0.10887273737E+04  0.50400001928E-02 0. -1.
    10030    2    1    2    0    0  0.00000000000E+00  0.00000000000E+00  0.71140315707E+03  0.28888579044E+04  0.27998938444E+04 0.  0.
        4    1    3    3  502    0 -0.24634289766E+03 -0.83471210480E+03  0.14870928607E+04  0.17230426316E+04  0.12699999809E+01 0.  1.
       -4    1    3    3    0  502  0.24634289766E+03  0.83471210480E+03 -0.77568970360E+03  0.11658152728E+04  0.12699999809E+01 0. -1.
</event>
<event>
 5   0  0.3557628E-07  0.2801098E+04  0.7818609E-02  0.8302927E-01
       -2   -1    0    0    0  501  0.00000000000E+00  0.00000000000E+00  0.15729113161E+04  0.15729113161E+04  0.25500000920E-02 0.  1.
        2   -1    0    0  501    0  0.00000000000E+00  0.00000000000E+00 -0.12470748361E+04  0.12470748361E+04  0.25500000920E-02 0. -1.
    10030    2    1    2    0    0  0.00000000000E+00  0.00000000000E+00  0.32583647997E+03  0.28199861522E+04  0.28010984429E+04 0.  0.
        5    1    3    3  502    0 -0.11018926160E+04 -0.36914506546E+03  0.94990578126E+03  0.15009258809E+04  0.46999998093E+01 0. -1.
       -5    1    3    3    0  502  0.11018926160E+04  0.36914506546E+03 -0.62406930128E+03  0.13190602713E+04  0.46999998093E+01 0.  1.
</event>
<event>
 5   0  0.1361741E-07  0.2802725E+04  0.7818609E-02  0.8302423E-01
        1   -1    0    0  501    0  0.00000000000E+00  0.00000000000E+00  0.11463510672E+04  0.11463510672E+04  0.50400001928E-02 0.  1.
       -1   -1    0    0    0  501  0.00000000000E+00  0.00000000000E+00 -0.17131021223E+04  0.17131021223E+04  0.50400001928E-02 0. -1.
    10030    2    1    2    0    0  0.00000000000E+00  0.00000000000E+00 -0.56675105511E+03  0.28594531894E+04  0.28027247072E+04 0.  0.
        5    1    3    3  502    0 -0.11415595696E+04 -0.33455622227E+03 -0.10391170603E+04  0.15795165310E+04  0.46999998093E+01 0. -1.
       -5    1    3    3    0  502  0.11415595696E+04  0.33455622227E+03  0.47236600518E+03  0.12799366584E+04  0.46999998093E+01 0.  1.
</event>
<event>
 5   0  0.1346049E-07  0.2799478E+04  0.7818609E-02  0.8303430E-01
        1   -1    0    0  501    0  0.00000000000E+00  0.00000000000E+00  0.16170336858E+04  0.16170336858E+04  0.50400001928E-02 0. -1.
       -1   -1    0    0    0  501  0.00000000000E+00  0.00000000000E+00 -0.12116441139E+04  0.12116441139E+04  0.50400001928E-02 0.  1.
    10030    2    1    2    0    0  0.00000000000E+00  0.00000000000E+00  0.40538957185E+03  0.28286777997E+04  0.27994780567E+04 0.  0.
        1    1    3    3  502    0 -0.24826625355E+03  0.46092723515E+03  0.15143795441E+04  0.16023218941E+04  0.50400001928E-02 0. -1.
       -1    1    3    3    0  502  0.24826625355E+03 -0.46092723515E+03 -0.11089899722E+04  0.12263559056E+04  0.50400001928E-02 0.  1.
</event>
<event>
 5   0  0.3571498E-07  0.2787861E+04  0.7818609E-02  0.8307047E-01
        2   -1    0    0  501    0  0.00000000000E+00  0.00000000000E+00  0.15908471739E+04  0.15908471739E+04  0.25500000920E-02 0. -1.
       -2   -1    0    0    0  501  0.00000000000E+00  0.00000000000E+00 -0.12213883286E+04  0.12213883286E+04  0.25500000920E-02 0.  1.
    10030    2    1    2    0    0  0.00000000000E+00  0.00000000000E+00  0.36945884535E+03  0.28122355025E+04  0.27878609512E+04 0.  0.
        2    1    3    3  502    0 -0.37919531394E+02  0.12994195675E+04  0.69223154338E+03  0.14727910961E+04  0.25500000920E-02 0. -1.
       -2    1    3    3    0  502  0.37919531394E+02 -0.12994195675E+04 -0.32277269803E+03  0.13394444064E+04  0.25500000920E-02 0.  1.
</event>
<event>
 5   0  0.1361741E-07  0.2799607E+04  0.7818609E-02  0.8303390E-01
        1   -1    0    0  501    0  0.00000000000E+00  0.00000000000E+00  0.12942841505E+04  0.12942841505E+04  0.50400001928E-02 0. -1.
       -1   -1    0    0    0  501  0.00000000000E+00  0.00000000000E+00 -0.15139255975E+04  0.15139255975E+04  0.50400001928E-02 0.  1.
    10030    2    1    2    0    0  0.00000000000E+00  0.00000000000E+00 -0.21964144698E+03  0.28082097480E+04  0.27996070480E+04 0.  0.
        5    1    3    3  502    0  0.50661479162E+02  0.76723085869E+03 -0.12831235598E+04  0.14958736362E+04  0.46999998093E+01 0. -1.
       -5    1    3    3    0  502 -0.50661479162E+02 -0.76723085869E+03  0.10634821128E+04  0.13123361117E+04  0.46999998093E+01 0.  1.
</event>
<event>
 5   0  0.3522569E-07  0.2800625E+04  0.7818609E-02  0.8303074E-01
        2   -1    0    0  501    0  0.00000000000E+00  0.00000000000E+00  0.15250879782E+04  0.15250879782E+04  0.25500000920E-02 0.  1.
       -2   -1    0    0    0  501  0.00000000000E+00  0.00000000000E+00 -0.12857452962E+04  0.12857452962E+04  0.25500000920E-02 0. -1.
    10030    2    1    2    0    0  0.00000000000E+00  0.00000000000E+00  0.23934268204E+03  0.28108332743E+04  0.28006247119E+04 0.  0.
        1    1    3    3  502    0 -0.13788265083E+04  0.24364730256E+03  0.10094465617E+03  0.14038220584E+04  0.50400001928E-02 0.  1.
       -1    1    3    3    0  502  0.13788265083E+04 -0.24364730256E+03  0.13839802587E+03  0.14070112159E+04  0.50400001928E-02 0. -1.
</event>
<event>
 5   0  0.1346049E-07  0.2799358E+04  0.7818609E-02  0.8303468E-01
        1   -1    0    0  501    0  0.00000000000E+00  0.00000000000E+00  0.15333209681E+04  0.15333209681E+04  0.50400001928E-02 0. -1.
       -1   -1    0    0    0  501  0.00000000000E+00  0.00000000000E+00 -0.12776850635E+04  0.12776850635E+04  0.50400001928E-02 0.  1.
    10030    2    1    2    0    0  0.00000000000E+00  0.00000000000E+00  0.25563590460E+03  0.28110060316E+04  0.27993579967E+04 0.  0.
        1    1    3    3  502    0 -0.26934631675E+03 -0.72389136382E+03 -0.10443158584E+04  0.12989079094E+04  0.50400001928E-02 0.  1.
       -1    1    3    3    0  502  0.26934631675E+03  0.72389136382E+03  0.12999517630E+04  0.15120981222E+04  0.50400001928E-02 0. -1.
</event>
<event>
 5   0  0.1366235E-07  0.2791366E+04  0.7818609E-02  0.8305954E-01
       -1   -1    0    0    0  501  0.00000000000E+00  0.00000000000E+00  0.15089094000E+04  0.15089094000E+04  0.50400001928E-02 0.  1.
        1   -1    0    0  501    0  0.00000000000E+00  0.00000000000E+00 -0.12909531667E+04  0.12909531667E+04  0.50400001928E-02 0. -1.
    10030    2    1    2    0    0  0.00000000000E+00  0.00000000000E+00  0.21795623329E+03  0.27998625667E+04  0.27913662377E+04 0.  0.
        2    1    3    3  502    0  0.97802300071E+02 -0.10555389945E+04  0.10195979869E+04  0.14708187902E+04  0.25500000920E-02 0.  1.
       -2    1    3    3    0  502 -0.97802300071E+02  0.10555389945E+04 -0.80164175359E+03  0.13290437765E+04  0.25500000920E-02 0. -1.
</event>
<event>
 5   0  0.3406920E-07  0.2806049E+04  0.7818609E-02  0.8301393E-01
        2   -1    0    0  501    0  0.00000000000E+00  0.00000000000E+00  0.11589712520E+04  0.11589712520E+04  0.25500000920E-02 0. -1.
       -2   -1    0    0    0  501  0.00000000000E+00  0.00000000000E+00 -0.16984701288E+04  0.16984701288E+04  0.25500000920E-02 0.  1.
    10030    2    1    2    0    0  0.00000000000E+00  0.00000000000E+00 -0.53949887684E+03  0.28574413809E+04  0.28060492168E+04 0.  0.
        4    1    3    3  502    0  0.86993128338E+03  0.10846091023E+04 -0.46112515826E+03  0.14648533602E+04  0.12699999809E+01 0.  1.
       -4    1    3    3    0  502 -0.86993128338E+03 -0.10846091023E+04 -0.78373718576E+02  0.13925880206E+04  0.12699999809E+01 0. -1.
</event>
<event>
 5   0  0.3571498E-07  0.2799590E+04  0.7818609E-02  0.8303396E-01
       -2   -1    0    0    0  501  0.00000000000E+00  0.00000000000E+00  0.10926503363E+04  0.10926503363E+04  0.25500000920E-02 0. -1.
        2   -1    0    0  501    0  0.00000000000E+00  0.00000000000E+00 -0.17932779556E+04  0.17932779557E+04  0.25500000920E-02 0.  1.
    10030    2    1    2    0    0  0.00000000000E+00  0.00000000000E+00 -0.70062761935E+03  0.28859282920E+04  0.27995897995E+04 0.  0.
        2    1    3    3  502    0  0.50759245506E+03  0.12114912106E+04 -0.84903646918E+03  0.15640409138E+04  0.25500000920E-02 0.  1.
       -2    1    3    3    0  502 -0.50759245506E+03 -0.12114912106E+04  0.14840884983E+03  0.13218873782E+04  0.25500000920E-02 0. -1.
</event>
<event>
 5   0  0.3406920E-07  0.2799015E+04  0.7818609E-02  0.8303574E-01
        2   -1    0    0  501    0  0.00000000000E+00  0.00000000000E+00  0.18071393965E+04  0.18071393965E+04  0.25500000920E-02 0. -1.
       -2   -1    0    0    0  501  0.00000000000E+00  0.00000000000E+00 -0.10838241761E+04  0.10838241761E+04  0.25500000920E-02 0.  1.
    10030    2    1    2    0    0  0.00000000000E+00  0.00000000000E+00  0.72331522043E+03  0.28909635726E+04  0.27990150893E+04 0.  0.
        4    1    3    3  502    0  0.11957469043E+04 -0.72424316706E+03  0.29407943528E+03  0.14285738173E+04  0.12699999809E+01 0.  1.
       -4    1    3    3    0  502 -0.11957469043E+04  0.72424316706E+03  0.42923578516E+03  0.14623897553E+04  0.12699999809E+01 0. -1.
</event>
<event>
 5   0  0.1366235E-07  0.2801798E+04  0.7818609E-02  0.8302710E-01
        1   -1    0    0  501    0  0.00000000000E+00  0.00000000000E+00  0.18281616546E+04  0.18281616546E+04  0.50400001928E-02 0. -1.
       -1   -1    0    0    0  501  0.00000000000E+00  0.00000000000E+00 -0.10734924907E+04  0.10734924907E+04  0.50400001928E-02 0.  1.
    10030    2    1    2    0    0  0.00000000000E+00  0.00000000000E+00  0.75466916391E+03  0.29016541453E+04  0.28017978571E+04 0.  0.
        2    1    3    3  502    0 -0.99256222635E+03 -0.80127243498E+03  0.97702341409E+03  0.16067955813E+04  0.25500000920E-02 0.  1.
       -2    1    3    3    0  502  0.99256222635E+03  0.80127243498E+03 -0.22235425018E+03  0.12948585640E+04  0.25500000920E-02 0. -1.
</event>
<event>
 5   0  0.3522569E-07  0.2799803E+04  0.7818609E-02  0.8303329E-01
       -2   -1    0    0    0  501  0.00000000000E+00  0.00000000000E+00  0.19020852233E+04  0.19020852233E+04  0.25500000920E-02 0.  1.
        2   -1    0    0  501    0  0.00000000000E+00  0.00000000000E+00 -0.10303033528E+04  0.10303033528E+04  0.25500000920E-02 0. -1.
    10030    2    1    2    0    0  0.00000000000E+00  0.00000000000E+00  0.87178187050E+03  0.29323885760E+04  0.27998034094E+04 0.  0.
        1    1    3    3  502    0  0.13989899561E+03 -0.85681784566E+03  0.15860835047E+04  0.18081397716E+04  0.50400001928E-02 0.  1.
       -1    1    3    3    0  502 -0.13989899561E+03  0.85681784566E+03 -0.71430163423E+03  0.11242488044E+04  0.50400001928E-02 0. -1.
</event>
<event>
 5   0  0.1357902E-07  0.2799816E+04  0.7818609E-02  0.8303325E-01
        1   -1    0    0  501    0  0.00000000000E+00  0.00000000000E+00  0.14032191675E+04  0.14032191676E+04  0.50400001928E-02 0.  1.
       -1   -1    0    0    0  501  0.00000000000E+00  0.00000000000E+00 -0.13966048162E+04  0.13966048162E+04  0.50400001928E-02 0. -1.
    10030    2    1    2    0    0  0.00000000000E+00  0.00000000000E+00  0.66143513589E+01  0.27998239837E+04  0.27998161708E+04 0.  0.
        4    1    3    3  502    0 -0.12673820821E+04 -0.35095054579E+03 -0.47660812155E+03  0.13987782319E+04  0.12699999809E+01 0. -1.
       -4    1    3    3    0  502  0.12673820821E+04  0.35095054579E+03  0.48322247291E+03  0.14010457519E+04  0.12699999809E+01 0.  1.
</event>
<event>
 5   0  0.1366235E-07  0.2801233E+04  0.7818609E-02  0.8302886E-01
       -1   -1    0    0    0  501  0.00000000000E+00  0.00000000000E+00  0.17754062147E+04  0.17754062147E+04  0.50400001928E-02 0. -1.
        1   -1    0    0  501    0  0.00000000000E+00  0.00000000000E+00 -0.11049451049E+04  0.11049451050E+04  0.50400001928E-02 0.  1.
    10030    2    1    2    0    0  0.00000000000E+00  0.00000000000E+00  0.67046110980E+03  0.28803513197E+04  0.28012328759E+04 0.  0.
        2    1    3    3  502    0  0.66654076148E+03  0.10380817718E+04 -0.34670237256E+03  0.12814417220E+04  0.25500000920E-02 0.  1.
       -2    1    3    3    0  502 -0.66654076148E+03 -0.10380817718E+04  0.10171634824E+04  0.15989095977E+04  0.25500000920E-02 0. -1.
</event>
<event>
 5   0  0.1346049E-07  0.2803536E+04  0.7818609E-02  0.8302171E-01
       -1   -1    0    0    0  501  0.00000000000E+00  0.00000000000E+00  0.13231217493E+04  0.13231217493E+04  0.50400001928E-02 0. -1.
        1   -1    0    0  501    0  0.00000000000E+00  0.00000000000E+00 -0.14850892189E+04  0.14850892189E+04  0.50400001928E-02 0.  1.
    10030    2    1    2    0    0  0.00000000000E+00  0.00000000000E+00 -0.16196746960E+03  0.28082109683E+04  0.28035362279E+04 0.  0.
        1    1    3    3  502    0  0.13788615102E+04  0.24750111528E+03 -0.31525509350E+02  0.14012529123E+04  0.50400001928E-02 0. -1.
       -1    1    3    3    0  502 -0.13788615102E+04 -0.24750111528E+03 -0.13044196025E+03  0.14069580560E+04  0.50400001928E-02 0.  1.
</event>
<event>
 5   0  0.3522569E-07  0.2803022E+04  0.7818609E-02  0.8302331E-01
       -2   -1    0    0    0  501  0.00000000000E+00  0.00000000000E+00  0.11391845587E+04  0.11391845587E+04  0.25500000920E-02 0.  1.
        2   -1    0    0  501    0  0.00000000000E+00  0.00000000000E+00 -0.17242451971E+04  0.17242451971E+04  0.25500000920E-02 0. -1.
    10030    2    1    2    0    0  0.00000000000E+00  0.00000000000E+00 -0.58506063840E+03  0.28634297558E+04  0.28030223002E+04 0.  0.
        1    1    3    3  502    0  0.52393230511E+03  0.29884712648E+03 -0.15848703832E+04  0.16957679078E+04  0.50400001928E-02 0. -1.
       -1    1    3    3    0  502 -0.52393230511E+03 -0.29884712648E+03  0.99980974483E+03  0.11676618480E+04  0.50400001928E-02 0.  1.
</event>
<event>
 5   0  0.1374680E-07  0.2799950E+04  0.7818609E-02  0.8303284E-01
       -1   -1    0    0    0  501  0.00000000000E+00  0.00000000000E+00  0.22440627427E+04  0.22440627427E+04  0.50400001928E-02 0.  1.
        1   -1    0    0  501    0  0.00000000000E+00  0.00000000000E+00 -0.87338475853E+03  0.87338475854E+03  0.50400001928E-02 0. -1.
    10030    2    1    2    0    0  0.00000000000E+00  0.00000000000E+00  0.13706779842E+04  0.31174475013E+04  0.27999501400E+04 0.  0.
        3    1    3    3  502    0  0.55990360933E+02  0.11973377999E+04 -0.11999005340E+03  0.12046370203E+04  0.10100000352E+00 0. -1.
       -3    1    3    3    0  502 -0.55990360933E+02 -0.11973377999E+04  0.14906680376E+04  0.19128104809E+04  0.10100000352E+00 0.  1.
</event>
<event>
 5   0  0.1361741E-07  0.2798741E+04  0.7818609E-02  0.8303659E-01
       -1   -1    0    0    0  501  0.00000000000E+00  0.00000000000E+00  0.14805933202E+04  0.14805933202E+04  0.50400001928E-02 0. -1.
        1   -1    0    0  501    0  0.00000000000E+00  0.00000000000E+00 -0.13226037208E+04  0.13226037208E+04  0.50400001928E-02 0.  1.
    10030    2    1    2    0    0  0.00000000000E+00  0.00000000000E+00  0.15798959939E+03  0.28031970410E+04  0.27987413130E+04 0.  0.
        5    1    3    3  502    0  0.54094193624E+03 -0.58647869035E+03  0.12304513946E+04  0.14664951951E+04  0.46999998093E+01 0. -1.
       -5    1    3    3    0  502 -0.54094193624E+03  0.58647869035E+03 -0.10724617952E+04  0.13367018459E+04  0.46999998093E+01 0.  1.
</event>
<event>
 5   0  0.1374680E-07  0.2798632E+04  0.7818609E-02  0.8303693E-01
       -1   -1    0    0    0  501  0.00000000000E+00  0.00000000000E+00  0.76902379674E+03  0.76902379676E+03  0.50400001928E-02 0. -1.
        1   -1    0    0  501    0  0.00000000000E+00  0.00000000000E+00 -0.25461950319E+04  0.25461950319E+04  0.50400001928E-02 0.  1.
    10030    2    1    2    0    0  0.00000000000E+00  0.00000000000E+00 -0.17771712352E+04  0.33152188287E+04  0.27986315018E+04 0.  0.
        3    1    3    3  502    0  0.76531448866E+03 -0.32677440067E+03  0.44405842892E+03  0.94322620510E+03  0.10100000352E+00 0. -1.
       -3    1    3    3    0  502 -0.76531448866E+03  0.32677440067E+03 -0.22212296641E+04  0.23719926236E+04  0.10100000352E+00 0.  1.
</event>
<event>
 5   0  0.3571498E-07  0.2799976E+04  0.7818609E-02  0.8303276E-01
       -2   -1    0    0    0  501  0.00000000000E+00  0.00000000000E+00  0.18712834464E+04  0.18712834464E+04  0.25500000920E-02 0. -1.
        2   -1    0    0  501    0  0.00000000000E+00  0.00000000000E+00 -0.10473914730E+04  0.10473914730E+04  0.25500000920E-02 0.  1.
    10030    2    1    2    0    0  0.00000000000E+00  0.00000000000E+00  0.82389197342E+03  0.29186749195E+04  0.27999759466E+04 0.  0.
        2    1    3    3  502    0  0.89414780262E+03  0.84925909027E+03  0.11027819952E+04  0.16543486405E+04  0.25500000920E-02 0. -1.
       -2    1    3    3    0  502 -0.89414780262E+03 -0.84925909027E+03 -0.27889002183E+03  0.12643262789E+04  0.25500000920E-02 0.  1.
</event>
<event>
 5   0  0.3571498E-07  0.2800365E+04  0.7818609E-02  0.8303155E-01
        2   -1    0    0  501    0  0.00000000000E+00  0.00000000000E+00  0.21357098815E+04  0.21357098815E+04  0.25500000920E-02 0. -1.
       -2   -1    0    0    0  501  0.00000000000E+00  0.00000000000E+00 -0.91796683265E+03  0.91796683265E+03  0.25500000920E-02 0.  1.
    10030    2    1    2    0    0  0.00000000000E+00  0.00000000000E+00  0.12177430489E+04  0.30536767141E+04  0.28003648586E+04 0.  0.
        2    1    3    3  502    0 -0.11789974776E+04 -0.11145960469E+03  0.14234744824E+04  0.18516851508E+04  0.25500000920E-02 0. -1.
       -2    1    3    3    0  502  0.11789974776E+04  0.11145960469E+03 -0.20573143351E+03  0.12019915634E+04  0.25500000920E-02 0.  1.
</event>
<event>
 5   0  0.3406920E-07  0.2799590E+04  0.7818609E-02  0.8303396E-01
        2   -1    0    0  501    0  0.00000000000E+00  0.00000000000E+00  0.11929999185E+04  0.11929999185E+04  0.25500000920E-02 0. -1.
       -2   -1    0    0    0  501  0.00000000000E+00  0.00000000000E+00 -0.16424363825E+04  0.16424363825E+04  0.25500000920E-02 0.  1.
    10030    2    1    2    0    0  0.00000000000E+00  0.00000000000E+00 -0.44943646408E+03  0.28354363010E+04  0.27995903061E+04 0.  0.
        4    1    3    3  502    0 -0.63083068444E+03  0.10374797418E+04 -0.93013698463E+03  0.15295319514E+04  0.12699999809E+01 0.  1.
       -4    1    3    3    0  502  0.63083068444E+03 -0.10374797418E+04  0.48070052055E+03  0.13059043497E+04  0.12699999809E+01 0. -1.
</event>
<event>
 5   0  0.1173363E-07  0.2803281E+04  0.7818609E-02  0.8302250E-01
       -3   -1    0    0    0  501  0.00000000000E+00  0.00000000000E+00  0.17110380667E+04  0.17110380697E+04  0.10100000352E+00 0.  1.
        3   -1    0    0  501    0  0.00000000000E+00  0.00000000000E+00 -0.11481896465E+04  0.11481896510E+04  0.10100000352E+00 0. -1.
    10030    2    1    2    0    0  0.00000000000E+00  0.00000000000E+00  0.56284842017E+03  0.28592277207E+04  0.28032810802E+04 0.  0.
        5    1    3    3  502    0  0.13759763544E+03  0.22643186119E+03  0.16852540178E+04  0.17059623945E+04  0.46999998093E+01 0.  1.
       -5    1    3    3    0  502 -0.13759763544E+03 -0.22643186119E+03 -0.11224055976E+04  0.11532653262E+04  0.46999998093E+01 0. -1.
</event>
<event>
 5   0  0.1374680E-07  0.2798855E+04  0.7818609E-02  0.8303624E-01
        1   -1    0    0  501    0  0.00000000000E+00  0.00000000000E+00  0.21175506297E+04  0.21175506297E+04  0.50400001928E-02 0. -1.
       -1   -1    0    0    0  501  0.00000000000E+00  0.00000000000E+00 -0.92484055864E+03  0.92484055865E+03  0.50400001928E-02 0.  1.
    10030    2    1    2    0    0  0.00000000000E+00  0.00000000000E+00  0.11927100710E+04  0.30423911883E+04  0.27988545566E+04 0.  0.
        3    1    3    3  502    0  0.22242451032E+03 -0.76421183921E+03  0.18475557347E+04  0.20117044020E+04  0.10100000352E+00 0. -1.
       -3    1    3    3    0  502 -0.22242451032E+03  0.76421183921E+03 -0.65484566371E+03  0.10306867863E+04  0.10100000352E+00 0.  1.
</event>
<event>
 5   0  0.1357902E-07  0.2799344E+04  0.7818609E-02  0.8303472E-01
        1   -1    0    0  501    0  0.00000000000E+00  0.00000000000E+00  0.13157053594E+04  0.13157053594E+04  0.50400001928E-02 0. -1.
       -1   -1    0    0    0  501  0.00000000000E+00  0.00000000000E+00 -0.14889970988E+04  0.14889970988E+04  0.50400001928E-02 0.  1.
    10030    2    1    2    0    0  0.00000000000E+00  0.00000000000E+00 -0.17329173941E+03  0.28047024583E+04  0.27993438253E+04 0.  0.
        4    1    3    3  502    0 -0.13179136441E+04 -0.20771698045E+03  0.33729189853E+03  0.13761577507E+04  0.12699999809E+01 0. -1.
       -4    1    3    3    0  502  0.13179136441E+04  0.20771698045E+03 -0.51058363794E+03  0.14285447075E+04  0.12699999809E+01 0.  1.
</event>
<event>
 5   0  0.3557628E-07  0.2799837E+04  0.7818609E-02  0.8303319E-01
        2   -1    0    0  501    0  0.00000000000E+00  0.00000000000E+00  0.15604952504E+04  0.15604952504E+04  0.25500000920E-02 0.  1.
       -2   -1    0    0    0  501  0.00000000000E+00  0.00000000000E+00 -0.12558654707E+04  0.12558654707E+04  0.25500000920E-02 0. -1.
    10030    2    1    2    0    0  0.00000000000E+00  0.00000000000E+00  0.30462977967E+03  0.28163607210E+04  0.27998372110E+04 0.  0.
        5    1    3    3  502    0 -0.31327665961E+03  0.11761048909E+04  0.84805059025E+03  0.14834341487E+04  0.46999998093E+01 0.  1.
       -5    1    3    3    0  502  0.31327665961E+03 -0.11761048909E+04 -0.54342081058E+03  0.13329265723E+04  0.46999998093E+01 0. -1.
</event>
<event>
 5   0  0.1361741E-07  0.2800121E+04  0.7818609E-02  0.8303231E-01
       -1   -1    0    0    0  501  0.00000000000E+00  0.00000000000E+00  0.11201946373E+04  0.11201946374E+04  0.50400001928E-02 0. -1.
        1   -1    0    0  501    0  0.00000000000E+00  0.00000000000E+00 -0.17498470221E+04  0.17498470221E+04  0.50400001928E-02 0.  1.
    10030    2    1    2    0    0  0.00000000000E+00  0.00000000000E+00 -0.62965238474E+03  0.28700416594E+04  0.28001208905E+04 0.  0.
        5    1    3    3  502    0 -0.88398053646E+03  0.81935279772E+03  0.41527137338E+03  0.12748462651E+04  0.46999998093E+01 0. -1.
       -5    1    3    3    0  502  0.88398053646E+03 -0.81935279772E+03 -0.10449237581E+04  0.15951953944E+04  0.46999998093E+01 0.  1.
</event>
<event>
 5   0  0.1366235E-07  0.2800152E+04  0.7818609E-02  0.8303221E-01
       -1   -1    0    0    0  501  0.00000000000E+00  0.00000000000E+00  0.10408170178E+04  0.10408170178E+04  0.50400001928E-02 0.  1.
        1   -1    0    0  501    0  0.00000000000E+00  0.00000000000E+00 -0.18833404291E+04  0.18833404291E+04  0.50400001928E-02 0. -1.
    10030    2    1    2    0    0  0.00000000000E+00  0.00000000000E+00 -0.84252341130E+03  0.29241574468E+04  0.28001519736E+04 0.  0.
        2    1    3    3  502    0  0.83333286928E+03 -0.18138614799E+02 -0.15959968036E+04  0.18005494932E+04  0.25500000920E-02 0. -1.
       -2    1    3    3    0  502 -0.83333286928E+03  0.18138614799E+02  0.75347339235E+03  0.11236079536E+04  0.25500000920E-02 0.  1.
</event>
<event>
 5   0  0.3502141E-07  0.2797763E+04  0.7818609E-02  0.8303963E-01
       -2   -1    0    0    0  501  0.00000000000E+00  0.00000000000E+00  0.13639388741E+04  0.13639388741E+04  0.25500000920E-02 0. -1.
        2   -1    0    0  501    0  0.00000000000E+00  0.00000000000E+00 -0.14347193803E+04  0.14347193803E+04  0.25500000920E-02 0.  1.
    10030    2    1    2    0    0  0.00000000000E+00  0.00000000000E+00 -0.70780506183E+02  0.27986582544E+04  0.27977630609E+04 0.  0.
        3    1    3    3  502    0  0.68751876218E+03  0.52980111312E+03  0.10620014465E+04  0.13715751348E+04  0.10100000352E+00 0. -1.
       -3    1    3    3    0  502 -0.68751876218E+03 -0.52980111312E+03 -0.11327819527E+04  0.14270831196E+04  0.10100000352E+00 0.  1.
</event>
<event>
 5   0  0.1374680E-07  0.2801067E+04  0.7818609E-02  0.8302937E-01
        1   -1    0    0  501    0  0.00000000000E+00  0.00000000000E+00  0.13994111195E+04  0.13994111195E+04  0.50400001928E-02 0.  1.
       -1   -1    0    0    0  501  0.00000000000E+00  0.00000000000E+00 -0.14016563844E+04  0.14016563844E+04  0.50400001928E-02 0. -1.
    10030    2    1    2    0    0  0.00000000000E+00  0.00000000000E+00 -0.22452648517E+01  0.28010675039E+04  0.28010666040E+04 0.  0.
        3    1    3    3  502    0 -0.13498775644E+04  0.37229320136E+03  0.25744702382E+02  0.14005122158E+04  0.10100000352E+00 0.  1.
       -3    1    3    3    0  502  0.13498775644E+04 -0.37229320136E+03 -0.27989967234E+02  0.14005552881E+04  0.10100000352E+00 0. -1.
</event>
<event>
 5   0  0.1374680E-07  0.2799653E+04  0.7818609E-02  0.8303376E-01
        1   -1    0    0  501    0  0.00000000000E+00  0.00000000000E+00  0.13652451525E+04  0.13652451525E+04  0.50400001928E-02 0. -1.
       -1   -1    0    0    0  501  0.00000000000E+00  0.00000000000E+00 -0.14352838356E+04  0.14352838356E+04  0.50400001928E-02 0.  1.
    10030    2    1    2    0    0  0.00000000000E+00  0.00000000000E+00 -0.70038683076E+02  0.28005289881E+04  0.27996530493E+04 0.  0.
        3    1    3    3  502    0  0.16992091539E+03  0.40138703869E+02  0.13543104723E+04  0.13655186189E+04  0.10100000352E+00 0. -1.
       -3    1    3    3    0  502 -0.16992091539E+03 -0.40138703869E+02 -0.14243491554E+04  0.14350103692E+04  0.10100000352E+00 0.  1.
</event>
<event>
 5   0  0.1374680E-07  0.2799174E+04  0.7818609E-02  0.8303525E-01
        1   -1    0    0  501    0  0.00000000000E+00  0.00000000000E+00  0.20728286871E+04  0.20728286871E+04  0.50400001928E-02 0. -1.
       -1   -1    0    0    0  501  0.00000000000E+00  0.00000000000E+00 -0.94500977121E+03  0.94500977122E+03  0.50400001928E-02 0.  1.
    10030    2    1    2    0    0  0.00000000000E+00  0.00000000000E+00  0.11278189159E+04  0.30178384584E+04  0.27991737091E+04 0.  0.
        3    1    3    3  502    0  0.11576773427E+04 -0.70337572216E+03  0.18443485339E+03  0.13671029448E+04  0.10100000352E+00 0.  1.
       -3    1    3    3    0  502 -0.11576773427E+04  0.70337572216E+03  0.94338406254E+03  0.16507355136E+04  0.10100000352E+00 0. -1.
</event>
<event>
 5   0  0.1173363E-07  0.2799177E+04  0.7818609E-02  0.8303524E-01
       -4   -1    0    0    0  501  0.00000000000E+00  0.00000000000E+00  0.14145325803E+04  0.14145331505E+04  0.12699999809E+01 0. -1.
        4   -1    0    0  501    0  0.00000000000E+00  0.00000000000E+00 -0.13848014050E+04  0.13848019874E+04  0.12699999809E+01 0.  1.
    10030    2    1    2    0    0  0.00000000000E+00  0.00000000000E+00  0.29731175330E+02  0.27993351378E+04  0.27991772490E+04 0.  0.
        5    1    3    3  502    0  0.57704446448E+03 -0.11401420202E+04  0.58579365330E+03  0.14057312810E+04  0.46999998093E+01 0. -1.
       -5    1    3    3    0  502 -0.57704446448E+03  0.11401420202E+04 -0.55606247797E+03  0.13936038568E+04  0.46999998093E+01 0.  1.
</event>
<event>
 5   0  0.1357902E-07  0.2805170E+04  0.7818609E-02  0.8301665E-01
       -1   -1    0    0    0  501  0.00000000000E+00  0.00000000000E+00  0.66829251409E+03  0.66829251411E+03  0.50400001928E-02 0. -1.
        1   -1    0    0  501    0  0.00000000000E+00  0.00000000000E+00 -0.29436870632E+04  0.29436870632E+04  0.50400001928E-02 0.  1.
    10030    2    1    2    0    0  0.00000000000E+00  0.00000000000E+00 -0.22753945491E+04  0.36119795773E+04  0.28051695337E+04 0.  0.
        4    1    3    3  502    0  0.60305648061E+03 -0.56440578496E+03  0.32192224963E+03  0.88649114864E+03  0.12699999809E+01 0. -1.
       -4    1    3    3    0  502 -0.60305648061E+03  0.56440578496E+03 -0.25973167987E+04  0.27254884287E+04  0.12699999809E+01 0.  1.
</event>
<event>
 5   0  0.1357902E-07  0.2801178E+04  0.7818609E-02  0.8302903E-01
        1   -1    0    0  501    0  0.00000000000E+00  0.00000000000E+00  0.21780899949E+04  0.21780899949E+04  0.50400001928E-02 0.  1.
       -1   -1    0    0    0  501  0.00000000000E+00  0.00000000000E+00 -0.90062839445E+03  0.90062839446E+03  0.50400001928E-02 0. -1.
    10030    2    1    2    0    0  0.00000000000E+00  0.00000000000E+00  0.12774616004E+04  0.30787183894E+04  0.28011781058E+04 0.  0.
        4    1    3    3  502    0 -0.13328498437E+03 -0.10016185944E+03  0.21671438055E+04  0.21735480606E+04  0.12699999809E+01 0.  1.
       -4    1    3    3    0  502  0.13328498437E+03  0.10016185944E+03 -0.88968220506E+03  0.90517032875E+03  0.12699999809E+01 0. -1.
</event>
<event>
 5   0  0.3502141E-07  0.2797689E+04  0.7818609E-02  0.8303986E-01
       -2   -1    0    0    0  501  0.00000000000E+00  0.00000000000E+00  0.12659204129E+04  0.12659204129E+04  0.25500000920E-02 0.  1.
        2   -1    0    0  501    0  0.00000000000E+00  0.00000000000E+00 -0.15457256410E+04  0.15457256410E+04  0.25500000920E-02 0. -1.
    10030    2    1    2    0    0  0.00000000000E+00  0.00000000000E+00 -0.27980522808E+03  0.28116460539E+04  0.27976887902E+04 0.  0.
        3    1    3    3  502    0 -0.74211091129E+03 -0.21659515634E+03  0.10317280157E+04  0.12892264250E+04  0.10100000352E+00 0.  1.
       -3    1    3    3    0  502  0.74211091129E+03  0.21659515634E+03 -0.13115332438E+04  0.15224196288E+04  0.10100000352E+00 0. -1.
</event>
<event>
 5   0  0.3406920E-07  0.2798336E+04  0.7818609E-02  0.8303785E-01
       -2   -1    0    0    0  501  0.00000000000E+00  0.00000000000E+00  0.13849086529E+04  0.13849086529E+04  0.25500000920E-02 0.  1.
        2   -1    0    0  501    0  0.00000000000E+00  0.00000000000E+00 -0.14135742710E+04  0.14135742710E+04  0.25500000920E-02 0. -1.
    10030    2    1    2    0    0  0.00000000000E+00  0.00000000000E+00 -0.28665618170E+02  0.27984829239E+04  0.27983361052E+04 0.  0.
        4    1    3    3  502    0  0.90314684744E+03  0.80613118374E+02  0.10513200789E+04  0.13883256909E+04  0.12699999809E+01 0. -1.
       -4    1    3    3    0  502 -0.90314684744E+03 -0.80613118374E+02 -0.10799856971E+04  0.14101572330E+04  0.12699999809E+01 0.  1.
</event>
<event>
 5   0  0.3406920E-07  0.2803549E+04  0.7818609E-02  0.8302167E-01
       -2   -1    0    0    0  501  0.00000000000E+00  0.00000000000E+00  0.76510988994E+03  0.76510988995E+03  0.25500000920E-02 0.  1.
        2   -1    0    0  501    0  0.00000000000E+00  0.00000000000E+00 -0.25682214494E+04  0.25682214494E+04  0.25500000920E-02 0. -1.
    10030    2    1    2    0    0  0.00000000000E+00  0.00000000000E+00 -0.18031115595E+04  0.33333313394E+04  0.28035489156E+04 0.  0.
        4    1    3    3  502    0 -0.27905401088E+02  0.86263449876E+03  0.41173138892E+03  0.95626426232E+03  0.12699999809E+01 0.  1.
       -4    1    3    3    0  502  0.27905401088E+02 -0.86263449876E+03 -0.22148429484E+04  0.23770670771E+04  0.12699999809E+01 0. -1.
</event>
<event>
 5   0  0.1361741E-07  0.2795702E+04  0.7818609E-02  0.8304604E-01
       -1   -1    0    0    0  501  0.00000000000E+00  0.00000000000E+00  0.12969120358E+04  0.12969120358E+04  0.50400001928E-02 0.  1.
        1   -1    0    0  501    0  0.00000000000E+00  0.00000000000E+00 -0.15066461868E+04  0.15066461868E+04  0.50400001928E-02 0. -1.
    10030    2    1    2    0    0  0.00000000000E+00  0.00000000000E+00 -0.20973415097E+03  0.28035582226E+04  0.27957021110E+04 0.  0.
        5    1    3    3  502    0  0.23005138174E+03  0.56194580777E+03 -0.13674757403E+04  0.14962348477E+04  0.46999998093E+01 0. -1.
       -5    1    3    3    0  502 -0.23005138174E+03 -0.56194580777E+03  0.11577415893E+04  0.13073233750E+04  0.46999998093E+01 0.  1.
</event>
<event>
 5   0  0.1374680E-07  0.2800637E+04  0.7818609E-02  0.8303071E-01
        1   -1    0    0  501    0  0.00000000000E+00  0.00000000000E+00  0.26775049246E+04  0.26775049247E+04  0.50400001928E-02 0. -1.
       -1   -1    0    0    0  501  0.00000000000E+00  0.00000000000E+00 -0.73235797260E+03  0.73235797262E+03  0.50400001928E-02 0.  1.
    10030    2    1    2    0    0  0.00000000000E+00  0.00000000000E+00  0.19451469520E+04  0.34098628973E+04  0.28006371263E+04 0.  0.
        3    1    3    3  502    0  0.91728989010E+03 -0.67857212694E+03 -0.15812265269E+02  0.11411095092E+04  0.10100000352E+00 0.  1.
       -3    1    3    3    0  502 -0.91728989010E+03  0.67857212694E+03  0.19609592173E+04  0.22687533881E+04  0.10100000352E+00 0. -1.
</event>
<event>
 5   0  0.3406920E-07  0.2800226E+04  0.7818609E-02  0.8303198E-01
        2   -1    0    0  501    0  0.00000000000E+00  0.00000000000E+00  0.19048581459E+04  0.19048581459E+04  0.25500000920E-02 0. -1.
       -2   -1    0    0    0  501  0.00000000000E+00  0.00000000000E+00 -0.10291141006E+04  0.10291141006E+04  0.25500000920E-02 0.  1.
    10030    2    1    2    0    0  0.00000000000E+00  0.00000000000E+00  0.87574404529E+03  0.29339722466E+04  0.28002259749E+04 0.  0.
        4    1    3    3  502    0 -0.51794866746E+03  0.35887114911E+03  0.17478919321E+04  0.18580062279E+04  0.12699999809E+01 0. -1.
       -4    1    3    3    0  502  0.51794866746E+03 -0.35887114911E+03 -0.87214788683E+03  0.10759660186E+04  0.12699999809E+01 0.  1.
</event>
<event>
 5   0  0.3557628E-07  0.2797183E+04  0.7818609E-02  0.8304144E-01
       -2   -1    0    0    0  501  0.00000000000E+00  0.00000000000E+00  0.60019654513E+03  0.60019654514E+03  0.25500000920E-02 0.  1.
        2   -1    0    0  501    0  0.00000000000E+00  0.00000000000E+00 -0.32590284032E+04  0.32590284032E+04  0.25500000920E-02 0. -1.
    10030    2    1    2    0    0  0.00000000000E+00  0.00000000000E+00 -0.26588318580E+04  0.38592249483E+04  0.27971825740E+04 0.  0.
        5    1    3    3  502    0 -0.53473739082E+02  0.94372570747E+02  0.59437358535E+03  0.60420830170E+03  0.46999998093E+01 0.  1.
       -5    1    3    3    0  502  0.53473739082E+02 -0.94372570747E+02 -0.32532054434E+04  0.32550166466E+04  0.46999998093E+01 0. -1.
</event>
<event>
 5   0  0.1361741E-07  0.2800625E+04  0.7818609E-02  0.8303074E-01
        1   -1    0    0  501    0  0.00000000000E+00  0.00000000000E+00  0.20627342481E+04  0.20627342481E+04  0.50400001928E-02 0.  1.
       -1   -1    0    0    0  501  0.00000000000E+00  0.00000000000E+00 -0.95061906917E+03  0.95061906918E+03  0.50400001928E-02 0. -1.
    10030    2    1    2    0    0  0.00000000000E+00  0.00000000000E+00  0.11121151789E+04  0.30133533173E+04  0.28006245810E+04 0.  0.
        5    1    3    3  502    0 -0.42754901048E+03 -0.18864758474E+03 -0.86423349211E+03  0.98250073103E+03  0.46999998093E+01 0. -1.
       -5    1    3    3    0  502  0.42754901048E+03  0.18864758474E+03  0.19763486710E+04  0.20308525863E+04  0.46999998093E+01 0.  1.
</event>
<event>
 5   0  0.1374680E-07  0.2799901E+04  0.7818609E-02  0.8303299E-01
       -1   -1    0    0    0  501  0.00000000000E+00  0.00000000000E+00  0.12022863397E+04  0.12022863397E+04  0.50400001928E-02 0. -1.
        1   -1    0    0  501    0  0.00000000000E+00  0.00000000000E+00 -0.16301118916E+04  0.16301118916E+04  0.50400001928E-02 0.  1.
    10030    2    1    2    0    0  0.00000000000E+00  0.00000000000E+00 -0.42782555185E+03  0.28323982313E+04  0.27999008978E+04 0.  0.
        3    1    3    3  502    0  0.49058873176E+03 -0.62577427551E+03 -0.13794971671E+04  0.15922572631E+04  0.10100000352E+00 0.  1.
       -3    1    3    3    0  502 -0.49058873176E+03  0.62577427551E+03  0.95167161522E+03  0.12401409682E+04  0.10100000352E+00 0. -1.
</event>
<event>
 5   0  0.3571498E-07  0.2799635E+04  0.7818609E-02  0.8303382E-01
        2   -1    0    0  501    0  0.00000000000E+00  0.00000000000E+00  0.32688660574E+04  0.32688660574E+04  0.25500000920E-02 0.  1.
       -2   -1    0    0    0  501  0.00000000000E+00  0.00000000000E+00 -0.59944016134E+03  0.59944016135E+03  0.25500000920E-02 0. -1.
    10030    2    1    2    0    0  0.00000000000E+00  0.00000000000E+00  0.26694258961E+04  0.38683062188E+04  0.27996354026E+04 0.  0.
        2    1    3    3  502    0 -0.46860645152E+03 -0.10083318613E+04  0.25097130462E+04  0.27449926636E+04  0.25500000920E-02 0.  1.
       -2    1    3    3    0  502  0.46860645152E+03  0.10083318613E+04  0.15971284992E+03  0.11233135552E+04  0.25500000920E-02 0. -1.
</event>
<event>
 5   0  0.3557628E-07  0.2799582E+04  0.7818609E-02  0.8303398E-01
       -2   -1    0    0    0  501  0.00000000000E+00  0.00000000000E+00  0.13007640361E+04  0.13007640361E+04  0.25500000920E-02 0.  1.
        2   -1    0    0  501    0  0.00000000000E+00  0.00000000000E+00 -0.15063568158E+04  0.15063568158E+04  0.25500000920E-02 0. -1.
    10030    2    1    2    0    0  0.00000000000E+00  0.00000000000E+00 -0.20559277967E+03  0.28071208519E+04  0.27995819484E+04 0.  0.
        5    1    3    3  502    0 -0.46035936865E+02 -0.81138147202E+03  0.10399803214E+04  0.13198637655E+04  0.46999998093E+01 0.  1.
       -5    1    3    3    0  502  0.46035936865E+02  0.81138147202E+03 -0.12455731011E+04  0.14872570863E+04  0.46999998093E+01 0. -1.
</event>
<event>
 5   0  0.3522569E-07  0.2795771E+04  0.7818609E-02  0.8304583E-01
       -2   -1    0    0    0  501  0.00000000000E+00  0.00000000000E+00  0.10479044741E+04  0.10479044741E+04  0.25500000920E-02 0. -1.
        2   -1    0    0  501    0  0.00000000000E+00  0.00000000000E+00 -0.18647534579E+04  0.18647534579E+04  0.25500000920E-02 0.  1.
    10030    2    1    2    0    0  0.00000000000E+00  0.00000000000E+00 -0.81684898378E+03  0.29126579320E+04  0.27957707285E+04 0.  0.
        1    1    3    3  502    0 -0.83484843427E+03 -0.32913990512E+03  0.70819725142E+03  0.11431746727E+04  0.50400001928E-02 0. -1.
       -1    1    3    3    0  502  0.83484843427E+03  0.32913990512E+03 -0.15250462352E+04  0.17694832593E+04  0.50400001928E-02 0.  1.
</event>
<event>
 5   0  0.3406920E-07  0.2801333E+04  0.7818609E-02  0.8302855E-01
        2   -1    0    0  501    0  0.00000000000E+00  0.00000000000E+00  0.16265880725E+04  0.16265880725E+04  0.25500000920E-02 0.  1.
       -2   -1    0    0    0  501  0.00000000000E+00  0.00000000000E+00 -0.12061238261E+04  0.12061238261E+04  0.25500000920E-02 0. -1.
    10030    2    1    2    0    0  0.00000000000E+00  0.00000000000E+00  0.42046424646E+03  0.28327118986E+04  0.28013329894E+04 0.  0.
        4    1    3    3  502    0  0.71634615821E+03 -0.11991260669E+04  0.10509696223E+03  0.14007505585E+04  0.12699999809E+01 0.  1.
       -4    1    3    3    0  502 -0.71634615821E+03  0.11991260669E+04  0.31536728423E+03  0.14319613401E+04  0.12699999809E+01 0. -1.
</event>
<event>
 5   0  0.3557628E-07  0.2800032E+04  0.7818609E-02  0.8303259E-01
        2   -1    0    0  501    0  0.00000000000E+00  0.00000000000E+00  0.25145939159E+04  0.25145939159E+04  0.25500000920E-02 0. -1.
       -2   -1    0    0    0  501  0.00000000000E+00  0.00000000000E+00 -0.77946754660E+03  0.77946754660E+03  0.25500000920E-02 0.  1.
    10030    2    1    2    0    0  0.00000000000E+00  0.00000000000E+00  0.17351263693E+04  0.32940614625E+04  0.28000316786E+04 0.  0.
        5    1    3    3  502    0 -0.10043842091E+04  0.24052631425E+03  0.19795183654E+04  0.22327462006E+04  0.46999998093E+01 0. -1.
       -5    1    3    3    0  502  0.10043842091E+04 -0.24052631425E+03 -0.24439199609E+03  0.10613152619E+04  0.46999998093E+01 0.  1.
</event>
<event>
 5   0  0.3502141E-07  0.2783816E+04  0.7818609E-02  0.8308311E-01
       -2   -1    0    0    0  501  0.00000000000E+00  0.00000000000E+00  0.15095786251E+04  0.15095786251E+04  0.25500000920E-02 0.  1.
        2   -1    0    0  501    0  0.00000000000E+00  0.00000000000E+00 -0.12834093201E+04  0.12834093201E+04  0.25500000920E-02 0. -1.
    10030    2    1    2    0    0  0.00000000000E+00  0.00000000000E+00  0.22616930499E+03  0.27929879451E+04  0.27838155663E+04 0.  0.
        3    1    3    3  502    0  0.12231606778E+04 -0.40354393262E+03 -0.41632575983E+03  0.13536236175E+04  0.10100000352E+00 0. -1.
       -3    1    3    3    0  502 -0.12231606778E+04  0.40354393262E+03  0.64249506483E+03  0.14393643277E+04  0.10100000352E+00 0.  1.
</event>
<event>
 5   0  0.1357902E-07  0.2802350E+04  0.7818609E-02  0.8302539E-01
        1   -1    0    0  501    0  0.00000000000E+00  0.00000000000E+00  0.19083362506E+04  0.19083362506E+04  0.50400001928E-02 0.  1.
       -1   -1    0    0    0  501  0.00000000000E+00  0.00000000000E+00 -0.10287976783E+04  0.10287976783E+04  0.50400001928E-02 0. -1.
    10030    2    1    2    0    0  0.00000000000E+00  0.00000000000E+00  0.87953857223E+03  0.29371339289E+04  0.28023503736E+04 0.  0.
        4    1    3    3  502    0  0.71838915049E+02 -0.13750439254E+04  0.16770055560E+03  0.13870947032E+04  0.12699999809E+01 0.  1.
       -4    1    3    3    0  502 -0.71838915049E+02  0.13750439254E+04  0.71183801663E+03  0.15500392257E+04  0.12699999809E+01 0. -1.
</event>
<event>
 5   0  0.3557628E-07  0.2799392E+04  0.7818609E-02  0.8303457E-01
       -2   -1    0    0    0  501  0.00000000000E+00  0.00000000000E+00  0.83728083898E+03  0.83728083899E+03  0.25500000920E-02 0. -1.
        2   -1    0    0  501    0  0.00000000000E+00  0.00000000000E+00 -0.23398939872E+04  0.23398939872E+04  0.25500000920E-02 0.  1.
    10030    2    1    2    0    0  0.00000000000E+00  0.00000000000E+00 -0.15026131482E+04  0.31771748262E+04  0.27993916487E+04 0.  0.
        5    1    3    3  502    0 -0.79616924689E+03 -0.17344402838E+02  0.55509158000E+03  0.97073943476E+03  0.46999998093E+01 0. -1.
       -5    1    3    3    0  502  0.79616924689E+03  0.17344402838E+02 -0.20577047282E+04  0.22064353914E+04  0.46999998093E+01 0.  1.
</event>
<event>
 5   0  0.1361741E-07  0.2799590E+04  0.7818609E-02  0.8303396E-01
       -1   -1    0    0    0  501  0.00000000000E+00  0.00000000000E+00  0.10873419811E+04  0.10873419811E+04  0.50400001928E-02 0. -1.
        1   -1    0    0  501    0  0.00000000000E+00  0.00000000000E+00 -0.18020326145E+04  0.18020326145E+04  0.50400001928E-02 0.  1.
    10030    2    1    2    0    0  0.00000000000E+00  0.00000000000E+00 -0.71469063338E+03  0.28893745957E+04  0.27995897651E+04 0.  0.
        5    1    3    3  502    0 -0.20986418334E+03 -0.63168689289E+02 -0.17842070041E+04  0.17976234262E+04  0.46999998093E+01 0.  1.
       -5    1    3    3    0  502  0.20986418334E+03  0.63168689289E+02  0.10695163708E+04  0.10917511695E+04  0.46999998093E+01 0. -1.
</event>
<event>
 5   0  0.1361741E-07  0.2801523E+04  0.7818609E-02  0.8302796E-01
        1   -1    0    0  501    0  0.00000000000E+00  0.00000000000E+00  0.15526537046E+04  0.15526537046E+04  0.50400001928E-02 0. -1.
       -1   -1    0    0    0  501  0.00000000000E+00  0.00000000000E+00 -0.12637288143E+04  0.12637288143E+04  0.50400001928E-02 0.  1.
    10030    2    1    2    0    0  0.00000000000E+00  0.00000000000E+00  0.28892489029E+03  0.28163825189E+04  0.28015233179E+04 0.  0.
        5    1    3    3  502    0  0.10195848455E+04  0.82365758196E+03  0.64119458795E+03  0.14591496356E+04  0.46999998093E+01 0. -1.
       -5    1    3    3    0  502 -0.10195848455E+04 -0.82365758196E+03 -0.35226969766E+03  0.13572328833E+04  0.46999998093E+01 0.  1.
</event>
<event>
 5   0  0.1361741E-07  0.2800482E+04  0.7818609E-02  0.8303119E-01
       -1   -1    0    0    0  501  0.00000000000E+00  0.00000000000E+00  0.18299325595E+04  0.18299325595E+04  0.50400001928E-02 0.  1.
        1   -1    0    0  501    0  0.00000000000E+00  0.00000000000E+00 -0.10714465405E+04  0.10714465405E+04  0.50400001928E-02 0. -1.
    10030    2    1    2    0    0  0.00000000000E+00  0.00000000000E+00  0.75848601907E+03  0.29013791000E+04  0.28004820372E+04 0.  0.
        5    1    3    3  502    0  0.56219296968E+03  0.98887193686E+03 -0.46670717418E+03  0.12295390677E+04  0.46999998093E+01 0. -1.
       -5    1    3    3    0  502 -0.56219296968E+03 -0.98887193686E+03  0.12251931933E+04  0.16718400323E+04  0.46999998093E+01 0.  1.
</event>
<event>
 5   0  0.1346049E-07  0.2800114E+04  0.7818609E-02  0.8303233E-01
       -1   -1    0    0    0  501  0.00000000000E+00  0.00000000000E+00  0.75611355995E+03  0.75611355997E+03  0.50400001928E-02 0.  1.
        1   -1    0    0  501    0  0.00000000000E+00  0.00000000000E+00 -0.25924150148E+04  0.25924150148E+04  0.50400001928E-02 0. -1.
    10030    2    1    2    0    0  0.00000000000E+00  0.00000000000E+00 -0.18363014549E+04  0.33485285748E+04  0.28001143875E+04 0.  0.
        1    1    3    3  502    0 -0.29540290496E+03  0.12549076780E+04 -0.15710739720E+04  0.20323212301E+04  0.50400001928E-02 0. -1.
       -1    1    3    3    0  502  0.29540290496E+03 -0.12549076780E+04 -0.26522748287E+03  0.13162073447E+04  0.50400001928E-02 0.  1.
</event>
<event>
 5   0  0.3502141E-07  0.2800435E+04  0.7818609E-02  0.8303133E-01
       -2   -1    0    0    0  501  0.00000000000E+00  0.00000000000E+00  0.10683908033E+04  0.10683908033E+04  0.25500000920E-02 0.  1.
        2   -1    0    0  501    0  0.00000000000E+00  0.00000000000E+00 -0.18351042226E+04  0.18351042226E+04  0.25500000920E-02 0. -1.
    10030    2    1    2    0    0  0.00000000000E+00  0.00000000000E+00 -0.76671341932E+03  0.29034950258E+04  0.28004345909E+04 0.  0.
        3    1    3    3  502    0 -0.25913030121E+03 -0.12352627050E+03  0.10375537498E+04  0.10765338111E+04  0.10100000352E+00 0.  1.
       -3    1    3    3    0  502  0.25913030121E+03  0.12352627050E+03 -0.18042671691E+04  0.18269612148E+04  0.10100000352E+00 0. -1.
</event>
<event>
 5   0  0.1173363E-07  0.2800602E+04  0.7818609E-02  0.8303081E-01
        4   -1    0    0  501    0  0.00000000000E+00  0.00000000000E+00  0.11420018639E+04  0.11420025701E+04  0.12699999809E+01 0. -1.
       -4   -1    0    0    0  501  0.00000000000E+00  0.00000000000E+00 -0.17170210575E+04  0.17170215272E+04  0.12699999809E+01 0.  1.
    10030    2    1    2    0    0  0.00000000000E+00  0.00000000000E+00 -0.57501919360E+03  0.28590240973E+04  0.28006020274E+04 0.  0.
        4    1    3    3  502    0  0.80885944323E+03 -0.14089383986E+03  0.87049758101E+03  0.11966086764E+04  0.12699999809E+01 0. -1.
       -4    1    3    3    0  502 -0.80885944323E+03  0.14089383986E+03 -0.14455167746E+04  0.16624154209E+04  0.12699999809E+01 0.  1.
</event>
<event>
 5   0  0.1357902E-07  0.2802283E+04  0.7818609E-02  0.8302560E-01
       -1   -1    0    0    0  501  0.00000000000E+00  0.00000000000E+00  0.73738213005E+03  0.73738213007E+03  0.50400001928E-02 0. -1.
        1   -1    0    0  501    0  0.00000000000E+00  0.00000000000E+00 -0.26623876479E+04  0.26623876479E+04  0.50400001928E-02 0.  1.
    10030    2    1    2    0    0  0.00000000000E+00  0.00000000000E+00 -0.19250055178E+04  0.33997697779E+04  0.28022826944E+04 0.  0.
        4    1    3    3  502    0  0.73184657884E+02  0.11431854039E+04 -0.19413544992E+04  0.22541268301E+04  0.12699999809E+01 0.  1.
       -4    1    3    3    0  502 -0.73184657884E+02 -0.11431854039E+04  0.16348981389E+02  0.11456429478E+04  0.12699999809E+01 0. -1.
</event>
<event>
 5   0  0.3571498E-07  0.2800111E+04  0.7818609E-02  0.8303234E-01
        2   -1    0    0  501    0  0.00000000000E+00  0.00000000000E+00  0.19402187542E+04  0.19402187542E+04  0.25500000920E-02 0.  1.
       -2   -1    0    0    0  501  0.00000000000E+00  0.00000000000E+00 -0.10102756492E+04  0.10102756492E+04  0.25500000920E-02 0. -1.
    10030    2    1    2    0    0  0.00000000000E+00  0.00000000000E+00  0.92994310501E+03  0.29504944033E+04  0.28001112559E+04 0.  0.
        2    1    3    3  502    0  0.13709067150E+04 -0.28416064575E+03  0.47005424062E+03  0.14768491741E+04  0.25500000920E-02 0.  1.
       -2    1    3    3    0  502 -0.13709067150E+04  0.28416064575E+03  0.45988886439E+03  0.14736452292E+04  0.25500000920E-02 0. -1.
</event>
<event>
 5   0  0.3571498E-07  0.2798736E+04  0.7818609E-02  0.8303661E-01
        2   -1    0    0  501    0  0.00000000000E+00  0.00000000000E+00  0.20027611381E+04  0.20027611381E+04  0.25500000920E-02 0. -1.
       -2   -1    0    0    0  501  0.00000000000E+00  0.00000000000E+00 -0.97776571114E+03  0.97776571114E+03  0.25500000920E-02 0.  1.
    10030    2    1    2    0    0  0.00000000000E+00  0.00000000000E+00  0.10249954269E+04  0.29805268492E+04  0.27987362637E+04 0.  0.
        2    1    3    3  502    0 -0.95715527724E+03  0.86393633057E+03 -0.66605483070E+02  0.12911113424E+04  0.25500000920E-02 0.  1.
       -2    1    3    3    0  502  0.95715527724E+03 -0.86393633057E+03  0.10916009100E+04  0.16894155068E+04  0.25500000920E-02 0. -1.
</event>
<event>
 5   0  0.1346049E-07  0.2801009E+04  0.7818609E-02  0.8302955E-01
        1   -1    0    0  501    0  0.00000000000E+00  0.00000000000E+00  0.10593136290E+04  0.10593136290E+04  0.50400001928E-02 0.  1.
       -1   -1    0    0    0  501  0.00000000000E+00  0.00000000000E+00 -0.18515884229E+04  0.18515884229E+04  0.50400001928E-02 0. -1.
    10030    2    1    2    0    0  0.00000000000E+00  0.00000000000E+00 -0.79227479392E+03  0.29109020519E+04  0.28010089979E+04 0.  0.
        1    1    3    3  502    0 -0.10780475745E+04  0.75558973928E+02 -0.13218821065E+04  0.17074156012E+04  0.50400001928E-02 0. -1.
       -1    1    3    3    0  502  0.10780475745E+04 -0.75558973928E+02  0.52960731262E+03  0.12034864507E+04  0.50400001928E-02 0.  1.
</event>
<event>
 5   0  0.3557628E-07  0.2800446E+04  0.7818609E-02  0.8303130E-01
        2   -1    0    0  501    0  0.00000000000E+00  0.00000000000E+00  0.19624967121E+04  0.19624967121E+04  0.25500000920E-02 0.  1.
       -2   -1    0    0    0  501  0.00000000000E+00  0.00000000000E+00 -0.99904590364E+03  0.99904590365E+03  0.25500000920E-02 0. -1.
    10030    2    1    2    0    0  0.00000000000E+00  0.00000000000E+00  0.96345080842E+03  0.29615426157E+04  0.28004458939E+04 0.  0.
        5    1    3    3  502    0 -0.29903288926E+03 -0.34822159622E+03 -0.91721850672E+03  0.10256660412E+04  0.46999998093E+01 0. -1.
       -5    1    3    3    0  502  0.29903288926E+03  0.34822159622E+03  0.18806693151E+04  0.19358765745E+04  0.46999998093E+01 0.  1.
</event>
<event>
 5   0  0.1374680E-07  0.2799599E+04  0.7818609E-02  0.8303393E-01
       -1   -1    0    0    0  501  0.00000000000E+00  0.00000000000E+00  0.13137049992E+04  0.13137049992E+04  0.50400001928E-02 0. -1.
        1   -1    0    0  501    0  0.00000000000E+00  0.00000000000E+00 -0.14915357745E+04  0.14915357745E+04  0.50400001928E-02 0.  1.
    10030    2    1    2    0    0  0.00000000000E+00  0.00000000000E+00 -0.17783077535E+03  0.28052407737E+04  0.27995985451E+04 0.  0.
        3    1    3    3  502    0 -0.11949986395E+03  0.13021824695E+04 -0.58940034127E+03  0.14343472989E+04  0.10100000352E+00 0.  1.
       -3    1    3    3    0  502  0.11949986395E+03 -0.13021824695E+04  0.41156956592E+03  0.13708934748E+04  0.10100000352E+00 0. -1.
</event>
<event>
 5   0  0.3406920E-07  0.2802645E+04  0.7818609E-02  0.8302448E-01
       -2   -1    0    0    0  501  0.00000000000E+00  0.00000000000E+00  0.95633431596E+03  0.95633431596E+03  0.25500000920E-02 0. -1.
        2   -1    0    0  501    0  0.00000000000E+00  0.00000000000E+00 -0.20533661728E+04  0.20533661728E+04  0.25500000920E-02 0.  1.
    10030    2    1    2    0    0  0.00000000000E+00  0.00000000000E+00 -0.10970318569E+04  0.30097004888E+04  0.28026448468E+04 0.  0.
        4    1    3    3  502    0 -0.22783516012E+03 -0.85462576567E+03 -0.17157429252E+04  0.19303029446E+04  0.12699999809E+01 0.  1.
       -4    1    3    3    0  502  0.22783516012E+03  0.85462576567E+03  0.61871106832E+03  0.10793975442E+04  0.12699999809E+01 0. -1.
</event>
<event>
 5   0  0.1173363E-07  0.2801206E+04  0.7818609E-02  0.8302894E-01
        4   -1    0    0  501    0  0.00000000000E+00  0.00000000000E+00  0.10614983128E+04  0.10614990725E+04  0.12699999809E+01 0.  1.
       -4   -1    0    0    0  501  0.00000000000E+00  0.00000000000E+00 -0.18480357565E+04  0.18480361929E+04  0.12699999809E+01 0. -1.
    10030    2    1    2    0    0  0.00000000000E+00  0.00000000000E+00 -0.78653744367E+03  0.29095352654E+04  0.28012058672E+04 0.  0.
        4    1    3    3  502    0 -0.18677341308E+03 -0.36616428371E+03  0.99743815459E+03  0.10788165162E+04  0.12699999809E+01 0.  1.
       -4    1    3    3    0  502  0.18677341308E+03  0.36616428371E+03 -0.17839755983E+04  0.18307187492E+04  0.12699999809E+01 0. -1.
</event>
<event>
 5   0  0.1346049E-07  0.2802301E+04  0.7818609E-02  0.8302554E-01
        1   -1    0    0  501    0  0.00000000000E+00  0.00000000000E+00  0.18387856595E+04  0.18387856596E+04  0.50400001928E-02 0. -1.
       -1   -1    0    0    0  501  0.00000000000E+00  0.00000000000E+00 -0.10676738399E+04  0.10676738399E+04  0.50400001928E-02 0.  1.
    10030    2    1    2    0    0  0.00000000000E+00  0.00000000000E+00  0.77111181967E+03  0.29064594994E+04  0.28023014441E+04 0.  0.
        1    1    3    3  502    0  0.19124895586E+03  0.11602643747E+03  0.18201462894E+04  0.18338404543E+04  0.50400001928E-02 0. -1.
       -1    1    3    3    0  502 -0.19124895586E+03 -0.11602643747E+03 -0.10490344697E+04  0.10726190451E+04  0.50400001928E-02 0.  1.
</event>
<event>
 5   0  0.1346049E-07  0.2800737E+04  0.7818609E-02  0.8303040E-01
        1   -1    0    0  501    0  0.00000000000E+00  0.00000000000E+00  0.18470945842E+04  0.18470945842E+04  0.50400001928E-02 0.  1.
       -1   -1    0    0    0  501  0.00000000000E+00  0.00000000000E+00 -0.10616843983E+04  0.10616843983E+04  0.50400001928E-02 0. -1.
    10030    2    1    2    0    0  0.00000000000E+00  0.00000000000E+00  0.78541018595E+03  0.29087789825E+04  0.28007366904E+04 0.  0.
        1    1    3    3  502    0 -0.22396040063E+03 -0.13226584640E+04  0.81001101417E+03  0.15670678086E+04  0.50400001928E-02 0.  1.
       -1    1    3    3    0  502  0.22396040063E+03  0.13226584640E+04 -0.24600828224E+02  0.13417111739E+04  0.50400001928E-02 0. -1.
</event>
<event>
 5   0  0.1374680E-07  0.2800213E+04  0.7818609E-02  0.8303202E-01
        1   -1    0    0  501    0  0.00000000000E+00  0.00000000000E+00  0.10096846038E+04  0.10096846038E+04  0.50400001928E-02 0. -1.
       -1   -1    0    0    0  501  0.00000000000E+00  0.00000000000E+00 -0.19414951215E+04  0.19414951215E+04  0.50400001928E-02 0.  1.
    10030    2    1    2    0    0  0.00000000000E+00  0.00000000000E+00 -0.93181051762E+03  0.29511797253E+04  0.28002126581E+04 0.  0.
        3    1    3    3  502    0  0.34248512946E+03 -0.13282968249E+04 -0.17037865540E+03  0.13822797891E+04  0.10100000352E+00 0. -1.
       -3    1    3    3    0  502 -0.34248512946E+03  0.13282968249E+04 -0.76143186222E+03  0.15688999362E+04  0.10100000352E+00 0.  1.
</event>
<event>
 5   0  0.3406920E-07  0.2799579E+04  0.7818609E-02  0.8303399E-01
        2   -1    0    0  501    0  0.00000000000E+00  0.00000000000E+00  0.13644070051E+04  0.13644070051E+04  0.25500000920E-02 0.  1.
       -2   -1    0    0    0  501  0.00000000000E+00  0.00000000000E+00 -0.14360900328E+04  0.14360900328E+04  0.25500000920E-02 0. -1.
    10030    2    1    2    0    0  0.00000000000E+00  0.00000000000E+00 -0.71683027658E+02  0.28004970379E+04  0.27995794689E+04 0.  0.
        4    1    3    3  502    0 -0.12737812328E+04 -0.18718951486E+03  0.51374837101E+03  0.13861809208E+04  0.12699999809E+01 0.  1.
       -4    1    3    3    0  502  0.12737812328E+04  0.18718951486E+03 -0.58543139867E+03  0.14143161171E+04  0.12699999809E+01 0. -1.
</event>
<event>
 5   0  0.3522569E-07  0.2797330E+04  0.7818609E-02  0.8304098E-01
        2   -1    0    0  501    0  0.00000000000E+00  0.00000000000E+00  0.15718765419E+04  0.15718765419E+04  0.25500000920E-02 0. -1.
       -2   -1    0    0    0  501  0.00000000000E+00  0.00000000000E+00 -0.12445402885E+04  0.12445402885E+04  0.25500000920E-02 0.  1.
    10030    2    1    2    0    0  0.00000000000E+00  0.00000000000E+00  0.32733625339E+03  0.28164168304E+04  0.27973299304E+04 0.  0.
        1    1    3    3  502    0 -0.43544538006E+01 -0.10431935078E+04  0.11016859861E+04  0.15172289438E+04  0.50400001928E-02 0. -1.
       -1    1    3    3    0  502  0.43544538006E+01  0.10431935078E+04 -0.77434973273E+03  0.12991878866E+04  0.50400001928E-02 0.  1.
</event>
<event>
 5   0  0.1173363E-07  0.2797517E+04  0.7818609E-02  0.8304040E-01
       -4   -1    0    0    0  501  0.00000000000E+00  0.00000000000E+00  0.14443410438E+04  0.14443416021E+04  0.12699999809E+01 0. -1.
        4   -1    0    0  501    0  0.00000000000E+00  0.00000000000E+00 -0.13546138170E+04  0.13546144124E+04  0.12699999809E+01 0.  1.
    10030    2    1    2    0    0  0.00000000000E+00  0.00000000000E+00  0.89727226746E+02  0.27989560145E+04  0.27975174344E+04 0.  0.
        1    1    3    3  502    0 -0.25240616588E+03 -0.95080418230E+03  0.10397533978E+04  0.14313715778E+04  0.50400001928E-02 0. -1.
       -1    1    3    3    0  502  0.25240616588E+03  0.95080418230E+03 -0.95002617102E+03  0.13675844366E+04  0.50400001928E-02 0.  1.
</event>
<event>
 5   0  0.1366235E-07  0.2800324E+04  0.7818609E-02  0.8303168E-01
       -1   -1    0    0    0  501  0.00000000000E+00  0.00000000000E+00  0.76793305501E+03  0.76793305503E+03  0.50400001928E-02 0.  1.
        1   -1    0    0  501    0  0.00000000000E+00  0.00000000000E+00 -0.25528969269E+04  0.25528969269E+04  0.50400001928E-02 0. -1.
    10030    2    1    2    0    0  0.00000000000E+00  0.00000000000E+00 -0.17849638719E+04  0.33208299819E+04  0.28003242214E+04 0.  0.
        2    1    3    3  502    0  0.84386452518E+03  0.14944317324E+03 -0.22055460187E+04  0.23661939565E+04  0.25500000920E-02 0. -1.
       -2    1    3    3    0  502 -0.84386452518E+03 -0.14944317324E+03  0.42058214684E+03  0.95463602547E+03  0.25500000920E-02 0.  1.
</event>
<event>
 5   0  0.1173363E-07  0.2800048E+04  0.7818609E-02  0.8303253E-01
       -3   -1    0    0    0  501  0.00000000000E+00  0.00000000000E+00  0.18962148629E+04  0.18962148656E+04  0.10100000352E+00 0.  1.
        3   -1    0    0  501    0  0.00000000000E+00  0.00000000000E+00 -0.10336739069E+04  0.10336739118E+04  0.10100000352E+00 0. -1.
    10030    2    1    2    0    0  0.00000000000E+00  0.00000000000E+00  0.86254095603E+03  0.29298887775E+04  0.28000484545E+04 0.  0.
        4    1    3    3  502    0 -0.11571337896E+04 -0.42396620945E+01  0.12559073144E+04  0.17077123227E+04  0.12699999809E+01 0.  1.
       -4    1    3    3    0  502  0.11571337896E+04  0.42396620945E+01 -0.39336635834E+03  0.12221764548E+04  0.12699999809E+01 0. -1.
</event>
<event>
 5   0  0.3406920E-07  0.2798693E+04  0.7818609E-02  0.8303674E-01
       -2   -1    0    0    0  501  0.00000000000E+00  0.00000000000E+00  0.12554723626E+04  0.12554723626E+04  0.25500000920E-02 0.  1.
        2   -1    0    0  501    0  0.00000000000E+00  0.00000000000E+00 -0.15597087767E+04  0.15597087767E+04  0.25500000920E-02 0. -1.
    10030    2    1    2    0    0  0.00000000000E+00  0.00000000000E+00 -0.30423641403E+03  0.28151811393E+04  0.27986934544E+04 0.  0.
        4    1    3    3  502    0  0.74447827208E+03  0.65917807443E+03  0.83826636871E+03  0.13005597830E+04  0.12699999809E+01 0.  1.
       -4    1    3    3    0  502 -0.74447827208E+03 -0.65917807443E+03 -0.11425027827E+04  0.15146213563E+04  0.12699999809E+01 0. -1.
</event>
<event>
 5   0  0.1374680E-07  0.2802022E+04  0.7818609E-02  0.8302641E-01
       -1   -1    0    0    0  501  0.00000000000E+00  0.00000000000E+00  0.12775913549E+04  0.12775913549E+04  0.50400001928E-02 0.  1.
        1   -1    0    0  501    0  0.00000000000E+00  0.00000000000E+00 -0.15363533453E+04  0.15363533453E+04  0.50400001928E-02 0. -1.
    10030    2    1    2    0    0  0.00000000000E+00  0.00000000000E+00 -0.25876199032E+03  0.28139447002E+04  0.28020219500E+04 0.  0.
        3    1    3    3  502    0 -0.49277380792E+03 -0.12741369057E+04  0.18271598271E+03  0.13782728397E+04  0.10100000352E+00 0.  1.
       -3    1    3    3    0  502  0.49277380792E+03  0.12741369057E+04 -0.44147797303E+03  0.14356718605E+04  0.10100000352E+00 0. -1.
</event>
<event>
 5   0  0.3406920E-07  0.2801086E+04  0.7818609E-02  0.8302931E-01
       -2   -1    0    0    0  501  0.00000000000E+00  0.00000000000E+00  0.10876266285E+04  0.10876266285E+04  0.25500000920E-02 0. -1.
        2   -1    0    0  501    0  0.00000000000E+00  0.00000000000E+00 -0.18034877056E+04  0.18034877056E+04  0.25500000920E-02 0.  1.
    10030    2    1    2    0    0  0.00000000000E+00  0.00000000000E+00 -0.71586107718E+03  0.28911143341E+04  0.28010863983E+04 0.  0.
        4    1    3    3  502    0 -0.41086497806E+03 -0.59913200776E+03  0.87794730214E+03  0.11395447649E+04  0.12699999809E+01 0. -1.
       -4    1    3    3    0  502  0.41086497806E+03  0.59913200776E+03 -0.15938083793E+04  0.17515695692E+04  0.12699999809E+01 0.  1.
</event>
<event>
 5   0  0.1374680E-07  0.2808190E+04  0.7818609E-02  0.8300730E-01
        1   -1    0    0  501    0  0.00000000000E+00  0.00000000000E+00  0.21379030020E+04  0.21379030020E+04  0.50400001928E-02 0. -1.
       -1   -1    0    0    0  501  0.00000000000E+00  0.00000000000E+00 -0.92215749415E+03  0.92215749417E+03  0.50400001928E-02 0.  1.
    10030    2    1    2    0    0  0.00000000000E+00  0.00000000000E+00  0.12157455078E+04  0.30600604962E+04  0.28081903604E+04 0.  0.
        3    1    3    3  502    0  0.83690936117E+03  0.35736578173E+03  0.17730557703E+04  0.19929511674E+04  0.10100000352E+00 0. -1.
       -3    1    3    3    0  502 -0.83690936117E+03 -0.35736578173E+03 -0.55731026245E+03  0.10671093288E+04  0.10100000352E+00 0.  1.
</event>
<event>
 5   0  0.1374680E-07  0.2799833E+04  0.7818609E-02  0.8303320E-01
        1   -1    0    0  501    0  0.00000000000E+00  0.00000000000E+00  0.11892176393E+04  0.11892176393E+04  0.50400001928E-02 0.  1.
       -1   -1    0    0    0  501  0.00000000000E+00  0.00000000000E+00 -0.16479455752E+04  0.16479455752E+04  0.50400001928E-02 0. -1.
    10030    2    1    2    0    0  0.00000000000E+00  0.00000000000E+00 -0.45872793585E+03  0.28371632145E+04  0.27998328140E+04 0.  0.
        3    1    3    3  502    0  0.12751973695E+04  0.19806623167E+03  0.32046366476E+03  0.13296824936E+04  0.10100000352E+00 0. -1.
       -3    1    3    3    0  502 -0.12751973695E+04 -0.19806623167E+03 -0.77919160061E+03  0.15074807209E+04  0.10100000352E+00 0.  1.
</event>
<event>
 5   0  0.3406920E-07  0.2800531E+04  0.7818609E-02  0.8303103E-01
       -2   -1    0    0    0  501  0.00000000000E+00  0.00000000000E+00  0.11259178733E+04  0.11259178733E+04  0.25500000920E-02 0.  1.
        2   -1    0    0  501    0  0.00000000000E+00  0.00000000000E+00 -0.17414627747E+04  0.17414627747E+04  0.25500000920E-02 0. -1.
    10030    2    1    2    0    0  0.00000000000E+00  0.00000000000E+00 -0.61554490138E+03  0.28673806479E+04  0.28005314236E+04 0.  0.
        4    1    3    3  502    0  0.10650952713E+04  0.87375545277E+03 -0.56448821970E+03  0.14887998829E+04  0.12699999809E+01 0. -1.
       -4    1    3    3    0  502 -0.10650952713E+04 -0.87375545277E+03 -0.51056681676E+02  0.13785807651E+04  0.12699999809E+01 0.  1.
</event>
<event>
 5   0  0.3522569E-07  0.2799069E+04  0.7818609E-02  0.8303557E-01
       -2   -1    0    0    0  501  0.00000000000E+00  0.00000000000E+00  0.12174189523E+04  0.12174189523E+04  0.25500000920E-02 0.  1.
        2   -1    0    0  501    0  0.00000000000E+00  0.00000000000E+00 -0.16088931794E+04  0.16088931794E+04  0.25500000920E-02 0. -1.
    10030    2    1    2    0    0  0.00000000000E+00  0.00000000000E+00 -0.39147422707E+03  0.28263121317E+04  0.27990691659E+04 0.  0.
        1    1    3    3  502    0  0.13156633176E+04 -0.12665822300E+03 -0.66030726952E+03  0.14775039631E+04  0.50400001928E-02 0.  1.
       -1    1    3    3    0  502 -0.13156633176E+04  0.12665822300E+03  0.26883304245E+03  0.13488081686E+04  0.50400001928E-02 0. -1.
</event>
<event>
 5   0  0.3406920E-07  0.2800180E+04  0.7818609E-02  0.8303212E-01
        2   -1    0    0  501    0  0.00000000000E+00  0.00000000000E+00  0.15838439508E+04  0.15838439508E+04  0.25500000920E-02 0.  1.
       -2   -1    0    0    0  501  0.00000000000E+00  0.00000000000E+00 -0.12376549273E+04  0.12376549273E+04  0.25500000920E-02 0. -1.
    10030    2    1    2    0    0  0.00000000000E+00  0.00000000000E+00  0.34618902348E+03  0.28214988780E+04  0.28001801869E+04 0.  0.
        4    1    3    3  502    0 -0.12118318429E+04 -0.54505144071E+03  0.61762579556E+03  0.14652920271E+04  0.12699999809E+01 0. -1.
       -4    1    3    3    0  502  0.12118318429E+04  0.54505144071E+03 -0.27143677208E+03  0.13562068510E+04  0.12699999809E+01 0.  1.
</event>
<event>
 5   0  0.3406920E-07  0.2799878E+04  0.7818609E-02  0.8303306E-01
        2   -1    0    0  501    0  0.00000000000E+00  0.00000000000E+00  0.10079107384E+04  0.10079107384E+04  0.25500000920E-02 0. -1.
       -2   -1    0    0    0  501  0.00000000000E+00  0.00000000000E+00 -0.19444471555E+04  0.19444471555E+04  0.25500000920E-02 0.  1.
    10030    2    1    2    0    0  0.00000000000E+00  0.00000000000E+00 -0.93653641706E+03  0.29523578939E+04  0.27998779747E+04 0.  0.
        4    1    3    3  502    0 -0.29281061757E+03  0.13625113001E+04 -0.60836637516E+03  0.15206203865E+04  0.12699999809E+01 0.  1.
       -4    1    3    3    0  502  0.29281061757E+03 -0.13625113001E+04 -0.32817004191E+03  0.14317375073E+04  0.12699999809E+01 0. -1.
</event>
<event>
 5   0  0.1346049E-07  0.2799970E+04  0.7818609E-02  0.8303278E-01
        1   -1    0    0  501    0  0.00000000000E+00  0.00000000000E+00  0.23655444112E+04  0.23655444112E+04  0.50400001928E-02 0. -1.
       -1   -1    0    0    0  501  0.00000000000E+00  0.00000000000E+00 -0.82854440212E+03  0.82854440214E+03  0.50400001928E-02 0.  1.
    10030    2    1    2    0    0  0.00000000000E+00  0.00000000000E+00  0.15370000090E+04  0.31940888133E+04  0.27999704140E+04 0.  0.
        1    1    3    3  502    0  0.13469349361E+04 -0.20499118997E+03  0.11358585857E+04  0.17738178703E+04  0.50400001928E-02 0. -1.
       -1    1    3    3    0  502 -0.13469349361E+04  0.20499118997E+03  0.40114142334E+03  0.14202709430E+04  0.50400001928E-02 0.  1.
</event>
<event>
 5   0  0.1374680E-07  0.2801627E+04  0.7818609E-02  0.8302764E-01
        1   -1    0    0  501    0  0.00000000000E+00  0.00000000000E+00  0.14577149329E+04  0.14577149329E+04  0.50400001928E-02 0.  1.
       -1   -1    0    0    0  501  0.00000000000E+00  0.00000000000E+00 -0.13461327643E+04  0.13461327643E+04  0.50400001928E-02 0. -1.
    10030    2    1    2    0    0  0.00000000000E+00  0.00000000000E+00  0.11158216858E+03  0.28038476973E+04  0.28016265506E+04 0.  0.
        3    1    3    3  502    0 -0.67003767675E+03 -0.31084117083E+03 -0.11354067732E+04  0.13545188343E+04  0.10100000352E+00 0. -1.
       -3    1    3    3    0  502  0.67003767675E+03  0.31084117083E+03  0.12469889418E+04  0.14493288629E+04  0.10100000352E+00 0.  1.
</event>
<event>
 5   0  0.3571498E-07  0.2819273E+04  0.7818609E-02  0.8297310E-01
        2   -1    0    0  501    0  0.00000000000E+00  0.00000000000E+00  0.13683607441E+04  0.13683607441E+04  0.25500000920E-02 0. -1.
       -2   -1    0    0    0  501  0.00000000000E+00  0.00000000000E+00 -0.14521572463E+04  0.14521572463E+04  0.25500000920E-02 0.  1.
    10030    2    1    2    0    0  0.00000000000E+00  0.00000000000E+00 -0.83796502176E+02  0.28205179904E+04  0.28192729347E+04 0.  0.
        2    1    3    3  502    0 -0.25064617237E+03  0.78449654557E+03  0.11026422238E+04  0.13762551389E+04  0.25500000920E-02 0. -1.
       -2    1    3    3    0  502  0.25064617237E+03 -0.78449654557E+03 -0.11864387260E+04  0.14442628515E+04  0.25500000920E-02 0.  1.
</event>
<event>
 5   0  0.1366235E-07  0.2799092E+04  0.7818609E-02  0.8303550E-01
       -1   -1    0    0    0  501  0.00000000000E+00  0.00000000000E+00  0.15369038374E+04  0.15369038374E+04  0.50400001928E-02 0. -1.
        1   -1    0    0  501    0  0.00000000000E+00  0.00000000000E+00 -0.12744639260E+04  0.12744639260E+04  0.50400001928E-02 0.  1.
    10030    2    1    2    0    0  0.00000000000E+00  0.00000000000E+00  0.26243991136E+03  0.28113677634E+04  0.27990916373E+04 0.  0.
        2    1    3    3  502    0 -0.13070821310E+04  0.22892217278E+03 -0.31554482747E+03  0.13639785909E+04  0.25500000920E-02 0.  1.
       -2    1    3    3    0  502  0.13070821310E+04 -0.22892217278E+03  0.57798473883E+03  0.14473891725E+04  0.25500000920E-02 0. -1.
</event>
<event>
 5   0  0.1357902E-07  0.2799326E+04  0.7818609E-02  0.8303478E-01
       -1   -1    0    0    0  501  0.00000000000E+00  0.00000000000E+00  0.12654788947E+04  0.12654788947E+04  0.50400001928E-02 0.  1.
        1   -1    0    0  501    0  0.00000000000E+00  0.00000000000E+00 -0.15480754986E+04  0.15480754986E+04  0.50400001928E-02 0. -1.
    10030    2    1    2    0    0  0.00000000000E+00  0.00000000000E+00 -0.28259660392E+03  0.28135543933E+04  0.27993262553E+04 0.  0.
        4    1    3    3  502    0  0.86431285583E+03 -0.25356174405E+02 -0.12475175496E+04  0.15178871163E+04  0.12699999809E+01 0. -1.
       -4    1    3    3    0  502 -0.86431285583E+03  0.25356174405E+02  0.96492094572E+03  0.12956672770E+04  0.12699999809E+01 0.  1.
</event>
<event>
 5   0  0.1357902E-07  0.2806864E+04  0.7818609E-02  0.8301141E-01
       -1   -1    0    0    0  501  0.00000000000E+00  0.00000000000E+00  0.25907849374E+04  0.25907849374E+04  0.50400001928E-02 0. -1.
        1   -1    0    0  501    0  0.00000000000E+00  0.00000000000E+00 -0.76024106036E+03  0.76024106038E+03  0.50400001928E-02 0.  1.
    10030    2    1    2    0    0  0.00000000000E+00  0.00000000000E+00  0.18305438771E+04  0.33510259978E+04  0.28068637929E+04 0.  0.
        4    1    3    3  502    0  0.31415304467E+03 -0.13578133358E+04  0.11124239882E+04  0.17832100080E+04  0.12699999809E+01 0. -1.
       -4    1    3    3    0  502 -0.31415304467E+03  0.13578133358E+04  0.71811988892E+03  0.15678159898E+04  0.12699999809E+01 0.  1.
</event>
<event>
 5   0  0.3571498E-07  0.2799261E+04  0.7818609E-02  0.8303498E-01
        2   -1    0    0  501    0  0.00000000000E+00  0.00000000000E+00  0.19585226932E+04  0.19585226932E+04  0.25500000920E-02 0. -1.
       -2   -1    0    0    0  501  0.00000000000E+00  0.00000000000E+00 -0.10002264148E+04  0.10002264148E+04  0.25500000920E-02 0.  1.
    10030    2    1    2    0    0  0.00000000000E+00  0.00000000000E+00  0.95829627843E+03  0.29587491081E+04  0.27992614253E+04 0.  0.
        2    1    3    3  502    0  0.53429851438E+03  0.12925218742E+04  0.53585594130E+03  0.14977413955E+04  0.25500000920E-02 0.  1.
       -2    1    3    3    0  502 -0.53429851438E+03 -0.12925218742E+04  0.42244033713E+03  0.14610077126E+04  0.25500000920E-02 0. -1.
</event>
<event>
 5   0  0.1346049E-07  0.2798087E+04  0.7818609E-02  0.8303862E-01
       -1   -1    0    0    0  501  0.00000000000E+00  0.00000000000E+00  0.13308622752E+04  0.13308622752E+04  0.50400001928E-02 0. -1.
        1   -1    0    0  501    0  0.00000000000E+00  0.00000000000E+00 -0.14707180067E+04  0.14707180067E+04  0.50400001928E-02 0.  1.
    10030    2    1    2    0    0  0.00000000000E+00  0.00000000000E+00 -0.13985573149E+03  0.28015802819E+04  0.27980872843E+04 0.  0.
        1    1    3    3  502    0  0.76731867233E+02 -0.80109997574E+03 -0.12157664545E+04  0.14579907484E+04  0.50400001928E-02 0.  1.
       -1    1    3    3    0  502 -0.76731867233E+02  0.80109997574E+03  0.10759107230E+04  0.13435895335E+04  0.50400001928E-02 0. -1.
</event>
<event>
 5   0  0.3571498E-07  0.2802487E+04  0.7818609E-02  0.8302497E-01
       -2   -1    0    0    0  501  0.00000000000E+00  0.00000000000E+00  0.16217343261E+04  0.16217343261E+04  0.25500000920E-02 0.  1.
        2   -1    0    0  501    0  0.00000000000E+00  0.00000000000E+00 -0.12107308350E+04  0.12107308350E+04  0.25500000920E-02 0. -1.
    10030    2    1    2    0    0  0.00000000000E+00  0.00000000000E+00  0.41100349117E+03  0.28324651611E+04  0.28024872915E+04 0.  0.
        2    1    3    3  502    0  0.93274502126E+03  0.27668383217E+03 -0.81370802860E+03  0.12683406378E+04  0.25500000920E-02 0. -1.
       -2    1    3    3    0  502 -0.93274502126E+03 -0.27668383217E+03  0.12247115198E+04  0.15641245233E+04  0.25500000920E-02 0.  1.
</event>
<event>
 5   0  0.3571498E-07  0.2804225E+04  0.7818609E-02  0.8301958E-01
        2   -1    0    0  501    0  0.00000000000E+00  0.00000000000E+00  0.14388431048E+04  0.14388431048E+04  0.25500000920E-02 0.  1.
       -2   -1    0    0    0  501  0.00000000000E+00  0.00000000000E+00 -0.13663191150E+04  0.13663191150E+04  0.25500000920E-02 0. -1.
    10030    2    1    2    0    0  0.00000000000E+00  0.00000000000E+00  0.72523989834E+02  0.28051622198E+04  0.28042245542E+04 0.  0.
        2    1    3    3  502    0  0.39670850666E+03  0.12783045303E+04  0.45410817305E+03  0.14133840046E+04  0.25500000920E-02 0. -1.
       -2    1    3    3    0  502 -0.39670850666E+03 -0.12783045303E+04 -0.38158418321E+03  0.13917782152E+04  0.25500000920E-02 0.  1.
</event>
<event>
 5   0  0.3571498E-07  0.2799085E+04  0.7818609E-02  0.8303552E-01
        2   -1    0    0  501    0  0.00000000000E+00  0.00000000000E+00  0.15765845305E+04  0.15765845305E+04  0.25500000920E-02 0. -1.
       -2   -1    0    0    0  501  0.00000000000E+00  0.00000000000E+00 -0.12423813148E+04  0.12423813148E+04  0.25500000920E-02 0.  1.
    10030    2    1    2    0    0  0.00000000000E+00  0.00000000000E+00  0.33420321568E+03  0.28189658453E+04  0.27990849661E+04 0.  0.
        2    1    3    3  502    0 -0.27324726114E+03 -0.11921237389E+04 -0.51809544650E+03  0.13282492109E+04  0.25500000920E-02 0.  1.
       -2    1    3    3    0  502  0.27324726114E+03  0.11921237389E+04  0.85229866217E+03  0.14907166344E+04  0.25500000920E-02 0. -1.
</event>
<event>
 5   0  0.3522569E-07  0.2800858E+04  0.7818609E-02  0.8303002E-01
        2   -1    0    0  501    0  0.00000000000E+00  0.00000000000E+00  0.21370569443E+04  0.21370569443E+04  0.25500000920E-02 0. -1.
       -2   -1    0    0    0  501  0.00000000000E+00  0.00000000000E+00 -0.91771164352E+03  0.91771164353E+03  0.25500000920E-02 0.  1.
    10030    2    1    2    0    0  0.00000000000E+00  0.00000000000E+00  0.12193453007E+04  0.30547685878E+04  0.28008584688E+04 0.  0.
        1    1    3    3  502    0 -0.90677577478E+03  0.10598660175E+04  0.47325903385E+03  0.14729332619E+04  0.50400001928E-02 0.  1.
       -1    1    3    3    0  502  0.90677577478E+03 -0.10598660175E+04  0.74608626689E+03  0.15818353259E+04  0.50400001928E-02 0. -1.
</event>
<event>
 5   0  0.1366235E-07  0.2800588E+04  0.7818609E-02  0.8303086E-01
        1   -1    0    0  501    0  0.00000000000E+00  0.00000000000E+00  0.18363223393E+04  0.18363223393E+04  0.50400001928E-02 0.  1.
       -1   -1    0    0    0  501  0.00000000000E+00  0.00000000000E+00 -0.10677987313E+04  0.10677987313E+04  0.50400001928E-02 0. -1.
    10030    2    1    2    0    0  0.00000000000E+00  0.00000000000E+00  0.76852360794E+03  0.29041210706E+04  0.28005875557E+04 0.  0.
        2    1    3    3  502    0 -0.90171602583E+03  0.69149858677E+03  0.12327787120E+04  0.16766053321E+04  0.25500000920E-02 0.  1.
       -2    1    3    3    0  502  0.90171602583E+03 -0.69149858677E+03 -0.46425510407E+03  0.12275157386E+04  0.25500000920E-02 0. -1.
</event>
<event>
 5   0  0.3406920E-07  0.2799352E+04  0.7818609E-02  0.8303470E-01
       -2   -1    0    0    0  501  0.00000000000E+00  0.00000000000E+00  0.15878050446E+04  0.15878050446E+04  0.25500000920E-02 0. -1.
        2   -1    0    0  501    0  0.00000000000E+00  0.00000000000E+00 -0.12338368841E+04  0.12338368841E+04  0.25500000920E-02 0.  1.
    10030    2    1    2    0    0  0.00000000000E+00  0.00000000000E+00  0.35396816048E+03  0.28216419287E+04  0.27993516598E+04 0.  0.
        4    1    3    3  502    0 -0.12443358155E+04  0.42642967393E+03 -0.30523617501E+03  0.13503275988E+04  0.12699999809E+01 0.  1.
       -4    1    3    3    0  502  0.12443358155E+04 -0.42642967393E+03  0.65920433549E+03  0.14713143299E+04  0.12699999809E+01 0. -1.
</event>
<event>
 5   0  0.3557628E-07  0.2799904E+04  0.7818609E-02  0.8303298E-01
        2   -1    0    0  501    0  0.00000000000E+00  0.00000000000E+00  0.20032693142E+04  0.20032693142E+04  0.25500000920E-02 0. -1.
       -2   -1    0    0    0  501  0.00000000000E+00  0.00000000000E+00 -0.97833369491E+03  0.97833369492E+03  0.25500000920E-02 0.  1.
    10030    2    1    2    0    0  0.00000000000E+00  0.00000000000E+00  0.10249356193E+04  0.29816030092E+04  0.27999041913E+04 0.  0.
        5    1    3    3  502    0 -0.34210424995E+03  0.10580445741E+04 -0.39322502687E+03  0.11794666805E+04  0.46999998093E+01 0.  1.
       -5    1    3    3    0  502  0.34210424995E+03 -0.10580445741E+04  0.14181606462E+04  0.18021363287E+04  0.46999998093E+01 0. -1.
</event>
<event>
 5   0  0.1374680E-07  0.2800317E+04  0.7818609E-02  0.8303170E-01
       -1   -1    0    0    0  501  0.00000000000E+00  0.00000000000E+00  0.11838822101E+04  0.11838822101E+04  0.50400001928E-02 0. -1.
        1   -1    0    0  501    0  0.00000000000E+00  0.00000000000E+00 -0.16559445025E+04  0.16559445025E+04  0.50400001928E-02 0.  1.
    10030    2    1    2    0    0  0.00000000000E+00  0.00000000000E+00 -0.47206229234E+03  0.28398267126E+04  0.28003165803E+04 0.  0.
        3    1    3    3  502    0 -0.11096305133E+04 -0.83116280163E+03 -0.43457846299E+03  0.14529177298E+04  0.10100000352E+00 0. -1.
       -3    1    3    3    0  502  0.11096305133E+04  0.83116280163E+03 -0.37483829346E+02  0.13869089828E+04  0.10100000352E+00 0.  1.
</event>
<event>
 5   0  0.3557628E-07  0.2798117E+04  0.7818609E-02  0.8303853E-01
        2   -1    0    0  501    0  0.00000000000E+00  0.00000000000E+00  0.16990559361E+04  0.16990559361E+04  0.25500000920E-02 0. -1.
       -2   -1    0    0    0  501  0.00000000000E+00  0.00000000000E+00 -0.11520307142E+04  0.11520307142E+04  0.25500000920E-02 0.  1.
    10030    2    1    2    0    0  0.00000000000E+00  0.00000000000E+00  0.54702522191E+03  0.28510866504E+04  0.27981169551E+04 0.  0.
        5    1    3    3  502    0 -0.11376610751E+04  0.66756572679E+03  0.74862910131E+03  0.15167017975E+04  0.46999998093E+01 0.  1.
       -5    1    3    3    0  502  0.11376610751E+04 -0.66756572679E+03 -0.20160387940E+03  0.13343848528E+04  0.46999998093E+01 0. -1.
</event>
<event>
 5   0  0.1361741E-07  0.2799017E+04  0.7818609E-02  0.8303574E-01
        1   -1    0    0  501    0  0.00000000000E+00  0.00000000000E+00  0.17994945485E+04  0.17994945485E+04  0.50400001928E-02 0. -1.
       -1   -1    0    0    0  501  0.00000000000E+00  0.00000000000E+00 -0.10884302599E+04  0.10884302599E+04  0.50400001928E-02 0.  1.
    10030    2    1    2    0    0  0.00000000000E+00  0.00000000000E+00  0.71106428860E+03  0.28879248084E+04  0.27990171984E+04 0.  0.
        5    1    3    3  502    0 -0.76582193794E+03 -0.54858316304E+01  0.15641011131E+04  0.17415360223E+04  0.46999998093E+01 0. -1.
       -5    1    3    3    0  502  0.76582193794E+03  0.54858316304E+01 -0.85303682452E+03  0.11463887861E+04  0.46999998093E+01 0.  1.
</event>
<event>
 5   0  0.3557628E-07  0.2779920E+04  0.7818609E-02  0.8309530E-01
        2   -1    0    0  501    0  0.00000000000E+00  0.00000000000E+00  0.10641845247E+04  0.10641845247E+04  0.25500000920E-02 0.  1.
       -2   -1    0    0    0  501  0.00000000000E+00  0.00000000000E+00 -0.18154641541E+04  0.18154641541E+04  0.25500000920E-02 0. -1.
    10030    2    1    2    0    0  0.00000000000E+00  0.00000000000E+00 -0.75127962943E+03  0.28796486789E+04  0.27799200406E+04 0.  0.
        5    1    3    3  502    0 -0.12738889611E+04  0.31637185753E+02  0.19940849870E+03  0.12897983703E+04  0.46999998093E+01 0.  1.
       -5    1    3    3    0  502  0.12738889611E+04 -0.31637185753E+02 -0.95068812813E+03  0.15898503086E+04  0.46999998093E+01 0. -1.
</event>
<event>
 5   0  0.3571498E-07  0.2798738E+04  0.7818609E-02  0.8303660E-01
        2   -1    0    0  501    0  0.00000000000E+00  0.00000000000E+00  0.12423138504E+04  0.12423138504E+04  0.25500000920E-02 0.  1.
       -2   -1    0    0    0  501  0.00000000000E+00  0.00000000000E+00 -0.15762788379E+04  0.15762788379E+04  0.25500000920E-02 0. -1.
    10030    2    1    2    0    0  0.00000000000E+00  0.00000000000E+00 -0.33396498757E+03  0.28185926883E+04  0.27987375957E+04 0.  0.
        2    1    3    3  502    0  0.12408756738E+03  0.78882759230E+03 -0.13243027092E+04  0.15464230858E+04  0.25500000920E-02 0. -1.
       -2    1    3    3    0  502 -0.12408756738E+03 -0.78882759230E+03  0.99033772160E+03  0.12721696025E+04  0.25500000920E-02 0.  1.
</event>
<event>
 5   0  0.1346049E-07  0.2799988E+04  0.7818609E-02  0.8303272E-01
       -1   -1    0    0    0  501  0.00000000000E+00  0.00000000000E+00  0.12561034538E+04  0.12561034538E+04  0.50400001928E-02 0.  1.
        1   -1    0    0  501    0  0.00000000000E+00  0.00000000000E+00 -0.15603680085E+04  0.15603680085E+04  0.50400001928E-02 0. -1.
    10030    2    1    2    0    0  0.00000000000E+00  0.00000000000E+00 -0.30426455474E+03  0.28164714623E+04  0.27999883176E+04 0.  0.
        1    1    3    3  502    0  0.25783337440E+03  0.25179427836E+03  0.12086453729E+04  0.12612303695E+04  0.50400001928E-02 0.  1.
       -1    1    3    3    0  502 -0.25783337440E+03 -0.25179427836E+03 -0.15129099276E+04  0.15552410928E+04  0.50400001928E-02 0. -1.
</event>
<event>
 5   0  0.1374680E-07  0.2798440E+04  0.7818609E-02  0.8303753E-01
        1   -1    0    0  501    0  0.00000000000E+00  0.00000000000E+00  0.94956965440E+03  0.94956965441E+03  0.50400001928E-02 0. -1.
       -1   -1    0    0    0  501  0.00000000000E+00  0.00000000000E+00 -0.20617934444E+04  0.20617934444E+04  0.50400001928E-02 0.  1.
    10030    2    1    2    0    0  0.00000000000E+00  0.00000000000E+00 -0.11122237900E+04  0.30113630988E+04  0.27984399143E+04 0.  0.
        3    1    3    3  502    0 -0.84610601392E+03  0.81603056128E+03 -0.13728148277E+04  0.18073244936E+04  0.10100000352E+00 0. -1.
       -3    1    3    3    0  502  0.84610601392E+03 -0.81603056128E+03  0.26059103771E+03  0.12040386052E+04  0.10100000352E+00 0.  1.
</event>
<event>
 5   0  0.3406920E-07  0.2800557E+04  0.7818609E-02  0.8303096E-01
       -2   -1    0    0    0  501  0.00000000000E+00  0.00000000000E+00  0.15564588738E+04  0.15564588738E+04  0.25500000920E-02 0.  1.
        2   -1    0    0  501    0  0.00000000000E+00  0.00000000000E+00 -0.12597696027E+04  0.12597696027E+04  0.25500000920E-02 0. -1.
    10030    2    1    2    0    0  0.00000000000E+00  0.00000000000E+00  0.29668927115E+03  0.28162284765E+04  0.28005567854E+04 0.  0.
        4    1    3    3  502    0  0.75526295197E+03  0.41534293714E+03  0.12580807105E+04  0.15250247766E+04  0.12699999809E+01 0.  1.
       -4    1    3    3    0  502 -0.75526295197E+03 -0.41534293714E+03 -0.96139143939E+03  0.12912036999E+04  0.12699999809E+01 0. -1.
</event>
<event>
 5   0  0.3406920E-07  0.2798485E+04  0.7818609E-02  0.8303739E-01
        2   -1    0    0  501    0  0.00000000000E+00  0.00000000000E+00  0.13785237109E+04  0.13785237109E+04  0.25500000920E-02 0.  1.
       -2   -1    0    0    0  501  0.00000000000E+00  0.00000000000E+00 -0.14202724015E+04  0.14202724015E+04  0.25500000920E-02 0. -1.
    10030    2    1    2    0    0  0.00000000000E+00  0.00000000000E+00 -0.41748690589E+02  0.27987961123E+04  0.27984847195E+04 0.  0.
        4    1    3    3  502    0  0.66809389346E+03  0.76562037057E+03 -0.98293437947E+03  0.14137487788E+04  0.12699999809E+01 0. -1.
       -4    1    3    3    0  502 -0.66809389346E+03 -0.76562037057E+03  0.94118568888E+03  0.13850473335E+04  0.12699999809E+01 0.  1.
</event>
<event>
 5   0  0.3522569E-07  0.2800305E+04  0.7818609E-02  0.8303174E-01
       -2   -1    0    0    0  501  0.00000000000E+00  0.00000000000E+00  0.12680090043E+04  0.12680090043E+04  0.25500000920E-02 0. -1.
        2   -1    0    0  501    0  0.00000000000E+00  0.00000000000E+00 -0.15460668071E+04  0.15460668071E+04  0.25500000920E-02 0.  1.
    10030    2    1    2    0    0  0.00000000000E+00  0.00000000000E+00 -0.27805780278E+03  0.28140758113E+04  0.28003047210E+04 0.  0.
        1    1    3    3  502    0 -0.11552388269E+04 -0.78041908162E+03 -0.87924092918E+01  0.13941692855E+04  0.50400001928E-02 0. -1.
       -1    1    3    3    0  502  0.11552388269E+04  0.78041908162E+03 -0.26926539348E+03  0.14199065259E+04  0.50400001928E-02 0.  1.
</event>
<event>
 5   0  0.3557628E-07  0.2799300E+04  0.7818609E-02  0.8303486E-01
       -2   -1    0    0    0  501  0.00000000000E+00  0.00000000000E+00  0.78079137649E+03  0.78079137649E+03  0.25500000920E-02 0.  1.
        2   -1    0    0  501    0  0.00000000000E+00  0.00000000000E+00 -0.25090189496E+04  0.25090189496E+04  0.25500000920E-02 0. -1.
    10030    2    1    2    0    0  0.00000000000E+00  0.00000000000E+00 -0.17282275731E+04  0.32898103261E+04  0.27993001692E+04 0.  0.
        5    1    3    3  502    0  0.28464189943E+03  0.10769961002E+04  0.13175184798E+03  0.11217496379E+04  0.46999998093E+01 0.  1.
       -5    1    3    3    0  502 -0.28464189943E+03 -0.10769961002E+04 -0.18599794211E+04  0.21680606882E+04  0.46999998093E+01 0. -1.
</event>
<event>
 5   0  0.1374680E-07  0.2800432E+04  0.7818609E-02  0.8303134E-01
        1   -1    0    0  501    0  0.00000000000E+00  0.00000000000E+00  0.13179397533E+04  0.13179397533E+04  0.50400001928E-02 0. -1.
       -1   -1    0    0    0  501  0.00000000000E+00  0.00000000000E+00 -0.14876282990E+04  0.14876282990E+04  0.50400001928E-02 0.  1.
    10030    2    1    2    0    0  0.00000000000E+00  0.00000000000E+00 -0.16968854569E+03  0.28055680524E+04  0.28004317335E+04 0.  0.
        3    1    3    3  502    0 -0.23832566524E+03  0.12722473011E+04  0.45016905060E+03  0.13704249349E+04  0.10100000352E+00 0. -1.
       -3    1    3    3    0  502  0.23832566524E+03 -0.12722473011E+04 -0.61985759629E+03  0.14351431175E+04  0.10100000352E+00 0.  1.
</event>
<event>
 5   0  0.1346049E-07  0.2799694E+04  0.7818609E-02  0.8303363E-01
        1   -1    0    0  501    0  0.00000000000E+00  0.00000000000E+00  0.12253906845E+04  0.12253906845E+04  0.50400001928E-02 0.  1.
       -1   -1    0    0    0  501  0.00000000000E+00  0.00000000000E+00 -0.15991405135E+04  0.15991405135E+04  0.50400001928E-02 0. -1.
    10030    2    1    2    0    0  0.00000000000E+00  0.00000000000E+00 -0.37374982903E+03  0.28245311980E+04  0.27996941893E+04 0.  0.
        1    1    3    3  502    0 -0.40449107184E+03  0.36399572159E+03  0.11143211506E+04  0.12400877143E+04  0.50400001928E-02 0.  1.
       -1    1    3    3    0  502  0.40449107184E+03 -0.36399572159E+03 -0.14880709796E+04  0.15844434837E+04  0.50400001928E-02 0. -1.
</event>
<event>
 5   0  0.3571498E-07  0.2803035E+04  0.7818609E-02  0.8302327E-01
        2   -1    0    0  501    0  0.00000000000E+00  0.00000000000E+00  0.20218824699E+04  0.20218824699E+04  0.25500000920E-02 0.  1.
       -2   -1    0    0    0  501  0.00000000000E+00  0.00000000000E+00 -0.97149618025E+03  0.97149618025E+03  0.25500000920E-02 0. -1.
    10030    2    1    2    0    0  0.00000000000E+00  0.00000000000E+00  0.10503862896E+04  0.29933786501E+04  0.28030348527E+04 0.  0.
        2    1    3    3  502    0 -0.11741701535E+04 -0.60870553926E+03  0.10204220966E+04  0.16704667725E+04  0.25500000920E-02 0.  1.
       -2    1    3    3    0  502  0.11741701535E+04  0.60870553926E+03  0.29964193004E+02  0.13229118776E+04  0.25500000920E-02 0. -1.
</event>
<event>
 5   0  0.1361741E-07  0.2800009E+04  0.7818609E-02  0.8303266E-01
        1   -1    0    0  501    0  0.00000000000E+00  0.00000000000E+00  0.15975084695E+04  0.15975084695E+04  0.50400001928E-02 0. -1.
       -1   -1    0    0    0  501  0.00000000000E+00  0.00000000000E+00 -0.12269181791E+04  0.12269181791E+04  0.50400001928E-02 0.  1.
    10030    2    1    2    0    0  0.00000000000E+00  0.00000000000E+00  0.37059029032E+03  0.28244266486E+04  0.28000087018E+04 0.  0.
        5    1    3    3  502    0 -0.47451592784E+03  0.13028794241E+04  0.38018961897E+03  0.14377852398E+04  0.46999998093E+01 0.  1.
       -5    1    3    3    0  502  0.47451592784E+03 -0.13028794241E+04 -0.95993286512E+01  0.13866414088E+04  0.46999998093E+01 0. -1.
</event>
<event>
 5   0  0.1374680E-07  0.2799617E+04  0.7818609E-02  0.8303387E-01
       -1   -1    0    0    0  501  0.00000000000E+00  0.00000000000E+00  0.14128643338E+04  0.14128643338E+04  0.50400001928E-02 0. -1.
        1   -1    0    0  501    0  0.00000000000E+00  0.00000000000E+00 -0.13868734228E+04  0.13868734228E+04  0.50400001928E-02 0.  1.
    10030    2    1    2    0    0  0.00000000000E+00  0.00000000000E+00  0.25990910958E+02  0.27997377566E+04  0.27996171128E+04 0.  0.
        3    1    3    3  502    0  0.92973857475E+03 -0.12671453303E+03 -0.10257954716E+04  0.13902254314E+04  0.10100000352E+00 0.  1.
       -3    1    3    3    0  502 -0.92973857475E+03  0.12671453303E+03  0.10517863826E+04  0.14095123253E+04  0.10100000352E+00 0. -1.
</event>
<event>
 5   0  0.1366235E-07  0.2799761E+04  0.7818609E-02  0.8303343E-01
        1   -1    0    0  501    0  0.00000000000E+00  0.00000000000E+00  0.18759421436E+04  0.18759421436E+04  0.50400001928E-02 0. -1.
       -1   -1    0    0    0  501  0.00000000000E+00  0.00000000000E+00 -0.10446298812E+04  0.10446298812E+04  0.50400001928E-02 0.  1.
    10030    2    1    2    0    0  0.00000000000E+00  0.00000000000E+00  0.83131226243E+03  0.29205720248E+04  0.27997608602E+04 0.  0.
        2    1    3    3  502    0  0.63308412835E+02  0.98716595377E+03  0.14489337979E+04  0.17543983943E+04  0.25500000920E-02 0.  1.
       -2    1    3    3    0  502 -0.63308412835E+02 -0.98716595377E+03 -0.61762153544E+03  0.11661736305E+04  0.25500000920E-02 0. -1.
</event>
<event>
 5   0  0.3571498E-07  0.2802027E+04  0.7818609E-02  0.8302639E-01
        2   -1    0    0  501    0  0.00000000000E+00  0.00000000000E+00  0.17661096326E+04  0.17661096326E+04  0.25500000920E-02 0. -1.
       -2   -1    0    0    0  501  0.00000000000E+00  0.00000000000E+00 -0.11113911356E+04  0.11113911356E+04  0.25500000920E-02 0.  1.
    10030    2    1    2    0    0  0.00000000000E+00  0.00000000000E+00  0.65471849709E+03  0.28775007682E+04  0.28020268308E+04 0.  0.
        2    1    3    3  502    0  0.79799193086E+03 -0.83392341778E+03  0.11428644847E+04  0.16243025023E+04  0.25500000920E-02 0. -1.
       -2    1    3    3    0  502 -0.79799193086E+03  0.83392341778E+03 -0.48814598765E+03  0.12531982659E+04  0.25500000920E-02 0.  1.
</event>
<event>
 5   0  0.3502141E-07  0.2793452E+04  0.7818609E-02  0.8305304E-01
        2   -1    0    0  501    0  0.00000000000E+00  0.00000000000E+00  0.17375696829E+04  0.17375696829E+04  0.25500000920E-02 0.  1.
       -2   -1    0    0    0  501  0.00000000000E+00  0.00000000000E+00 -0.11227429163E+04  0.11227429163E+04  0.25500000920E-02 0. -1.
    10030    2    1    2    0    0  0.00000000000E+00  0.00000000000E+00  0.61482676660E+03  0.28603125991E+04  0.27934523822E+04 0.  0.
        3    1    3    3  502    0 -0.11534178713E+04  0.49971608050E+03  0.93088371321E+03  0.15641718079E+04  0.10100000352E+00 0.  1.
       -3    1    3    3    0  502  0.11534178713E+04 -0.49971608050E+03 -0.31605694661E+03  0.12961407912E+04  0.10100000352E+00 0. -1.
</event>
<event>
 5   0  0.1361741E-07  0.2802353E+04  0.7818609E-02  0.8302538E-01
       -1   -1    0    0    0  501  0.00000000000E+00  0.00000000000E+00  0.87613251391E+03  0.87613251392E+03  0.50400001928E-02 0.  1.
        1   -1    0    0  501    0  0.00000000000E+00  0.00000000000E+00 -0.22408656323E+04  0.22408656323E+04  0.50400001928E-02 0. -1.
    10030    2    1    2    0    0  0.00000000000E+00  0.00000000000E+00 -0.13647331184E+04  0.31169981463E+04  0.28023527542E+04 0.  0.
        5    1    3    3  502    0  0.45324833374E+03 -0.49092599368E+03  0.68751274988E+03  0.95871698355E+03  0.46999998093E+01 0.  1.
       -5    1    3    3    0  502 -0.45324833374E+03  0.49092599368E+03 -0.20522458683E+04  0.21582811627E+04  0.46999998093E+01 0. -1.
</event>
<event>
 5   0  0.1346049E-07  0.2799469E+04  0.7818609E-02  0.8303433E-01
       -1   -1    0    0    0  501  0.00000000000E+00  0.00000000000E+00  0.15315442177E+04  0.15315442177E+04  0.50400001928E-02 0. -1.
        1   -1    0    0  501    0  0.00000000000E+00  0.00000000000E+00 -0.12792685406E+04  0.12792685407E+04  0.50400001928E-02 0.  1.
    10030    2    1    2    0    0  0.00000000000E+00  0.00000000000E+00  0.25227567710E+03  0.28108127584E+04  0.27994687613E+04 0.  0.
        1    1    3    3  502    0  0.12534930823E+04  0.12403018343E+03 -0.48676834065E+03  0.13503969088E+04  0.50400001928E-02 0. -1.
       -1    1    3    3    0  502 -0.12534930823E+04 -0.12403018343E+03  0.73904401775E+03  0.14604158496E+04  0.50400001928E-02 0.  1.
</event>
<event>
 5   0  0.1361741E-07  0.2790109E+04  0.7818609E-02  0.8306346E-01
       -1   -1    0    0    0  501  0.00000000000E+00  0.00000000000E+00  0.17653874929E+04  0.17653874930E+04  0.50400001928E-02 0. -1.
        1   -1    0    0  501    0  0.00000000000E+00  0.00000000000E+00 -0.11024082495E+04  0.11024082495E+04  0.50400001928E-02 0.  1.
    10030    2    1    2    0    0  0.00000000000E+00  0.00000000000E+00  0.66297924348E+03  0.28677957424E+04  0.27901094858E+04 0.  0.
        5    1    3    3  502    0 -0.15573026244E+03  0.11766078114E+04 -0.42206599489E+03  0.12596902994E+04  0.46999998093E+01 0.  1.
       -5    1    3    3    0  502  0.15573026244E+03 -0.11766078114E+04  0.10850452384E+04  0.16081054430E+04  0.46999998093E+01 0. -1.
</event>
<event>
 5   0  0.3557628E-07  0.2800524E+04  0.7818609E-02  0.8303106E-01
        2   -1    0    0  501    0  0.00000000000E+00  0.00000000000E+00  0.18268601723E+04  0.18268601723E+04  0.25500000920E-02 0. -1.
       -2   -1    0    0    0  501  0.00000000000E+00  0.00000000000E+00 -0.10732803415E+04  0.10732803415E+04  0.25500000920E-02 0.  1.
    10030    2    1    2    0    0  0.00000000000E+00  0.00000000000E+00  0.75357983076E+03  0.29001405137E+04  0.28005236007E+04 0.  0.
        5    1    3    3  502    0 -0.59959030402E+03  0.90387159040E+03  0.12938512486E+04  0.16883617883E+04  0.46999998093E+01 0. -1.
       -5    1    3    3    0  502  0.59959030402E+03 -0.90387159040E+03 -0.54027141782E+03  0.12117787255E+04  0.46999998093E+01 0.  1.
</event>
<event>
 5   0  0.1173363E-07  0.2798448E+04  0.7818609E-02  0.8303750E-01
       -3   -1    0    0    0  501  0.00000000000E+00  0.00000000000E+00  0.16923170083E+04  0.16923170113E+04  0.10100000352E+00 0. -1.
        3   -1    0    0  501    0  0.00000000000E+00  0.00000000000E+00 -0.11568921680E+04  0.11568921724E+04  0.10100000352E+00 0.  1.
    10030    2    1    2    0    0  0.00000000000E+00  0.00000000000E+00  0.53542484030E+03  0.28492091837E+04  0.27984483581E+04 0.  0.
        5    1    3    3  502    0 -0.85587561941E+03  0.63779073774E+03 -0.65341137610E+03  0.12515065391E+04  0.46999998093E+01 0.  1.
       -5    1    3    3    0  502  0.85587561941E+03 -0.63779073774E+03  0.11888362164E+04  0.15977026446E+04  0.46999998093E+01 0. -1.
</event>
<event>
 5   0  0.3571498E-07  0.2799973E+04  0.7818609E-02  0.8303277E-01
       -2   -1    0    0    0  501  0.00000000000E+00  0.00000000000E+00  0.16171244648E+04  0.16171244649E+04  0.25500000920E-02 0.  1.
        2   -1    0    0  501    0  0.00000000000E+00  0.00000000000E+00 -0.12120044306E+04  0.12120044306E+04  0.25500000920E-02 0. -1.
    10030    2    1    2    0    0  0.00000000000E+00  0.00000000000E+00  0.40512003427E+03  0.28291288954E+04  0.27999728686E+04 0.  0.
        2    1    3    3  502    0  0.10395561686E+04 -0.39239251662E+03 -0.65796137751E+03  0.12913411978E+04  0.25500000920E-02 0. -1.
       -2    1    3    3    0  502 -0.10395561686E+04  0.39239251662E+03  0.10630814118E+04  0.15377876976E+04  0.25500000920E-02 0.  1.
</event>
<event>
 5   0  0.3571498E-07  0.2799830E+04  0.7818609E-02  0.8303321E-01
        2   -1    0    0  501    0  0.00000000000E+00  0.00000000000E+00  0.20059384461E+04  0.20059384461E+04  0.25500000920E-02 0.  1.
       -2   -1    0    0    0  501  0.00000000000E+00  0.00000000000E+00 -0.97697988730E+03  0.97697988731E+03  0.25500000920E-02 0. -1.
    10030    2    1    2    0    0  0.00000000000E+00  0.00000000000E+00  0.10289585588E+04  0.29829183334E+04  0.27998296498E+04 0.  0.
        2    1    3    3  502    0 -0.46615750566E+03 -0.77014188752E+03  0.16566579557E+04  0.18854540379E+04  0.25500000920E-02 0.  1.
       -2    1    3    3    0  502  0.46615750566E+03  0.77014188752E+03 -0.62769939689E+03  0.10974642955E+04  0.25500000920E-02 0. -1.
</event>
<event>
 5   0  0.3557628E-07  0.2820667E+04  0.7818609E-02  0.8296881E-01
        2   -1    0    0  501    0  0.00000000000E+00  0.00000000000E+00  0.14178002013E+04  0.14178002013E+04  0.25500000920E-02 0.  1.
       -2   -1    0    0    0  501  0.00000000000E+00  0.00000000000E+00 -0.14029062446E+04  0.14029062446E+04  0.25500000920E-02 0. -1.
    10030    2    1    2    0    0  0.00000000000E+00  0.00000000000E+00  0.14893956691E+02  0.28207064459E+04  0.28206671239E+04 0.  0.
        5    1    3    3  502    0 -0.82085324559E+03  0.52625191958E+02  0.11530847036E+04  0.14164024447E+04  0.46999998093E+01 0.  1.
       -5    1    3    3    0  502  0.82085324559E+03 -0.52625191958E+02 -0.11381907469E+04  0.14043040012E+04  0.46999998093E+01 0. -1.
</event>
<event>
 5   0  0.3522569E-07  0.2800071E+04  0.7818609E-02  0.8303246E-01
        2   -1    0    0  501    0  0.00000000000E+00  0.00000000000E+00  0.13347638725E+04  0.13347638725E+04  0.25500000920E-02 0.  1.
       -2   -1    0    0    0  501  0.00000000000E+00  0.00000000000E+00 -0.14684987065E+04  0.14684987065E+04  0.25500000920E-02 0. -1.
    10030    2    1    2    0    0  0.00000000000E+00  0.00000000000E+00 -0.13373483404E+03  0.28032625790E+04  0.28000707279E+04 0.  0.
        1    1    3    3  502    0  0.24056506384E+00 -0.12930444682E+04  0.47052651718E+03  0.13759939164E+04  0.50400001928E-02 0. -1.
       -1    1    3    3    0  502 -0.24056506384E+00  0.12930444682E+04 -0.60426135122E+03  0.14272686626E+04  0.50400001928E-02 0.  1.
</event>
<event>
 5   0  0.3571498E-07  0.2800106E+04  0.7818609E-02  0.8303236E-01
        2   -1    0    0  501    0  0.00000000000E+00  0.00000000000E+00  0.21842541284E+04  0.21842541284E+04  0.25500000920E-02 0.  1.
       -2   -1    0    0    0  501  0.00000000000E+00  0.00000000000E+00 -0.89739911660E+03  0.89739911660E+03  0.25500000920E-02 0. -1.
    10030    2    1    2    0    0  0.00000000000E+00  0.00000000000E+00  0.12868550118E+04  0.30816532450E+04  0.28001055161E+04 0.  0.
        2    1    3    3  502    0 -0.78787123301E+03  0.10795863490E+04  0.18448412174E+03  0.13491783263E+04  0.25500000920E-02 0. -1.
       -2    1    3    3    0  502  0.78787123301E+03 -0.10795863490E+04  0.11023708901E+04  0.17324749188E+04  0.25500000920E-02 0.  1.
</event>
<event>
 5   0  0.3522569E-07  0.2799560E+04  0.7818609E-02  0.8303405E-01
       -2   -1    0    0    0  501  0.00000000000E+00  0.00000000000E+00  0.18771955661E+04  0.18771955661E+04  0.25500000920E-02 0.  1.
        2   -1    0    0  501    0  0.00000000000E+00  0.00000000000E+00 -0.10437825405E+04  0.10437825405E+04  0.25500000920E-02 0. -1.
    10030    2    1    2    0    0  0.00000000000E+00  0.00000000000E+00  0.83341302557E+03  0.29209781066E+04  0.27995599347E+04 0.  0.
        1    1    3    3  502    0  0.10079224444E+04 -0.90374755645E+03  0.45294978987E+02  0.13545179714E+04  0.50400001928E-02 0. -1.
       -1    1    3    3    0  502 -0.10079224444E+04  0.90374755645E+03  0.78811804658E+03  0.15664601352E+04  0.50400001928E-02 0.  1.
</event>
<event>
 5   0  0.1357902E-07  0.2800121E+04  0.7818609E-02  0.8303231E-01
       -1   -1    0    0    0  501  0.00000000000E+00  0.00000000000E+00  0.11324096959E+04  0.11324096959E+04  0.50400001928E-02 0.  1.
        1   -1    0    0  501    0  0.00000000000E+00  0.00000000000E+00 -0.17309725325E+04  0.17309725325E+04  0.50400001928E-02 0. -1.
    10030    2    1    2    0    0  0.00000000000E+00  0.00000000000E+00 -0.59856283659E+03  0.28633822283E+04  0.28001214824E+04 0.  0.
        4    1    3    3  502    0 -0.43914192199E+03 -0.12967727684E+04 -0.59864642655E+03  0.14942705235E+04  0.12699999809E+01 0.  1.
       -4    1    3    3    0  502  0.43914192199E+03  0.12967727684E+04  0.83589963098E-01  0.13691117048E+04  0.12699999809E+01 0. -1.
</event>
<event>
 5   0  0.1357902E-07  0.2799537E+04  0.7818609E-02  0.8303412E-01
        1   -1    0    0  501    0  0.00000000000E+00  0.00000000000E+00  0.11804907691E+04  0.11804907691E+04  0.50400001928E-02 0. -1.
       -1   -1    0    0    0  501  0.00000000000E+00  0.00000000000E+00 -0.16597775324E+04  0.16597775324E+04  0.50400001928E-02 0.  1.
    10030    2    1    2    0    0  0.00000000000E+00  0.00000000000E+00 -0.47928676329E+03  0.28402683016E+04  0.27995371445E+04 0.  0.
        4    1    3    3  502    0 -0.43657971818E+03  0.13298148892E+04 -0.25837695094E+03  0.14232953845E+04  0.12699999809E+01 0. -1.
       -4    1    3    3    0  502  0.43657971818E+03 -0.13298148892E+04 -0.22090981235E+03  0.14169729171E+04  0.12699999809E+01 0.  1.
</event>
<event>
 5   0  0.1357902E-07  0.2802885E+04  0.7818609E-02  0.8302373E-01
        1   -1    0    0  501    0  0.00000000000E+00  0.00000000000E+00  0.13401681827E+04  0.13401681827E+04  0.50400001928E-02 0.  1.
       -1   -1    0    0    0  501  0.00000000000E+00  0.00000000000E+00 -0.14655183962E+04  0.14655183962E+04  0.50400001928E-02 0. -1.
    10030    2    1    2    0    0  0.00000000000E+00  0.00000000000E+00 -0.12535021348E+03  0.28056865790E+04  0.28028850321E+04 0.  0.
        4    1    3    3  502    0 -0.26243893039E+03 -0.13443708828E+04 -0.35933639261E+03  0.14160972843E+04  0.12699999809E+01 0.  1.
       -4    1    3    3    0  502  0.26243893039E+03  0.13443708828E+04  0.23398617913E+03  0.13895892946E+04  0.12699999809E+01 0. -1.
</event>
<event>
 5   0  0.3406920E-07  0.2800666E+04  0.7818609E-02  0.8303061E-01
        2   -1    0    0  501    0  0.00000000000E+00  0.00000000000E+00  0.17896108645E+04  0.17896108645E+04  0.25500000920E-02 0.  1.
       -2   -1    0    0    0  501  0.00000000000E+00  0.00000000000E+00 -0.10957315986E+04  0.10957315986E+04  0.25500000920E-02 0. -1.
    10030    2    1    2    0    0  0.00000000000E+00  0.00000000000E+00  0.69387926593E+03  0.28853424631E+04  0.28006664731E+04 0.  0.
        4    1    3    3  502    0  0.66855390963E+03  0.12232295637E+04  0.20996626311E+03  0.14097313007E+04  0.12699999809E+01 0.  1.
       -4    1    3    3    0  502 -0.66855390963E+03 -0.12232295637E+04  0.48391300282E+03  0.14756111624E+04  0.12699999809E+01 0. -1.
</event>
<event>
 5   0  0.1361741E-07  0.2800194E+04  0.7818609E-02  0.8303208E-01
       -1   -1    0    0    0  501  0.00000000000E+00  0.00000000000E+00  0.11514405798E+04  0.11514405798E+04  0.50400001928E-02 0. -1.
        1   -1    0    0  501    0  0.00000000000E+00  0.00000000000E+00 -0.17024515617E+04  0.17024515617E+04  0.50400001928E-02 0.  1.
    10030    2    1    2    0    0  0.00000000000E+00  0.00000000000E+00 -0.55101098188E+03  0.28538921415E+04  0.28001941456E+04 0.  0.
        5    1    3    3  502    0 -0.75634783429E+03  0.16483432264E+03 -0.14645038049E+04  0.16565101523E+04  0.46999998093E+01 0.  1.
       -5    1    3    3    0  502  0.75634783429E+03 -0.16483432264E+03  0.91349282299E+03  0.11973819892E+04  0.46999998093E+01 0. -1.
</event>
<event>
 5   0  0.1366235E-07  0.2799900E+04  0.7818609E-02  0.8303299E-01
        1   -1    0    0  501    0  0.00000000000E+00  0.00000000000E+00  0.11813753819E+04  0.11813753819E+04  0.50400001928E-02 0. -1.
       -1   -1    0    0    0  501  0.00000000000E+00  0.00000000000E+00 -0.16589647740E+04  0.16589647740E+04  0.50400001928E-02 0.  1.
    10030    2    1    2    0    0  0.00000000000E+00  0.00000000000E+00 -0.47758939207E+03  0.28403401559E+04  0.27999001007E+04 0.  0.
        2    1    3    3  502    0  0.98707986821E+03 -0.64380998992E+02  0.76616423500E+03  0.12511911182E+04  0.25500000920E-02 0. -1.
       -2    1    3    3    0  502 -0.98707986821E+03  0.64380998992E+02 -0.12437536271E+04  0.15891490377E+04  0.25500000920E-02 0.  1.
</event>
<event>
 5   0  0.1357902E-07  0.2799949E+04  0.7818609E-02  0.8303284E-01
       -1   -1    0    0    0  501  0.00000000000E+00  0.00000000000E+00  0.24530155633E+04  0.24530155633E+04  0.50400001928E-02 0. -1.
        1   -1    0    0  501    0  0.00000000000E+00  0.00000000000E+00 -0.79898743747E+03  0.79898743749E+03  0.50400001928E-02 0.  1.
    10030    2    1    2    0    0  0.00000000000E+00  0.00000000000E+00  0.16540281258E+04  0.32520030008E+04  0.27999490131E+04 0.  0.
        4    1    3    3  502    0  0.55280390825E+03  0.10544062959E+04  0.16825250369E+04  0.20611300081E+04  0.12699999809E+01 0. -1.
       -4    1    3    3    0  502 -0.55280390825E+03 -0.10544062959E+04 -0.28496911058E+02  0.11908729927E+04  0.12699999809E+01 0.  1.
</event>
<event>
 5   0  0.1357902E-07  0.2800432E+04  0.7818609E-02  0.8303134E-01
       -1   -1    0    0    0  501  0.00000000000E+00  0.00000000000E+00  0.12533104225E+04  0.12533104225E+04  0.50400001928E-02 0. -1.
        1   -1    0    0  501    0  0.00000000000E+00  0.00000000000E+00 -0.15643405456E+04  0.15643405456E+04  0.50400001928E-02 0.  1.
    10030    2    1    2    0    0  0.00000000000E+00  0.00000000000E+00 -0.31103012304E+03  0.28176509681E+04  0.28004316168E+04 0.  0.
        4    1    3    3  502    0 -0.12755181082E+04  0.33504423130E+03 -0.62894161777E+03  0.14610852997E+04  0.12699999809E+01 0.  1.
       -4    1    3    3    0  502  0.12755181082E+04 -0.33504423130E+03  0.31791149473E+03  0.13565656684E+04  0.12699999809E+01 0. -1.
</event>
<event>
 5   0  0.3502141E-07  0.2794837E+04  0.7818609E-02  0.8304873E-01
       -2   -1    0    0    0  501  0.00000000000E+00  0.00000000000E+00  0.10290384859E+04  0.10290384859E+04  0.25500000920E-02 0.  1.
        2   -1    0    0  501    0  0.00000000000E+00  0.00000000000E+00 -0.18976735922E+04  0.18976735922E+04  0.25500000920E-02 0. -1.
    10030    2    1    2    0    0  0.00000000000E+00  0.00000000000E+00 -0.86863510629E+03  0.29267120781E+04  0.27948374980E+04 0.  0.
        3    1    3    3  502    0 -0.44313162566E+03 -0.12701321014E+04 -0.83056047654E+03  0.15809591735E+04  0.10100000352E+00 0. -1.
       -3    1    3    3    0  502  0.44313162566E+03  0.12701321014E+04 -0.38074629747E+02  0.13457529047E+04  0.10100000352E+00 0.  1.
</event>
<event>
 5   0  0.1366235E-07  0.2798384E+04  0.7818609E-02  0.8303770E-01
        1   -1    0    0  501    0  0.00000000000E+00  0.00000000000E+00  0.11674843508E+04  0.11674843508E+04  0.50400001928E-02 0. -1.
       -1   -1    0    0    0  501  0.00000000000E+00  0.00000000000E+00 -0.16768860155E+04  0.16768860155E+04  0.50400001928E-02 0.  1.
    10030    2    1    2    0    0  0.00000000000E+00  0.00000000000E+00 -0.50940166473E+03  0.28443703663E+04  0.27983839488E+04 0.  0.
        2    1    3    3  502    0  0.88958425197E+03 -0.50562601989E+03 -0.12247000166E+04  0.15959034883E+04  0.25500000920E-02 0.  1.
       -2    1    3    3    0  502 -0.88958425197E+03  0.50562601989E+03  0.71529835185E+03  0.12484668780E+04  0.25500000920E-02 0. -1.
</event>
<event>
 5   0  0.3502141E-07  0.2797957E+04  0.7818609E-02  0.8303903E-01
        2   -1    0    0  501    0  0.00000000000E+00  0.00000000000E+00  0.20671406332E+04  0.20671406332E+04  0.25500000920E-02 0.  1.
       -2   -1    0    0    0  501  0.00000000000E+00  0.00000000000E+00 -0.94678628356E+03  0.94678628356E+03  0.25500000920E-02 0. -1.
    10030    2    1    2    0    0  0.00000000000E+00  0.00000000000E+00  0.11203543496E+04  0.30139269168E+04  0.27979566814E+04 0.  0.
        3    1    3    3  502    0  0.94176764201E+03  0.10287562631E+04  0.67755933171E+03  0.15505974328E+04  0.10100000352E+00 0.  1.
       -3    1    3    3    0  502 -0.94176764201E+03 -0.10287562631E+04  0.44279501793E+03  0.14633294839E+04  0.10100000352E+00 0. -1.
</event>
<event>
 5   0  0.1361741E-07  0.2799795E+04  0.7818609E-02  0.8303332E-01
        1   -1    0    0  501    0  0.00000000000E+00  0.00000000000E+00  0.15949545099E+04  0.15949545099E+04  0.50400001928E-02 0. -1.
       -1   -1    0    0    0  501  0.00000000000E+00  0.00000000000E+00 -0.12286954723E+04  0.12286954723E+04  0.50400001928E-02 0.  1.
    10030    2    1    2    0    0  0.00000000000E+00  0.00000000000E+00  0.36625903757E+03  0.28236499822E+04  0.27997952674E+04 0.  0.
        5    1    3    3  502    0  0.21564766904E+03  0.10246891209E+04 -0.75387178845E+03  0.12902854238E+04  0.46999998093E+01 0.  1.
       -5    1    3    3    0  502 -0.21564766904E+03 -0.10246891209E+04  0.11201308260E+04  0.15333645584E+04  0.46999998093E+01 0. -1.
</event>
<event>
 5   0  0.3502141E-07  0.2798550E+04  0.7818609E-02  0.8303719E-01
       -2   -1    0    0    0  501  0.00000000000E+00  0.00000000000E+00  0.12593234756E+04  0.12593234756E+04  0.25500000920E-02 0. -1.
        2   -1    0    0  501    0  0.00000000000E+00  0.00000000000E+00 -0.15547802133E+04  0.15547802133E+04  0.25500000920E-02 0.  1.
    10030    2    1    2    0    0  0.00000000000E+00  0.00000000000E+00 -0.29545673765E+03  0.28141036889E+04  0.27985504976E+04 0.  0.
        3    1    3    3  502    0 -0.40303573255E+03 -0.11427559754E+04  0.55590489756E+03  0.13331763898E+04  0.10100000352E+00 0. -1.
       -3    1    3    3    0  502  0.40303573255E+03  0.11427559754E+04 -0.85136163521E+03  0.14809272991E+04  0.10100000352E+00 0.  1.
</event>
<event>
 5   0  0.1374680E-07  0.2798509E+04  0.7818609E-02  0.8303731E-01
        1   -1    0    0  501    0  0.00000000000E+00  0.00000000000E+00  0.19159464441E+04  0.19159464441E+04  0.50400001928E-02 0.  1.
       -1   -1    0    0    0  501  0.00000000000E+00  0.00000000000E+00 -0.10219037313E+04  0.10219037313E+04  0.50400001928E-02 0. -1.
    10030    2    1    2    0    0  0.00000000000E+00  0.00000000000E+00  0.89404271285E+03  0.29378501754E+04  0.27985087602E+04 0.  0.
        3    1    3    3  502    0 -0.12453792154E+04  0.28749942206E+03  0.10448381060E+04  0.16508518970E+04  0.10100000352E+00 0. -1.
       -3    1    3    3    0  502  0.12453792154E+04 -0.28749942206E+03 -0.15079539316E+03  0.12869982784E+04  0.10100000352E+00 0.  1.
</event>
<event>
 5   0  0.1361741E-07  0.2800270E+04  0.7818609E-02  0.8303185E-01
        1   -1    0    0  501    0  0.00000000000E+00  0.00000000000E+00  0.15493042857E+04  0.15493042857E+04  0.50400001928E-02 0. -1.
       -1   -1    0    0    0  501  0.00000000000E+00  0.00000000000E+00 -0.12653277963E+04  0.12653277963E+04  0.50400001928E-02 0.  1.
    10030    2    1    2    0    0  0.00000000000E+00  0.00000000000E+00  0.28397648937E+03  0.28146320820E+04  0.28002698281E+04 0.  0.
        5    1    3    3  502    0  0.12547750759E+04  0.15220118134E+03  0.74734792082E+03  0.14683925549E+04  0.46999998093E+01 0. -1.
       -5    1    3    3    0  502 -0.12547750759E+04 -0.15220118134E+03 -0.46337143145E+03  0.13462395270E+04  0.46999998093E+01 0.  1.
</event>
<event>
 5   0  0.3557628E-07  0.2800754E+04  0.7818609E-02  0.8303034E-01
       -2   -1    0    0    0  501  0.00000000000E+00  0.00000000000E+00  0.72311034554E+03  0.72311034555E+03  0.25500000920E-02 0. -1.
        2   -1    0    0  501    0  0.00000000000E+00  0.00000000000E+00 -0.27119728283E+04  0.27119728284E+04  0.25500000920E-02 0.  1.
    10030    2    1    2    0    0  0.00000000000E+00  0.00000000000E+00 -0.19888624828E+04  0.34350831739E+04  0.28007539049E+04 0.  0.
        5    1    3    3  502    0  0.13021495187E+04 -0.13718346192E+03 -0.38534722887E+03  0.13648909290E+04  0.46999998093E+01 0. -1.
       -5    1    3    3    0  502 -0.13021495187E+04  0.13718346192E+03 -0.16035152539E+04  0.20701922449E+04  0.46999998093E+01 0.  1.
</event>
<event>
 5   0  0.1374680E-07  0.2798687E+04  0.7818609E-02  0.8303676E-01
        1   -1    0    0  501    0  0.00000000000E+00  0.00000000000E+00  0.18202269682E+04  0.18202269682E+04  0.50400001928E-02 0. -1.
       -1   -1    0    0    0  501  0.00000000000E+00  0.00000000000E+00 -0.10757795242E+04  0.10757795242E+04  0.50400001928E-02 0.  1.
    10030    2    1    2    0    0  0.00000000000E+00  0.00000000000E+00  0.74444744393E+03  0.28960064924E+04  0.27986874794E+04 0.  0.
        3    1    3    3  502    0  0.76714912418E+03 -0.17249181257E+03 -0.82556431905E+03  0.11400998462E+04  0.10100000352E+00 0.  1.
       -3    1    3    3    0  502 -0.76714912418E+03  0.17249181257E+03  0.15700117630E+04  0.17559066462E+04  0.10100000352E+00 0. -1.
</event>
<event>
 5   0  0.1366235E-07  0.2802526E+04  0.7818609E-02  0.8302485E-01
       -1   -1    0    0    0  501  0.00000000000E+00  0.00000000000E+00  0.11682319220E+04  0.11682319220E+04  0.50400001928E-02 0. -1.
        1   -1    0    0  501    0  0.00000000000E+00  0.00000000000E+00 -0.16807772280E+04  0.16807772280E+04  0.50400001928E-02 0.  1.
    10030    2    1    2    0    0  0.00000000000E+00  0.00000000000E+00 -0.51254530599E+03  0.28490091500E+04  0.28025257262E+04 0.  0.
        2    1    3    3  502    0  0.47254150775E+03  0.11412949796E+04 -0.92882564424E+03  0.15454988788E+04  0.25500000920E-02 0.  1.
       -2    1    3    3    0  502 -0.47254150775E+03 -0.11412949796E+04  0.41628033825E+03  0.13035102712E+04  0.25500000920E-02 0. -1.
</event>
<event>
 5   0  0.3571498E-07  0.2800233E+04  0.7818609E-02  0.8303196E-01
        2   -1    0    0  501    0  0.00000000000E+00  0.00000000000E+00  0.20336733636E+04  0.20336733636E+04  0.25500000920E-02 0.  1.
       -2   -1    0    0    0  501  0.00000000000E+00  0.00000000000E+00 -0.96393332666E+03  0.96393332667E+03  0.25500000920E-02 0. -1.
    10030    2    1    2    0    0  0.00000000000E+00  0.00000000000E+00  0.10697400369E+04  0.29976066903E+04  0.28002325123E+04 0.  0.
        2    1    3    3  502    0  0.11239270426E+04  0.81203673178E+03  0.32699220975E+03  0.14246190916E+04  0.25500000920E-02 0.  1.
       -2    1    3    3    0  502 -0.11239270426E+04 -0.81203673178E+03  0.74274782718E+03  0.15729875987E+04  0.25500000920E-02 0. -1.
</event>
<event>
 5   0  0.3571498E-07  0.2801253E+04  0.7818609E-02  0.8302879E-01
        2   -1    0    0  501    0  0.00000000000E+00  0.00000000000E+00  0.10295692121E+04  0.10295692121E+04  0.25500000920E-02 0.  1.
       -2   -1    0    0    0  501  0.00000000000E+00  0.00000000000E+00 -0.19054132320E+04  0.19054132320E+04  0.25500000920E-02 0. -1.
    10030    2    1    2    0    0  0.00000000000E+00  0.00000000000E+00 -0.87584401995E+03  0.29349824441E+04  0.28012531482E+04 0.  0.
        2    1    3    3  502    0  0.79337607960E+03  0.11001475563E+04 -0.80385837161E+03  0.15766922753E+04  0.25500000920E-02 0. -1.
       -2    1    3    3    0  502 -0.79337607960E+03 -0.11001475563E+04 -0.71985648346E+02  0.13582901689E+04  0.25500000920E-02 0.  1.
</event>
<event>
 5   0  0.3406920E-07  0.2799143E+04  0.7818609E-02  0.8303535E-01
        2   -1    0    0  501    0  0.00000000000E+00  0.00000000000E+00  0.14238686270E+04  0.14238686270E+04  0.25500000920E-02 0.  1.
       -2   -1    0    0    0  501  0.00000000000E+00  0.00000000000E+00 -0.13756886469E+04  0.13756886469E+04  0.25500000920E-02 0. -1.
    10030    2    1    2    0    0  0.00000000000E+00  0.00000000000E+00  0.48179980102E+02  0.27995572739E+04  0.27991426580E+04 0.  0.
        4    1    3    3  502    0 -0.67757188198E+03 -0.30588438667E+03 -0.11618889172E+04  0.13793681097E+04  0.12699999809E+01 0. -1.
       -4    1    3    3    0  502  0.67757188198E+03  0.30588438667E+03  0.12100688973E+04  0.14201891643E+04  0.12699999809E+01 0.  1.
</event>
<event>
 5   0  0.3522569E-07  0.2803908E+04  0.7818609E-02  0.8302056E-01
        2   -1    0    0  501    0  0.00000000000E+00  0.00000000000E+00  0.15921905790E+04  0.15921905790E+04  0.25500000920E-02 0. -1.
       -2   -1    0    0    0  501  0.00000000000E+00  0.00000000000E+00 -0.12344473350E+04  0.12344473350E+04  0.25500000920E-02 0.  1.
    10030    2    1    2    0    0  0.00000000000E+00  0.00000000000E+00  0.35774324406E+03  0.28266379140E+04  0.28039082845E+04 0.  0.
        1    1    3    3  502    0  0.13750037435E+04  0.90893021836E+01  0.45450625233E+03  0.14482036609E+04  0.50400001928E-02 0.  1.
       -1    1    3    3    0  502 -0.13750037435E+04 -0.90893021836E+01 -0.96763008278E+02  0.13784342530E+04  0.50400001928E-02 0. -1.
</event>
<event>
 5   0  0.1173363E-07  0.2799781E+04  0.7818609E-02  0.8303336E-01
       -4   -1    0    0    0  501  0.00000000000E+00  0.00000000000E+00  0.13975707489E+04  0.13975713259E+04  0.12699999809E+01 0. -1.
        4   -1    0    0  501    0  0.00000000000E+00  0.00000000000E+00 -0.14022125718E+04  0.14022131469E+04  0.12699999809E+01 0.  1.
    10030    2    1    2    0    0  0.00000000000E+00  0.00000000000E+00 -0.46418228928E+01  0.27997844729E+04  0.27997806250E+04 0.  0.
        1    1    3    3  502    0  0.21855112592E+03 -0.52020634443E+03 -0.12834603118E+04  0.14020162650E+04  0.50400001928E-02 0.  1.
       -1    1    3    3    0  502 -0.21855112592E+03  0.52020634443E+03  0.12788184889E+04  0.13977682079E+04  0.50400001928E-02 0. -1.
</event>
<event>
 5   0  0.3406920E-07  0.2798222E+04  0.7818609E-02  0.8303821E-01
        2   -1    0    0  501    0  0.00000000000E+00  0.00000000000E+00  0.16948512629E+04  0.16948512629E+04  0.25500000920E-02 0.  1.
       -2   -1    0    0    0  501  0.00000000000E+00  0.00000000000E+00 -0.11549754680E+04  0.11549754680E+04  0.25500000920E-02 0. -1.
    10030    2    1    2    0    0  0.00000000000E+00  0.00000000000E+00  0.53987579485E+03  0.28498267309E+04  0.27982220288E+04 0.  0.
        4    1    3    3  502    0 -0.77935591560E+03  0.88234267998E+03  0.10399135428E+04  0.15707787997E+04  0.12699999809E+01 0. -1.
       -4    1    3    3    0  502  0.77935591560E+03 -0.88234267998E+03 -0.50003774797E+03  0.12790479312E+04  0.12699999809E+01 0.  1.
</event>
<event>
 5   0  0.3502141E-07  0.2800514E+04  0.7818609E-02  0.8303109E-01
        2   -1    0    0  501    0  0.00000000000E+00  0.00000000000E+00  0.24811667701E+04  0.24811667701E+04  0.25500000920E-02 0. -1.
       -2   -1    0    0    0  501  0.00000000000E+00  0.00000000000E+00 -0.79024081976E+03  0.79024081977E+03  0.25500000920E-02 0.  1.
    10030    2    1    2    0    0  0.00000000000E+00  0.00000000000E+00  0.16909259504E+04  0.32714075899E+04  0.28005137117E+04 0.  0.
        3    1    3    3  502    0 -0.19472603726E+03  0.59236505646E+03 -0.61910675755E+03  0.87869663545E+03  0.10100000352E+00 0.  1.
       -3    1    3    3    0  502  0.19472603726E+03 -0.59236505646E+03  0.23100327079E+04  0.23927109545E+04  0.10100000352E+00 0. -1.
</event>
<event>
 5   0  0.1374680E-07  0.2800646E+04  0.7818609E-02  0.8303068E-01
       -1   -1    0    0    0  501  0.00000000000E+00  0.00000000000E+00  0.17117008500E+04  0.17117008500E+04  0.50400001928E-02 0.  1.
        1   -1    0    0  501    0  0.00000000000E+00  0.00000000000E+00 -0.11455885456E+04  0.11455885456E+04  0.50400001928E-02 0. -1.
    10030    2    1    2    0    0  0.00000000000E+00  0.00000000000E+00  0.56611230441E+03  0.28572893956E+04  0.28006462735E+04 0.  0.
        3    1    3    3  502    0 -0.12576268278E+04 -0.55668787357E+03  0.14331418220E+02  0.13754024961E+04  0.10100000352E+00 0.  1.
       -3    1    3    3    0  502  0.12576268278E+04  0.55668787357E+03  0.55178088619E+03  0.14818868995E+04  0.10100000352E+00 0. -1.
</event>
<event>
 5   0  0.3557628E-07  0.2800615E+04  0.7818609E-02  0.8303077E-01
       -2   -1    0    0    0  501  0.00000000000E+00  0.00000000000E+00  0.99316459942E+03  0.99316459943E+03  0.25500000920E-02 0. -1.
        2   -1    0    0  501    0  0.00000000000E+00  0.00000000000E+00 -0.19743570141E+04  0.19743570141E+04  0.25500000920E-02 0.  1.
    10030    2    1    2    0    0  0.00000000000E+00  0.00000000000E+00 -0.98119241465E+03  0.29675216135E+04  0.28006152845E+04 0.  0.
        5    1    3    3  502    0  0.50495622752E+03  0.37616734493E+03 -0.18158783156E+04  0.19219570261E+04  0.46999998093E+01 0.  1.
       -5    1    3    3    0  502 -0.50495622752E+03 -0.37616734493E+03  0.83468590097E+03  0.10455645874E+04  0.46999998093E+01 0. -1.
</event>
<event>
 5   0  0.1357902E-07  0.2798207E+04  0.7818609E-02  0.8303825E-01
       -1   -1    0    0    0  501  0.00000000000E+00  0.00000000000E+00  0.12220273521E+04  0.12220273521E+04  0.50400001928E-02 0.  1.
        1   -1    0    0  501    0  0.00000000000E+00  0.00000000000E+00 -0.16018382692E+04  0.16018382692E+04  0.50400001928E-02 0. -1.
    10030    2    1    2    0    0  0.00000000000E+00  0.00000000000E+00 -0.37981091707E+03  0.28238656213E+04  0.27982066961E+04 0.  0.
        4    1    3    3  502    0 -0.72883930838E+03 -0.18127976174E+02  0.10151772959E+04  0.12498487572E+04  0.12699999809E+01 0.  1.
       -4    1    3    3    0  502  0.72883930838E+03  0.18127976174E+02 -0.13949882130E+04  0.15740168640E+04  0.12699999809E+01 0. -1.
</event>
<event>
 5   0  0.3522569E-07  0.2799316E+04  0.7818609E-02  0.8303481E-01
        2   -1    0    0  501    0  0.00000000000E+00  0.00000000000E+00  0.27856389966E+04  0.27856389966E+04  0.25500000920E-02 0. -1.
       -2   -1    0    0    0  501  0.00000000000E+00  0.00000000000E+00 -0.70326521869E+03  0.70326521870E+03  0.25500000920E-02 0.  1.
    10030    2    1    2    0    0  0.00000000000E+00  0.00000000000E+00  0.20823737779E+04  0.34889042153E+04  0.27993163581E+04 0.  0.
        1    1    3    3  502    0 -0.30963692197E+03 -0.13467677234E+04  0.76421655986E+03  0.15791406760E+04  0.50400001928E-02 0.  1.
       -1    1    3    3    0  502  0.30963692197E+03  0.13467677234E+04  0.13181572180E+04  0.19097635392E+04  0.50400001928E-02 0. -1.
</event>
<event>
 5   0  0.3571498E-07  0.2800399E+04  0.7818609E-02  0.8303144E-01
       -2   -1    0    0    0  501  0.00000000000E+00  0.00000000000E+00  0.14816567734E+04  0.14816567734E+04  0.25500000920E-02 0.  1.
        2   -1    0    0  501    0  0.00000000000E+00  0.00000000000E+00 -0.13232207452E+04  0.13232207452E+04  0.25500000920E-02 0. -1.
    10030    2    1    2    0    0  0.00000000000E+00  0.00000000000E+00  0.15843602822E+03  0.28048775186E+04  0.28003992428E+04 0.  0.
        2    1    3    3  502    0  0.13420421745E+04 -0.32655367769E+03 -0.15102886533E+03  0.13894330573E+04  0.25500000920E-02 0. -1.
       -2    1    3    3    0  502 -0.13420421745E+04  0.32655367769E+03  0.30946489355E+03  0.14154444613E+04  0.25500000920E-02 0.  1.
</event>
<event>
 5   0  0.1361741E-07  0.2800393E+04  0.7818609E-02  0.8303146E-01
        1   -1    0    0  501    0  0.00000000000E+00  0.00000000000E+00  0.24013524014E+04  0.24013524014E+04  0.50400001928E-02 0.  1.
       -1   -1    0    0    0  501  0.00000000000E+00  0.00000000000E+00 -0.81643613369E+03  0.81643613371E+03  0.50400001928E-02 0. -1.
    10030    2    1    2    0    0  0.00000000000E+00  0.00000000000E+00  0.15849162677E+04  0.32177885351E+04  0.28003934511E+04 0.  0.
        5    1    3    3  502    0 -0.45041192307E+02 -0.34778430592E+03  0.23500639994E+04  0.23760903863E+04  0.46999998093E+01 0.  1.
       -5    1    3    3    0  502  0.45041192307E+02  0.34778430592E+03 -0.76514773169E+03  0.84169814884E+03  0.46999998093E+01 0. -1.
</event>
<event>
 5   0  0.3406920E-07  0.2799642E+04  0.7818609E-02  0.8303380E-01
       -2   -1    0    0    0  501  0.00000000000E+00  0.00000000000E+00  0.11303146500E+04  0.11303146500E+04  0.25500000920E-02 0. -1.
        2   -1    0    0  501    0  0.00000000000E+00  0.00000000000E+00 -0.17335865195E+04  0.17335865195E+04  0.25500000920E-02 0.  1.
    10030    2    1    2    0    0  0.00000000000E+00  0.00000000000E+00 -0.60327186953E+03  0.28639011695E+04  0.27996415770E+04 0.  0.
        4    1    3    3  502    0 -0.92514622230E+03  0.10048883933E+04  0.11662311587E+02  0.13659552841E+04  0.12699999809E+01 0. -1.
       -4    1    3    3    0  502  0.92514622230E+03 -0.10048883933E+04 -0.61493418112E+03  0.14979458854E+04  0.12699999809E+01 0.  1.
</event>
<event>
 5   0  0.3557628E-07  0.2799855E+04  0.7818609E-02  0.8303313E-01
        2   -1    0    0  501    0  0.00000000000E+00  0.00000000000E+00  0.12992134252E+04  0.12992134252E+04  0.25500000920E-02 0. -1.
       -2   -1    0    0    0  501  0.00000000000E+00  0.00000000000E+00 -0.15084488553E+04  0.15084488553E+04  0.25500000920E-02 0.  1.
    10030    2    1    2    0    0  0.00000000000E+00  0.00000000000E+00 -0.20923543009E+03  0.28076622805E+04  0.27998549991E+04 0.  0.
        5    1    3    3  502    0 -0.45589314181E+03 -0.64781369944E+03 -0.12620779127E+04  0.14900885523E+04  0.46999998093E+01 0.  1.
       -5    1    3    3    0  502  0.45589314181E+03  0.64781369944E+03  0.10528424826E+04  0.13175737282E+04  0.46999998093E+01 0. -1.
</event>
<event>
 5   0  0.1357902E-07  0.2799656E+04  0.7818609E-02  0.8303375E-01
       -1   -1    0    0    0  501  0.00000000000E+00  0.00000000000E+00  0.10365631895E+04  0.10365631895E+04  0.50400001928E-02 0. -1.
        1   -1    0    0  501    0  0.00000000000E+00  0.00000000000E+00 -0.18903999018E+04  0.18903999018E+04  0.50400001928E-02 0.  1.
    10030    2    1    2    0    0  0.00000000000E+00  0.00000000000E+00 -0.85383671235E+03  0.29269630913E+04  0.27996563729E+04 0.  0.
        4    1    3    3  502    0  0.12096739559E+04 -0.18333810573E+03 -0.11379881521E+04  0.16709107061E+04  0.12699999809E+01 0. -1.
       -4    1    3    3    0  502 -0.12096739559E+04  0.18333810573E+03  0.28415143970E+03  0.12560523852E+04  0.12699999809E+01 0.  1.
</event>
<event>
 5   0  0.3522569E-07  0.2800939E+04  0.7818609E-02  0.8302977E-01
       -2   -1    0    0    0  501  0.00000000000E+00  0.00000000000E+00  0.16143195802E+04  0.16143195802E+04  0.25500000920E-02 0.  1.
        2   -1    0    0  501    0  0.00000000000E+00  0.00000000000E+00 -0.12149479904E+04  0.12149479904E+04  0.25500000920E-02 0. -1.
    10030    2    1    2    0    0  0.00000000000E+00  0.00000000000E+00  0.39937158974E+03  0.28292675706E+04  0.28009386497E+04 0.  0.
        1    1    3    3  502    0 -0.30766183126E+03  0.95191785688E+03 -0.79028316786E+03  0.12748925030E+04  0.50400001928E-02 0. -1.
       -1    1    3    3    0  502  0.30766183126E+03 -0.95191785688E+03  0.11896547576E+04  0.15543750677E+04  0.50400001928E-02 0.  1.
</event>
<event>
 5   0  0.1173363E-07  0.2800736E+04  0.7818609E-02  0.8303040E-01
       -3   -1    0    0    0  501  0.00000000000E+00  0.00000000000E+00  0.15224982879E+04  0.15224982913E+04  0.10100000352E+00 0.  1.
        3   -1    0    0  501    0  0.00000000000E+00  0.00000000000E+00 -0.12880345706E+04  0.12880345745E+04  0.10100000352E+00 0. -1.
    10030    2    1    2    0    0  0.00000000000E+00  0.00000000000E+00  0.23446371734E+03  0.28105328658E+04  0.28007359309E+04 0.  0.
        2    1    3    3  502    0  0.69381792045E+02 -0.95341364008E+03  0.11441486835E+04  0.14909351468E+04  0.25500000920E-02 0.  1.
       -2    1    3    3    0  502 -0.69381792045E+02  0.95341364008E+03 -0.90968496616E+03  0.13195977189E+04  0.25500000920E-02 0. -1.
</event>
<event>
 5   0  0.1374680E-07  0.2800086E+04  0.7818609E-02  0.8303242E-01
        1   -1    0    0  501    0  0.00000000000E+00  0.00000000000E+00  0.18029595372E+04  0.18029595372E+04  0.50400001928E-02 0.  1.
       -1   -1    0    0    0  501  0.00000000000E+00  0.00000000000E+00 -0.10871681273E+04  0.10871681273E+04  0.50400001928E-02 0. -1.
    10030    2    1    2    0    0  0.00000000000E+00  0.00000000000E+00  0.71579140992E+03  0.28901276645E+04  0.28000858156E+04 0.  0.
        3    1    3    3  502    0 -0.65703080387E+03  0.87345983904E+03  0.12609583460E+04  0.16687233228E+04  0.10100000352E+00 0.  1.
       -3    1    3    3    0  502  0.65703080387E+03 -0.87345983904E+03 -0.54516693605E+03  0.12214043417E+04  0.10100000352E+00 0. -1.
</event>
<event>
 5   0  0.1374680E-07  0.2798149E+04  0.7818609E-02  0.8303843E-01
        1   -1    0    0  501    0  0.00000000000E+00  0.00000000000E+00  0.26772213179E+04  0.26772213179E+04  0.50400001928E-02 0. -1.
       -1   -1    0    0    0  501  0.00000000000E+00  0.00000000000E+00 -0.73113460312E+03  0.73113460314E+03  0.50400001928E-02 0.  1.
    10030    2    1    2    0    0  0.00000000000E+00  0.00000000000E+00  0.19460867147E+04  0.34083559210E+04  0.27981487778E+04 0.  0.
        3    1    3    3  502    0  0.57556137941E+02 -0.11632134686E+04  0.19173706050E+04  0.22433654027E+04  0.10100000352E+00 0. -1.
       -3    1    3    3    0  502 -0.57556137941E+02  0.11632134686E+04  0.28716109718E+02  0.11649905183E+04  0.10100000352E+00 0.  1.
</event>
<event>
 5   0  0.1346049E-07  0.2800840E+04  0.7818609E-02  0.8303007E-01
        1   -1    0    0  501    0  0.00000000000E+00  0.00000000000E+00  0.10743299645E+04  0.10743299645E+04  0.50400001928E-02 0. -1.
       -1   -1    0    0    0  501  0.00000000000E+00  0.00000000000E+00 -0.18254883812E+04  0.18254883812E+04  0.50400001928E-02 0.  1.
    10030    2    1    2    0    0  0.00000000000E+00  0.00000000000E+00 -0.75115841672E+03  0.28998183457E+04  0.28008404937E+04 0.  0.
        1    1    3    3  502    0  0.90864960408E+03 -0.40290797952E+03 -0.13969489873E+04  0.17144810924E+04  0.50400001928E-02 0.  1.
       -1    1    3    3    0  502 -0.90864960408E+03  0.40290797952E+03  0.64579057063E+03  0.11853372533E+04  0.50400001928E-02 0. -1.
</event>
<event>
 5   0  0.3502141E-07  0.2800313E+04  0.7818609E-02  0.8303171E-01
       -2   -1    0    0    0  501  0.00000000000E+00  0.00000000000E+00  0.15023871651E+04  0.15023871651E+04  0.25500000920E-02 0.  1.
        2   -1    0    0  501    0  0.00000000000E+00  0.00000000000E+00 -0.13048824955E+04  0.13048824955E+04  0.25500000920E-02 0. -1.
    10030    2    1    2    0    0  0.00000000000E+00  0.00000000000E+00  0.19750466958E+03  0.28072696605E+04  0.28003133490E+04 0.  0.
        3    1    3    3  502    0  0.42285143960E+03 -0.12006051815E+04  0.68345291483E+03  0.14447712756E+04  0.10100000352E+00 0.  1.
       -3    1    3    3    0  502 -0.42285143960E+03  0.12006051815E+04 -0.48594824525E+03  0.13624983850E+04  0.10100000352E+00 0. -1.
</event>
<event>
 5   0  0.1173363E-07  0.2793121E+04  0.7818609E-02  0.8305407E-01
       -3   -1    0    0    0  501  0.00000000000E+00  0.00000000000E+00  0.16352055534E+04  0.16352055565E+04  0.10100000352E+00 0. -1.
        3   -1    0    0  501    0  0.00000000000E+00  0.00000000000E+00 -0.11927435600E+04  0.11927435642E+04  0.10100000352E+00 0.  1.
    10030    2    1    2    0    0  0.00000000000E+00  0.00000000000E+00  0.44246199341E+03  0.28279491207E+04  0.27931207661E+04 0.  0.
        5    1    3    3  502    0  0.23748612747E+03  0.22542675094E+03 -0.11533212997E+04  0.11989115860E+04  0.46999998093E+01 0.  1.
       -5    1    3    3    0  502 -0.23748612747E+03 -0.22542675094E+03  0.15957832931E+04  0.16290375347E+04  0.46999998093E+01 0. -1.
</event>
<event>
 5   0  0.3502141E-07  0.2800473E+04  0.7818609E-02  0.8303122E-01
       -2   -1    0    0    0  501  0.00000000000E+00  0.00000000000E+00  0.13079858126E+04  0.13079858126E+04  0.25500000920E-02 0. -1.
        2   -1    0    0  501    0  0.00000000000E+00  0.00000000000E+00 -0.14989930033E+04  0.14989930033E+04  0.25500000920E-02 0.  1.
    10030    2    1    2    0    0  0.00000000000E+00  0.00000000000E+00 -0.19100719068E+03  0.28069788160E+04  0.28004725184E+04 0.  0.
        3    1    3    3  502    0  0.62112804296E+02  0.14597866235E+03  0.12989488628E+04  0.13086007522E+04  0.10100000352E+00 0. -1.
       -3    1    3    3    0  502 -0.62112804296E+02 -0.14597866235E+03 -0.14899560535E+04  0.14983780637E+04  0.10100000352E+00 0.  1.
</event>
<event>
 5   0  0.3557628E-07  0.2800106E+04  0.7818609E-02  0.8303235E-01
        2   -1    0    0  501    0  0.00000000000E+00  0.00000000000E+00  0.12344013227E+04  0.12344013227E+04  0.25500000920E-02 0.  1.
       -2   -1    0    0    0  501  0.00000000000E+00  0.00000000000E+00 -0.15879347764E+04  0.15879347764E+04  0.25500000920E-02 0. -1.
    10030    2    1    2    0    0  0.00000000000E+00  0.00000000000E+00 -0.35353345369E+03  0.28223360991E+04  0.28001062754E+04 0.  0.
        5    1    3    3  502    0 -0.58546935073E+03  0.11657554901E+04 -0.68909968623E+03  0.14753442618E+04  0.46999998093E+01 0. -1.
       -5    1    3    3    0  502  0.58546935073E+03 -0.11657554901E+04  0.33556623255E+03  0.13469918373E+04  0.46999998093E+01 0.  1.
</event>
<event>
 5   0  0.1366235E-07  0.2800041E+04  0.7818609E-02  0.8303256E-01
       -1   -1    0    0    0  501  0.00000000000E+00  0.00000000000E+00  0.13891485524E+04  0.13891485524E+04  0.50400001928E-02 0. -1.
        1   -1    0    0  501    0  0.00000000000E+00  0.00000000000E+00 -0.14109774682E+04  0.14109774682E+04  0.50400001928E-02 0.  1.
    10030    2    1    2    0    0  0.00000000000E+00  0.00000000000E+00 -0.21828915821E+02  0.28001260207E+04  0.28000409336E+04 0.  0.
        2    1    3    3  502    0  0.42795120735E+03 -0.12109464076E+04  0.54634916213E+03  0.13957187556E+04  0.25500000920E-02 0.  1.
       -2    1    3    3    0  502 -0.42795120735E+03  0.12109464076E+04 -0.56817807795E+03  0.14044072650E+04  0.25500000920E-02 0. -1.
</event>
<event>
 5   0  0.1357902E-07  0.2799363E+04  0.7818609E-02  0.8303466E-01
        1   -1    0    0  501    0  0.00000000000E+00  0.00000000000E+00  0.86773840898E+03  0.86773840900E+03  0.50400001928E-02 0.  1.
       -1   -1    0    0    0  501  0.00000000000E+00  0.00000000000E+00 -0.22577168677E+04  0.22577168677E+04  0.50400001928E-02 0. -1.
    10030    2    1    2    0    0  0.00000000000E+00  0.00000000000E+00 -0.13899784588E+04  0.31254552767E+04  0.27993625294E+04 0.  0.
        4    1    3    3  502    0  0.33830522661E+03  0.10176951751E+04 -0.16991784525E+04  0.20093190195E+04  0.12699999809E+01 0. -1.
       -4    1    3    3    0  502 -0.33830522661E+03 -0.10176951751E+04  0.30919999376E+03  0.11161362572E+04  0.12699999809E+01 0.  1.
</event>
<event>
 5   0  0.3571498E-07  0.2799944E+04  0.7818609E-02  0.8303286E-01
        2   -1    0    0  501    0  0.00000000000E+00  0.00000000000E+00  0.11604701621E+04  0.11604701621E+04  0.25500000920E-02 0.  1.
       -2   -1    0    0    0  501  0.00000000000E+00  0.00000000000E+00 -0.16889025708E+04  0.16889025708E+04  0.25500000920E-02 0. -1.
    10030    2    1    2    0    0  0.00000000000E+00  0.00000000000E+00 -0.52843240873E+03  0.28493727329E+04  0.27999435995E+04 0.  0.
        2    1    3    3  502    0  0.38762513444E+03  0.53367662539E+03 -0.15208668174E+04  0.16577393829E+04  0.25500000920E-02 0. -1.
       -2    1    3    3    0  502 -0.38762513444E+03 -0.53367662539E+03  0.99243440867E+03  0.11916333500E+04  0.25500000920E-02 0.  1.
</event>
<event>
 5   0  0.3502141E-07  0.2799939E+04  0.7818609E-02  0.8303287E-01
       -2   -1    0    0    0  501  0.00000000000E+00  0.00000000000E+00  0.76527671296E+03  0.76527671296E+03  0.25500000920E-02 0. -1.
        2   -1    0    0  501    0  0.00000000000E+00  0.00000000000E+00 -0.25610536424E+04  0.25610536424E+04  0.25500000920E-02 0.  1.
    10030    2    1    2    0    0  0.00000000000E+00  0.00000000000E+00 -0.17957769295E+04  0.33263303554E+04  0.27999390802E+04 0.  0.
        3    1    3    3  502    0 -0.35210018080E+03  0.10273540878E+04 -0.19474278189E+04  0.22297771366E+04  0.10100000352E+00 0. -1.
       -3    1    3    3    0  502  0.35210018080E+03 -0.10273540878E+04  0.15165088939E+03  0.10965532188E+04  0.10100000352E+00 0.  1.
</event>
<event>
 5   0  0.1346049E-07  0.2800539E+04  0.7818609E-02  0.8303101E-01
       -1   -1    0    0    0  501  0.00000000000E+00  0.00000000000E+00  0.15643759661E+04  0.15643759661E+04  0.50400001928E-02 0.  1.
        1   -1    0    0  501    0  0.00000000000E+00  0.00000000000E+00 -0.12533784745E+04  0.12533784745E+04  0.50400001928E-02 0. -1.
    10030    2    1    2    0    0  0.00000000000E+00  0.00000000000E+00  0.31099749163E+03  0.28177544406E+04  0.28005393494E+04 0.  0.
        1    1    3    3  502    0  0.76856058032E+03  0.11630981948E+04  0.28773106812E+03  0.14234717925E+04  0.50400001928E-02 0.  1.
       -1    1    3    3    0  502 -0.76856058032E+03 -0.11630981948E+04  0.23266423507E+02  0.13942826481E+04  0.50400001928E-02 0. -1.
</event>
<event>
 5   0  0.3557628E-07  0.2798556E+04  0.7818609E-02  0.8303717E-01
       -2   -1    0    0    0  501  0.00000000000E+00  0.00000000000E+00  0.10119300102E+04  0.10119300102E+04  0.25500000920E-02 0.  1.
        2   -1    0    0  501    0  0.00000000000E+00  0.00000000000E+00 -0.19348953159E+04  0.19348953159E+04  0.25500000920E-02 0. -1.
    10030    2    1    2    0    0  0.00000000000E+00  0.00000000000E+00 -0.92296530569E+03  0.29468253261E+04  0.27985557967E+04 0.  0.
        5    1    3    3  502    0  0.98538720281E+03 -0.86119003297E+03  0.60056836643E+02  0.13100630237E+04  0.46999998093E+01 0. -1.
       -5    1    3    3    0  502 -0.98538720281E+03  0.86119003297E+03 -0.98302214234E+03  0.16367623024E+04  0.46999998093E+01 0.  1.
</event>
<event>
 5   0  0.1357902E-07  0.2801036E+04  0.7818609E-02  0.8302947E-01
        1   -1    0    0  501    0  0.00000000000E+00  0.00000000000E+00  0.18391105905E+04  0.18391105905E+04  0.50400001928E-02 0. -1.
       -1   -1    0    0    0  501  0.00000000000E+00  0.00000000000E+00 -0.10665215479E+04  0.10665215480E+04  0.50400001928E-02 0.  1.
    10030    2    1    2    0    0  0.00000000000E+00  0.00000000000E+00  0.77258904256E+03  0.29056321385E+04  0.28010362896E+04 0.  0.
        4    1    3    3  502    0  0.13545659462E+04 -0.12037341827E+03  0.38961864806E+02  0.13604625325E+04  0.12699999809E+01 0.  1.
       -4    1    3    3    0  502 -0.13545659462E+04  0.12037341827E+03  0.73362717775E+03  0.15451696060E+04  0.12699999809E+01 0. -1.
</event>
<event>
 5   0  0.1361741E-07  0.2804640E+04  0.7818609E-02  0.8301829E-01
        1   -1    0    0  501    0  0.00000000000E+00  0.00000000000E+00  0.14513698720E+04  0.14513698720E+04  0.50400001928E-02 0.  1.
       -1   -1    0    0    0  501  0.00000000000E+00  0.00000000000E+00 -0.13549282545E+04  0.13549282545E+04  0.50400001928E-02 0. -1.
    10030    2    1    2    0    0  0.00000000000E+00  0.00000000000E+00  0.96441617473E+02  0.28062981265E+04  0.28046404741E+04 0.  0.
        5    1    3    3  502    0  0.56635004420E+03  0.10540030871E+04 -0.68351510359E+03  0.13780021288E+04  0.46999998093E+01 0. -1.
       -5    1    3    3    0  502 -0.56635004420E+03 -0.10540030871E+04  0.77995672107E+03  0.14282959977E+04  0.46999998093E+01 0.  1.
</event>
<event>
 5   0  0.3571498E-07  0.2796308E+04  0.7818609E-02  0.8304416E-01
        2   -1    0    0  501    0  0.00000000000E+00  0.00000000000E+00  0.18567287220E+04  0.18567287220E+04  0.25500000920E-02 0.  1.
       -2   -1    0    0    0  501  0.00000000000E+00  0.00000000000E+00 -0.10528376555E+04  0.10528376555E+04  0.25500000920E-02 0. -1.
    10030    2    1    2    0    0  0.00000000000E+00  0.00000000000E+00  0.80389106647E+03  0.29095663775E+04  0.27963075042E+04 0.  0.
        2    1    3    3  502    0 -0.11039580180E+04  0.40422299087E+02 -0.48978233016E+03  0.12084055606E+04  0.25500000920E-02 0. -1.
       -2    1    3    3    0  502  0.11039580180E+04 -0.40422299087E+02  0.12936733966E+04  0.17011608169E+04  0.25500000920E-02 0.  1.
</event>
<event>
 5   0  0.1346049E-07  0.2794097E+04  0.7818609E-02  0.8305103E-01
       -1   -1    0    0    0  501  0.00000000000E+00  0.00000000000E+00  0.84144960687E+03  0.84144960689E+03  0.50400001928E-02 0. -1.
        1   -1    0    0  501    0  0.00000000000E+00  0.00000000000E+00 -0.23195027463E+04  0.23195027463E+04  0.50400001928E-02 0.  1.
    10030    2    1    2    0    0  0.00000000000E+00  0.00000000000E+00 -0.14780531394E+04  0.31609523532E+04  0.27940971164E+04 0.  0.
        1    1    3    3  502    0  0.61545609611E+03 -0.29133604982E+03 -0.21190607757E+04  0.22257765996E+04  0.50400001928E-02 0.  1.
       -1    1    3    3    0  502 -0.61545609611E+03  0.29133604982E+03  0.64100763633E+03  0.93517575354E+03  0.50400001928E-02 0. -1.
</event>
<event>
 5   0  0.1366235E-07  0.2799964E+04  0.7818609E-02  0.8303279E-01
        1   -1    0    0  501    0  0.00000000000E+00  0.00000000000E+00  0.13017089656E+04  0.13017089656E+04  0.50400001928E-02 0.  1.
       -1   -1    0    0    0  501  0.00000000000E+00  0.00000000000E+00 -0.15056746779E+04  0.15056746779E+04  0.50400001928E-02 0. -1.
    10030    2    1    2    0    0  0.00000000000E+00  0.00000000000E+00 -0.20396571224E+03  0.28073836435E+04  0.27999644480E+04 0.  0.
        2    1    3    3  502    0 -0.92651162654E+03 -0.53473138032E+03 -0.10074753837E+04  0.14694788504E+04  0.25500000920E-02 0.  1.
       -2    1    3    3    0  502  0.92651162654E+03  0.53473138032E+03  0.80350967143E+03  0.13379047931E+04  0.25500000920E-02 0. -1.
</event>
<event>
 5   0  0.3557628E-07  0.2802047E+04  0.7818609E-02  0.8302633E-01
       -2   -1    0    0    0  501  0.00000000000E+00  0.00000000000E+00  0.69676615465E+03  0.69676615466E+03  0.25500000920E-02 0. -1.
        2   -1    0    0  501    0  0.00000000000E+00  0.00000000000E+00 -0.28171093069E+04  0.28171093069E+04  0.25500000920E-02 0.  1.
    10030    2    1    2    0    0  0.00000000000E+00  0.00000000000E+00 -0.21203431523E+04  0.35138754616E+04  0.28020466941E+04 0.  0.
        5    1    3    3  502    0  0.29558108479E+03  0.59096355427E+02 -0.27759532972E+04  0.27922749426E+04  0.46999998093E+01 0.  1.
       -5    1    3    3    0  502 -0.29558108479E+03 -0.59096355427E+02  0.65561014490E+03  0.72160051899E+03  0.46999998093E+01 0. -1.
</event>
<event>
 5   0  0.3406920E-07  0.2799603E+04  0.7818609E-02  0.8303392E-01
        2   -1    0    0  501    0  0.00000000000E+00  0.00000000000E+00  0.12479169163E+04  0.12479169163E+04  0.25500000920E-02 0.  1.
       -2   -1    0    0    0  501  0.00000000000E+00  0.00000000000E+00 -0.15701714840E+04  0.15701714840E+04  0.25500000920E-02 0. -1.
    10030    2    1    2    0    0  0.00000000000E+00  0.00000000000E+00 -0.32225456771E+03  0.28180884002E+04  0.27996025120E+04 0.  0.
        4    1    3    3  502    0  0.11270892157E+03 -0.38180494378E+03 -0.15119884242E+04  0.15635181239E+04  0.12699999809E+01 0. -1.
       -4    1    3    3    0  502 -0.11270892157E+03  0.38180494378E+03  0.11897338565E+04  0.12545702763E+04  0.12699999809E+01 0.  1.
</event>
<event>
 5   0  0.1366235E-07  0.2800068E+04  0.7818609E-02  0.8303247E-01
        1   -1    0    0  501    0  0.00000000000E+00  0.00000000000E+00  0.29935755709E+04  0.29935755709E+04  0.50400001928E-02 0. -1.
       -1   -1    0    0    0  501  0.00000000000E+00  0.00000000000E+00 -0.65476700733E+03  0.65476700735E+03  0.50400001928E-02 0.  1.
    10030    2    1    2    0    0  0.00000000000E+00  0.00000000000E+00  0.23388085636E+04  0.36483425782E+04  0.28000675119E+04 0.  0.
        2    1    3    3  502    0  0.58611780862E+03 -0.98374679949E+03  0.11990191540E+03  0.11513767066E+04  0.25500000920E-02 0. -1.
       -2    1    3    3    0  502 -0.58611780862E+03  0.98374679949E+03  0.22189066482E+04  0.24969658717E+04  0.25500000920E-02 0.  1.
</event>
<event>
 5   0  0.1374680E-07  0.2799856E+04  0.7818609E-02  0.8303313E-01
        1   -1    0    0  501    0  0.00000000000E+00  0.00000000000E+00  0.15995202307E+04  0.15995202307E+04  0.50400001928E-02 0.  1.
       -1   -1    0    0    0  501  0.00000000000E+00  0.00000000000E+00 -0.12252409622E+04  0.12252409622E+04  0.50400001928E-02 0. -1.
    10030    2    1    2    0    0  0.00000000000E+00  0.00000000000E+00  0.37427926854E+03  0.28247611929E+04  0.27998555009E+04 0.  0.
        3    1    3    3  502    0  0.10974957313E+04  0.81462953555E+03 -0.11834004304E+03  0.13719047111E+04  0.10100000352E+00 0.  1.
       -3    1    3    3    0  502 -0.10974957313E+04 -0.81462953555E+03  0.49261931158E+03  0.14528564818E+04  0.10100000352E+00 0. -1.
</event>
<event>
 5   0  0.1366235E-07  0.2801388E+04  0.7818609E-02  0.8302838E-01
       -1   -1    0    0    0  501  0.00000000000E+00  0.00000000000E+00  0.15758917801E+04  0.15758917801E+04  0.50400001928E-02 0.  1.
        1   -1    0    0  501    0  0.00000000000E+00  0.00000000000E+00 -0.12449734309E+04  0.12449734309E+04  0.50400001928E-02 0. -1.
    10030    2    1    2    0    0  0.00000000000E+00  0.00000000000E+00  0.33091834913E+03  0.28208652110E+04  0.28013877962E+04 0.  0.
        2    1    3    3  502    0  0.67642091865E+03 -0.50075996402E+03 -0.96198515404E+03  0.12781710517E+04  0.25500000920E-02 0. -1.
       -2    1    3    3    0  502 -0.67642091865E+03  0.50075996402E+03  0.12929035032E+04  0.15426941593E+04  0.25500000920E-02 0.  1.
</event>
<event>
 5   0  0.3502141E-07  0.2800045E+04  0.7818609E-02  0.8303254E-01
       -2   -1    0    0    0  501  0.00000000000E+00  0.00000000000E+00  0.17984333922E+04  0.17984333922E+04  0.25500000920E-02 0.  1.
        2   -1    0    0  501    0  0.00000000000E+00  0.00000000000E+00 -0.10898726119E+04  0.10898726119E+04  0.25500000920E-02 0. -1.
    10030    2    1    2    0    0  0.00000000000E+00  0.00000000000E+00  0.70856078034E+03  0.28883060041E+04  0.28000452129E+04 0.  0.
        3    1    3    3  502    0 -0.14335838839E+01  0.52653974656E+03  0.16924051938E+04  0.17724224977E+04  0.10100000352E+00 0.  1.
       -3    1    3    3    0  502  0.14335838839E+01 -0.52653974656E+03 -0.98384441350E+03  0.11158835065E+04  0.10100000352E+00 0. -1.
</event>
<event>
 5   0  0.1173363E-07  0.2800869E+04  0.7818609E-02  0.8302999E-01
        3   -1    0    0  501    0  0.00000000000E+00  0.00000000000E+00  0.63483141491E+03  0.63483142295E+03  0.10100000352E+00 0. -1.
       -3   -1    0    0    0  501  0.00000000000E+00  0.00000000000E+00 -0.30893508265E+04  0.30893508281E+04  0.10100000352E+00 0.  1.
    10030    2    1    2    0    0  0.00000000000E+00  0.00000000000E+00 -0.24545194116E+04  0.37241822511E+04  0.28008691325E+04 0.  0.
        4    1    3    3  502    0  0.61473318161E+03 -0.81340844235E+03 -0.25037849611E+04  0.27034183773E+04  0.12699999809E+01 0.  1.
       -4    1    3    3    0  502 -0.61473318161E+03  0.81340844235E+03  0.49265549528E+02  0.10207638737E+04  0.12699999809E+01 0. -1.
</event>
<event>
 5   0  0.1357902E-07  0.2805125E+04  0.7818609E-02  0.8301679E-01
       -1   -1    0    0    0  501  0.00000000000E+00  0.00000000000E+00  0.10718427251E+04  0.10718427251E+04  0.50400001928E-02 0. -1.
        1   -1    0    0  501    0  0.00000000000E+00  0.00000000000E+00 -0.18353271397E+04  0.18353271397E+04  0.50400001928E-02 0.  1.
    10030    2    1    2    0    0  0.00000000000E+00  0.00000000000E+00 -0.76348441461E+03  0.29071698649E+04  0.28051253398E+04 0.  0.
        4    1    3    3  502    0  0.93558143348E+01 -0.13992766997E+04 -0.28278240967E+03  0.14275959925E+04  0.12699999809E+01 0. -1.
       -4    1    3    3    0  502 -0.93558143348E+01  0.13992766997E+04 -0.48070200493E+03  0.14795738724E+04  0.12699999809E+01 0.  1.
</event>
<event>
 5   0  0.1374680E-07  0.2800508E+04  0.7818609E-02  0.8303111E-01
       -1   -1    0    0    0  501  0.00000000000E+00  0.00000000000E+00  0.77682340783E+03  0.77682340785E+03  0.50400001928E-02 0. -1.
        1   -1    0    0  501    0  0.00000000000E+00  0.00000000000E+00 -0.25240119693E+04  0.25240119693E+04  0.50400001928E-02 0.  1.
    10030    2    1    2    0    0  0.00000000000E+00  0.00000000000E+00 -0.17471885615E+04  0.33008353772E+04  0.28005082249E+04 0.  0.
        3    1    3    3  502    0 -0.98660029425E+03  0.36362371840E+03 -0.19635222749E+04  0.22273351978E+04  0.10100000352E+00 0. -1.
       -3    1    3    3    0  502  0.98660029425E+03 -0.36362371840E+03  0.21633371346E+03  0.10735001793E+04  0.10100000352E+00 0.  1.
</event>
<event>
 5   0  0.3522569E-07  0.2813147E+04  0.7818609E-02  0.8299198E-01
        2   -1    0    0  501    0  0.00000000000E+00  0.00000000000E+00  0.22979906041E+04  0.22979906041E+04  0.25500000920E-02 0. -1.
       -2   -1    0    0    0  501  0.00000000000E+00  0.00000000000E+00 -0.86094748244E+03  0.86094748245E+03  0.25500000920E-02 0.  1.
    10030    2    1    2    0    0  0.00000000000E+00  0.00000000000E+00  0.14370431217E+04  0.31589380866E+04  0.28131471524E+04 0.  0.
        1    1    3    3  502    0 -0.38473353477E+03 -0.88006555461E+03  0.18724076244E+04  0.21043872232E+04  0.50400001928E-02 0. -1.
       -1    1    3    3    0  502  0.38473353477E+03  0.88006555461E+03 -0.43536450273E+03  0.10545508634E+04  0.50400001928E-02 0.  1.
</event>
<event>
 5   0  0.1346049E-07  0.2799639E+04  0.7818609E-02  0.8303380E-01
        1   -1    0    0  501    0  0.00000000000E+00  0.00000000000E+00  0.14884496460E+04  0.14884496460E+04  0.50400001928E-02 0. -1.
       -1   -1    0    0    0  501  0.00000000000E+00  0.00000000000E+00 -0.13164672922E+04  0.13164672922E+04  0.50400001928E-02 0.  1.
    10030    2    1    2    0    0  0.00000000000E+00  0.00000000000E+00  0.17198235377E+03  0.28049169383E+04  0.27996394590E+04 0.  0.
        1    1    3    3  502    0  0.44661133095E+03  0.25471534003E+03 -0.12184438101E+04  0.13224775626E+04  0.50400001928E-02 0.  1.
       -1    1    3    3    0  502 -0.44661133095E+03 -0.25471534003E+03  0.13904261638E+04  0.14824393756E+04  0.50400001928E-02 0. -1.
</event>
<event>
 5   0  0.3502141E-07  0.2803452E+04  0.7818609E-02  0.8302197E-01
        2   -1    0    0  501    0  0.00000000000E+00  0.00000000000E+00  0.16617253433E+04  0.16617253433E+04  0.25500000920E-02 0.  1.
       -2   -1    0    0    0  501  0.00000000000E+00  0.00000000000E+00 -0.11824072388E+04  0.11824072388E+04  0.25500000920E-02 0. -1.
    10030    2    1    2    0    0  0.00000000000E+00  0.00000000000E+00  0.47931810452E+03  0.28441325821E+04  0.28034522110E+04 0.  0.
        3    1    3    3  502    0  0.36542314613E+03  0.12915605320E+04 -0.17014980101E+03  0.13530017179E+04  0.10100000352E+00 0. -1.
       -3    1    3    3    0  502 -0.36542314613E+03 -0.12915605320E+04  0.64946790553E+03  0.14911308642E+04  0.10100000352E+00 0.  1.
</event>
<event>
 5   0  0.3502141E-07  0.2799913E+04  0.7818609E-02  0.8303295E-01
        2   -1    0    0  501    0  0.00000000000E+00  0.00000000000E+00  0.19895018677E+04  0.19895018677E+04  0.25500000920E-02 0. -1.
       -2   -1    0    0    0  501  0.00000000000E+00  0.00000000000E+00 -0.98511007940E+03  0.98511007941E+03  0.25500000920E-02 0.  1.
    10030    2    1    2    0    0  0.00000000000E+00  0.00000000000E+00  0.10043917883E+04  0.29746119471E+04  0.27999131007E+04 0.  0.
        3    1    3    3  502    0 -0.32141402697E+03 -0.22324660235E+03  0.19302105706E+04  0.19694818809E+04  0.10100000352E+00 0. -1.
       -3    1    3    3    0  502  0.32141402697E+03  0.22324660235E+03 -0.92581878228E+03  0.10051300662E+04  0.10100000352E+00 0.  1.
</event>
<event>
 5   0  0.3406920E-07  0.2799591E+04  0.7818609E-02  0.8303395E-01
       -2   -1    0    0    0  501  0.00000000000E+00  0.00000000000E+00  0.10404511894E+04  0.10404511894E+04  0.25500000920E-02 0. -1.
        2   -1    0    0  501    0  0.00000000000E+00  0.00000000000E+00 -0.18832478646E+04  0.18832478646E+04  0.25500000920E-02 0.  1.
    10030    2    1    2    0    0  0.00000000000E+00  0.00000000000E+00 -0.84279667521E+03  0.29236990540E+04  0.27995910278E+04 0.  0.
        4    1    3    3  502    0  0.64278628777E+03 -0.55750701862E+03  0.73937781744E+03  0.11272397515E+04  0.12699999809E+01 0. -1.
       -4    1    3    3    0  502 -0.64278628777E+03  0.55750701862E+03 -0.15821744927E+04  0.17964593025E+04  0.12699999809E+01 0.  1.
</event>
<event>
 5   0  0.1374680E-07  0.2798689E+04  0.7818609E-02  0.8303676E-01
       -1   -1    0    0    0  501  0.00000000000E+00  0.00000000000E+00  0.20518242337E+04  0.20518242337E+04  0.50400001928E-02 0.  1.
        1   -1    0    0  501    0  0.00000000000E+00  0.00000000000E+00 -0.95435296611E+03  0.95435296613E+03  0.50400001928E-02 0. -1.
    10030    2    1    2    0    0  0.00000000000E+00  0.00000000000E+00  0.10974712676E+04  0.30061771999E+04  0.27986886525E+04 0.  0.
        3    1    3    3  502    0  0.10067250031E+04  0.21801584929E+03  0.15661308951E+04  0.18745111718E+04  0.10100000352E+00 0.  1.
       -3    1    3    3    0  502 -0.10067250031E+04 -0.21801584929E+03 -0.46865962747E+03  0.11316660281E+04  0.10100000352E+00 0. -1.
</event>
<event>
 5   0  0.3406920E-07  0.2799659E+04  0.7818609E-02  0.8303374E-01
       -2   -1    0    0    0  501  0.00000000000E+00  0.00000000000E+00  0.86327432936E+03  0.86327432937E+03  0.25500000920E-02 0.  1.
        2   -1    0    0  501    0  0.00000000000E+00  0.00000000000E+00 -0.22698728598E+04  0.22698728598E+04  0.25500000920E-02 0. -1.
    10030    2    1    2    0    0  0.00000000000E+00  0.00000000000E+00 -0.14065985305E+04  0.31331471892E+04  0.27996592441E+04 0.  0.
        4    1    3    3  502    0 -0.90440236095E+03  0.67944130652E+03  0.21950594105E+03  0.11522884147E+04  0.12699999809E+01 0.  1.
       -4    1    3    3    0  502  0.90440236095E+03 -0.67944130652E+03 -0.16261044715E+04  0.19808587746E+04  0.12699999809E+01 0. -1.
</event>
<event>
 5   0  0.1361741E-07  0.2799595E+04  0.7818609E-02  0.8303394E-01
        1   -1    0    0  501    0  0.00000000000E+00  0.00000000000E+00  0.15679006042E+04  0.15679006042E+04  0.50400001928E-02 0. -1.
       -1   -1    0    0    0  501  0.00000000000E+00  0.00000000000E+00 -0.12497178503E+04  0.12497178503E+04  0.50400001928E-02 0.  1.
    10030    2    1    2    0    0  0.00000000000E+00  0.00000000000E+00  0.31818275383E+03  0.28176184545E+04  0.27995952369E+04 0.  0.
        5    1    3    3  502    0 -0.68843676896E+02  0.66012403857E+03 -0.10812827081E+04  0.12687385795E+04  0.46999998093E+01 0.  1.
       -5    1    3    3    0  502  0.68843676896E+02 -0.66012403857E+03  0.13994654619E+04  0.15488798750E+04  0.46999998093E+01 0. -1.
</event>
<event>
 5   0  0.3522569E-07  0.2799917E+04  0.7818609E-02  0.8303294E-01
        2   -1    0    0  501    0  0.00000000000E+00  0.00000000000E+00  0.10976429768E+04  0.10976429768E+04  0.25500000920E-02 0. -1.
       -2   -1    0    0    0  501  0.00000000000E+00  0.00000000000E+00 -0.17855389326E+04  0.17855389326E+04  0.25500000920E-02 0.  1.
    10030    2    1    2    0    0  0.00000000000E+00  0.00000000000E+00 -0.68789595583E+03  0.28831819094E+04  0.27999173339E+04 0.  0.
        1    1    3    3  502    0  0.37387052578E+03  0.10291548561E+04  0.55431515983E+03  0.12272751054E+04  0.50400001928E-02 0. -1.
       -1    1    3    3    0  502 -0.37387052578E+03 -0.10291548561E+04 -0.12422111157E+04  0.16559068040E+04  0.50400001928E-02 0.  1.
</event>
<event>
 5   0  0.1366235E-07  0.2799948E+04  0.7818609E-02  0.8303285E-01
        1   -1    0    0  501    0  0.00000000000E+00  0.00000000000E+00  0.14024541220E+04  0.14024541220E+04  0.50400001928E-02 0.  1.
       -1   -1    0    0    0  501  0.00000000000E+00  0.00000000000E+00 -0.13974980195E+04  0.13974980195E+04  0.50400001928E-02 0. -1.
    10030    2    1    2    0    0  0.00000000000E+00  0.00000000000E+00  0.49561024677E+01  0.27999521415E+04  0.27999477552E+04 0.  0.
        2    1    3    3  502    0 -0.11237957126E+04 -0.77937351680E+03 -0.29683325185E+03  0.13994462697E+04  0.25500000920E-02 0. -1.
       -2    1    3    3    0  502  0.11237957126E+04  0.77937351680E+03  0.30178935432E+03  0.14005058718E+04  0.25500000920E-02 0.  1.
</event>
<event>
 5   0  0.3557628E-07  0.2799219E+04  0.7818609E-02  0.8303511E-01
        2   -1    0    0  501    0  0.00000000000E+00  0.00000000000E+00  0.14149613470E+04  0.14149613470E+04  0.25500000920E-02 0.  1.
       -2   -1    0    0    0  501  0.00000000000E+00  0.00000000000E+00 -0.13844242189E+04  0.13844242189E+04  0.25500000920E-02 0. -1.
    10030    2    1    2    0    0  0.00000000000E+00  0.00000000000E+00  0.30537128128E+02  0.27993855660E+04  0.27992190037E+04 0.  0.
        5    1    3    3  502    0 -0.13927834651E+04  0.12661366663E+03  0.70115845757E+02  0.14002910852E+04  0.46999998093E+01 0.  1.
       -5    1    3    3    0  502  0.13927834651E+04 -0.12661366663E+03 -0.39578717628E+02  0.13990944808E+04  0.46999998093E+01 0. -1.
</event>
<event>
 5   0  0.1374680E-07  0.2800247E+04  0.7818609E-02  0.8303192E-01
       -1   -1    0    0    0  501  0.00000000000E+00  0.00000000000E+00  0.14208214740E+04  0.14208214741E+04  0.50400001928E-02 0. -1.
        1   -1    0    0  501    0  0.00000000000E+00  0.00000000000E+00 -0.13797272124E+04  0.13797272124E+04  0.50400001928E-02 0.  1.
    10030    2    1    2    0    0  0.00000000000E+00  0.00000000000E+00  0.41094261633E+02  0.28005486865E+04  0.28002471689E+04 0.  0.
        3    1    3    3  502    0  0.34656241549E+03 -0.13254086994E+04  0.30959782378E+03  0.14045157710E+04  0.10100000352E+00 0. -1.
       -3    1    3    3    0  502 -0.34656241549E+03  0.13254086994E+04 -0.26850356215E+03  0.13960329155E+04  0.10100000352E+00 0.  1.
</event>
<event>
 5   0  0.1374680E-07  0.2799314E+04  0.7818609E-02  0.8303481E-01
        1   -1    0    0  501    0  0.00000000000E+00  0.00000000000E+00  0.22185339281E+04  0.22185339281E+04  0.50400001928E-02 0.  1.
       -1   -1    0    0    0  501  0.00000000000E+00  0.00000000000E+00 -0.88303350942E+03  0.88303350943E+03  0.50400001928E-02 0. -1.
    10030    2    1    2    0    0  0.00000000000E+00  0.00000000000E+00  0.13355004187E+04  0.31015674376E+04  0.27993140591E+04 0.  0.
        3    1    3    3  502    0 -0.58333680071E+03 -0.12719840800E+04  0.69937054257E+03  0.15643990823E+04  0.10100000352E+00 0.  1.
       -3    1    3    3    0  502  0.58333680071E+03  0.12719840800E+04  0.63612987613E+03  0.15371683552E+04  0.10100000352E+00 0. -1.
</event>
<event>
 5   0  0.1374680E-07  0.2780601E+04  0.7818609E-02  0.8309316E-01
       -1   -1    0    0    0  501  0.00000000000E+00  0.00000000000E+00  0.11240213719E+04  0.11240213719E+04  0.50400001928E-02 0. -1.
        1   -1    0    0  501    0  0.00000000000E+00  0.00000000000E+00 -0.17196612516E+04  0.17196612516E+04  0.50400001928E-02 0.  1.
    10030    2    1    2    0    0  0.00000000000E+00  0.00000000000E+00 -0.59563987963E+03  0.28436826235E+04  0.27806013733E+04 0.  0.
        3    1    3    3  502    0 -0.88776497463E+03 -0.54059790779E+02 -0.13906532710E+04  0.16507469950E+04  0.10100000352E+00 0.  1.
       -3    1    3    3    0  502  0.88776497463E+03  0.54059790779E+02  0.79501339137E+03  0.11929356285E+04  0.10100000352E+00 0. -1.
</event>
<event>
 5   0  0.1366235E-07  0.2799319E+04  0.7818609E-02  0.8303480E-01
       -1   -1    0    0    0  501  0.00000000000E+00  0.00000000000E+00  0.19266236450E+04  0.19266236450E+04  0.50400001928E-02 0.  1.
        1   -1    0    0  501    0  0.00000000000E+00  0.00000000000E+00 -0.10168291760E+04  0.10168291760E+04  0.50400001928E-02 0. -1.
    10030    2    1    2    0    0  0.00000000000E+00  0.00000000000E+00  0.90979446893E+03  0.29434528210E+04  0.27993192983E+04 0.  0.
        2    1    3    3  502    0  0.33090940471E+02 -0.13648680071E+04  0.77913696726E+03  0.15719459599E+04  0.25500000920E-02 0. -1.
       -2    1    3    3    0  502 -0.33090940471E+02  0.13648680071E+04  0.13065750167E+03  0.13715068611E+04  0.25500000920E-02 0.  1.
</event>
<event>
 5   0  0.1361741E-07  0.2800216E+04  0.7818609E-02  0.8303201E-01
       -1   -1    0    0    0  501  0.00000000000E+00  0.00000000000E+00  0.16116222786E+04  0.16116222786E+04  0.50400001928E-02 0.  1.
        1   -1    0    0  501    0  0.00000000000E+00  0.00000000000E+00 -0.12163533908E+04  0.12163533908E+04  0.50400001928E-02 0. -1.
    10030    2    1    2    0    0  0.00000000000E+00  0.00000000000E+00  0.39526888781E+03  0.28279756694E+04  0.28002158654E+04 0.  0.
        5    1    3    3  502    0  0.48819174855E+03  0.74672312373E+03 -0.89211482967E+03  0.12616725273E+04  0.46999998093E+01 0. -1.
       -5    1    3    3    0  502 -0.48819174855E+03 -0.74672312373E+03  0.12873837175E+04  0.15663031421E+04  0.46999998093E+01 0.  1.
</event>
<event>
 5   0  0.3557628E-07  0.2799614E+04  0.7818609E-02  0.8303388E-01
        2   -1    0    0  501    0  0.00000000000E+00  0.00000000000E+00  0.18478062447E+04  0.18478062447E+04  0.25500000920E-02 0.  1.
       -2   -1    0    0    0  501  0.00000000000E+00  0.00000000000E+00 -0.10604252072E+04  0.10604252072E+04  0.25500000920E-02 0. -1.
    10030    2    1    2    0    0  0.00000000000E+00  0.00000000000E+00  0.78738103752E+03  0.29082314518E+04  0.27996144876E+04 0.  0.
        5    1    3    3  502    0  0.32438620825E+03 -0.53307146129E+03 -0.90793786634E+03  0.11017099682E+04  0.46999998093E+01 0. -1.
       -5    1    3    3    0  502 -0.32438620825E+03  0.53307146129E+03  0.16953189039E+04  0.18065214836E+04  0.46999998093E+01 0.  1.
</event>
<event>
 5   0  0.1173363E-07  0.2800071E+04  0.7818609E-02  0.8303246E-01
        3   -1    0    0  501    0  0.00000000000E+00  0.00000000000E+00  0.18316678045E+04  0.18316678073E+04  0.10100000352E+00 0. -1.
       -3   -1    0    0    0  501  0.00000000000E+00  0.00000000000E+00 -0.10701169723E+04  0.10701169771E+04  0.10100000352E+00 0.  1.
    10030    2    1    2    0    0  0.00000000000E+00  0.00000000000E+00  0.76155083212E+03  0.29017847844E+04  0.28000705821E+04 0.  0.
        4    1    3    3  502    0 -0.18613580701E+03  0.40227423284E+03 -0.99548139001E+03  0.10897045048E+04  0.12699999809E+01 0.  1.
       -4    1    3    3    0  502  0.18613580701E+03 -0.40227423284E+03  0.17570322221E+04  0.18120802796E+04  0.12699999809E+01 0. -1.
</event>
<event>
 5   0  0.3522569E-07  0.2782579E+04  0.7818609E-02  0.8308697E-01
       -2   -1    0    0    0  501  0.00000000000E+00  0.00000000000E+00  0.14423993790E+04  0.14423993790E+04  0.25500000920E-02 0.  1.
        2   -1    0    0  501    0  0.00000000000E+00  0.00000000000E+00 -0.13419906098E+04  0.13419906098E+04  0.25500000920E-02 0. -1.
    10030    2    1    2    0    0  0.00000000000E+00  0.00000000000E+00  0.10040876922E+03  0.27843899889E+04  0.27825789637E+04 0.  0.
        1    1    3    3  502    0 -0.59047142426E+03 -0.56419026778E+03  0.11773118664E+04  0.14328399743E+04  0.50400001928E-02 0.  1.
       -1    1    3    3    0  502  0.59047142426E+03  0.56419026778E+03 -0.10769030972E+04  0.13515500146E+04  0.50400001928E-02 0. -1.
</event>
<event>
 5   0  0.1346049E-07  0.2807099E+04  0.7818609E-02  0.8301068E-01
        1   -1    0    0  501    0  0.00000000000E+00  0.00000000000E+00  0.11069192523E+04  0.11069192524E+04  0.50400001928E-02 0. -1.
       -1   -1    0    0    0  501  0.00000000000E+00  0.00000000000E+00 -0.17796698801E+04  0.17796698801E+04  0.50400001928E-02 0.  1.
    10030    2    1    2    0    0  0.00000000000E+00  0.00000000000E+00 -0.67275062777E+03  0.28865891325E+04  0.28070987536E+04 0.  0.
        1    1    3    3  502    0 -0.95463604174E+03  0.57475811991E+03  0.54118036106E+03  0.12387707826E+04  0.50400001928E-02 0. -1.
       -1    1    3    3    0  502  0.95463604174E+03 -0.57475811991E+03 -0.12139309888E+04  0.16478183499E+04  0.50400001928E-02 0.  1.
</event>
<event>
 5   0  0.3406920E-07  0.2799359E+04  0.7818609E-02  0.8303467E-01
       -2   -1    0    0    0  501  0.00000000000E+00  0.00000000000E+00  0.11426594870E+04  0.11426594870E+04  0.25500000920E-02 0.  1.
        2   -1    0    0  501    0  0.00000000000E+00  0.00000000000E+00 -0.17145119778E+04  0.17145119778E+04  0.25500000920E-02 0. -1.
    10030    2    1    2    0    0  0.00000000000E+00  0.00000000000E+00 -0.57185249081E+03  0.28571714647E+04  0.27993594817E+04 0.  0.
        4    1    3    3  502    0  0.16889423610E+03 -0.10672819746E+04 -0.11939540868E+04  0.16103242067E+04  0.12699999809E+01 0. -1.
       -4    1    3    3    0  502 -0.16889423610E+03  0.10672819746E+04  0.62210159600E+03  0.12468472581E+04  0.12699999809E+01 0.  1.
</event>
<event>
 5   0  0.3502141E-07  0.2810996E+04  0.7818609E-02  0.8299863E-01
        2   -1    0    0  501    0  0.00000000000E+00  0.00000000000E+00  0.22935177259E+04  0.22935177260E+04  0.25500000920E-02 0.  1.
       -2   -1    0    0    0  501  0.00000000000E+00  0.00000000000E+00 -0.86130773808E+03  0.86130773808E+03  0.25500000920E-02 0. -1.
    10030    2    1    2    0    0  0.00000000000E+00  0.00000000000E+00  0.14322099879E+04  0.31548254640E+04  0.28109959550E+04 0.  0.
        3    1    3    3  502    0  0.12005855683E+04 -0.58255002708E+03  0.22094319382E+03  0.13526219524E+04  0.10100000352E+00 0.  1.
       -3    1    3    3    0  502 -0.12005855683E+04  0.58255002708E+03  0.12112667941E+04  0.18022035117E+04  0.10100000352E+00 0. -1.
</event>
<event>
 5   0  0.1374680E-07  0.2799855E+04  0.7818609E-02  0.8303313E-01
        1   -1    0    0  501    0  0.00000000000E+00  0.00000000000E+00  0.23878037930E+04  0.23878037930E+04  0.50400001928E-02 0. -1.
       -1   -1    0    0    0  501  0.00000000000E+00  0.00000000000E+00 -0.82075273469E+03  0.82075273471E+03  0.50400001928E-02 0.  1.
    10030    2    1    2    0    0  0.00000000000E+00  0.00000000000E+00  0.15670510583E+04  0.32085565277E+04  0.27998546341E+04 0.  0.
        3    1    3    3  502    0  0.50089580373E+03  0.12700940533E+04  0.11381498236E+04  0.17774758906E+04  0.10100000352E+00 0.  1.
       -3    1    3    3    0  502 -0.50089580373E+03 -0.12700940533E+04  0.42890123470E+03  0.14310806371E+04  0.10100000352E+00 0. -1.
</event>
<event>
 5   0  0.1361741E-07  0.2799736E+04  0.7818609E-02  0.8303350E-01
       -1   -1    0    0    0  501  0.00000000000E+00  0.00000000000E+00  0.13619844818E+04  0.13619844818E+04  0.50400001928E-02 0. -1.
        1   -1    0    0  501    0  0.00000000000E+00  0.00000000000E+00 -0.14388056027E+04  0.14388056027E+04  0.50400001928E-02 0.  1.
    10030    2    1    2    0    0  0.00000000000E+00  0.00000000000E+00 -0.76821120936E+02  0.28007900845E+04  0.27997363470E+04 0.  0.
        5    1    3    3  502    0  0.13836754205E+04  0.66693326679E+02  0.16316749753E+03  0.13948660837E+04  0.46999998093E+01 0.  1.
       -5    1    3    3    0  502 -0.13836754205E+04 -0.66693326679E+02 -0.23998861846E+03  0.14059240008E+04  0.46999998093E+01 0. -1.
</event>
<event>
 5   0  0.1357902E-07  0.2799744E+04  0.7818609E-02  0.8303348E-01
        1   -1    0    0  501    0  0.00000000000E+00  0.00000000000E+00  0.15104671778E+04  0.15104671778E+04  0.50400001928E-02 0. -1.
       -1   -1    0    0    0  501  0.00000000000E+00  0.00000000000E+00 -0.12973748818E+04  0.12973748818E+04  0.50400001928E-02 0.  1.
    10030    2    1    2    0    0  0.00000000000E+00  0.00000000000E+00  0.21309229598E+03  0.28078420596E+04  0.27997444000E+04 0.  0.
        4    1    3    3  502    0 -0.61749945095E+02 -0.72390672429E+03 -0.10934875224E+04  0.13128482684E+04  0.12699999809E+01 0.  1.
       -4    1    3    3    0  502  0.61749945095E+02  0.72390672429E+03  0.13065798184E+04  0.14949937913E+04  0.12699999809E+01 0. -1.
</event>
<event>
 5   0  0.3502141E-07  0.2800605E+04  0.7818609E-02  0.8303081E-01
       -2   -1    0    0    0  501  0.00000000000E+00  0.00000000000E+00  0.13901072066E+04  0.13901072066E+04  0.25500000920E-02 0.  1.
        2   -1    0    0  501    0  0.00000000000E+00  0.00000000000E+00 -0.14105722351E+04  0.14105722351E+04  0.25500000920E-02 0. -1.
    10030    2    1    2    0    0  0.00000000000E+00  0.00000000000E+00 -0.20465028457E+02  0.28006794417E+04  0.28006046700E+04 0.  0.
        3    1    3    3  502    0  0.26320785023E+02  0.39268971988E+03  0.13336592420E+04  0.13905196812E+04  0.10100000352E+00 0.  1.
       -3    1    3    3    0  502 -0.26320785023E+02 -0.39268971988E+03 -0.13541242705E+04  0.14101597604E+04  0.10100000352E+00 0. -1.
</event>
<event>
 5   0  0.3571498E-07  0.2799884E+04  0.7818609E-02  0.8303304E-01
        2   -1    0    0  501    0  0.00000000000E+00  0.00000000000E+00  0.12473158165E+04  0.12473158165E+04  0.25500000920E-02 0. -1.
       -2   -1    0    0    0  501  0.00000000000E+00  0.00000000000E+00 -0.15712439492E+04  0.15712439492E+04  0.25500000920E-02 0.  1.
    10030    2    1    2    0    0  0.00000000000E+00  0.00000000000E+00 -0.32392813270E+03  0.28185597657E+04  0.27998838758E+04 0.  0.
        2    1    3    3  502    0  0.15380201630E+03 -0.13772978659E+04  0.37430240447E+02  0.13863641277E+04  0.25500000920E-02 0.  1.
       -2    1    3    3    0  502 -0.15380201630E+03  0.13772978659E+04 -0.36135837315E+03  0.14321956380E+04  0.25500000920E-02 0. -1.
</event>
<event>
 5   0  0.3502141E-07  0.2802017E+04  0.7818609E-02  0.8302642E-01
       -2   -1    0    0    0  501  0.00000000000E+00  0.00000000000E+00  0.10234914253E+04  0.10234914253E+04  0.25500000920E-02 0.  1.
        2   -1    0    0  501    0  0.00000000000E+00  0.00000000000E+00 -0.19177740780E+04  0.19177740780E+04  0.25500000920E-02 0. -1.
    10030    2    1    2    0    0  0.00000000000E+00  0.00000000000E+00 -0.89428265270E+03  0.29412655033E+04  0.28020173622E+04 0.  0.
        3    1    3    3  502    0 -0.53739011403E+03  0.12592665372E+04 -0.75903516070E+03  0.15654631045E+04  0.10100000352E+00 0. -1.
       -3    1    3    3    0  502  0.53739011403E+03 -0.12592665372E+04 -0.13524749200E+03  0.13758023988E+04  0.10100000352E+00 0.  1.
</event>
<event>
 5   0  0.3571498E-07  0.2799874E+04  0.7818609E-02  0.8303308E-01
       -2   -1    0    0    0  501  0.00000000000E+00  0.00000000000E+00  0.14880984794E+04  0.14880984794E+04  0.25500000920E-02 0. -1.
        2   -1    0    0  501    0  0.00000000000E+00  0.00000000000E+00 -0.13169981350E+04  0.13169981350E+04  0.25500000920E-02 0.  1.
    10030    2    1    2    0    0  0.00000000000E+00  0.00000000000E+00  0.17110034444E+03  0.28050966143E+04  0.27998735128E+04 0.  0.
        2    1    3    3  502    0 -0.58921146808E+03 -0.12333890181E+04  0.38844560176E+03  0.14210237893E+04  0.25500000920E-02 0. -1.
       -2    1    3    3    0  502  0.58921146808E+03  0.12333890181E+04 -0.21734525732E+03  0.13840728251E+04  0.25500000920E-02 0.  1.
</event>
<event>
 5   0  0.3502141E-07  0.2798819E+04  0.7818609E-02  0.8303635E-01
        2   -1    0    0  501    0  0.00000000000E+00  0.00000000000E+00  0.20833920251E+04  0.20833920251E+04  0.25500000920E-02 0.  1.
       -2   -1    0    0    0  501  0.00000000000E+00  0.00000000000E+00 -0.93998013297E+03  0.93998013297E+03  0.25500000920E-02 0. -1.
    10030    2    1    2    0    0  0.00000000000E+00  0.00000000000E+00  0.11434118921E+04  0.30233721581E+04  0.27988191173E+04 0.  0.
        3    1    3    3  502    0 -0.74970987909E+03 -0.41354528686E+03  0.17674310516E+04  0.19638984545E+04  0.10100000352E+00 0.  1.
       -3    1    3    3    0  502  0.74970987909E+03  0.41354528686E+03 -0.62401915946E+03  0.10594737036E+04  0.10100000352E+00 0. -1.
</event>
<event>
 5   0  0.3557628E-07  0.2796288E+04  0.7818609E-02  0.8304422E-01
       -2   -1    0    0    0  501  0.00000000000E+00  0.00000000000E+00  0.14618540142E+04  0.14618540142E+04  0.25500000920E-02 0.  1.
        2   -1    0    0  501    0  0.00000000000E+00  0.00000000000E+00 -0.13372110271E+04  0.13372110271E+04  0.25500000920E-02 0. -1.
    10030    2    1    2    0    0  0.00000000000E+00  0.00000000000E+00  0.12464298706E+03  0.27990650413E+04  0.27962884742E+04 0.  0.
        5    1    3    3  502    0  0.26026674826E+03  0.19343309851E+03  0.14236829694E+04  0.14601542491E+04  0.46999998093E+01 0.  1.
       -5    1    3    3    0  502 -0.26026674826E+03 -0.19343309851E+03 -0.12990399823E+04  0.13389107922E+04  0.46999998093E+01 0. -1.
</event>
<event>
 5   0  0.3406920E-07  0.2797094E+04  0.7818609E-02  0.8304171E-01
        2   -1    0    0  501    0  0.00000000000E+00  0.00000000000E+00  0.21314095000E+04  0.21314095000E+04  0.25500000920E-02 0.  1.
       -2   -1    0    0    0  501  0.00000000000E+00  0.00000000000E+00 -0.91767121855E+03  0.91767121855E+03  0.25500000920E-02 0. -1.
    10030    2    1    2    0    0  0.00000000000E+00  0.00000000000E+00  0.12137382814E+04  0.30490807185E+04  0.27970936009E+04 0.  0.
        4    1    3    3  502    0 -0.36446220989E+03  0.43178416916E+02 -0.86423985692E+03  0.93894047805E+03  0.12699999809E+01 0. -1.
       -4    1    3    3    0  502  0.36446220989E+03 -0.43178416916E+02  0.20779781384E+04  0.21101402405E+04  0.12699999809E+01 0.  1.
</event>
<event>
 5   0  0.3406920E-07  0.2800673E+04  0.7818609E-02  0.8303059E-01
        2   -1    0    0  501    0  0.00000000000E+00  0.00000000000E+00  0.13110989753E+04  0.13110989753E+04  0.25500000920E-02 0.  1.
       -2   -1    0    0    0  501  0.00000000000E+00  0.00000000000E+00 -0.14956479720E+04  0.14956479720E+04  0.25500000920E-02 0. -1.
    10030    2    1    2    0    0  0.00000000000E+00  0.00000000000E+00 -0.18454899677E+03  0.28067469473E+04  0.28006731501E+04 0.  0.
        4    1    3    3  502    0  0.10671708982E+04  0.88269281352E+03 -0.29994499033E+03  0.14170282069E+04  0.12699999809E+01 0. -1.
       -4    1    3    3    0  502 -0.10671708982E+04 -0.88269281352E+03  0.11539599355E+03  0.13897187404E+04  0.12699999809E+01 0.  1.
</event>
<event>
 5   0  0.1346049E-07  0.2800293E+04  0.7818609E-02  0.8303177E-01
       -1   -1    0    0    0  501  0.00000000000E+00  0.00000000000E+00  0.82690969703E+03  0.82690969705E+03  0.50400001928E-02 0.  1.
        1   -1    0    0  501    0  0.00000000000E+00  0.00000000000E+00 -0.23707667801E+04  0.23707667801E+04  0.50400001928E-02 0. -1.
    10030    2    1    2    0    0  0.00000000000E+00  0.00000000000E+00 -0.15438570831E+04  0.31976764771E+04  0.28002928703E+04 0.  0.
        1    1    3    3  502    0  0.12210866567E+04  0.66962839300E+03 -0.60662684748E+03  0.15190296047E+04  0.50400001928E-02 0. -1.
       -1    1    3    3    0  502 -0.12210866567E+04 -0.66962839300E+03 -0.93723023558E+03  0.16786468724E+04  0.50400001928E-02 0.  1.
</event>
<event>
 5   0  0.3571498E-07  0.2799034E+04  0.7818609E-02  0.8303568E-01
        2   -1    0    0  501    0  0.00000000000E+00  0.00000000000E+00  0.12479245699E+04  0.12479245699E+04  0.25500000920E-02 0. -1.
       -2   -1    0    0    0  501  0.00000000000E+00  0.00000000000E+00 -0.15695243052E+04  0.15695243052E+04  0.25500000920E-02 0.  1.
    10030    2    1    2    0    0  0.00000000000E+00  0.00000000000E+00 -0.32159973533E+03  0.28174488751E+04  0.27990340788E+04 0.  0.
        2    1    3    3  502    0 -0.63036314562E+03 -0.74395357297E+03 -0.11713085788E+04  0.15240696837E+04  0.25500000920E-02 0.  1.
       -2    1    3    3    0  502  0.63036314562E+03  0.74395357297E+03  0.84970884348E+03  0.12933791914E+04  0.25500000920E-02 0. -1.
</event>
<event>
 5   0  0.1361741E-07  0.2799550E+04  0.7818609E-02  0.8303408E-01
       -1   -1    0    0    0  501  0.00000000000E+00  0.00000000000E+00  0.23095758290E+04  0.23095758290E+04  0.50400001928E-02 0.  1.
        1   -1    0    0  501    0  0.00000000000E+00  0.00000000000E+00 -0.84836819031E+03  0.84836819032E+03  0.50400001928E-02 0. -1.
    10030    2    1    2    0    0  0.00000000000E+00  0.00000000000E+00  0.14612076387E+04  0.31579440193E+04  0.27995504399E+04 0.  0.
        5    1    3    3  502    0  0.91312599622E+03  0.48728135804E+02 -0.46486941243E+03  0.10258163465E+04  0.46999998093E+01 0. -1.
       -5    1    3    3    0  502 -0.91312599622E+03 -0.48728135804E+02  0.19260770511E+04  0.21321276728E+04  0.46999998093E+01 0.  1.
</event>
<event>
 5   0  0.1346049E-07  0.2799121E+04  0.7818609E-02  0.8303541E-01
        1   -1    0    0  501    0  0.00000000000E+00  0.00000000000E+00  0.21389705328E+04  0.21389705328E+04  0.50400001928E-02 0.  1.
       -1   -1    0    0    0  501  0.00000000000E+00  0.00000000000E+00 -0.91575351216E+03  0.91575351217E+03  0.50400001928E-02 0. -1.
    10030    2    1    2    0    0  0.00000000000E+00  0.00000000000E+00  0.12232170206E+04  0.30547240450E+04  0.27991211319E+04 0.  0.
        1    1    3    3  502    0 -0.20934955735E+03 -0.13218864583E+04  0.10583268917E+04  0.17062434924E+04  0.50400001928E-02 0. -1.
       -1    1    3    3    0  502  0.20934955735E+03  0.13218864583E+04  0.16489012893E+03  0.13484805525E+04  0.50400001928E-02 0.  1.
</event>
<event>
 5   0  0.1361741E-07  0.2797029E+04  0.7818609E-02  0.8304191E-01
        1   -1    0    0  501    0  0.00000000000E+00  0.00000000000E+00  0.14015395134E+04  0.14015395134E+04  0.50400001928E-02 0.  1.
       -1   -1    0    0    0  501  0.00000000000E+00  0.00000000000E+00 -0.13954961184E+04  0.13954961184E+04  0.50400001928E-02 0. -1.
    10030    2    1    2    0    0  0.00000000000E+00  0.00000000000E+00  0.60433950086E+01  0.27970356318E+04  0.27970291030E+04 0.  0.
        5    1    3    3  502    0 -0.10983963289E+04 -0.84723929230E+03  0.18059448304E+03  0.13989014873E+04  0.46999998093E+01 0. -1.
       -5    1    3    3    0  502  0.10983963289E+04  0.84723929230E+03 -0.17455108803E+03  0.13981341445E+04  0.46999998093E+01 0.  1.
</event>
<event>
 5   0  0.3522569E-07  0.2799761E+04  0.7818609E-02  0.8303342E-01
       -2   -1    0    0    0  501  0.00000000000E+00  0.00000000000E+00  0.11340829042E+04  0.11340829042E+04  0.25500000920E-02 0.  1.
        2   -1    0    0  501    0  0.00000000000E+00  0.00000000000E+00 -0.17279742503E+04  0.17279742503E+04  0.25500000920E-02 0. -1.
    10030    2    1    2    0    0  0.00000000000E+00  0.00000000000E+00 -0.59389134616E+03  0.28620571545E+04  0.27997614585E+04 0.  0.
        1    1    3    3  502    0 -0.69218697990E+03 -0.24437039587E+03  0.92156061013E+03  0.11781823559E+04  0.50400001928E-02 0.  1.
       -1    1    3    3    0  502  0.69218697990E+03  0.24437039587E+03 -0.15154519563E+04  0.16838747986E+04  0.50400001928E-02 0. -1.
</event>
<event>
 5   0  0.3502141E-07  0.2799471E+04  0.7818609E-02  0.8303432E-01
       -2   -1    0    0    0  501  0.00000000000E+00  0.00000000000E+00  0.12134175497E+04  0.12134175497E+04  0.25500000920E-02 0. -1.
        2   -1    0    0  501    0  0.00000000000E+00  0.00000000000E+00 -0.16146627428E+04  0.16146627428E+04  0.25500000920E-02 0.  1.
    10030    2    1    2    0    0  0.00000000000E+00  0.00000000000E+00 -0.40124519314E+03  0.28280802925E+04  0.27994714566E+04 0.  0.
        3    1    3    3  502    0  0.82423065723E+03 -0.10148555548E+04 -0.70570412150E+03  0.14857006060E+04  0.10100000352E+00 0.  1.
       -3    1    3    3    0  502 -0.82423065723E+03  0.10148555548E+04  0.30445892836E+03  0.13423796865E+04  0.10100000352E+00 0. -1.
</event>
<event>
 5   0  0.3557628E-07  0.2793636E+04  0.7818609E-02  0.8305247E-01
        2   -1    0    0  501    0  0.00000000000E+00  0.00000000000E+00  0.17778070930E+04  0.17778070930E+04  0.25500000920E-02 0. -1.
       -2   -1    0    0    0  501  0.00000000000E+00  0.00000000000E+00 -0.10974763242E+04  0.10974763242E+04  0.25500000920E-02 0.  1.
    10030    2    1    2    0    0  0.00000000000E+00  0.00000000000E+00  0.68033076886E+03  0.28752834172E+04  0.27936364785E+04 0.  0.
        5    1    3    3  502    0  0.24203606569E+03 -0.61350472384E+03  0.16074555526E+04  0.17374996250E+04  0.46999998093E+01 0. -1.
       -5    1    3    3    0  502 -0.24203606569E+03  0.61350472384E+03 -0.92712478371E+03  0.11377837922E+04  0.46999998093E+01 0.  1.
</event>
<event>
 5   0  0.1361741E-07  0.2799025E+04  0.7818609E-02  0.8303571E-01
       -1   -1    0    0    0  501  0.00000000000E+00  0.00000000000E+00  0.83080918079E+03  0.83080918081E+03  0.50400001928E-02 0. -1.
        1   -1    0    0  501    0  0.00000000000E+00  0.00000000000E+00 -0.23575036229E+04  0.23575036229E+04  0.50400001928E-02 0.  1.
    10030    2    1    2    0    0  0.00000000000E+00  0.00000000000E+00 -0.15266944421E+04  0.31883128037E+04  0.27990252973E+04 0.  0.
        5    1    3    3  502    0 -0.10357982631E+04 -0.94085504840E+03 -0.73719052588E+03  0.15816315075E+04  0.46999998093E+01 0.  1.
       -5    1    3    3    0  502  0.10357982631E+04  0.94085504840E+03 -0.78950391619E+03  0.16066812962E+04  0.46999998093E+01 0. -1.
</event>
<event>
 5   0  0.3502141E-07  0.2800409E+04  0.7818609E-02  0.8303141E-01
        2   -1    0    0  501    0  0.00000000000E+00  0.00000000000E+00  0.31784855185E+04  0.31784855185E+04  0.25500000920E-02 0. -1.
       -2   -1    0    0    0  501  0.00000000000E+00  0.00000000000E+00 -0.61682605076E+03  0.61682605077E+03  0.25500000920E-02 0.  1.
    10030    2    1    2    0    0  0.00000000000E+00  0.00000000000E+00  0.25616594678E+04  0.37953115693E+04  0.28004090200E+04 0.  0.
        3    1    3    3  502    0  0.21456345700E+03 -0.13831601109E+04  0.12300606065E+04  0.18633889758E+04  0.10100000352E+00 0. -1.
       -3    1    3    3    0  502 -0.21456345700E+03  0.13831601109E+04  0.13315988613E+04  0.19319225935E+04  0.10100000352E+00 0.  1.
</event>
<event>
 5   0  0.3406920E-07  0.2800026E+04  0.7818609E-02  0.8303260E-01
        2   -1    0    0  501    0  0.00000000000E+00  0.00000000000E+00  0.21778403982E+04  0.21778403982E+04  0.25500000920E-02 0.  1.
       -2   -1    0    0    0  501  0.00000000000E+00  0.00000000000E+00 -0.89999112420E+03  0.89999112420E+03  0.25500000920E-02 0. -1.
    10030    2    1    2    0    0  0.00000000000E+00  0.00000000000E+00  0.12778492740E+04  0.30778315224E+04  0.28000264487E+04 0.  0.
        4    1    3    3  502    0  0.59059745509E+01  0.85102845291E+03  0.18608599444E+04  0.20462369495E+04  0.12699999809E+01 0.  1.
       -4    1    3    3    0  502 -0.59059745509E+01 -0.85102845291E+03 -0.58301067033E+03  0.10315945729E+04  0.12699999809E+01 0. -1.
</event>
<event>
 5   0  0.3557628E-07  0.2798877E+04  0.7818609E-02  0.8303617E-01
       -2   -1    0    0    0  501  0.00000000000E+00  0.00000000000E+00  0.94193906214E+03  0.94193906215E+03  0.25500000920E-02 0. -1.
        2   -1    0    0  501    0  0.00000000000E+00  0.00000000000E+00 -0.20791450520E+04  0.20791450520E+04  0.25500000920E-02 0.  1.
    10030    2    1    2    0    0  0.00000000000E+00  0.00000000000E+00 -0.11372059898E+04  0.30210841141E+04  0.27988768750E+04 0.  0.
        5    1    3    3  502    0  0.49758771034E+03  0.56322133073E+03 -0.18428310580E+04  0.19901909947E+04  0.46999998093E+01 0.  1.
       -5    1    3    3    0  502 -0.49758771034E+03 -0.56322133073E+03  0.70562506819E+03  0.10308931195E+04  0.46999998093E+01 0. -1.
</event>
<event>
 5   0  0.1361741E-07  0.2798782E+04  0.7818609E-02  0.8303647E-01
        1   -1    0    0  501    0  0.00000000000E+00  0.00000000000E+00  0.14567138713E+04  0.14567138713E+04  0.50400001928E-02 0. -1.
       -1   -1    0    0    0  501  0.00000000000E+00  0.00000000000E+00 -0.13443233533E+04  0.13443233533E+04  0.50400001928E-02 0.  1.
    10030    2    1    2    0    0  0.00000000000E+00  0.00000000000E+00  0.11239051803E+03  0.28010372246E+04  0.27987815036E+04 0.  0.
        5    1    3    3  502    0 -0.99601117678E+02  0.17804127864E+03 -0.13293530311E+04  0.13449240316E+04  0.46999998093E+01 0.  1.
       -5    1    3    3    0  502  0.99601117678E+02 -0.17804127864E+03  0.14417435491E+04  0.14561131930E+04  0.46999998093E+01 0. -1.
</event>
<event>
 5   0  0.3502141E-07  0.2799768E+04  0.7818609E-02  0.8303340E-01
        2   -1    0    0  501    0  0.00000000000E+00  0.00000000000E+00  0.24381966241E+04  0.24381966241E+04  0.25500000920E-02 0.  1.
       -2   -1    0    0    0  501  0.00000000000E+00  0.00000000000E+00 -0.80373950945E+03  0.80373950945E+03  0.25500000920E-02 0. -1.
    10030    2    1    2    0    0  0.00000000000E+00  0.00000000000E+00  0.16344571147E+04  0.32419361336E+04  0.27997678180E+04 0.  0.
        3    1    3    3  502    0 -0.38548494191E+03  0.44299300711E+03 -0.65422416701E+03  0.87911928411E+03  0.10100000352E+00 0.  1.
       -3    1    3    3    0  502  0.38548494191E+03 -0.44299300711E+03  0.22886812817E+04  0.23628168495E+04  0.10100000352E+00 0. -1.
</event>
<event>
 5   0  0.3522569E-07  0.2800490E+04  0.7818609E-02  0.8303116E-01
       -2   -1    0    0    0  501  0.00000000000E+00  0.00000000000E+00  0.10192935290E+04  0.10192935290E+04  0.25500000920E-02 0. -1.
        2   -1    0    0  501    0  0.00000000000E+00  0.00000000000E+00 -0.19235742022E+04  0.19235742022E+04  0.25500000920E-02 0.  1.
    10030    2    1    2    0    0  0.00000000000E+00  0.00000000000E+00 -0.90428067317E+03  0.29428677312E+04  0.28004904834E+04 0.  0.
        1    1    3    3  502    0  0.79825720837E+02  0.49973619145E+03 -0.18241119422E+04  0.18930115648E+04  0.50400001928E-02 0.  1.
       -1    1    3    3    0  502 -0.79825720837E+02 -0.49973619145E+03  0.91983126901E+03  0.10498561665E+04  0.50400001928E-02 0. -1.
</event>
<event>
 5   0  0.3406920E-07  0.2800632E+04  0.7818609E-02  0.8303072E-01
       -2   -1    0    0    0  501  0.00000000000E+00  0.00000000000E+00  0.13416457120E+04  0.13416457120E+04  0.25500000920E-02 0. -1.
        2   -1    0    0  501    0  0.00000000000E+00  0.00000000000E+00 -0.14615517863E+04  0.14615517863E+04  0.25500000920E-02 0.  1.
    10030    2    1    2    0    0  0.00000000000E+00  0.00000000000E+00 -0.11990607431E+03  0.28031974982E+04  0.28006318479E+04 0.  0.
        4    1    3    3  502    0  0.10957171983E+04  0.68685380696E+03 -0.59758451645E+03  0.14245958016E+04  0.12699999809E+01 0.  1.
       -4    1    3    3    0  502 -0.10957171983E+04 -0.68685380696E+03  0.47767844213E+03  0.13786016966E+04  0.12699999809E+01 0. -1.
</event>
<event>
 5   0  0.3522569E-07  0.2799578E+04  0.7818609E-02  0.8303399E-01
        2   -1    0    0  501    0  0.00000000000E+00  0.00000000000E+00  0.12121936911E+04  0.12121936911E+04  0.25500000920E-02 0. -1.
       -2   -1    0    0    0  501  0.00000000000E+00  0.00000000000E+00 -0.16164161857E+04  0.16164161857E+04  0.25500000920E-02 0.  1.
    10030    2    1    2    0    0  0.00000000000E+00  0.00000000000E+00 -0.40422249466E+03  0.28286098768E+04  0.27995781843E+04 0.  0.
        1    1    3    3  502    0 -0.31265422840E+03 -0.75783434552E+03  0.94426650585E+03  0.12504818255E+04  0.50400001928E-02 0. -1.
       -1    1    3    3    0  502  0.31265422840E+03  0.75783434552E+03 -0.13484890005E+04  0.15781280513E+04  0.50400001928E-02 0.  1.
</event>
<event>
 5   0  0.3502141E-07  0.2800049E+04  0.7818609E-02  0.8303253E-01
       -2   -1    0    0    0  501  0.00000000000E+00  0.00000000000E+00  0.86054435993E+03  0.86054435993E+03  0.25500000920E-02 0.  1.
        2   -1    0    0  501    0  0.00000000000E+00  0.00000000000E+00 -0.22777071389E+04  0.22777071389E+04  0.25500000920E-02 0. -1.
    10030    2    1    2    0    0  0.00000000000E+00  0.00000000000E+00 -0.14171627789E+04  0.31382514988E+04  0.28000485938E+04 0.  0.
        3    1    3    3  502    0  0.11372363077E+04 -0.81465822385E+03 -0.77091939228E+03  0.15972761693E+04  0.10100000352E+00 0. -1.
       -3    1    3    3    0  502 -0.11372363077E+04  0.81465822385E+03 -0.64624338665E+03  0.15409753295E+04  0.10100000352E+00 0.  1.
</event>
<event>
 5   0  0.3571498E-07  0.2802026E+04  0.7818609E-02  0.8302640E-01
        2   -1    0    0  501    0  0.00000000000E+00  0.00000000000E+00  0.19623802728E+04  0.19623802728E+04  0.25500000920E-02 0. -1.
       -2   -1    0    0    0  501  0.00000000000E+00  0.00000000000E+00 -0.10002330421E+04  0.10002330421E+04  0.25500000920E-02 0.  1.
    10030    2    1    2    0    0  0.00000000000E+00  0.00000000000E+00  0.96214723071E+03  0.29626133149E+04  0.28020261170E+04 0.  0.
        2    1    3    3  502    0  0.54437496878E+03  0.62899837575E+03  0.16730035077E+04  0.18684014023E+04  0.25500000920E-02 0. -1.
       -2    1    3    3    0  502 -0.54437496878E+03 -0.62899837575E+03 -0.71085627696E+03  0.10942119127E+04  0.25500000920E-02 0.  1.
</event>
<event>
 5   0  0.3522569E-07  0.2801095E+04  0.7818609E-02  0.8302928E-01
       -2   -1    0    0    0  501  0.00000000000E+00  0.00000000000E+00  0.13990412513E+04  0.13990412513E+04  0.25500000920E-02 0.  1.
        2   -1    0    0  501    0  0.00000000000E+00  0.00000000000E+00 -0.14020557714E+04  0.14020557714E+04  0.25500000920E-02 0. -1.
    10030    2    1    2    0    0  0.00000000000E+00  0.00000000000E+00 -0.30145201119E+01  0.28010970227E+04  0.28010954006E+04 0.  0.
        1    1    3    3  502    0 -0.15400547905E+03  0.91503980544E+03  0.10475492695E+04  0.13994195244E+04  0.50400001928E-02 0.  1.
       -1    1    3    3    0  502  0.15400547905E+03 -0.91503980544E+03 -0.10505637896E+04  0.14016774983E+04  0.50400001928E-02 0. -1.
</event>
<event>
 5   0  0.3571498E-07  0.2799965E+04  0.7818609E-02  0.8303279E-01
       -2   -1    0    0    0  501  0.00000000000E+00  0.00000000000E+00  0.76151502481E+03  0.76151502481E+03  0.25500000920E-02 0. -1.
        2   -1    0    0  501    0  0.00000000000E+00  0.00000000000E+00 -0.25737524373E+04  0.25737524373E+04  0.25500000920E-02 0.  1.
    10030    2    1    2    0    0  0.00000000000E+00  0.00000000000E+00 -0.18122374125E+04  0.33352674621E+04  0.27999651078E+04 0.  0.
        2    1    3    3  502    0  0.38977152096E+02 -0.37362504744E+03 -0.25125969514E+04  0.25405232403E+04  0.25500000920E-02 0.  1.
       -2    1    3    3    0  502 -0.38977152096E+02  0.37362504744E+03  0.70035953886E+03  0.79474422184E+03  0.25500000920E-02 0. -1.
</event>
<event>
 5   0  0.1346049E-07  0.2796542E+04  0.7818609E-02  0.8304343E-01
       -1   -1    0    0    0  501  0.00000000000E+00  0.00000000000E+00  0.10192324085E+04  0.10192324085E+04  0.50400001928E-02 0. -1.
        1   -1    0    0  501    0  0.00000000000E+00  0.00000000000E+00 -0.19182691418E+04  0.19182691418E+04  0.50400001928E-02 0.  1.
    10030    2    1    2    0    0  0.00000000000E+00  0.00000000000E+00 -0.89903673325E+03  0.29375015503E+04  0.27965422061E+04 0.  0.
        1    1    3    3  502    0 -0.99549216526E+02  0.13348218548E+04 -0.24782320161E+02  0.13387582284E+04  0.50400001928E-02 0. -1.
       -1    1    3    3    0  502  0.99549216526E+02 -0.13348218548E+04 -0.87425441309E+03  0.15987433219E+04  0.50400001928E-02 0.  1.
</event>
<event>
 5   0  0.1366235E-07  0.2800271E+04  0.7818609E-02  0.8303184E-01
       -1   -1    0    0    0  501  0.00000000000E+00  0.00000000000E+00  0.14904419369E+04  0.14904419369E+04  0.50400001928E-02 0. -1.
        1   -1    0    0  501    0  0.00000000000E+00  0.00000000000E+00 -0.13153003531E+04  0.13153003531E+04  0.50400001928E-02 0.  1.
    10030    2    1    2    0    0  0.00000000000E+00  0.00000000000E+00  0.17514158375E+03  0.28057422900E+04  0.28002705626E+04 0.  0.
        2    1    3    3  502    0 -0.74061190640E+03  0.37118462558E+03  0.12185344560E+04  0.14734687790E+04  0.25500000920E-02 0. -1.
       -2    1    3    3    0  502  0.74061190640E+03 -0.37118462558E+03 -0.10433928723E+04  0.13322735110E+04  0.25500000920E-02 0.  1.
</event>
<event>
 5   0  0.1357902E-07  0.2799889E+04  0.7818609E-02  0.8303303E-01
        1   -1    0    0  501    0  0.00000000000E+00  0.00000000000E+00  0.22720622722E+04  0.22720622722E+04  0.50400001928E-02 0.  1.
       -1   -1    0    0    0  501  0.00000000000E+00  0.00000000000E+00 -0.86258377657E+03  0.86258377658E+03  0.50400001928E-02 0. -1.
    10030    2    1    2    0    0  0.00000000000E+00  0.00000000000E+00  0.14094784956E+04  0.31346460488E+04  0.27998886088E+04 0.  0.
        4    1    3    3  502    0 -0.22755352869E+03  0.45054841710E+03 -0.75716390294E+03  0.90998531493E+03  0.12699999809E+01 0. -1.
       -4    1    3    3    0  502  0.22755352869E+03 -0.45054841710E+03  0.21666423986E+04  0.22246607339E+04  0.12699999809E+01 0.  1.
</event>
<event>
 5   0  0.1361741E-07  0.2799715E+04  0.7818609E-02  0.8303357E-01
       -1   -1    0    0    0  501  0.00000000000E+00  0.00000000000E+00  0.17426986416E+04  0.17426986416E+04  0.50400001928E-02 0.  1.
        1   -1    0    0  501    0  0.00000000000E+00  0.00000000000E+00 -0.11244634251E+04  0.11244634251E+04  0.50400001928E-02 0. -1.
    10030    2    1    2    0    0  0.00000000000E+00  0.00000000000E+00  0.61823521649E+03  0.28671620667E+04  0.27997149022E+04 0.  0.
        5    1    3    3  502    0 -0.94564508581E+03  0.21015604809E+03 -0.72575563757E+03  0.12104352640E+04  0.46999998093E+01 0. -1.
       -5    1    3    3    0  502  0.94564508581E+03 -0.21015604809E+03  0.13439908541E+04  0.16567268027E+04  0.46999998093E+01 0.  1.
</event>
<event>
 5   0  0.3502141E-07  0.2800643E+04  0.7818609E-02  0.8303069E-01
       -2   -1    0    0    0  501  0.00000000000E+00  0.00000000000E+00  0.74231695204E+03  0.74231695204E+03  0.25500000920E-02 0.  1.
        2   -1    0    0  501    0  0.00000000000E+00  0.00000000000E+00 -0.26415947395E+04  0.26415947395E+04  0.25500000920E-02 0. -1.
    10030    2    1    2    0    0  0.00000000000E+00  0.00000000000E+00 -0.18992777875E+04  0.33839116916E+04  0.28006431801E+04 0.  0.
        3    1    3    3  502    0 -0.30309994116E+03 -0.13647157916E+04 -0.85161478639E+03  0.16369381542E+04  0.10100000352E+00 0.  1.
       -3    1    3    3    0  502  0.30309994116E+03  0.13647157916E+04 -0.10476630011E+04  0.17469735374E+04  0.10100000352E+00 0. -1.
</event>
<event>
 5   0  0.3502141E-07  0.2799926E+04  0.7818609E-02  0.8303291E-01
        2   -1    0    0  501    0  0.00000000000E+00  0.00000000000E+00  0.10194051839E+04  0.10194051839E+04  0.25500000920E-02 0. -1.
       -2   -1    0    0    0  501  0.00000000000E+00  0.00000000000E+00 -0.19225888802E+04  0.19225888802E+04  0.25500000920E-02 0.  1.
    10030    2    1    2    0    0  0.00000000000E+00  0.00000000000E+00 -0.90318369629E+03  0.29419940642E+04  0.27999264784E+04 0.  0.
        3    1    3    3  502    0  0.13409164787E+04  0.16112719658E+03 -0.83891180312E+03  0.15899031417E+04  0.10100000352E+00 0.  1.
       -3    1    3    3    0  502 -0.13409164787E+04 -0.16112719658E+03 -0.64271893167E+02  0.13520909225E+04  0.10100000352E+00 0. -1.
</event>
<event>
 5   0  0.1374680E-07  0.2799880E+04  0.7818609E-02  0.8303306E-01
       -1   -1    0    0    0  501  0.00000000000E+00  0.00000000000E+00  0.13058912566E+04  0.13058912566E+04  0.50400001928E-02 0.  1.
        1   -1    0    0  501    0  0.00000000000E+00  0.00000000000E+00 -0.15007622163E+04  0.15007622163E+04  0.50400001928E-02 0. -1.
    10030    2    1    2    0    0  0.00000000000E+00  0.00000000000E+00 -0.19487095971E+03  0.28066534729E+04  0.27998801807E+04 0.  0.
        3    1    3    3  502    0  0.43821576394E+03  0.93896024617E+03  0.84619870881E+03  0.13378085306E+04  0.10100000352E+00 0.  1.
       -3    1    3    3    0  502 -0.43821576394E+03 -0.93896024617E+03 -0.10410696685E+04  0.14688449423E+04  0.10100000352E+00 0. -1.
</event>
<event>
 5   0  0.1357902E-07  0.2798158E+04  0.7818609E-02  0.8303840E-01
       -1   -1    0    0    0  501  0.00000000000E+00  0.00000000000E+00  0.11824525753E+04  0.11824525753E+04  0.50400001928E-02 0. -1.
        1   -1    0    0  501    0  0.00000000000E+00  0.00000000000E+00 -0.16553919346E+04  0.16553919346E+04  0.50400001928E-02 0.  1.
    10030    2    1    2    0    0  0.00000000000E+00  0.00000000000E+00 -0.47293935928E+03  0.28378445099E+04  0.27981582916E+04 0.  0.
        4    1    3    3  502    0 -0.11847920165E+04 -0.21278929328E+03  0.48667154283E+03  0.12984075667E+04  0.12699999809E+01 0. -1.
       -4    1    3    3    0  502  0.11847920165E+04  0.21278929328E+03 -0.95961090211E+03  0.15394369432E+04  0.12699999809E+01 0.  1.
</event>
<event>
 5   0  0.1361741E-07  0.2801884E+04  0.7818609E-02  0.8302684E-01
        1   -1    0    0  501    0  0.00000000000E+00  0.00000000000E+00  0.15876363691E+04  0.15876363691E+04  0.50400001928E-02 0.  1.
       -1   -1    0    0    0  501  0.00000000000E+00  0.00000000000E+00 -0.12362018306E+04  0.12362018306E+04  0.50400001928E-02 0. -1.
    10030    2    1    2    0    0  0.00000000000E+00  0.00000000000E+00  0.35143453851E+03  0.28238381998E+04  0.28018843558E+04 0.  0.
        5    1    3    3  502    0  0.59796435317E+03  0.48411022626E+02 -0.11001847755E+04  0.12531295324E+04  0.46999998093E+01 0. -1.
       -5    1    3    3    0  502 -0.59796435317E+03 -0.48411022626E+02  0.14516193140E+04  0.15707086673E+04  0.46999998093E+01 0.  1.
</event>
<event>
 5   0  0.3406920E-07  0.2805867E+04  0.7818609E-02  0.8301449E-01
       -2   -1    0    0    0  501  0.00000000000E+00  0.00000000000E+00  0.31810630060E+04  0.31810630060E+04  0.25500000920E-02 0.  1.
        2   -1    0    0  501    0  0.00000000000E+00  0.00000000000E+00 -0.61873109207E+03  0.61873109208E+03  0.25500000920E-02 0. -1.
    10030    2    1    2    0    0  0.00000000000E+00  0.00000000000E+00  0.25623319139E+04  0.37997940981E+04  0.28058671299E+04 0.  0.
        4    1    3    3  502    0  0.30200884302E+03  0.22180103782E+03  0.31120430532E+04  0.31345204768E+04  0.12699999809E+01 0.  1.
       -4    1    3    3    0  502 -0.30200884302E+03 -0.22180103782E+03 -0.54971113926E+03  0.66527362128E+03  0.12699999809E+01 0. -1.
</event>
<event>
 5   0  0.3406920E-07  0.2799158E+04  0.7818609E-02  0.8303530E-01
       -2   -1    0    0    0  501  0.00000000000E+00  0.00000000000E+00  0.10092654923E+04  0.10092654923E+04  0.25500000920E-02 0. -1.
        2   -1    0    0  501    0  0.00000000000E+00  0.00000000000E+00 -0.19408381377E+04  0.19408381377E+04  0.25500000920E-02 0.  1.
    10030    2    1    2    0    0  0.00000000000E+00  0.00000000000E+00 -0.93157264539E+03  0.29501036300E+04  0.27991577008E+04 0.  0.
        4    1    3    3  502    0  0.68084528298E+03 -0.17218845459E+03 -0.17416980337E+04  0.18779544235E+04  0.12699999809E+01 0.  1.
       -4    1    3    3    0  502 -0.68084528298E+03  0.17218845459E+03  0.81012538830E+03  0.10721492065E+04  0.12699999809E+01 0. -1.
</event>
<event>
 5   0  0.3502141E-07  0.2800610E+04  0.7818609E-02  0.8303079E-01
        2   -1    0    0  501    0  0.00000000000E+00  0.00000000000E+00  0.16993396691E+04  0.16993396691E+04  0.25500000920E-02 0.  1.
       -2   -1    0    0    0  501  0.00000000000E+00  0.00000000000E+00 -0.11538915929E+04  0.11538915929E+04  0.25500000920E-02 0. -1.
    10030    2    1    2    0    0  0.00000000000E+00  0.00000000000E+00  0.54544807619E+03  0.28532312620E+04  0.28006097605E+04 0.  0.
        3    1    3    3  502    0 -0.42029959792E+03 -0.14015369672E+03  0.16260501455E+04  0.16853290173E+04  0.10100000352E+00 0.  1.
       -3    1    3    3    0  502  0.42029959792E+03  0.14015369672E+03 -0.10806020693E+04  0.11679022447E+04  0.10100000352E+00 0. -1.
</event>
<event>
 5   0  0.1346049E-07  0.2800179E+04  0.7818609E-02  0.8303213E-01
        1   -1    0    0  501    0  0.00000000000E+00  0.00000000000E+00  0.25533561107E+04  0.25533561107E+04  0.50400001928E-02 0.  1.
       -1   -1    0    0    0  501  0.00000000000E+00  0.00000000000E+00 -0.76771540010E+03  0.76771540011E+03  0.50400001928E-02 0. -1.
    10030    2    1    2    0    0  0.00000000000E+00  0.00000000000E+00  0.17856407106E+04  0.33210715108E+04  0.28001791429E+04 0.  0.
        1    1    3    3  502    0  0.11529186869E+04  0.61008431510E+03  0.14962084381E+04  0.19849594606E+04  0.50400001928E-02 0.  1.
       -1    1    3    3    0  502 -0.11529186869E+04 -0.61008431510E+03  0.28943227248E+03  0.13361120501E+04  0.50400001928E-02 0. -1.
</event>
<event>
 5   0  0.3406920E-07  0.2808179E+04  0.7818609E-02  0.8300734E-01
        2   -1    0    0  501    0  0.00000000000E+00  0.00000000000E+00  0.26728664371E+04  0.26728664371E+04  0.25500000920E-02 0.  1.
       -2   -1    0    0    0  501  0.00000000000E+00  0.00000000000E+00 -0.73758536634E+03  0.73758536634E+03  0.25500000920E-02 0. -1.
    10030    2    1    2    0    0  0.00000000000E+00  0.00000000000E+00  0.19352810707E+04  0.34104518034E+04  0.28081788904E+04 0.  0.
        4    1    3    3  502    0  0.37733676896E+03  0.12453712796E+03 -0.66787498478E+03  0.77714293514E+03  0.12699999809E+01 0. -1.
       -4    1    3    3    0  502 -0.37733676896E+03 -0.12453712796E+03  0.26031560555E+04  0.26333088683E+04  0.12699999809E+01 0.  1.
</event>
<event>
 5   0  0.1357902E-07  0.2800034E+04  0.7818609E-02  0.8303258E-01
       -1   -1    0    0    0  501  0.00000000000E+00  0.00000000000E+00  0.95610302937E+03  0.95610302939E+03  0.50400001928E-02 0.  1.
        1   -1    0    0  501    0  0.00000000000E+00  0.00000000000E+00 -0.20500376018E+04  0.20500376018E+04  0.50400001928E-02 0. -1.
    10030    2    1    2    0    0  0.00000000000E+00  0.00000000000E+00 -0.10939345724E+04  0.30061406312E+04  0.28000336865E+04 0.  0.
        4    1    3    3  502    0 -0.66830291463E+03 -0.10214056582E+04  0.18917706637E+03  0.12351873865E+04  0.12699999809E+01 0. -1.
       -4    1    3    3    0  502  0.66830291463E+03  0.10214056582E+04 -0.12831116388E+04  0.17709532447E+04  0.12699999809E+01 0.  1.
</event>
<event>
 5   0  0.3522569E-07  0.2798688E+04  0.7818609E-02  0.8303676E-01
       -2   -1    0    0    0  501  0.00000000000E+00  0.00000000000E+00  0.99914118307E+03  0.99914118307E+03  0.25500000920E-02 0.  1.
        2   -1    0    0  501    0  0.00000000000E+00  0.00000000000E+00 -0.19598468526E+04  0.19598468526E+04  0.25500000920E-02 0. -1.
    10030    2    1    2    0    0  0.00000000000E+00  0.00000000000E+00 -0.96070566956E+03  0.29589880357E+04  0.27986880519E+04 0.  0.
        1    1    3    3  502    0 -0.13479065274E+04  0.14776829183E+03 -0.11490157151E+03  0.13608415947E+04  0.50400001928E-02 0.  1.
       -1    1    3    3    0  502  0.13479065274E+04 -0.14776829183E+03 -0.84580409805E+03  0.15981464410E+04  0.50400001928E-02 0. -1.
</event>
<event>
 5   0  0.3557628E-07  0.2799967E+04  0.7818609E-02  0.8303279E-01
       -2   -1    0    0    0  501  0.00000000000E+00  0.00000000000E+00  0.10339774459E+04  0.10339774459E+04  0.25500000920E-02 0.  1.
        2   -1    0    0  501    0  0.00000000000E+00  0.00000000000E+00 -0.18955477692E+04  0.18955477692E+04  0.25500000920E-02 0. -1.
    10030    2    1    2    0    0  0.00000000000E+00  0.00000000000E+00 -0.86157032334E+03  0.29295252151E+04  0.27999668862E+04 0.  0.
        5    1    3    3  502    0 -0.96327085509E+03  0.56064894351E+03  0.45559479079E+03  0.12040791841E+04  0.46999998093E+01 0.  1.
       -5    1    3    3    0  502  0.96327085509E+03 -0.56064894351E+03 -0.13171651141E+04  0.17254460310E+04  0.46999998093E+01 0. -1.
</event>
<event>
 5   0  0.1346049E-07  0.2798891E+04  0.7818609E-02  0.8303613E-01
        1   -1    0    0  501    0  0.00000000000E+00  0.00000000000E+00  0.20502242879E+04  0.20502242879E+04  0.50400001928E-02 0.  1.
       -1   -1    0    0    0  501  0.00000000000E+00  0.00000000000E+00 -0.95523596693E+03  0.95523596695E+03  0.50400001928E-02 0. -1.
    10030    2    1    2    0    0  0.00000000000E+00  0.00000000000E+00  0.10949883210E+04  0.30054602549E+04  0.27988911948E+04 0.  0.
        1    1    3    3  502    0  0.36911210620E+03 -0.12541933477E+04  0.10835399019E+04  0.16980292752E+04  0.50400001928E-02 0.  1.
       -1    1    3    3    0  502 -0.36911210620E+03  0.12541933477E+04  0.11448419123E+02  0.13074309797E+04  0.50400001928E-02 0. -1.
</event>
<event>
 5   0  0.1346049E-07  0.2799749E+04  0.7818609E-02  0.8303346E-01
        1   -1    0    0  501    0  0.00000000000E+00  0.00000000000E+00  0.91239189470E+03  0.91239189471E+03  0.50400001928E-02 0. -1.
       -1   -1    0    0    0  501  0.00000000000E+00  0.00000000000E+00 -0.21478139245E+04  0.21478139245E+04  0.50400001928E-02 0.  1.
    10030    2    1    2    0    0  0.00000000000E+00  0.00000000000E+00 -0.12354220298E+04  0.30602058192E+04  0.27997485716E+04 0.  0.
        1    1    3    3  502    0  0.43230055518E+03  0.11041953425E+04  0.19548837528E+03  0.12018098141E+04  0.50400001928E-02 0. -1.
       -1    1    3    3    0  502 -0.43230055518E+03 -0.11041953425E+04 -0.14309104051E+04  0.18583960051E+04  0.50400001928E-02 0.  1.
</event>
<event>
 5   0  0.1357902E-07  0.2799931E+04  0.7818609E-02  0.8303290E-01
        1   -1    0    0  501    0  0.00000000000E+00  0.00000000000E+00  0.16725998117E+04  0.16725998117E+04  0.50400001928E-02 0. -1.
       -1   -1    0    0    0  501  0.00000000000E+00  0.00000000000E+00 -0.11717709094E+04  0.11717709094E+04  0.50400001928E-02 0.  1.
    10030    2    1    2    0    0  0.00000000000E+00  0.00000000000E+00  0.50082890230E+03  0.28443707211E+04  0.27999312866E+04 0.  0.
        4    1    3    3  502    0 -0.34548411818E+03  0.13118907813E+04 -0.10073857341E+03  0.13603553106E+04  0.12699999809E+01 0.  1.
       -4    1    3    3    0  502  0.34548411818E+03 -0.13118907813E+04  0.60156747572E+03  0.14840154105E+04  0.12699999809E+01 0. -1.
</event>
<event>
 5   0  0.3406920E-07  0.2800622E+04  0.7818609E-02  0.8303075E-01
       -2   -1    0    0    0  501  0.00000000000E+00  0.00000000000E+00  0.11887191159E+04  0.11887191159E+04  0.25500000920E-02 0.  1.
        2   -1    0    0  501    0  0.00000000000E+00  0.00000000000E+00 -0.16495659587E+04  0.16495659587E+04  0.25500000920E-02 0. -1.
    10030    2    1    2    0    0  0.00000000000E+00  0.00000000000E+00 -0.46084684287E+03  0.28382850746E+04  0.28006217796E+04 0.  0.
        4    1    3    3  502    0  0.79134244475E+03  0.82516701738E+03  0.58899535071E+03  0.12860951005E+04  0.12699999809E+01 0.  1.
       -4    1    3    3    0  502 -0.79134244475E+03 -0.82516701738E+03 -0.10498421936E+04  0.15521899741E+04  0.12699999809E+01 0. -1.
</event>
<event>
 5   0  0.1346049E-07  0.2799515E+04  0.7818609E-02  0.8303419E-01
        1   -1    0    0  501    0  0.00000000000E+00  0.00000000000E+00  0.16840141878E+04  0.16840141878E+04  0.50400001928E-02 0.  1.
       -1   -1    0    0    0  501  0.00000000000E+00  0.00000000000E+00 -0.11634828906E+04  0.11634828906E+04  0.50400001928E-02 0. -1.
    10030    2    1    2    0    0  0.00000000000E+00  0.00000000000E+00  0.52053129717E+03  0.28474970784E+04  0.27995154545E+04 0.  0.
        1    1    3    3  502    0  0.39071162544E+03 -0.10575957656E+04  0.11040360445E+04  0.15779923844E+04  0.50400001928E-02 0.  1.
       -1    1    3    3    0  502 -0.39071162544E+03  0.10575957656E+04 -0.58350474735E+03  0.12695046939E+04  0.50400001928E-02 0. -1.
</event>
<event>
 5   0  0.3522569E-07  0.2800550E+04  0.7818609E-02  0.8303098E-01
       -2   -1    0    0    0  501  0.00000000000E+00  0.00000000000E+00  0.11860350286E+04  0.11860350286E+04  0.25500000920E-02 0.  1.
        2   -1    0    0  501    0  0.00000000000E+00  0.00000000000E+00 -0.16532141198E+04  0.16532141198E+04  0.25500000920E-02 0. -1.
    10030    2    1    2    0    0  0.00000000000E+00  0.00000000000E+00 -0.46717909121E+03  0.28392491484E+04  0.28005498431E+04 0.  0.
        1    1    3    3  502    0  0.12399303084E+04  0.51279817826E+03  0.17242002377E+03  0.13528184675E+04  0.50400001928E-02 0.  1.
       -1    1    3    3    0  502 -0.12399303084E+04 -0.51279817826E+03 -0.63959911498E+03  0.14864306810E+04  0.50400001928E-02 0. -1.
</event>
<event>
 5   0  0.1173363E-07  0.2798067E+04  0.7818609E-02  0.8303869E-01
       -3   -1    0    0    0  501  0.00000000000E+00  0.00000000000E+00  0.14154664843E+04  0.14154664879E+04  0.10100000352E+00 0.  1.
        3   -1    0    0  501    0  0.00000000000E+00  0.00000000000E+00 -0.13827909228E+04  0.13827909265E+04  0.10100000352E+00 0. -1.
    10030    2    1    2    0    0  0.00000000000E+00  0.00000000000E+00  0.32675561426E+02  0.27982574144E+04  0.27980666298E+04 0.  0.
        2    1    3    3  502    0 -0.86401865709E+03  0.72254663505E+03  0.84626925740E+03  0.14088199089E+04  0.25500000920E-02 0.  1.
       -2    1    3    3    0  502  0.86401865709E+03 -0.72254663505E+03 -0.81359369597E+03  0.13894375055E+04  0.25500000920E-02 0. -1.
</event>
<event>
 5   0  0.3502141E-07  0.2799817E+04  0.7818609E-02  0.8303325E-01
        2   -1    0    0  501    0  0.00000000000E+00  0.00000000000E+00  0.85355322417E+03  0.85355322417E+03  0.25500000920E-02 0.  1.
       -2   -1    0    0    0  501  0.00000000000E+00  0.00000000000E+00 -0.22959835676E+04  0.22959835676E+04  0.25500000920E-02 0. -1.
    10030    2    1    2    0    0  0.00000000000E+00  0.00000000000E+00 -0.14424303434E+04  0.31495367918E+04  0.27998172631E+04 0.  0.
        3    1    3    3  502    0 -0.12779560330E+03  0.11996085344E+03  0.84116087414E+03  0.85922869422E+03  0.10100000352E+00 0.  1.
       -3    1    3    3    0  502  0.12779560330E+03 -0.11996085344E+03 -0.22835912175E+04  0.22903080975E+04  0.10100000352E+00 0. -1.
</event>
<event>
 5   0  0.1346049E-07  0.2804717E+04  0.7818609E-02  0.8301805E-01
        1   -1    0    0  501    0  0.00000000000E+00  0.00000000000E+00  0.19563663703E+04  0.19563663703E+04  0.50400001928E-02 0.  1.
       -1   -1    0    0    0  501  0.00000000000E+00  0.00000000000E+00 -0.10052358648E+04  0.10052358649E+04  0.50400001928E-02 0. -1.
    10030    2    1    2    0    0  0.00000000000E+00  0.00000000000E+00  0.95113050543E+03  0.29616022351E+04  0.28047171980E+04 0.  0.
        1    1    3    3  502    0  0.81648789770E+03 -0.17112935056E+03  0.16658595814E+04  0.18630689431E+04  0.50400001928E-02 0. -1.
       -1    1    3    3    0  502 -0.81648789770E+03  0.17112935056E+03 -0.71472907596E+03  0.10985332921E+04  0.50400001928E-02 0.  1.
</event>
<event>
 5   0  0.1173363E-07  0.2799819E+04  0.7818609E-02  0.8303325E-01
       -3   -1    0    0    0  501  0.00000000000E+00  0.00000000000E+00  0.12089707901E+04  0.12089707943E+04  0.10100000352E+00 0.  1.
        3   -1    0    0  501    0  0.00000000000E+00  0.00000000000E+00 -0.16210037383E+04  0.16210037415E+04  0.10100000352E+00 0. -1.
    10030    2    1    2    0    0  0.00000000000E+00  0.00000000000E+00 -0.41203294828E+03  0.28299745358E+04  0.27998186946E+04 0.  0.
        2    1    3    3  502    0 -0.13988569856E+04  0.31525378767E+02 -0.16136528702E+03  0.14084862340E+04  0.25500000920E-02 0. -1.
       -2    1    3    3    0  502  0.13988569856E+04 -0.31525378767E+02 -0.25066766126E+03  0.14214883017E+04  0.25500000920E-02 0.  1.
</event>
<event>
 5   0  0.3557628E-07  0.2800970E+04  0.7818609E-02  0.8302967E-01
        2   -1    0    0  501    0  0.00000000000E+00  0.00000000000E+00  0.15497568034E+04  0.15497568034E+04  0.25500000920E-02 0. -1.
       -2   -1    0    0    0  501  0.00000000000E+00  0.00000000000E+00 -0.12655906292E+04  0.12655906292E+04  0.25500000920E-02 0.  1.
    10030    2    1    2    0    0  0.00000000000E+00  0.00000000000E+00  0.28416617424E+03  0.28153474326E+04  0.28009696092E+04 0.  0.
        5    1    3    3  502    0 -0.67143778197E+03  0.83114259938E+03 -0.76794211794E+03  0.13158206193E+04  0.46999998093E+01 0.  1.
       -5    1    3    3    0  502  0.67143778197E+03 -0.83114259938E+03  0.10521082922E+04  0.14995268134E+04  0.46999998093E+01 0. -1.
</event>
<event>
 5   0  0.1346049E-07  0.2798071E+04  0.7818609E-02  0.8303867E-01
       -1   -1    0    0    0  501  0.00000000000E+00  0.00000000000E+00  0.14195497963E+04  0.14195497963E+04  0.50400001928E-02 0.  1.
        1   -1    0    0  501    0  0.00000000000E+00  0.00000000000E+00 -0.13788177446E+04  0.13788177446E+04  0.50400001928E-02 0. -1.
    10030    2    1    2    0    0  0.00000000000E+00  0.00000000000E+00  0.40732051755E+02  0.27983675409E+04  0.27980710845E+04 0.  0.
        1    1    3    3  502    0  0.70546337281E+03  0.46434633749E+03  0.11358336301E+04  0.14154201238E+04  0.50400001928E-02 0.  1.
       -1    1    3    3    0  502 -0.70546337281E+03 -0.46434633749E+03 -0.10951015784E+04  0.13829474171E+04  0.50400001928E-02 0. -1.
</event>
<event>
 5   0  0.1361741E-07  0.2800541E+04  0.7818609E-02  0.8303100E-01
       -1   -1    0    0    0  501  0.00000000000E+00  0.00000000000E+00  0.13742708285E+04  0.13742708285E+04  0.50400001928E-02 0. -1.
        1   -1    0    0  501    0  0.00000000000E+00  0.00000000000E+00 -0.14267621423E+04  0.14267621423E+04  0.50400001928E-02 0.  1.
    10030    2    1    2    0    0  0.00000000000E+00  0.00000000000E+00 -0.52491313769E+02  0.28010329709E+04  0.28005410845E+04 0.  0.
        5    1    3    3  502    0 -0.90257906628E+03 -0.78279172911E+03  0.70417271743E+03  0.13868284566E+04  0.46999998093E+01 0. -1.
       -5    1    3    3    0  502  0.90257906628E+03  0.78279172911E+03 -0.75666403120E+03  0.14142045143E+04  0.46999998093E+01 0.  1.
</event>
<event>
 5   0  0.1374680E-07  0.2796467E+04  0.7818609E-02  0.8304366E-01
        1   -1    0    0  501    0  0.00000000000E+00  0.00000000000E+00  0.73326183433E+03  0.73326183434E+03  0.50400001928E-02 0.  1.
       -1   -1    0    0    0  501  0.00000000000E+00  0.00000000000E+00 -0.26662469228E+04  0.26662469228E+04  0.50400001928E-02 0. -1.
    10030    2    1    2    0    0  0.00000000000E+00  0.00000000000E+00 -0.19329850884E+04  0.33995087571E+04  0.27964671351E+04 0.  0.
        3    1    3    3  502    0 -0.81317455000E+03  0.11195027800E+04 -0.12111898817E+04  0.18388910416E+04  0.10100000352E+00 0. -1.
       -3    1    3    3    0  502  0.81317455000E+03 -0.11195027800E+04 -0.72179520677E+03  0.15606177155E+04  0.10100000352E+00 0.  1.
</event>
<event>
 5   0  0.3406920E-07  0.2800886E+04  0.7818609E-02  0.8302993E-01
       -2   -1    0    0    0  501  0.00000000000E+00  0.00000000000E+00  0.10786584544E+04  0.10786584544E+04  0.25500000920E-02 0. -1.
        2   -1    0    0  501    0  0.00000000000E+00  0.00000000000E+00 -0.18182215594E+04  0.18182215594E+04  0.25500000920E-02 0.  1.
    10030    2    1    2    0    0  0.00000000000E+00  0.00000000000E+00 -0.73956310498E+03  0.28968800137E+04  0.28008856149E+04 0.  0.
        4    1    3    3  502    0  0.13356883041E+03 -0.72859194495E+02  0.10700842988E+04  0.10808474056E+04  0.12699999809E+01 0. -1.
       -4    1    3    3    0  502 -0.13356883041E+03  0.72859194495E+02 -0.18096474038E+04  0.18160326081E+04  0.12699999809E+01 0.  1.
</event>
<event>
 5   0  0.1366235E-07  0.2795857E+04  0.7818609E-02  0.8304556E-01
        1   -1    0    0  501    0  0.00000000000E+00  0.00000000000E+00  0.20385896737E+04  0.20385896737E+04  0.50400001928E-02 0.  1.
       -1   -1    0    0    0  501  0.00000000000E+00  0.00000000000E+00 -0.95860594586E+03  0.95860594587E+03  0.50400001928E-02 0. -1.
    10030    2    1    2    0    0  0.00000000000E+00  0.00000000000E+00  0.10799837279E+04  0.29971956196E+04  0.27958570653E+04 0.  0.
        2    1    3    3  502    0 -0.88603306502E+03  0.10573020615E+04  0.78270743946E+03  0.15860558557E+04  0.25500000920E-02 0.  1.
       -2    1    3    3    0  502  0.88603306502E+03 -0.10573020615E+04  0.29727628841E+03  0.14111397639E+04  0.25500000920E-02 0. -1.
</event>
<event>
 5   0  0.1173363E-07  0.2799472E+04  0.7818609E-02  0.8303432E-01
       -3   -1    0    0    0  501  0.00000000000E+00  0.00000000000E+00  0.14549551724E+04  0.14549551759E+04  0.10100000352E+00 0. -1.
        3   -1    0    0  501    0  0.00000000000E+00  0.00000000000E+00 -0.13466121976E+04  0.13466122014E+04  0.10100000352E+00 0.  1.
    10030    2    1    2    0    0  0.00000000000E+00  0.00000000000E+00  0.10834297480E+03  0.28015673772E+04  0.27994716589E+04 0.  0.
        5    1    3    3  502    0 -0.27000672875E+02 -0.10571479805E+04 -0.86354686340E+03  0.13652934352E+04  0.46999998093E+01 0.  1.
       -5    1    3    3    0  502  0.27000672875E+02  0.10571479805E+04  0.97188983820E+03  0.14362739420E+04  0.46999998093E+01 0. -1.
</event>
<event>
 5   0  0.3522569E-07  0.2799480E+04  0.7818609E-02  0.8303430E-01
        2   -1    0    0  501    0  0.00000000000E+00  0.00000000000E+00  0.14869905985E+04  0.14869905985E+04  0.25500000920E-02 0.  1.
       -2   -1    0    0    0  501  0.00000000000E+00  0.00000000000E+00 -0.13176088644E+04  0.13176088644E+04  0.25500000920E-02 0. -1.
    10030    2    1    2    0    0  0.00000000000E+00  0.00000000000E+00  0.16938173407E+03  0.28045994629E+04  0.27994799473E+04 0.  0.
        1    1    3    3  502    0 -0.10210630779E+04 -0.32719950239E+03 -0.81675609584E+03  0.13478575012E+04  0.50400001928E-02 0. -1.
       -1    1    3    3    0  502  0.10210630779E+04  0.32719950239E+03  0.98613782991E+03  0.14567419617E+04  0.50400001928E-02 0.  1.
</event>
<event>
 5   0  0.3406920E-07  0.2803567E+04  0.7818609E-02  0.8302162E-01
       -2   -1    0    0    0  501  0.00000000000E+00  0.00000000000E+00  0.85701658622E+03  0.85701658622E+03  0.25500000920E-02 0.  1.
        2   -1    0    0  501    0  0.00000000000E+00  0.00000000000E+00 -0.22928337565E+04  0.22928337565E+04  0.25500000920E-02 0. -1.
    10030    2    1    2    0    0  0.00000000000E+00  0.00000000000E+00 -0.14358171703E+04  0.31498503427E+04  0.28035666989E+04 0.  0.
        4    1    3    3  502    0 -0.51100912841E+03 -0.11784956859E+04 -0.87324588386E+02  0.12874818863E+04  0.12699999809E+01 0.  1.
       -4    1    3    3    0  502  0.51100912841E+03  0.11784956859E+04 -0.13484925819E+04  0.18623684564E+04  0.12699999809E+01 0. -1.
</event>
<event>
 5   0  0.3406920E-07  0.2800475E+04  0.7818609E-02  0.8303121E-01
       -2   -1    0    0    0  501  0.00000000000E+00  0.00000000000E+00  0.10656465523E+04  0.10656465523E+04  0.25500000920E-02 0.  1.
        2   -1    0    0  501    0  0.00000000000E+00  0.00000000000E+00 -0.18398836714E+04  0.18398836714E+04  0.25500000920E-02 0. -1.
    10030    2    1    2    0    0  0.00000000000E+00  0.00000000000E+00 -0.77423711913E+03  0.29055302237E+04  0.28004754532E+04 0.  0.
        4    1    3    3  502    0  0.12157431062E+04  0.68808689411E+03 -0.28777048694E+03  0.14262918145E+04  0.12699999809E+01 0.  1.
       -4    1    3    3    0  502 -0.12157431062E+04 -0.68808689411E+03 -0.48646663219E+03  0.14792384092E+04  0.12699999809E+01 0. -1.
</event>
<event>
 5   0  0.3571498E-07  0.2799393E+04  0.7818609E-02  0.8303457E-01
       -2   -1    0    0    0  501  0.00000000000E+00  0.00000000000E+00  0.12776243799E+04  0.12776243799E+04  0.25500000920E-02 0.  1.
        2   -1    0    0  501    0  0.00000000000E+00  0.00000000000E+00 -0.15334320251E+04  0.15334320251E+04  0.25500000920E-02 0. -1.
    10030    2    1    2    0    0  0.00000000000E+00  0.00000000000E+00 -0.25580764523E+03  0.28110564051E+04  0.27993928915E+04 0.  0.
        2    1    3    3  502    0  0.78041974536E+03 -0.43490413394E+03 -0.12098686116E+04  0.15039875804E+04  0.25500000920E-02 0. -1.
       -2    1    3    3    0  502 -0.78041974536E+03  0.43490413394E+03  0.95406096642E+03  0.13070688246E+04  0.25500000920E-02 0.  1.
</event>
<event>
 5   0  0.3502141E-07  0.2798449E+04  0.7818609E-02  0.8303750E-01
        2   -1    0    0  501    0  0.00000000000E+00  0.00000000000E+00  0.20669407804E+04  0.20669407804E+04  0.25500000920E-02 0.  1.
       -2   -1    0    0    0  501  0.00000000000E+00  0.00000000000E+00 -0.94721080118E+03  0.94721080118E+03  0.25500000920E-02 0. -1.
    10030    2    1    2    0    0  0.00000000000E+00  0.00000000000E+00  0.11197299793E+04  0.30141515816E+04  0.27984485935E+04 0.  0.
        3    1    3    3  502    0  0.38309033549E+03  0.47007783508E+03  0.19180520809E+04  0.20116299787E+04  0.10100000352E+00 0.  1.
       -3    1    3    3    0  502 -0.38309033549E+03 -0.47007783508E+03 -0.79832210160E+03  0.10025216029E+04  0.10100000352E+00 0. -1.
</event>
<event>
 5   0  0.1374680E-07  0.2800401E+04  0.7818609E-02  0.8303144E-01
        1   -1    0    0  501    0  0.00000000000E+00  0.00000000000E+00  0.23142217310E+04  0.23142217310E+04  0.50400001928E-02 0.  1.
       -1   -1    0    0    0  501  0.00000000000E+00  0.00000000000E+00 -0.84717962912E+03  0.84717962914E+03  0.50400001928E-02 0. -1.
    10030    2    1    2    0    0  0.00000000000E+00  0.00000000000E+00  0.14670421018E+04  0.31614013601E+04  0.28004010483E+04 0.  0.
        3    1    3    3  502    0 -0.54653790118E+03  0.17707117474E+03 -0.70799767301E+03  0.91176674295E+03  0.10100000352E+00 0. -1.
       -3    1    3    3    0  502  0.54653790118E+03 -0.17707117474E+03  0.21750397748E+04  0.22496346172E+04  0.10100000352E+00 0.  1.
</event>
<event>
 5   0  0.1357902E-07  0.2800040E+04  0.7818609E-02  0.8303256E-01
       -1   -1    0    0    0  501  0.00000000000E+00  0.00000000000E+00  0.13446121026E+04  0.13446121026E+04  0.50400001928E-02 0.  1.
        1   -1    0    0  501    0  0.00000000000E+00  0.00000000000E+00 -0.14577114385E+04  0.14577114385E+04  0.50400001928E-02 0. -1.
    10030    2    1    2    0    0  0.00000000000E+00  0.00000000000E+00 -0.11309933590E+03  0.28023235411E+04  0.28000403156E+04 0.  0.
        4    1    3    3  502    0 -0.47002302822E+03  0.10897476459E+04 -0.79984178273E+03  0.14311603925E+04  0.12699999809E+01 0. -1.
       -4    1    3    3    0  502  0.47002302822E+03 -0.10897476459E+04  0.68674244683E+03  0.13711631486E+04  0.12699999809E+01 0.  1.
</event>
<event>
 5   0  0.3502141E-07  0.2799303E+04  0.7818609E-02  0.8303485E-01
       -2   -1    0    0    0  501  0.00000000000E+00  0.00000000000E+00  0.10956131700E+04  0.10956131700E+04  0.25500000920E-02 0.  1.
        2   -1    0    0  501    0  0.00000000000E+00  0.00000000000E+00 -0.17880625168E+04  0.17880625168E+04  0.25500000920E-02 0. -1.
    10030    2    1    2    0    0  0.00000000000E+00  0.00000000000E+00 -0.69244934684E+03  0.28836756868E+04  0.27993033720E+04 0.  0.
        3    1    3    3  502    0 -0.82527049432E+01  0.36797540718E+02 -0.17875390625E+04  0.17879368211E+04  0.10100000352E+00 0. -1.
       -3    1    3    3    0  502  0.82527049432E+01 -0.36797540718E+02  0.10950897157E+04  0.10957388656E+04  0.10100000352E+00 0.  1.
</event>
<event>
 5   0  0.3571498E-07  0.2802006E+04  0.7818609E-02  0.8302646E-01
        2   -1    0    0  501    0  0.00000000000E+00  0.00000000000E+00  0.15930443469E+04  0.15930443469E+04  0.25500000920E-02 0.  1.
       -2   -1    0    0    0  501  0.00000000000E+00  0.00000000000E+00 -0.12321119297E+04  0.12321119297E+04  0.25500000920E-02 0. -1.
    10030    2    1    2    0    0  0.00000000000E+00  0.00000000000E+00  0.36093241719E+03  0.28251562766E+04  0.28020056704E+04 0.  0.
        2    1    3    3  502    0  0.16257644504E+03  0.10386309487E+04  0.11141973150E+04  0.15318684685E+04  0.25500000920E-02 0.  1.
       -2    1    3    3    0  502 -0.16257644504E+03 -0.10386309487E+04 -0.75326489780E+03  0.12932878080E+04  0.25500000920E-02 0. -1.
</event>
<event>
 5   0  0.1346049E-07  0.2798674E+04  0.7818609E-02  0.8303680E-01
        1   -1    0    0  501    0  0.00000000000E+00  0.00000000000E+00  0.17189687447E+04  0.17189687447E+04  0.50400001928E-02 0. -1.
       -1   -1    0    0    0  501  0.00000000000E+00  0.00000000000E+00 -0.11391389237E+04  0.11391389237E+04  0.50400001928E-02 0.  1.
    10030    2    1    2    0    0  0.00000000000E+00  0.00000000000E+00  0.57982982095E+03  0.28581076684E+04  0.27986741187E+04 0.  0.
        1    1    3    3  502    0  0.79057625783E+03  0.74658470889E+03  0.11893827724E+04  0.16115306160E+04  0.50400001928E-02 0. -1.
       -1    1    3    3    0  502 -0.79057625783E+03 -0.74658470889E+03 -0.60955295143E+03  0.12465770524E+04  0.50400001928E-02 0.  1.
</event>
<event>
 5   0  0.3522569E-07  0.2799988E+04  0.7818609E-02  0.8303272E-01
       -2   -1    0    0    0  501  0.00000000000E+00  0.00000000000E+00  0.11622104357E+04  0.11622104357E+04  0.25500000920E-02 0.  1.
        2   -1    0    0  501    0  0.00000000000E+00  0.00000000000E+00 -0.16864266098E+04  0.16864266098E+04  0.25500000920E-02 0. -1.
    10030    2    1    2    0    0  0.00000000000E+00  0.00000000000E+00 -0.52421617405E+03  0.28486370455E+04  0.27999875749E+04 0.  0.
        1    1    3    3  502    0  0.36588263708E+03 -0.12298862724E+04 -0.83174014596E+03  0.15291442109E+04  0.50400001928E-02 0. -1.
       -1    1    3    3    0  502 -0.36588263708E+03  0.12298862724E+04  0.30752397191E+03  0.13194928346E+04  0.50400001928E-02 0.  1.
</event>
<event>
 5   0  0.1366235E-07  0.2799477E+04  0.7818609E-02  0.8303431E-01
        1   -1    0    0  501    0  0.00000000000E+00  0.00000000000E+00  0.13980752576E+04  0.13980752576E+04  0.50400001928E-02 0. -1.
       -1   -1    0    0    0  501  0.00000000000E+00  0.00000000000E+00 -0.14014035540E+04  0.14014035540E+04  0.50400001928E-02 0.  1.
    10030    2    1    2    0    0  0.00000000000E+00  0.00000000000E+00 -0.33282964404E+01  0.27994788116E+04  0.27994768331E+04 0.  0.
        2    1    3    3  502    0 -0.13373457814E+04 -0.75630581907E+02 -0.40793270961E+03  0.14002224179E+04  0.25500000920E-02 0.  1.
       -2    1    3    3    0  502  0.13373457814E+04  0.75630581907E+02  0.40460441317E+03  0.13992563937E+04  0.25500000920E-02 0. -1.
</event>
<event>
 5   0  0.3557628E-07  0.2800597E+04  0.7818609E-02  0.8303083E-01
        2   -1    0    0  501    0  0.00000000000E+00  0.00000000000E+00  0.24093953539E+04  0.24093953539E+04  0.25500000920E-02 0. -1.
       -2   -1    0    0    0  501  0.00000000000E+00  0.00000000000E+00 -0.81382880458E+03  0.81382880458E+03  0.25500000920E-02 0.  1.
    10030    2    1    2    0    0  0.00000000000E+00  0.00000000000E+00  0.15955665493E+04  0.32232241584E+04  0.28005966083E+04 0.  0.
        5    1    3    3  502    0 -0.10431427691E+04  0.82675172396E+03  0.29724092430E+03  0.13638326536E+04  0.46999998093E+01 0.  1.
       -5    1    3    3    0  502  0.10431427691E+04 -0.82675172396E+03  0.12983256250E+04  0.18593915049E+04  0.46999998093E+01 0. -1.
</event>
<event>
 5   0  0.1366235E-07  0.2799598E+04  0.7818609E-02  0.8303393E-01
        1   -1    0    0  501    0  0.00000000000E+00  0.00000000000E+00  0.22292705628E+04  0.22292705628E+04  0.50400001928E-02 0.  1.
       -1   -1    0    0    0  501  0.00000000000E+00  0.00000000000E+00 -0.87895908502E+03  0.87895908503E+03  0.50400001928E-02 0. -1.
    10030    2    1    2    0    0  0.00000000000E+00  0.00000000000E+00  0.13503114778E+04  0.31082296478E+04  0.27995982670E+04 0.  0.
        2    1    3    3  502    0  0.18423159401E+03 -0.93496010172E+03 -0.46323198569E+03  0.10595638464E+04  0.25500000920E-02 0. -1.
       -2    1    3    3    0  502 -0.18423159401E+03  0.93496010172E+03  0.18135434634E+04  0.20486658014E+04  0.25500000920E-02 0.  1.
</event>
<event>
 5   0  0.1374680E-07  0.2798928E+04  0.7818609E-02  0.8303601E-01
       -1   -1    0    0    0  501  0.00000000000E+00  0.00000000000E+00  0.11622026207E+04  0.11622026207E+04  0.50400001928E-02 0. -1.
        1   -1    0    0  501    0  0.00000000000E+00  0.00000000000E+00 -0.16851614418E+04  0.16851614418E+04  0.50400001928E-02 0.  1.
    10030    2    1    2    0    0  0.00000000000E+00  0.00000000000E+00 -0.52295882105E+03  0.28473640625E+04  0.27989276832E+04 0.  0.
        3    1    3    3  502    0  0.11800817435E+03  0.47787032672E+03 -0.15941932954E+04  0.16684538506E+04  0.10100000352E+00 0.  1.
       -3    1    3    3    0  502 -0.11800817435E+03 -0.47787032672E+03  0.10712344743E+04  0.11789102118E+04  0.10100000352E+00 0. -1.
</event>
<event>
 5   0  0.1361741E-07  0.2799711E+04  0.7818609E-02  0.8303358E-01
        1   -1    0    0  501    0  0.00000000000E+00  0.00000000000E+00  0.15023720127E+04  0.15023720127E+04  0.50400001928E-02 0.  1.
       -1   -1    0    0    0  501  0.00000000000E+00  0.00000000000E+00 -0.13043344761E+04  0.13043344761E+04  0.50400001928E-02 0. -1.
    10030    2    1    2    0    0  0.00000000000E+00  0.00000000000E+00  0.19803753653E+03  0.28067064888E+04  0.27997111366E+04 0.  0.
        5    1    3    3  502    0 -0.84188215039E+03 -0.16385620818E+02  0.12200881131E+04  0.14824544302E+04  0.46999998093E+01 0.  1.
       -5    1    3    3    0  502  0.84188215039E+03  0.16385620818E+02 -0.10220505766E+04  0.13242520586E+04  0.46999998093E+01 0. -1.
</event>
<event>
 5   0  0.3522569E-07  0.2802511E+04  0.7818609E-02  0.8302489E-01
       -2   -1    0    0    0  501  0.00000000000E+00  0.00000000000E+00  0.10057526868E+04  0.10057526868E+04  0.25500000920E-02 0. -1.
        2   -1    0    0  501    0  0.00000000000E+00  0.00000000000E+00 -0.19522861424E+04  0.19522861424E+04  0.25500000920E-02 0.  1.
    10030    2    1    2    0    0  0.00000000000E+00  0.00000000000E+00 -0.94653345556E+03  0.29580388292E+04  0.28025110406E+04 0.  0.
        1    1    3    3  502    0 -0.13580681984E+04  0.30128134938E+02 -0.83624084208E+03  0.15951663493E+04  0.50400001928E-02 0.  1.
       -1    1    3    3    0  502  0.13580681984E+04 -0.30128134938E+02 -0.11029261348E+03  0.13628724799E+04  0.50400001928E-02 0. -1.
</event>
<event>
 5   0  0.1374680E-07  0.2792574E+04  0.7818609E-02  0.8305578E-01
        1   -1    0    0  501    0  0.00000000000E+00  0.00000000000E+00  0.15257882879E+04  0.15257882879E+04  0.50400001928E-02 0. -1.
       -1   -1    0    0    0  501  0.00000000000E+00  0.00000000000E+00 -0.12777767268E+04  0.12777767268E+04  0.50400001928E-02 0.  1.
    10030    2    1    2    0    0  0.00000000000E+00  0.00000000000E+00  0.24801156108E+03  0.28035650147E+04  0.27925735545E+04 0.  0.
        3    1    3    3  502    0  0.93471814355E+01  0.11890442983E+04 -0.61079239066E+03  0.13367801120E+04  0.10100000352E+00 0.  1.
       -3    1    3    3    0  502 -0.93471814355E+01 -0.11890442983E+04  0.85880395174E+03  0.14667849027E+04  0.10100000352E+00 0. -1.
</event>
<event>
 5   0  0.3571498E-07  0.2800275E+04  0.7818609E-02  0.8303183E-01
        2   -1    0    0  501    0  0.00000000000E+00  0.00000000000E+00  0.14861115373E+04  0.14861115373E+04  0.25500000920E-02 0.  1.
       -2   -1    0    0    0  501  0.00000000000E+00  0.00000000000E+00 -0.13191370277E+04  0.13191370277E+04  0.25500000920E-02 0. -1.
    10030    2    1    2    0    0  0.00000000000E+00  0.00000000000E+00  0.16697450963E+03  0.28052485651E+04  0.28002748124E+04 0.  0.
        2    1    3    3  502    0 -0.73044553840E+03  0.11930759883E+04  0.25041896386E+02  0.13991454874E+04  0.25500000920E-02 0. -1.
       -2    1    3    3    0  502  0.73044553840E+03 -0.11930759883E+04  0.14193261325E+03  0.14061030777E+04  0.25500000920E-02 0.  1.
</event>
<event>
 5   0  0.1357902E-07  0.2801510E+04  0.7818609E-02  0.8302800E-01
        1   -1    0    0  501    0  0.00000000000E+00  0.00000000000E+00  0.14154836910E+04  0.14154836910E+04  0.50400001928E-02 0.  1.
       -1   -1    0    0    0  501  0.00000000000E+00  0.00000000000E+00 -0.13861795236E+04  0.13861795236E+04  0.50400001928E-02 0. -1.
    10030    2    1    2    0    0  0.00000000000E+00  0.00000000000E+00  0.29304167392E+02  0.28016632146E+04  0.28015099561E+04 0.  0.
        4    1    3    3  502    0  0.96945197325E+03 -0.33201629695E+02 -0.99593445390E+03  0.13902613157E+04  0.12699999809E+01 0. -1.
       -4    1    3    3    0  502 -0.96945197325E+03  0.33201629695E+02  0.10252386213E+04  0.14114018989E+04  0.12699999809E+01 0.  1.
</event>
<event>
 5   0  0.1361741E-07  0.2799260E+04  0.7818609E-02  0.8303498E-01
        1   -1    0    0  501    0  0.00000000000E+00  0.00000000000E+00  0.16585589142E+04  0.16585589142E+04  0.50400001928E-02 0. -1.
       -1   -1    0    0    0  501  0.00000000000E+00  0.00000000000E+00 -0.11811244081E+04  0.11811244081E+04  0.50400001928E-02 0.  1.
    10030    2    1    2    0    0  0.00000000000E+00  0.00000000000E+00  0.47743450604E+03  0.28396833223E+04  0.27992601993E+04 0.  0.
        5    1    3    3  502    0  0.36324436125E+03 -0.58408936103E+03  0.14752681692E+04  0.16277423349E+04  0.46999998093E+01 0. -1.
       -5    1    3    3    0  502 -0.36324436125E+03  0.58408936103E+03 -0.99783366318E+03  0.12119409874E+04  0.46999998093E+01 0.  1.
</event>
<event>
 5   0  0.3557628E-07  0.2801264E+04  0.7818609E-02  0.8302876E-01
       -2   -1    0    0    0  501  0.00000000000E+00  0.00000000000E+00  0.15182407515E+04  0.15182407515E+04  0.25500000920E-02 0.  1.
        2   -1    0    0  501    0  0.00000000000E+00  0.00000000000E+00 -0.12921335090E+04  0.12921335090E+04  0.25500000920E-02 0. -1.
    10030    2    1    2    0    0  0.00000000000E+00  0.00000000000E+00  0.22610724245E+03  0.28103742605E+04  0.28012638217E+04 0.  0.
        5    1    3    3  502    0  0.66353013355E+03  0.12124350005E+04 -0.11456924112E+03  0.13868738477E+04  0.46999998093E+01 0.  1.
       -5    1    3    3    0  502 -0.66353013355E+03 -0.12124350005E+04  0.34067648357E+03  0.14235004127E+04  0.46999998093E+01 0. -1.
</event>
<event>
 5   0  0.1361741E-07  0.2800004E+04  0.7818609E-02  0.8303267E-01
        1   -1    0    0  501    0  0.00000000000E+00  0.00000000000E+00  0.12235368375E+04  0.12235368375E+04  0.50400001928E-02 0. -1.
       -1   -1    0    0    0  501  0.00000000000E+00  0.00000000000E+00 -0.16019184885E+04  0.16019184885E+04  0.50400001928E-02 0.  1.
    10030    2    1    2    0    0  0.00000000000E+00  0.00000000000E+00 -0.37838165100E+03  0.28254553260E+04  0.28000044867E+04 0.  0.
        5    1    3    3  502    0 -0.91836279457E+03  0.95904586316E+03 -0.63687304831E+03  0.14726807392E+04  0.46999998093E+01 0.  1.
       -5    1    3    3    0  502  0.91836279457E+03 -0.95904586316E+03  0.25849139731E+03  0.13527745868E+04  0.46999998093E+01 0. -1.
</event>
<event>
 5   0  0.1366235E-07  0.2801055E+04  0.7818609E-02  0.8302941E-01
        1   -1    0    0  501    0  0.00000000000E+00  0.00000000000E+00  0.16887290145E+04  0.16887290145E+04  0.50400001928E-02 0.  1.
       -1   -1    0    0    0  501  0.00000000000E+00  0.00000000000E+00 -0.11615110015E+04  0.11615110015E+04  0.50400001928E-02 0. -1.
    10030    2    1    2    0    0  0.00000000000E+00  0.00000000000E+00  0.52721801296E+03  0.28502400160E+04  0.28010550362E+04 0.  0.
        2    1    3    3  502    0 -0.92352007857E+03  0.98922933582E+03  0.63051407069E+03  0.14929876114E+04  0.25500000920E-02 0.  1.
       -2    1    3    3    0  502  0.92352007857E+03 -0.98922933582E+03 -0.10329605772E+03  0.13572524046E+04  0.25500000920E-02 0. -1.
</event>
<event>
 5   0  0.3522569E-07  0.2799160E+04  0.7818609E-02  0.8303529E-01
       -2   -1    0    0    0  501  0.00000000000E+00  0.00000000000E+00  0.89736405172E+03  0.89736405173E+03  0.25500000920E-02 0.  1.
        2   -1    0    0  501    0  0.00000000000E+00  0.00000000000E+00 -0.21828648741E+04  0.21828648741E+04  0.25500000920E-02 0. -1.
    10030    2    1    2    0    0  0.00000000000E+00  0.00000000000E+00 -0.12855008224E+04  0.30802289258E+04  0.27991602082E+04 0.  0.
        1    1    3    3  502    0 -0.70529134562E+03 -0.12054932865E+04 -0.54325881138E+03  0.14985927006E+04  0.50400001928E-02 0.  1.
       -1    1    3    3    0  502  0.70529134562E+03  0.12054932865E+04 -0.74224201097E+03  0.15816362252E+04  0.50400001928E-02 0. -1.
</event>
<event>
 5   0  0.1357902E-07  0.2800120E+04  0.7818609E-02  0.8303231E-01
       -1   -1    0    0    0  501  0.00000000000E+00  0.00000000000E+00  0.15005992381E+04  0.15005992381E+04  0.50400001928E-02 0.  1.
        1   -1    0    0  501    0  0.00000000000E+00  0.00000000000E+00 -0.13062565232E+04  0.13062565232E+04  0.50400001928E-02 0. -1.
    10030    2    1    2    0    0  0.00000000000E+00  0.00000000000E+00  0.19434271487E+03  0.28068557613E+04  0.28001196714E+04 0.  0.
        4    1    3    3  502    0  0.70470780693E+02 -0.70248687686E+03 -0.11147499118E+04  0.13195161696E+04  0.12699999809E+01 0. -1.
       -4    1    3    3    0  502 -0.70470780693E+02  0.70248687686E+03  0.13090926266E+04  0.14873395917E+04  0.12699999809E+01 0.  1.
</event>
<event>
 5   0  0.3522569E-07  0.2782468E+04  0.7818609E-02  0.8308732E-01
        2   -1    0    0  501    0  0.00000000000E+00  0.00000000000E+00  0.13373845343E+04  0.13373845343E+04  0.25500000920E-02 0.  1.
       -2   -1    0    0    0  501  0.00000000000E+00  0.00000000000E+00 -0.14472519879E+04  0.14472519879E+04  0.25500000920E-02 0. -1.
    10030    2    1    2    0    0  0.00000000000E+00  0.00000000000E+00 -0.10986745359E+03  0.27846365221E+04  0.27824682753E+04 0.  0.
        1    1    3    3  502    0 -0.53617157712E+03 -0.75185701581E+03  0.98643635362E+03  0.13512311468E+04  0.50400001928E-02 0.  1.
       -1    1    3    3    0  502  0.53617157712E+03  0.75185701581E+03 -0.10963038072E+04  0.14334053753E+04  0.50400001928E-02 0. -1.
</event>
<event>
 5   0  0.3522569E-07  0.2800276E+04  0.7818609E-02  0.8303183E-01
       -2   -1    0    0    0  501  0.00000000000E+00  0.00000000000E+00  0.88767463484E+03  0.88767463484E+03  0.25500000920E-02 0.  1.
        2   -1    0    0  501    0  0.00000000000E+00  0.00000000000E+00 -0.22084510942E+04  0.22084510942E+04  0.25500000920E-02 0. -1.
    10030    2    1    2    0    0  0.00000000000E+00  0.00000000000E+00 -0.13207764594E+04  0.30961257291E+04  0.28002757140E+04 0.  0.
        1    1    3    3  502    0 -0.13079120605E+04 -0.45199192373E+03 -0.42466067448E+03  0.14475038327E+04  0.50400001928E-02 0.  1.
       -1    1    3    3    0  502  0.13079120605E+04  0.45199192373E+03 -0.89611578490E+03  0.16486218964E+04  0.50400001928E-02 0. -1.
</event>
<event>
 5   0  0.1357902E-07  0.2799792E+04  0.7818609E-02  0.8303333E-01
        1   -1    0    0  501    0  0.00000000000E+00  0.00000000000E+00  0.18287516486E+04  0.18287516486E+04  0.50400001928E-02 0. -1.
       -1   -1    0    0    0  501  0.00000000000E+00  0.00000000000E+00 -0.10716100334E+04  0.10716100334E+04  0.50400001928E-02 0.  1.
    10030    2    1    2    0    0  0.00000000000E+00  0.00000000000E+00  0.75714161517E+03  0.29003616820E+04  0.27997918603E+04 0.  0.
        4    1    3    3  502    0 -0.73878768637E+02 -0.41649189993E+03 -0.10038235893E+04  0.10893057360E+04  0.12699999809E+01 0.  1.
       -4    1    3    3    0  502  0.73878768637E+02  0.41649189993E+03  0.17609652045E+04  0.18110559460E+04  0.12699999809E+01 0. -1.
</event>
<event>
 5   0  0.1374680E-07  0.2799360E+04  0.7818609E-02  0.8303467E-01
        1   -1    0    0  501    0  0.00000000000E+00  0.00000000000E+00  0.17818665220E+04  0.17818665220E+04  0.50400001928E-02 0.  1.
       -1   -1    0    0    0  501  0.00000000000E+00  0.00000000000E+00 -0.10994675114E+04  0.10994675114E+04  0.50400001928E-02 0. -1.
    10030    2    1    2    0    0  0.00000000000E+00  0.00000000000E+00  0.68239901059E+03  0.28813340334E+04  0.27993601774E+04 0.  0.
        3    1    3    3  502    0  0.87424397262E+03  0.86830757787E+03 -0.34220396720E+03  0.12788135669E+04  0.10100000352E+00 0. -1.
       -3    1    3    3    0  502 -0.87424397262E+03 -0.86830757787E+03  0.10246029778E+04  0.16025204666E+04  0.10100000352E+00 0.  1.
</event>
<event>
 5   0  0.3406920E-07  0.2799938E+04  0.7818609E-02  0.8303288E-01
        2   -1    0    0  501    0  0.00000000000E+00  0.00000000000E+00  0.14463054995E+04  0.14463054995E+04  0.25500000920E-02 0.  1.
       -2   -1    0    0    0  501  0.00000000000E+00  0.00000000000E+00 -0.13551167729E+04  0.13551167729E+04  0.25500000920E-02 0. -1.
    10030    2    1    2    0    0  0.00000000000E+00  0.00000000000E+00  0.91188726682E+02  0.28014222724E+04  0.27999377430E+04 0.  0.
        4    1    3    3  502    0 -0.10577549359E+04 -0.90227612311E+03 -0.11869842804E+03  0.13953632632E+04  0.12699999809E+01 0. -1.
       -4    1    3    3    0  502  0.10577549359E+04  0.90227612311E+03  0.20988715472E+03  0.14060590092E+04  0.12699999809E+01 0.  1.
</event>
<event>
 5   0  0.1357902E-07  0.2802871E+04  0.7818609E-02  0.8302378E-01
       -1   -1    0    0    0  501  0.00000000000E+00  0.00000000000E+00  0.18720568905E+04  0.18720568905E+04  0.50400001928E-02 0.  1.
        1   -1    0    0  501    0  0.00000000000E+00  0.00000000000E+00 -0.10491245236E+04  0.10491245236E+04  0.50400001928E-02 0. -1.
    10030    2    1    2    0    0  0.00000000000E+00  0.00000000000E+00  0.82293236687E+03  0.29211814141E+04  0.28028705239E+04 0.  0.
        4    1    3    3  502    0  0.36579277176E+02  0.13487775002E+04  0.16689249708E+02  0.13493772388E+04  0.12699999809E+01 0. -1.
       -4    1    3    3    0  502 -0.36579277176E+02 -0.13487775002E+04  0.80624311716E+03  0.15718041753E+04  0.12699999809E+01 0.  1.
</event>
<event>
 5   0  0.1346049E-07  0.2804389E+04  0.7818609E-02  0.8301907E-01
        1   -1    0    0  501    0  0.00000000000E+00  0.00000000000E+00  0.13075389721E+04  0.13075389721E+04  0.50400001928E-02 0.  1.
       -1   -1    0    0    0  501  0.00000000000E+00  0.00000000000E+00 -0.15037020391E+04  0.15037020391E+04  0.50400001928E-02 0. -1.
    10030    2    1    2    0    0  0.00000000000E+00  0.00000000000E+00 -0.19616306700E+03  0.28112410112E+04  0.28043887166E+04 0.  0.
        1    1    3    3  502    0 -0.99437076973E+03 -0.81376357971E+03 -0.66084850724E+03  0.14448893179E+04  0.50400001928E-02 0. -1.
       -1    1    3    3    0  502  0.99437076973E+03  0.81376357971E+03  0.46468544024E+03  0.13663516933E+04  0.50400001928E-02 0.  1.
</event>
<event>
 5   0  0.1361741E-07  0.2799845E+04  0.7818609E-02  0.8303317E-01
        1   -1    0    0  501    0  0.00000000000E+00  0.00000000000E+00  0.15927741196E+04  0.15927741196E+04  0.50400001928E-02 0. -1.
       -1   -1    0    0    0  501  0.00000000000E+00  0.00000000000E+00 -0.12304209220E+04  0.12304209220E+04  0.50400001928E-02 0.  1.
    10030    2    1    2    0    0  0.00000000000E+00  0.00000000000E+00  0.36235319753E+03  0.28231950416E+04  0.27998447106E+04 0.  0.
        5    1    3    3  502    0 -0.56012238940E+03  0.78339353584E+03  0.12056806628E+04  0.15430912072E+04  0.46999998093E+01 0. -1.
       -5    1    3    3    0  502  0.56012238940E+03 -0.78339353584E+03 -0.84332746530E+03  0.12801038344E+04  0.46999998093E+01 0.  1.
</event>
<event>
 5   0  0.3406920E-07  0.2799930E+04  0.7818609E-02  0.8303290E-01
        2   -1    0    0  501    0  0.00000000000E+00  0.00000000000E+00  0.13855912214E+04  0.13855912214E+04  0.25500000920E-02 0.  1.
       -2   -1    0    0    0  501  0.00000000000E+00  0.00000000000E+00 -0.14144875831E+04  0.14144875831E+04  0.25500000920E-02 0. -1.
    10030    2    1    2    0    0  0.00000000000E+00  0.00000000000E+00 -0.28896361704E+02  0.28000788045E+04  0.27999296977E+04 0.  0.
        4    1    3    3  502    0 -0.26595056555E+03 -0.89220798200E+03 -0.10600349103E+04  0.14108296887E+04  0.12699999809E+01 0. -1.
       -4    1    3    3    0  502  0.26595056555E+03  0.89220798200E+03  0.10311385486E+04  0.13892491158E+04  0.12699999809E+01 0.  1.
</event>
<event>
 5   0  0.3571498E-07  0.2805862E+04  0.7818609E-02  0.8301451E-01
       -2   -1    0    0    0  501  0.00000000000E+00  0.00000000000E+00  0.59548348437E+03  0.59548348438E+03  0.25500000920E-02 0.  1.
        2   -1    0    0  501    0  0.00000000000E+00  0.00000000000E+00 -0.33052399135E+04  0.33052399135E+04  0.25500000920E-02 0. -1.
    10030    2    1    2    0    0  0.00000000000E+00  0.00000000000E+00 -0.27097564292E+04  0.39007233979E+04  0.28058622777E+04 0.  0.
        2    1    3    3  502    0 -0.57927203726E+03  0.38235527112E+03 -0.30498248234E+04  0.31278080343E+04  0.25500000920E-02 0. -1.
       -2    1    3    3    0  502  0.57927203726E+03 -0.38235527112E+03  0.34006839420E+03  0.77291536357E+03  0.25500000920E-02 0.  1.
</event>
<event>
 5   0  0.1361741E-07  0.2801273E+04  0.7818609E-02  0.8302873E-01
        1   -1    0    0  501    0  0.00000000000E+00  0.00000000000E+00  0.18076096742E+04  0.18076096742E+04  0.50400001928E-02 0.  1.
       -1   -1    0    0    0  501  0.00000000000E+00  0.00000000000E+00 -0.10852908435E+04  0.10852908436E+04  0.50400001928E-02 0. -1.
    10030    2    1    2    0    0  0.00000000000E+00  0.00000000000E+00  0.72231883067E+03  0.28929005178E+04  0.28012727309E+04 0.  0.
        5    1    3    3  502    0 -0.30002529077E+03 -0.13592010277E+04  0.52220092378E+03  0.14866601843E+04  0.46999998093E+01 0.  1.
       -5    1    3    3    0  502  0.30002529077E+03  0.13592010277E+04  0.20011790689E+03  0.14062403335E+04  0.46999998093E+01 0. -1.
</event>
<event>
 5   0  0.1346049E-07  0.2801622E+04  0.7818609E-02  0.8302765E-01
       -1   -1    0    0    0  501  0.00000000000E+00  0.00000000000E+00  0.81761090036E+03  0.81761090038E+03  0.50400001928E-02 0. -1.
        1   -1    0    0  501    0  0.00000000000E+00  0.00000000000E+00 -0.24000058578E+04  0.24000058578E+04  0.50400001928E-02 0.  1.
    10030    2    1    2    0    0  0.00000000000E+00  0.00000000000E+00 -0.15823949575E+04  0.32176167582E+04  0.28016216378E+04 0.  0.
        1    1    3    3  502    0  0.52378889725E+03  0.93732436489E+02 -0.22794171502E+04  0.23407014170E+04  0.50400001928E-02 0.  1.
       -1    1    3    3    0  502 -0.52378889725E+03 -0.93732436489E+02  0.69702219275E+03  0.87691534127E+03  0.50400001928E-02 0. -1.
</event>
<event>
 5   0  0.3502141E-07  0.2799000E+04  0.7818609E-02  0.8303579E-01
       -2   -1    0    0    0  501  0.00000000000E+00  0.00000000000E+00  0.12417010227E+04  0.12417010227E+04  0.25500000920E-02 0.  1.
        2   -1    0    0  501    0  0.00000000000E+00  0.00000000000E+00 -0.15773521906E+04  0.15773521906E+04  0.25500000920E-02 0. -1.
    10030    2    1    2    0    0  0.00000000000E+00  0.00000000000E+00 -0.33565116788E+03  0.28190532133E+04  0.27989996987E+04 0.  0.
        3    1    3    3  502    0 -0.11266830020E+04  0.26388190343E+03  0.62492971534E+03  0.13151370291E+04  0.10100000352E+00 0.  1.
       -3    1    3    3    0  502  0.11266830020E+04 -0.26388190343E+03 -0.96058088322E+03  0.15039161843E+04  0.10100000352E+00 0. -1.
</event>
<event>
 5   0  0.3406920E-07  0.2800725E+04  0.7818609E-02  0.8303043E-01
        2   -1    0    0  501    0  0.00000000000E+00  0.00000000000E+00  0.86218788822E+03  0.86218788822E+03  0.25500000920E-02 0.  1.
       -2   -1    0    0    0  501  0.00000000000E+00  0.00000000000E+00 -0.22744632496E+04  0.22744632496E+04  0.25500000920E-02 0. -1.
    10030    2    1    2    0    0  0.00000000000E+00  0.00000000000E+00 -0.14122753614E+04  0.31366511379E+04  0.28007246677E+04 0.  0.
        4    1    3    3  502    0 -0.44527330448E+02 -0.81694251060E+03 -0.19789540608E+04  0.21414104082E+04  0.12699999809E+01 0. -1.
       -4    1    3    3    0  502  0.44527330448E+02  0.81694251060E+03  0.56667869935E+03  0.99524072967E+03  0.12699999809E+01 0.  1.
</event>
<event>
 5   0  0.3406920E-07  0.2800438E+04  0.7818609E-02  0.8303132E-01
        2   -1    0    0  501    0  0.00000000000E+00  0.00000000000E+00  0.19045409644E+04  0.19045409644E+04  0.25500000920E-02 0. -1.
       -2   -1    0    0    0  501  0.00000000000E+00  0.00000000000E+00 -0.10294417162E+04  0.10294417162E+04  0.25500000920E-02 0.  1.
    10030    2    1    2    0    0  0.00000000000E+00  0.00000000000E+00  0.87509924821E+03  0.29339826806E+04  0.28004384792E+04 0.  0.
        4    1    3    3  502    0  0.36295278242E+03 -0.40182284803E+02  0.18537739043E+04  0.18893990154E+04  0.12699999809E+01 0. -1.
       -4    1    3    3    0  502 -0.36295278242E+03  0.40182284803E+02 -0.97867465608E+03  0.10445836652E+04  0.12699999809E+01 0.  1.
</event>
<event>
 5   0  0.1374680E-07  0.2799798E+04  0.7818609E-02  0.8303331E-01
        1   -1    0    0  501    0  0.00000000000E+00  0.00000000000E+00  0.25284144445E+04  0.25284144445E+04  0.50400001928E-02 0. -1.
       -1   -1    0    0    0  501  0.00000000000E+00  0.00000000000E+00 -0.77507751843E+03  0.77507751845E+03  0.50400001928E-02 0.  1.
    10030    2    1    2    0    0  0.00000000000E+00  0.00000000000E+00  0.17533369261E+04  0.33034919629E+04  0.27997979879E+04 0.  0.
        3    1    3    3  502    0 -0.13898351502E+04 -0.16737704384E+03  0.88583559861E+03  0.16566114625E+04  0.10100000352E+00 0.  1.
       -3    1    3    3    0  502  0.13898351502E+04  0.16737704384E+03  0.86750132744E+03  0.16468805005E+04  0.10100000352E+00 0. -1.
</event>
<event>
 5   0  0.1374680E-07  0.2800065E+04  0.7818609E-02  0.8303248E-01
        1   -1    0    0  501    0  0.00000000000E+00  0.00000000000E+00  0.13996304508E+04  0.13996304508E+04  0.50400001928E-02 0.  1.
       -1   -1    0    0    0  501  0.00000000000E+00  0.00000000000E+00 -0.14004347325E+04  0.14004347326E+04  0.50400001928E-02 0. -1.
    10030    2    1    2    0    0  0.00000000000E+00  0.00000000000E+00 -0.80428171334E+00  0.28000651834E+04  0.28000650679E+04 0.  0.
        3    1    3    3  502    0  0.49544629688E+03  0.34897291484E+03 -0.12624806206E+04  0.14003951071E+04  0.10100000352E+00 0. -1.
       -3    1    3    3    0  502 -0.49544629688E+03 -0.34897291484E+03  0.12616763388E+04  0.13996700763E+04  0.10100000352E+00 0.  1.
</event>
<event>
 5   0  0.1346049E-07  0.2798837E+04  0.7818609E-02  0.8303629E-01
        1   -1    0    0  501    0  0.00000000000E+00  0.00000000000E+00  0.21111304140E+04  0.21111304140E+04  0.50400001928E-02 0.  1.
       -1   -1    0    0    0  501  0.00000000000E+00  0.00000000000E+00 -0.92764176279E+03  0.92764176280E+03  0.50400001928E-02 0. -1.
    10030    2    1    2    0    0  0.00000000000E+00  0.00000000000E+00  0.11834886512E+04  0.30387721768E+04  0.27988374292E+04 0.  0.
        1    1    3    3  502    0 -0.42908048791E+03  0.94312665817E+03  0.16130055332E+04  0.19171293146E+04  0.50400001928E-02 0.  1.
       -1    1    3    3    0  502  0.42908048791E+03 -0.94312665817E+03 -0.42951688203E+03  0.11216428622E+04  0.50400001928E-02 0. -1.
</event>
<event>
 5   0  0.1366235E-07  0.2800443E+04  0.7818609E-02  0.8303131E-01
       -1   -1    0    0    0  501  0.00000000000E+00  0.00000000000E+00  0.10970384666E+04  0.10970384666E+04  0.50400001928E-02 0.  1.
        1   -1    0    0  501    0  0.00000000000E+00  0.00000000000E+00 -0.17871936506E+04  0.17871936506E+04  0.50400001928E-02 0. -1.
    10030    2    1    2    0    0  0.00000000000E+00  0.00000000000E+00 -0.69015518394E+03  0.28842321172E+04  0.28004429521E+04 0.  0.
        2    1    3    3  502    0  0.47601442896E+03 -0.24384312948E+03  0.98769256034E+03  0.11232033663E+04  0.25500000920E-02 0.  1.
       -2    1    3    3    0  502 -0.47601442896E+03  0.24384312948E+03 -0.16778477443E+04  0.17610287509E+04  0.25500000920E-02 0. -1.
</event>
<event>
 5   0  0.3502141E-07  0.2800224E+04  0.7818609E-02  0.8303199E-01
       -2   -1    0    0    0  501  0.00000000000E+00  0.00000000000E+00  0.13265360168E+04  0.13265360168E+04  0.25500000920E-02 0. -1.
        2   -1    0    0  501    0  0.00000000000E+00  0.00000000000E+00 -0.14777684706E+04  0.14777684706E+04  0.25500000920E-02 0.  1.
    10030    2    1    2    0    0  0.00000000000E+00  0.00000000000E+00 -0.15123245388E+03  0.28043044874E+04  0.28002236344E+04 0.  0.
        3    1    3    3  502    0 -0.66675227044E+03  0.47889647344E+03  0.10602380148E+04  0.13408971179E+04  0.10100000352E+00 0. -1.
       -3    1    3    3    0  502  0.66675227044E+03 -0.47889647344E+03 -0.12114704687E+04  0.14634073695E+04  0.10100000352E+00 0.  1.
</event>
<event>
 5   0  0.3502141E-07  0.2801053E+04  0.7818609E-02  0.8302942E-01
       -2   -1    0    0    0  501  0.00000000000E+00  0.00000000000E+00  0.10792091134E+04  0.10792091134E+04  0.25500000920E-02 0. -1.
        2   -1    0    0  501    0  0.00000000000E+00  0.00000000000E+00 -0.18175110449E+04  0.18175110449E+04  0.25500000920E-02 0.  1.
    10030    2    1    2    0    0  0.00000000000E+00  0.00000000000E+00 -0.73830193149E+03  0.28967201583E+04  0.28010530044E+04 0.  0.
        3    1    3    3  502    0  0.11266942226E+04  0.66223112992E+03 -0.88981903715E+03  0.15810654224E+04  0.10100000352E+00 0.  1.
       -3    1    3    3    0  502 -0.11266942226E+04 -0.66223112992E+03  0.15151710566E+03  0.13156547360E+04  0.10100000352E+00 0. -1.
</event>
<event>
 5   0  0.1374680E-07  0.2795008E+04  0.7818609E-02  0.8304820E-01
       -1   -1    0    0    0  501  0.00000000000E+00  0.00000000000E+00  0.17645907298E+04  0.17645907298E+04  0.50400001928E-02 0. -1.
        1   -1    0    0  501    0  0.00000000000E+00  0.00000000000E+00 -0.11067820780E+04  0.11067820780E+04  0.50400001928E-02 0.  1.
    10030    2    1    2    0    0  0.00000000000E+00  0.00000000000E+00  0.65780865184E+03  0.28713728078E+04  0.27950079747E+04 0.  0.
        3    1    3    3  502    0  0.86168137271E+03  0.84757990435E+01 -0.80136019459E+03  0.11767518000E+04  0.10100000352E+00 0.  1.
       -3    1    3    3    0  502 -0.86168137271E+03 -0.84757990435E+01  0.14591688464E+04  0.16946210077E+04  0.10100000352E+00 0. -1.
</event>
<event>
 5   0  0.3571498E-07  0.2799436E+04  0.7818609E-02  0.8303444E-01
       -2   -1    0    0    0  501  0.00000000000E+00  0.00000000000E+00  0.99244225510E+03  0.99244225510E+03  0.25500000920E-02 0. -1.
        2   -1    0    0  501    0  0.00000000000E+00  0.00000000000E+00 -0.19741303227E+04  0.19741303227E+04  0.25500000920E-02 0.  1.
    10030    2    1    2    0    0  0.00000000000E+00  0.00000000000E+00 -0.98168806762E+03  0.29665725778E+04  0.27994359070E+04 0.  0.
        2    1    3    3  502    0 -0.10872615321E+04  0.46121568963E+03 -0.12869296742E+04  0.17467242307E+04  0.25500000920E-02 0.  1.
       -2    1    3    3    0  502  0.10872615321E+04 -0.46121568963E+03  0.30524160663E+03  0.12198483471E+04  0.25500000920E-02 0. -1.
</event>
<event>
 5   0  0.3522569E-07  0.2799259E+04  0.7818609E-02  0.8303498E-01
       -2   -1    0    0    0  501  0.00000000000E+00  0.00000000000E+00  0.87522584148E+03  0.87522584148E+03  0.25500000920E-02 0. -1.
        2   -1    0    0  501    0  0.00000000000E+00  0.00000000000E+00 -0.22382374679E+04  0.22382374679E+04  0.25500000920E-02 0.  1.
    10030    2    1    2    0    0  0.00000000000E+00  0.00000000000E+00 -0.13630116264E+04  0.31134633094E+04  0.27992593815E+04 0.  0.
        1    1    3    3  502    0  0.44173733902E+03 -0.10684169758E+04 -0.15589233065E+04  0.19408473887E+04  0.50400001928E-02 0.  1.
       -1    1    3    3    0  502 -0.44173733902E+03  0.10684169758E+04  0.19591168003E+03  0.11726159206E+04  0.50400001928E-02 0. -1.
</event>
<event>
 5   0  0.3406920E-07  0.2804889E+04  0.7818609E-02  0.8301752E-01
        2   -1    0    0  501    0  0.00000000000E+00  0.00000000000E+00  0.24424272053E+04  0.24424272053E+04  0.25500000920E-02 0. -1.
       -2   -1    0    0    0  501  0.00000000000E+00  0.00000000000E+00 -0.80528515032E+03  0.80528515033E+03  0.25500000920E-02 0.  1.
    10030    2    1    2    0    0  0.00000000000E+00  0.00000000000E+00  0.16371420550E+04  0.32477123556E+04  0.28048888457E+04 0.  0.
        4    1    3    3  502    0  0.13261043135E+04  0.21965015824E+03  0.12817934900E+04  0.18573623789E+04  0.12699999809E+01 0.  1.
       -4    1    3    3    0  502 -0.13261043135E+04 -0.21965015824E+03  0.35534856495E+03  0.13903499768E+04  0.12699999809E+01 0. -1.
</event>
<event>
 5   0  0.1361741E-07  0.2800064E+04  0.7818609E-02  0.8303249E-01
       -1   -1    0    0    0  501  0.00000000000E+00  0.00000000000E+00  0.15809609426E+04  0.15809609426E+04  0.50400001928E-02 0. -1.
        1   -1    0    0  501    0  0.00000000000E+00  0.00000000000E+00 -0.12398087733E+04  0.12398087733E+04  0.50400001928E-02 0.  1.
    10030    2    1    2    0    0  0.00000000000E+00  0.00000000000E+00  0.34115216929E+03  0.28207697159E+04  0.28000637471E+04 0.  0.
        5    1    3    3  502    0  0.12902538487E+04  0.22711018509E+03  0.66792021114E+03  0.14705351165E+04  0.46999998093E+01 0. -1.
       -5    1    3    3    0  502 -0.12902538487E+04 -0.22711018509E+03 -0.32676804185E+03  0.13502345994E+04  0.46999998093E+01 0.  1.
</event>
<event>
 5   0  0.3522569E-07  0.2801191E+04  0.7818609E-02  0.8302899E-01
        2   -1    0    0  501    0  0.00000000000E+00  0.00000000000E+00  0.14142504841E+04  0.14142504841E+04  0.25500000920E-02 0.  1.
       -2   -1    0    0    0  501  0.00000000000E+00  0.00000000000E+00 -0.13870725684E+04  0.13870725684E+04  0.25500000920E-02 0. -1.
    10030    2    1    2    0    0  0.00000000000E+00  0.00000000000E+00  0.27177915703E+02  0.28013230525E+04  0.28011912118E+04 0.  0.
        1    1    3    3  502    0  0.11235142627E+04  0.33184117415E+02  0.84926132154E+03  0.14087690642E+04  0.50400001928E-02 0.  1.
       -1    1    3    3    0  502 -0.11235142627E+04 -0.33184117415E+02 -0.82208340584E+03  0.13925539883E+04  0.50400001928E-02 0. -1.
</event>
<event>
 5   0  0.3502141E-07  0.2805224E+04  0.7818609E-02  0.8301648E-01
       -2   -1    0    0    0  501  0.00000000000E+00  0.00000000000E+00  0.21274416949E+04  0.21274416949E+04  0.25500000920E-02 0. -1.
        2   -1    0    0  501    0  0.00000000000E+00  0.00000000000E+00 -0.92473545880E+03  0.92473545880E+03  0.25500000920E-02 0.  1.
    10030    2    1    2    0    0  0.00000000000E+00  0.00000000000E+00  0.12027062361E+04  0.30521771537E+04  0.28052242490E+04 0.  0.
        3    1    3    3  502    0  0.51093431944E+03 -0.10126169232E+04  0.14991445990E+04  0.18798620829E+04  0.10100000352E+00 0. -1.
       -3    1    3    3    0  502 -0.51093431944E+03  0.10126169232E+04 -0.29643836293E+03  0.11723150708E+04  0.10100000352E+00 0.  1.
</event>
<event>
 5   0  0.1357902E-07  0.2799501E+04  0.7818609E-02  0.8303423E-01
        1   -1    0    0  501    0  0.00000000000E+00  0.00000000000E+00  0.17463219945E+04  0.17463219945E+04  0.50400001928E-02 0. -1.
       -1   -1    0    0    0  501  0.00000000000E+00  0.00000000000E+00 -0.11219587327E+04  0.11219587327E+04  0.50400001928E-02 0.  1.
    10030    2    1    2    0    0  0.00000000000E+00  0.00000000000E+00  0.62436326177E+03  0.28682807272E+04  0.27995008211E+04 0.  0.
        4    1    3    3  502    0  0.65683670734E+03 -0.10582360049E+03 -0.94960552796E+03  0.11594763327E+04  0.12699999809E+01 0.  1.
       -4    1    3    3    0  502 -0.65683670734E+03  0.10582360049E+03  0.15739687897E+04  0.17088043944E+04  0.12699999809E+01 0. -1.
</event>
<event>
 5   0  0.3557628E-07  0.2800151E+04  0.7818609E-02  0.8303222E-01
        2   -1    0    0  501    0  0.00000000000E+00  0.00000000000E+00  0.16652108104E+04  0.16652108104E+04  0.25500000920E-02 0.  1.
       -2   -1    0    0    0  501  0.00000000000E+00  0.00000000000E+00 -0.11771546962E+04  0.11771546962E+04  0.25500000920E-02 0. -1.
    10030    2    1    2    0    0  0.00000000000E+00  0.00000000000E+00  0.48805611421E+03  0.28423655066E+04  0.28001505142E+04 0.  0.
        5    1    3    3  502    0 -0.22961063248E+03 -0.74642085481E+03  0.14235810609E+04  0.16237211159E+04  0.46999998093E+01 0.  1.
       -5    1    3    3    0  502  0.22961063248E+03  0.74642085481E+03 -0.93552494673E+03  0.12186443907E+04  0.46999998093E+01 0. -1.
</event>
<event>
 5   0  0.3571498E-07  0.2798450E+04  0.7818609E-02  0.8303750E-01
        2   -1    0    0  501    0  0.00000000000E+00  0.00000000000E+00  0.13609400460E+04  0.13609400460E+04  0.25500000920E-02 0.  1.
       -2   -1    0    0    0  501  0.00000000000E+00  0.00000000000E+00 -0.14385870225E+04  0.14385870225E+04  0.25500000920E-02 0. -1.
    10030    2    1    2    0    0  0.00000000000E+00  0.00000000000E+00 -0.77646976518E+02  0.27995270685E+04  0.27984500628E+04 0.  0.
        2    1    3    3  502    0  0.48915135898E+03 -0.78841398129E+03  0.10089405808E+04  0.13707030143E+04  0.25500000920E-02 0.  1.
       -2    1    3    3    0  502 -0.48915135898E+03  0.78841398129E+03 -0.10865875573E+04  0.14288240541E+04  0.25500000920E-02 0. -1.
</event>
<event>
 5   0  0.3571498E-07  0.2798522E+04  0.7818609E-02  0.8303727E-01
       -2   -1    0    0    0  501  0.00000000000E+00  0.00000000000E+00  0.16422583876E+04  0.16422583876E+04  0.25500000920E-02 0.  1.
        2   -1    0    0  501    0  0.00000000000E+00  0.00000000000E+00 -0.11922191570E+04  0.11922191570E+04  0.25500000920E-02 0. -1.
    10030    2    1    2    0    0  0.00000000000E+00  0.00000000000E+00  0.45003923058E+03  0.28344775446E+04  0.27985224033E+04 0.  0.
        2    1    3    3  502    0 -0.18356684247E+03  0.56968766996E+03  0.15060584478E+04  0.16206334796E+04  0.25500000920E-02 0.  1.
       -2    1    3    3    0  502  0.18356684247E+03 -0.56968766996E+03 -0.10560192172E+04  0.12138440650E+04  0.25500000920E-02 0. -1.
</event>
<event>
 5   0  0.1374680E-07  0.2800786E+04  0.7818609E-02  0.8303024E-01
        1   -1    0    0  501    0  0.00000000000E+00  0.00000000000E+00  0.16707467967E+04  0.16707467967E+04  0.50400001928E-02 0. -1.
       -1   -1    0    0    0  501  0.00000000000E+00  0.00000000000E+00 -0.11737871647E+04  0.11737871647E+04  0.50400001928E-02 0.  1.
    10030    2    1    2    0    0  0.00000000000E+00  0.00000000000E+00  0.49695963203E+03  0.28445339614E+04  0.28007864220E+04 0.  0.
        3    1    3    3  502    0  0.96118165960E+03  0.23853732366E+03  0.12540617823E+04  0.15979490610E+04  0.10100000352E+00 0. -1.
       -3    1    3    3    0  502 -0.96118165960E+03 -0.23853732366E+03 -0.75710215030E+03  0.12465849003E+04  0.10100000352E+00 0.  1.
</event>
<event>
 5   0  0.1366235E-07  0.2799770E+04  0.7818609E-02  0.8303340E-01
        1   -1    0    0  501    0  0.00000000000E+00  0.00000000000E+00  0.25424648465E+04  0.25424648466E+04  0.50400001928E-02 0.  1.
       -1   -1    0    0    0  501  0.00000000000E+00  0.00000000000E+00 -0.77077887493E+03  0.77077887494E+03  0.50400001928E-02 0. -1.
    10030    2    1    2    0    0  0.00000000000E+00  0.00000000000E+00  0.17716859716E+04  0.33132437215E+04  0.27997701291E+04 0.  0.
        2    1    3    3  502    0 -0.38553491595E+03 -0.10176840605E+04  0.19278790583E+04  0.22138282865E+04  0.25500000920E-02 0.  1.
       -2    1    3    3    0  502  0.38553491595E+03  0.10176840605E+04 -0.15619308672E+03  0.10994154350E+04  0.25500000920E-02 0. -1.
</event>
<event>
 5   0  0.3522569E-07  0.2800239E+04  0.7818609E-02  0.8303194E-01
       -2   -1    0    0    0  501  0.00000000000E+00  0.00000000000E+00  0.11587701930E+04  0.11587701930E+04  0.25500000920E-02 0.  1.
        2   -1    0    0  501    0  0.00000000000E+00  0.00000000000E+00 -0.16917366581E+04  0.16917366581E+04  0.25500000920E-02 0. -1.
    10030    2    1    2    0    0  0.00000000000E+00  0.00000000000E+00 -0.53296646505E+03  0.28505068511E+04  0.28002385711E+04 0.  0.
        1    1    3    3  502    0 -0.54058591585E+03 -0.28137098779E+02  0.10479396986E+04  0.11794924505E+04  0.50400001928E-02 0.  1.
       -1    1    3    3    0  502  0.54058591585E+03  0.28137098779E+02 -0.15809061637E+04  0.16710144006E+04  0.50400001928E-02 0. -1.
</event>
<event>
 5   0  0.1366235E-07  0.2800094E+04  0.7818609E-02  0.8303239E-01
       -1   -1    0    0    0  501  0.00000000000E+00  0.00000000000E+00  0.13753087929E+04  0.13753087929E+04  0.50400001928E-02 0. -1.
        1   -1    0    0  501    0  0.00000000000E+00  0.00000000000E+00 -0.14252298821E+04  0.14252298821E+04  0.50400001928E-02 0.  1.
    10030    2    1    2    0    0  0.00000000000E+00  0.00000000000E+00 -0.49921089250E+02  0.28005386750E+04  0.28000937047E+04 0.  0.
        2    1    3    3  502    0 -0.30693128424E+03  0.12771022156E+04  0.45981670372E+03  0.13916279256E+04  0.25500000920E-02 0. -1.
       -2    1    3    3    0  502  0.30693128424E+03 -0.12771022156E+04 -0.50973779297E+03  0.14089107494E+04  0.25500000920E-02 0.  1.
</event>
<event>
 5   0  0.1361741E-07  0.2800497E+04  0.7818609E-02  0.8303114E-01
       -1   -1    0    0    0  501  0.00000000000E+00  0.00000000000E+00  0.16035984117E+04  0.16035984117E+04  0.50400001928E-02 0.  1.
        1   -1    0    0  501    0  0.00000000000E+00  0.00000000000E+00 -0.12226851575E+04  0.12226851575E+04  0.50400001928E-02 0. -1.
    10030    2    1    2    0    0  0.00000000000E+00  0.00000000000E+00  0.38091325418E+03  0.28262835692E+04  0.28004970820E+04 0.  0.
        5    1    3    3  502    0 -0.54881683516E+03 -0.43659970960E+03  0.14135793153E+04  0.15779885284E+04  0.46999998093E+01 0.  1.
       -5    1    3    3    0  502  0.54881683516E+03  0.43659970960E+03 -0.10326660612E+04  0.12482950408E+04  0.46999998093E+01 0. -1.
</event>
<event>
 5   0  0.3557628E-07  0.2799225E+04  0.7818609E-02  0.8303509E-01
       -2   -1    0    0    0  501  0.00000000000E+00  0.00000000000E+00  0.97809468831E+03  0.97809468831E+03  0.25500000920E-02 0. -1.
        2   -1    0    0  501    0  0.00000000000E+00  0.00000000000E+00 -0.20027871675E+04  0.20027871675E+04  0.25500000920E-02 0.  1.
    10030    2    1    2    0    0  0.00000000000E+00  0.00000000000E+00 -0.10246924792E+04  0.29808818558E+04  0.27992252431E+04 0.  0.
        5    1    3    3  502    0 -0.20313831504E+02  0.10254798937E+04  0.50175158489E+03  0.11418399218E+04  0.46999998093E+01 0. -1.
       -5    1    3    3    0  502  0.20313831504E+02 -0.10254798937E+04 -0.15264440641E+04  0.18390419340E+04  0.46999998093E+01 0.  1.
</event>
<event>
 5   0  0.1366235E-07  0.2797943E+04  0.7818609E-02  0.8303907E-01
        1   -1    0    0  501    0  0.00000000000E+00  0.00000000000E+00  0.12428339536E+04  0.12428339536E+04  0.50400001928E-02 0.  1.
       -1   -1    0    0    0  501  0.00000000000E+00  0.00000000000E+00 -0.15747244432E+04  0.15747244432E+04  0.50400001928E-02 0. -1.
    10030    2    1    2    0    0  0.00000000000E+00  0.00000000000E+00 -0.33189048960E+03  0.28175583969E+04  0.27979428197E+04 0.  0.
        2    1    3    3  502    0 -0.48170548315E+03 -0.11676626457E+04 -0.77153035874E+03  0.14801132798E+04  0.25500000920E-02 0. -1.
       -2    1    3    3    0  502  0.48170548315E+03  0.11676626457E+04  0.43963986914E+03  0.13374451171E+04  0.25500000920E-02 0.  1.
</event>
<event>
 5   0  0.1374680E-07  0.2798604E+04  0.7818609E-02  0.8303702E-01
       -1   -1    0    0    0  501  0.00000000000E+00  0.00000000000E+00  0.15930058366E+04  0.15930058366E+04  0.50400001928E-02 0.  1.
        1   -1    0    0  501    0  0.00000000000E+00  0.00000000000E+00 -0.12291520933E+04  0.12291520934E+04  0.50400001928E-02 0. -1.
    10030    2    1    2    0    0  0.00000000000E+00  0.00000000000E+00  0.36385374324E+03  0.28221579299E+04  0.27986042655E+04 0.  0.
        3    1    3    3  502    0  0.52245888441E+02  0.13979868785E+04  0.15085352519E+03  0.14070727564E+04  0.10100000352E+00 0. -1.
       -3    1    3    3    0  502 -0.52245888441E+02 -0.13979868785E+04  0.21300021805E+03  0.14150851736E+04  0.10100000352E+00 0.  1.
</event>
<event>
 5   0  0.1361741E-07  0.2799821E+04  0.7818609E-02  0.8303324E-01
       -1   -1    0    0    0  501  0.00000000000E+00  0.00000000000E+00  0.16024641919E+04  0.16024641919E+04  0.50400001928E-02 0.  1.
        1   -1    0    0  501    0  0.00000000000E+00  0.00000000000E+00 -0.12229602954E+04  0.12229602954E+04  0.50400001928E-02 0. -1.
    10030    2    1    2    0    0  0.00000000000E+00  0.00000000000E+00  0.37950389653E+03  0.28254244873E+04  0.27998214811E+04 0.  0.
        5    1    3    3  502    0  0.12211764859E+04 -0.67030133690E+03  0.32940857843E+03  0.14314705703E+04  0.46999998093E+01 0.  1.
       -5    1    3    3    0  502 -0.12211764859E+04  0.67030133690E+03  0.50095318105E+02  0.13939539171E+04  0.46999998093E+01 0. -1.
</event>
<event>
 5   0  0.3571498E-07  0.2801138E+04  0.7818609E-02  0.8302915E-01
       -2   -1    0    0    0  501  0.00000000000E+00  0.00000000000E+00  0.14940549192E+04  0.14940549192E+04  0.25500000920E-02 0. -1.
        2   -1    0    0  501    0  0.00000000000E+00  0.00000000000E+00 -0.13129330596E+04  0.13129330596E+04  0.25500000920E-02 0.  1.
    10030    2    1    2    0    0  0.00000000000E+00  0.00000000000E+00  0.18112185954E+03  0.28069879788E+04  0.28011384088E+04 0.  0.
        2    1    3    3  502    0  0.47052390125E+03 -0.64931759905E+03 -0.10601349165E+04  0.13292449463E+04  0.25500000920E-02 0.  1.
       -2    1    3    3    0  502 -0.47052390125E+03  0.64931759905E+03  0.12412567760E+04  0.14777430325E+04  0.25500000920E-02 0. -1.
</event>
<event>
 5   0  0.3522569E-07  0.2797613E+04  0.7818609E-02  0.8304010E-01
        2   -1    0    0  501    0  0.00000000000E+00  0.00000000000E+00  0.13000185876E+04  0.13000185876E+04  0.25500000920E-02 0.  1.
       -2   -1    0    0    0  501  0.00000000000E+00  0.00000000000E+00 -0.15051014275E+04  0.15051014275E+04  0.25500000920E-02 0. -1.
    10030    2    1    2    0    0  0.00000000000E+00  0.00000000000E+00 -0.20508283995E+03  0.28051200151E+04  0.27976131484E+04 0.  0.
        1    1    3    3  502    0 -0.63463736011E+03  0.55664689437E+03 -0.12208994734E+04  0.14843233704E+04  0.50400001928E-02 0. -1.
       -1    1    3    3    0  502  0.63463736011E+03 -0.55664689437E+03  0.10158166334E+04  0.13207966447E+04  0.50400001928E-02 0.  1.
</event>
<event>
 5   0  0.1374680E-07  0.2799773E+04  0.7818609E-02  0.8303339E-01
        1   -1    0    0  501    0  0.00000000000E+00  0.00000000000E+00  0.14289895974E+04  0.14289895974E+04  0.50400001928E-02 0. -1.
       -1   -1    0    0    0  501  0.00000000000E+00  0.00000000000E+00 -0.13713757594E+04  0.13713757594E+04  0.50400001928E-02 0.  1.
    10030    2    1    2    0    0  0.00000000000E+00  0.00000000000E+00  0.57613838052E+02  0.28003653568E+04  0.27997726296E+04 0.  0.
        3    1    3    3  502    0  0.37140755069E+02 -0.50165503722E+03  0.13354695230E+04  0.14270655448E+04  0.10100000352E+00 0. -1.
       -3    1    3    3    0  502 -0.37140755069E+02  0.50165503722E+03 -0.12778556849E+04  0.13732998120E+04  0.10100000352E+00 0.  1.
</event>
<event>
 5   0  0.3522569E-07  0.2798692E+04  0.7818609E-02  0.8303675E-01
       -2   -1    0    0    0  501  0.00000000000E+00  0.00000000000E+00  0.89947806462E+03  0.89947806463E+03  0.25500000920E-02 0. -1.
        2   -1    0    0  501    0  0.00000000000E+00  0.00000000000E+00 -0.21770058867E+04  0.21770058867E+04  0.25500000920E-02 0.  1.
    10030    2    1    2    0    0  0.00000000000E+00  0.00000000000E+00 -0.12775278221E+04  0.30764839513E+04  0.27986918670E+04 0.  0.
        1    1    3    3  502    0 -0.62835493837E+03  0.69780348151E+03  0.50171776490E+03  0.10646503384E+04  0.50400001928E-02 0. -1.
       -1    1    3    3    0  502  0.62835493837E+03 -0.69780348151E+03 -0.17792455870E+04  0.20118336129E+04  0.50400001928E-02 0.  1.
</event>
<event>
 5   0  0.3522569E-07  0.2801303E+04  0.7818609E-02  0.8302864E-01
       -2   -1    0    0    0  501  0.00000000000E+00  0.00000000000E+00  0.74048487167E+03  0.74048487168E+03  0.25500000920E-02 0.  1.
        2   -1    0    0  501    0  0.00000000000E+00  0.00000000000E+00 -0.26493787331E+04  0.26493787331E+04  0.25500000920E-02 0. -1.
    10030    2    1    2    0    0  0.00000000000E+00  0.00000000000E+00 -0.19088938614E+04  0.33898636048E+04  0.28013031762E+04 0.  0.
        1    1    3    3  502    0  0.94562370098E+03  0.54120650467E+03  0.11066054070E+03  0.10951504097E+04  0.50400001928E-02 0.  1.
       -1    1    3    3    0  502 -0.94562370098E+03 -0.54120650467E+03 -0.20195544021E+04  0.22947131951E+04  0.50400001928E-02 0. -1.
</event>
<event>
 5   0  0.3557628E-07  0.2800814E+04  0.7818609E-02  0.8303016E-01
        2   -1    0    0  501    0  0.00000000000E+00  0.00000000000E+00  0.18918628768E+04  0.18918628768E+04  0.25500000920E-02 0. -1.
       -2   -1    0    0    0  501  0.00000000000E+00  0.00000000000E+00 -0.10366185963E+04  0.10366185963E+04  0.25500000920E-02 0.  1.
    10030    2    1    2    0    0  0.00000000000E+00  0.00000000000E+00  0.85524428047E+03  0.29284814731E+04  0.28008143386E+04 0.  0.
        5    1    3    3  502    0 -0.76232524944E+03 -0.56076461202E+03  0.15069148680E+04  0.17794412734E+04  0.46999998093E+01 0. -1.
       -5    1    3    3    0  502  0.76232524944E+03  0.56076461202E+03 -0.65167058751E+03  0.11490401998E+04  0.46999998093E+01 0.  1.
</event>
<event>
 5   0  0.3502141E-07  0.2799488E+04  0.7818609E-02  0.8303427E-01
       -2   -1    0    0    0  501  0.00000000000E+00  0.00000000000E+00  0.17200732157E+04  0.17200732157E+04  0.25500000920E-02 0. -1.
        2   -1    0    0  501    0  0.00000000000E+00  0.00000000000E+00 -0.11390695429E+04  0.11390695429E+04  0.25500000920E-02 0.  1.
    10030    2    1    2    0    0  0.00000000000E+00  0.00000000000E+00  0.58100367281E+03  0.28591427587E+04  0.27994878186E+04 0.  0.
        3    1    3    3  502    0 -0.10271314902E+04 -0.94248965169E+03  0.16132676782E+03  0.14033218369E+04  0.10100000352E+00 0. -1.
       -3    1    3    3    0  502  0.10271314902E+04  0.94248965169E+03  0.41967690499E+03  0.14558209218E+04  0.10100000352E+00 0.  1.
</event>
<event>
 5   0  0.1346049E-07  0.2799366E+04  0.7818609E-02  0.8303465E-01
        1   -1    0    0  501    0  0.00000000000E+00  0.00000000000E+00  0.90755666686E+03  0.90755666687E+03  0.50400001928E-02 0. -1.
       -1   -1    0    0    0  501  0.00000000000E+00  0.00000000000E+00 -0.21586668943E+04  0.21586668943E+04  0.50400001928E-02 0.  1.
    10030    2    1    2    0    0  0.00000000000E+00  0.00000000000E+00 -0.12511102274E+04  0.30662235611E+04  0.27993660221E+04 0.  0.
        1    1    3    3  502    0  0.61373044514E+03 -0.98527516105E+03  0.23110073971E+03  0.11835707643E+04  0.50400001928E-02 0. -1.
       -1    1    3    3    0  502 -0.61373044514E+03  0.98527516105E+03 -0.14822109671E+04  0.18826527968E+04  0.50400001928E-02 0.  1.
</event>
<event>
 5   0  0.1346049E-07  0.2797357E+04  0.7818609E-02  0.8304090E-01
        1   -1    0    0  501    0  0.00000000000E+00  0.00000000000E+00  0.19237297993E+04  0.19237297993E+04  0.50400001928E-02 0.  1.
       -1   -1    0    0    0  501  0.00000000000E+00  0.00000000000E+00 -0.10169312474E+04  0.10169312474E+04  0.50400001928E-02 0. -1.
    10030    2    1    2    0    0  0.00000000000E+00  0.00000000000E+00  0.90679855183E+03  0.29406610467E+04  0.27973565697E+04 0.  0.
        1    1    3    3  502    0 -0.31452309425E+03  0.51658468252E+03  0.17791632733E+04  0.18791504634E+04  0.50400001928E-02 0.  1.
       -1    1    3    3    0  502  0.31452309425E+03 -0.51658468252E+03 -0.87236472150E+03  0.10615105833E+04  0.50400001928E-02 0. -1.
</event>
<event>
 5   0  0.1346049E-07  0.2799019E+04  0.7818609E-02  0.8303573E-01
       -1   -1    0    0    0  501  0.00000000000E+00  0.00000000000E+00  0.96946719087E+03  0.96946719089E+03  0.50400001928E-02 0.  1.
        1   -1    0    0  501    0  0.00000000000E+00  0.00000000000E+00 -0.20203132200E+04  0.20203132201E+04  0.50400001928E-02 0. -1.
    10030    2    1    2    0    0  0.00000000000E+00  0.00000000000E+00 -0.10508460292E+04  0.29897804109E+04  0.27990193870E+04 0.  0.
        1    1    3    3  502    0  0.35157943676E+03  0.87180726847E+02 -0.19693739289E+04  0.20024091119E+04  0.50400001928E-02 0. -1.
       -1    1    3    3    0  502 -0.35157943676E+03 -0.87180726847E+02  0.91852789976E+03  0.98737129903E+03  0.50400001928E-02 0.  1.
</event>
<event>
 5   0  0.3557628E-07  0.2806646E+04  0.7818609E-02  0.8301208E-01
        2   -1    0    0  501    0  0.00000000000E+00  0.00000000000E+00  0.18123249272E+04  0.18123249272E+04  0.25500000920E-02 0.  1.
       -2   -1    0    0    0  501  0.00000000000E+00  0.00000000000E+00 -0.10866237162E+04  0.10866237162E+04  0.25500000920E-02 0. -1.
    10030    2    1    2    0    0  0.00000000000E+00  0.00000000000E+00  0.72570121099E+03  0.28989486433E+04  0.28066458610E+04 0.  0.
        5    1    3    3  502    0  0.22291831796E+03  0.11694812445E+04 -0.40449089700E+03  0.12573837654E+04  0.46999998093E+01 0. -1.
       -5    1    3    3    0  502 -0.22291831796E+03 -0.11694812445E+04  0.11301921080E+04  0.16415648780E+04  0.46999998093E+01 0.  1.
</event>
<event>
 5   0  0.3522569E-07  0.2800414E+04  0.7818609E-02  0.8303140E-01
        2   -1    0    0  501    0  0.00000000000E+00  0.00000000000E+00  0.20744021025E+04  0.20744021025E+04  0.25500000920E-02 0. -1.
       -2   -1    0    0    0  501  0.00000000000E+00  0.00000000000E+00 -0.94513014624E+03  0.94513014625E+03  0.25500000920E-02 0.  1.
    10030    2    1    2    0    0  0.00000000000E+00  0.00000000000E+00  0.11292719562E+04  0.30195322487E+04  0.28004142283E+04 0.  0.
        1    1    3    3  502    0  0.47790273752E+02  0.13822213380E+04  0.32899512930E+03  0.14216390304E+04  0.50400001928E-02 0.  1.
       -1    1    3    3    0  502 -0.47790273752E+02 -0.13822213380E+04  0.80027682691E+03  0.15978932183E+04  0.50400001928E-02 0. -1.
</event>
<event>
 5   0  0.1361741E-07  0.2798811E+04  0.7818609E-02  0.8303638E-01
       -1   -1    0    0    0  501  0.00000000000E+00  0.00000000000E+00  0.13539022525E+04  0.13539022525E+04  0.50400001928E-02 0.  1.
        1   -1    0    0  501    0  0.00000000000E+00  0.00000000000E+00 -0.14464377397E+04  0.14464377397E+04  0.50400001928E-02 0. -1.
    10030    2    1    2    0    0  0.00000000000E+00  0.00000000000E+00 -0.92535487181E+02  0.28003399922E+04  0.27988106859E+04 0.  0.
        5    1    3    3  502    0  0.87250835796E+03 -0.28512437957E+03 -0.11031339258E+04  0.14350934794E+04  0.46999998093E+01 0. -1.
       -5    1    3    3    0  502 -0.87250835796E+03  0.28512437957E+03  0.10105984386E+04  0.13652465128E+04  0.46999998093E+01 0.  1.
</event>
<event>
 5   0  0.1361741E-07  0.2800122E+04  0.7818609E-02  0.8303230E-01
        1   -1    0    0  501    0  0.00000000000E+00  0.00000000000E+00  0.21057031828E+04  0.21057031828E+04  0.50400001928E-02 0.  1.
       -1   -1    0    0    0  501  0.00000000000E+00  0.00000000000E+00 -0.93088666260E+03  0.93088666261E+03  0.50400001928E-02 0. -1.
    10030    2    1    2    0    0  0.00000000000E+00  0.00000000000E+00  0.11748165202E+04  0.30365898454E+04  0.28001221461E+04 0.  0.
        5    1    3    3  502    0 -0.12729660021E+04 -0.28963861666E+03  0.38912889600E+02  0.13060893054E+04  0.46999998093E+01 0. -1.
       -5    1    3    3    0  502  0.12729660021E+04  0.28963861666E+03  0.11359036306E+04  0.17305005400E+04  0.46999998093E+01 0.  1.
</event>
<event>
 5   0  0.3522569E-07  0.2800256E+04  0.7818609E-02  0.8303189E-01
       -2   -1    0    0    0  501  0.00000000000E+00  0.00000000000E+00  0.14195319939E+04  0.14195319939E+04  0.25500000920E-02 0. -1.
        2   -1    0    0  501    0  0.00000000000E+00  0.00000000000E+00 -0.13809890773E+04  0.13809890773E+04  0.25500000920E-02 0.  1.
    10030    2    1    2    0    0  0.00000000000E+00  0.00000000000E+00  0.38542916638E+02  0.28005210712E+04  0.28002558300E+04 0.  0.
        1    1    3    3  502    0  0.18934232519E+03  0.38116476557E+03 -0.13147293500E+04  0.13819009944E+04  0.50400001928E-02 0.  1.
       -1    1    3    3    0  502 -0.18934232519E+03 -0.38116476557E+03  0.13532722666E+04  0.14186200768E+04  0.50400001928E-02 0. -1.
</event>
<event>
 5   0  0.1374680E-07  0.2800942E+04  0.7818609E-02  0.8302976E-01
       -1   -1    0    0    0  501  0.00000000000E+00  0.00000000000E+00  0.12272972451E+04  0.12272972451E+04  0.50400001928E-02 0. -1.
        1   -1    0    0  501    0  0.00000000000E+00  0.00000000000E+00 -0.15980796349E+04  0.15980796349E+04  0.50400001928E-02 0.  1.
    10030    2    1    2    0    0  0.00000000000E+00  0.00000000000E+00 -0.37078238980E+03  0.28253768800E+04  0.28009417940E+04 0.  0.
        3    1    3    3  502    0  0.10613397425E+04  0.50402281588E+03 -0.95416697459E+03  0.15135771118E+04  0.10100000352E+00 0.  1.
       -3    1    3    3    0  502 -0.10613397425E+04 -0.50402281588E+03  0.58338458480E+03  0.13117997682E+04  0.10100000352E+00 0. -1.
</event>
<event>
 5   0  0.1366235E-07  0.2800200E+04  0.7818609E-02  0.8303206E-01
        1   -1    0    0  501    0  0.00000000000E+00  0.00000000000E+00  0.17196584122E+04  0.17196584123E+04  0.50400001928E-02 0.  1.
       -1   -1    0    0    0  501  0.00000000000E+00  0.00000000000E+00 -0.11399238686E+04  0.11399238686E+04  0.50400001928E-02 0. -1.
    10030    2    1    2    0    0  0.00000000000E+00  0.00000000000E+00  0.57973454363E+03  0.28595822809E+04  0.28001997572E+04 0.  0.
        2    1    3    3  502    0  0.50732369054E+03  0.11046560638E+04 -0.41958639186E+03  0.12859607640E+04  0.25500000920E-02 0. -1.
       -2    1    3    3    0  502 -0.50732369054E+03 -0.11046560638E+04  0.99932093549E+03  0.15736215169E+04  0.25500000920E-02 0.  1.
</event>
<event>
 5   0  0.1357902E-07  0.2800666E+04  0.7818609E-02  0.8303062E-01
       -1   -1    0    0    0  501  0.00000000000E+00  0.00000000000E+00  0.27077485268E+04  0.27077485268E+04  0.50400001928E-02 0.  1.
        1   -1    0    0  501    0  0.00000000000E+00  0.00000000000E+00 -0.72419312945E+03  0.72419312947E+03  0.50400001928E-02 0. -1.
    10030    2    1    2    0    0  0.00000000000E+00  0.00000000000E+00  0.19835553973E+04  0.34319416563E+04  0.28006662632E+04 0.  0.
        4    1    3    3  502    0 -0.38274614428E+03 -0.64709505735E+03  0.24394667761E+04  0.25526900299E+04  0.12699999809E+01 0.  1.
       -4    1    3    3    0  502  0.38274614428E+03  0.64709505735E+03 -0.45591137878E+03  0.87925162633E+03  0.12699999809E+01 0. -1.
</event>
<event>
 5   0  0.1357902E-07  0.2799882E+04  0.7818609E-02  0.8303305E-01
        1   -1    0    0  501    0  0.00000000000E+00  0.00000000000E+00  0.15976653028E+04  0.15976653028E+04  0.50400001928E-02 0. -1.
       -1   -1    0    0    0  501  0.00000000000E+00  0.00000000000E+00 -0.12266866991E+04  0.12266866991E+04  0.50400001928E-02 0.  1.
    10030    2    1    2    0    0  0.00000000000E+00  0.00000000000E+00  0.37097860364E+03  0.28243520019E+04  0.27998819808E+04 0.  0.
        4    1    3    3  502    0  0.17731030143E+03  0.12141405159E+04 -0.49438703308E+03  0.13228742520E+04  0.12699999809E+01 0.  1.
       -4    1    3    3    0  502 -0.17731030143E+03 -0.12141405159E+04  0.86536563672E+03  0.15014777499E+04  0.12699999809E+01 0. -1.
</event>
<event>
 5   0  0.1346049E-07  0.2799350E+04  0.7818609E-02  0.8303470E-01
        1   -1    0    0  501    0  0.00000000000E+00  0.00000000000E+00  0.10933376334E+04  0.10933376334E+04  0.50400001928E-02 0. -1.
       -1   -1    0    0    0  501  0.00000000000E+00  0.00000000000E+00 -0.17918440290E+04  0.17918440290E+04  0.50400001928E-02 0.  1.
    10030    2    1    2    0    0  0.00000000000E+00  0.00000000000E+00 -0.69850639564E+03  0.28851816624E+04  0.27993502890E+04 0.  0.
        1    1    3    3  502    0 -0.64220139652E+03  0.82603033978E+03  0.60895231186E+03  0.12106079770E+04  0.50400001928E-02 0.  1.
       -1    1    3    3    0  502  0.64220139652E+03 -0.82603033978E+03 -0.13074587075E+04  0.16745736854E+04  0.50400001928E-02 0. -1.
</event>
<event>
 5   0  0.1374680E-07  0.2801346E+04  0.7818609E-02  0.8302850E-01
       -1   -1    0    0    0  501  0.00000000000E+00  0.00000000000E+00  0.92441102068E+03  0.92441102069E+03  0.50400001928E-02 0. -1.
        1   -1    0    0  501    0  0.00000000000E+00  0.00000000000E+00 -0.21223086586E+04  0.21223086586E+04  0.50400001928E-02 0.  1.
    10030    2    1    2    0    0  0.00000000000E+00  0.00000000000E+00 -0.11978976379E+04  0.30467196793E+04  0.28013464715E+04 0.  0.
        3    1    3    3  502    0 -0.20790101522E+03 -0.38887516532E+03 -0.20448474995E+04  0.20918527751E+04  0.10100000352E+00 0.  1.
       -3    1    3    3    0  502  0.20790101522E+03  0.38887516532E+03  0.84694986162E+03  0.95486690415E+03  0.10100000352E+00 0. -1.
</event>
<event>
 5   0  0.1357902E-07  0.2796335E+04  0.7818609E-02  0.8304407E-01
        1   -1    0    0  501    0  0.00000000000E+00  0.00000000000E+00  0.15815491054E+04  0.15815491054E+04  0.50400001928E-02 0. -1.
       -1   -1    0    0    0  501  0.00000000000E+00  0.00000000000E+00 -0.12360494838E+04  0.12360494838E+04  0.50400001928E-02 0.  1.
    10030    2    1    2    0    0  0.00000000000E+00  0.00000000000E+00  0.34549962159E+03  0.28175985892E+04  0.27963354272E+04 0.  0.
        4    1    3    3  502    0  0.21709731108E+03  0.12842756153E+04  0.68492218138E+03  0.14716029036E+04  0.12699999809E+01 0. -1.
       -4    1    3    3    0  502 -0.21709731108E+03 -0.12842756153E+04 -0.33942255979E+03  0.13459956856E+04  0.12699999809E+01 0.  1.
</event>
<event>
 5   0  0.3502141E-07  0.2800335E+04  0.7818609E-02  0.8303164E-01
        2   -1    0    0  501    0  0.00000000000E+00  0.00000000000E+00  0.17127369006E+04  0.17127369006E+04  0.25500000920E-02 0. -1.
       -2   -1    0    0    0  501  0.00000000000E+00  0.00000000000E+00 -0.11446409951E+04  0.11446409951E+04  0.25500000920E-02 0.  1.
    10030    2    1    2    0    0  0.00000000000E+00  0.00000000000E+00  0.56809590553E+03  0.28573778957E+04  0.28003348873E+04 0.  0.
        3    1    3    3  502    0 -0.13731143030E+04  0.27386300577E+03  0.28915235789E+03  0.14297037914E+04  0.10100000352E+00 0.  1.
       -3    1    3    3    0  502  0.13731143030E+04 -0.27386300577E+03  0.27894354764E+03  0.14276741043E+04  0.10100000352E+00 0. -1.
</event>
<event>
 5   0  0.1366235E-07  0.2800137E+04  0.7818609E-02  0.8303226E-01
        1   -1    0    0  501    0  0.00000000000E+00  0.00000000000E+00  0.13802432593E+04  0.13802432593E+04  0.50400001928E-02 0. -1.
       -1   -1    0    0    0  501  0.00000000000E+00  0.00000000000E+00 -0.14201786256E+04  0.14201786256E+04  0.50400001928E-02 0.  1.
    10030    2    1    2    0    0  0.00000000000E+00  0.00000000000E+00 -0.39935366366E+02  0.28004218849E+04  0.28001371216E+04 0.  0.
        2    1    3    3  502    0  0.25588793340E+03 -0.99031714598E+03 -0.97609068677E+03  0.14138457175E+04  0.25500000920E-02 0.  1.
       -2    1    3    3    0  502 -0.25588793340E+03  0.99031714598E+03  0.93615532040E+03  0.13865761674E+04  0.25500000920E-02 0. -1.
</event>
<event>
 5   0  0.1374680E-07  0.2798263E+04  0.7818609E-02  0.8303808E-01
        1   -1    0    0  501    0  0.00000000000E+00  0.00000000000E+00  0.11283913242E+04  0.11283913242E+04  0.50400001928E-02 0. -1.
       -1   -1    0    0    0  501  0.00000000000E+00  0.00000000000E+00 -0.17348315636E+04  0.17348315636E+04  0.50400001928E-02 0.  1.
    10030    2    1    2    0    0  0.00000000000E+00  0.00000000000E+00 -0.60644023945E+03  0.28632228878E+04  0.27982629507E+04 0.  0.
        3    1    3    3  502    0  0.18541634921E+03 -0.84846074130E+03 -0.14256373345E+04  0.16693431858E+04  0.10100000352E+00 0.  1.
       -3    1    3    3    0  502 -0.18541634921E+03  0.84846074130E+03  0.81919709509E+03  0.11938797020E+04  0.10100000352E+00 0. -1.
</event>
<event>
 5   0  0.1366235E-07  0.2794793E+04  0.7818609E-02  0.8304887E-01
        1   -1    0    0  501    0  0.00000000000E+00  0.00000000000E+00  0.15912727321E+04  0.15912727321E+04  0.50400001928E-02 0.  1.
       -1   -1    0    0    0  501  0.00000000000E+00  0.00000000000E+00 -0.12271418219E+04  0.12271418219E+04  0.50400001928E-02 0. -1.
    10030    2    1    2    0    0  0.00000000000E+00  0.00000000000E+00  0.36413091016E+03  0.28184145540E+04  0.27947932443E+04 0.  0.
        2    1    3    3  502    0  0.93419915788E+03 -0.95949160638E+03 -0.22051418934E+03  0.13571951654E+04  0.25500000920E-02 0. -1.
       -2    1    3    3    0  502 -0.93419915788E+03  0.95949160638E+03  0.58464509950E+03  0.14612193886E+04  0.25500000920E-02 0.  1.
</event>
<event>
 5   0  0.3522569E-07  0.2800493E+04  0.7818609E-02  0.8303115E-01
       -2   -1    0    0    0  501  0.00000000000E+00  0.00000000000E+00  0.13960758205E+04  0.13960758205E+04  0.25500000920E-02 0. -1.
        2   -1    0    0  501    0  0.00000000000E+00  0.00000000000E+00 -0.14044291546E+04  0.14044291546E+04  0.25500000920E-02 0.  1.
    10030    2    1    2    0    0  0.00000000000E+00  0.00000000000E+00 -0.83533340809E+01  0.28005049752E+04  0.28004925170E+04 0.  0.
        1    1    3    3  502    0  0.62134446480E+03  0.85059359355E+03  0.91838430739E+03  0.13975006767E+04  0.50400001928E-02 0. -1.
       -1    1    3    3    0  502 -0.62134446480E+03 -0.85059359355E+03 -0.92673764147E+03  0.14030042985E+04  0.50400001928E-02 0.  1.
</event>
<event>
 5   0  0.1346049E-07  0.2802777E+04  0.7818609E-02  0.8302407E-01
       -1   -1    0    0    0  501  0.00000000000E+00  0.00000000000E+00  0.90378370376E+03  0.90378370377E+03  0.50400001928E-02 0.  1.
        1   -1    0    0  501    0  0.00000000000E+00  0.00000000000E+00 -0.21729641797E+04  0.21729641797E+04  0.50400001928E-02 0. -1.
    10030    2    1    2    0    0  0.00000000000E+00  0.00000000000E+00 -0.12691804759E+04  0.30767478834E+04  0.28027769190E+04 0.  0.
        1    1    3    3  502    0  0.43584086071E+03 -0.86247019585E+02 -0.20936041671E+04  0.21402276077E+04  0.50400001928E-02 0. -1.
       -1    1    3    3    0  502 -0.43584086071E+03  0.86247019585E+02  0.82442369119E+03  0.93652027574E+03  0.50400001928E-02 0.  1.
</event>
<event>
 5   0  0.3571498E-07  0.2800254E+04  0.7818609E-02  0.8303190E-01
       -2   -1    0    0    0  501  0.00000000000E+00  0.00000000000E+00  0.12102607185E+04  0.12102607185E+04  0.25500000920E-02 0.  1.
        2   -1    0    0  501    0  0.00000000000E+00  0.00000000000E+00 -0.16197794383E+04  0.16197794383E+04  0.25500000920E-02 0. -1.
    10030    2    1    2    0    0  0.00000000000E+00  0.00000000000E+00 -0.40951871977E+03  0.28300401568E+04  0.28002538648E+04 0.  0.
        2    1    3    3  502    0  0.46518030351E+03  0.35080806781E+02 -0.15389273039E+04  0.16080797942E+04  0.25500000920E-02 0. -1.
       -2    1    3    3    0  502 -0.46518030351E+03 -0.35080806781E+02  0.11294085842E+04  0.12219603626E+04  0.25500000920E-02 0.  1.
</event>
<event>
 5   0  0.1173363E-07  0.2799906E+04  0.7818609E-02  0.8303298E-01
        3   -1    0    0  501    0  0.00000000000E+00  0.00000000000E+00  0.87167359866E+03  0.87167360452E+03  0.10100000352E+00 0.  1.
       -3   -1    0    0    0  501  0.00000000000E+00  0.00000000000E+00 -0.22483967511E+04  0.22483967533E+04  0.10100000352E+00 0. -1.
    10030    2    1    2    0    0  0.00000000000E+00  0.00000000000E+00 -0.13767231524E+04  0.31200703579E+04  0.27999057841E+04 0.  0.
        4    1    3    3  502    0 -0.12110925428E+04  0.28241566937E+03 -0.14048127983E+04  0.18761674683E+04  0.12699999809E+01 0. -1.
       -4    1    3    3    0  502  0.12110925428E+04 -0.28241566937E+03  0.28089645940E+02  0.12439028896E+04  0.12699999809E+01 0.  1.
</event>
<event>
 5   0  0.1346049E-07  0.2799143E+04  0.7818609E-02  0.8303535E-01
        1   -1    0    0  501    0  0.00000000000E+00  0.00000000000E+00  0.14770070589E+04  0.14770070589E+04  0.50400001928E-02 0.  1.
       -1   -1    0    0    0  501  0.00000000000E+00  0.00000000000E+00 -0.13261954317E+04  0.13261954317E+04  0.50400001928E-02 0. -1.
    10030    2    1    2    0    0  0.00000000000E+00  0.00000000000E+00  0.15081162716E+03  0.28032024906E+04  0.27991427360E+04 0.  0.
        1    1    3    3  502    0  0.97178684346E+03 -0.27006504531E+03  0.10471198682E+04  0.14538792303E+04  0.50400001928E-02 0.  1.
       -1    1    3    3    0  502 -0.97178684346E+03  0.27006504531E+03 -0.89630824106E+03  0.13493232603E+04  0.50400001928E-02 0. -1.
</event>
<event>
 5   0  0.1374680E-07  0.2800412E+04  0.7818609E-02  0.8303140E-01
        1   -1    0    0  501    0  0.00000000000E+00  0.00000000000E+00  0.14293098568E+04  0.14293098568E+04  0.50400001928E-02 0.  1.
       -1   -1    0    0    0  501  0.00000000000E+00  0.00000000000E+00 -0.13716946568E+04  0.13716946569E+04  0.50400001928E-02 0. -1.
    10030    2    1    2    0    0  0.00000000000E+00  0.00000000000E+00  0.57615199916E+02  0.28010045136E+04  0.28004118936E+04 0.  0.
        3    1    3    3  502    0 -0.54154969421E+03  0.67099683053E+03  0.11322472346E+04  0.14231994338E+04  0.10100000352E+00 0.  1.
       -3    1    3    3    0  502  0.54154969421E+03 -0.67099683053E+03 -0.10746320347E+04  0.13778050798E+04  0.10100000352E+00 0. -1.
</event>
<event>
 5   0  0.3502141E-07  0.2799288E+04  0.7818609E-02  0.8303489E-01
       -2   -1    0    0    0  501  0.00000000000E+00  0.00000000000E+00  0.27497307797E+04  0.27497307797E+04  0.25500000920E-02 0. -1.
        2   -1    0    0  501    0  0.00000000000E+00  0.00000000000E+00 -0.71243461943E+03  0.71243461943E+03  0.25500000920E-02 0.  1.
    10030    2    1    2    0    0  0.00000000000E+00  0.00000000000E+00  0.20372961603E+04  0.34621653991E+04  0.27992880535E+04 0.  0.
        3    1    3    3  502    0  0.11585781777E+03  0.10734192011E+04  0.21202712597E+04  0.23793280649E+04  0.10100000352E+00 0. -1.
       -3    1    3    3    0  502 -0.11585781777E+03 -0.10734192011E+04 -0.82975099431E+02  0.10828373343E+04  0.10100000352E+00 0.  1.
</event>
<event>
 5   0  0.3406920E-07  0.2799549E+04  0.7818609E-02  0.8303408E-01
        2   -1    0    0  501    0  0.00000000000E+00  0.00000000000E+00  0.16594446155E+04  0.16594446155E+04  0.25500000920E-02 0.  1.
       -2   -1    0    0    0  501  0.00000000000E+00  0.00000000000E+00 -0.11807374578E+04  0.11807374578E+04  0.25500000920E-02 0. -1.
    10030    2    1    2    0    0  0.00000000000E+00  0.00000000000E+00  0.47870715769E+03  0.28401820733E+04  0.27995488327E+04 0.  0.
        4    1    3    3  502    0  0.67049074617E+03 -0.24021196134E+03  0.14618777949E+04  0.16261451126E+04  0.12699999809E+01 0.  1.
       -4    1    3    3    0  502 -0.67049074617E+03  0.24021196134E+03 -0.98317063725E+03  0.12140369607E+04  0.12699999809E+01 0. -1.
</event>
<event>
 5   0  0.1346049E-07  0.2799508E+04  0.7818609E-02  0.8303421E-01
       -1   -1    0    0    0  501  0.00000000000E+00  0.00000000000E+00  0.10175506585E+04  0.10175506585E+04  0.50400001928E-02 0.  1.
        1   -1    0    0  501    0  0.00000000000E+00  0.00000000000E+00 -0.19255171683E+04  0.19255171683E+04  0.50400001928E-02 0. -1.
    10030    2    1    2    0    0  0.00000000000E+00  0.00000000000E+00 -0.90796650974E+03  0.29430678268E+04  0.27995080015E+04 0.  0.
        1    1    3    3  502    0 -0.11385322631E+04 -0.50139517810E+03  0.22052467754E+03  0.12634413212E+04  0.50400001928E-02 0.  1.
       -1    1    3    3    0  502  0.11385322631E+04  0.50139517810E+03 -0.11284911873E+04  0.16796265056E+04  0.50400001928E-02 0. -1.
</event>
<event>
 5   0  0.1361741E-07  0.2793184E+04  0.7818609E-02  0.8305387E-01
       -1   -1    0    0    0  501  0.00000000000E+00  0.00000000000E+00  0.85454582260E+03  0.85454582261E+03  0.50400001928E-02 0.  1.
        1   -1    0    0  501    0  0.00000000000E+00  0.00000000000E+00 -0.22824634717E+04  0.22824634717E+04  0.50400001928E-02 0. -1.
    10030    2    1    2    0    0  0.00000000000E+00  0.00000000000E+00 -0.14279176491E+04  0.31370092944E+04  0.27931842940E+04 0.  0.
        5    1    3    3  502    0 -0.11314264245E+04  0.77108373141E+03 -0.40484936778E+03  0.14278028489E+04  0.46999998093E+01 0.  1.
       -5    1    3    3    0  502  0.11314264245E+04 -0.77108373141E+03 -0.10230682814E+04  0.17092064454E+04  0.46999998093E+01 0. -1.
</event>
<event>
 5   0  0.3502141E-07  0.2801717E+04  0.7818609E-02  0.8302736E-01
        2   -1    0    0  501    0  0.00000000000E+00  0.00000000000E+00  0.21529192450E+04  0.21529192450E+04  0.25500000920E-02 0.  1.
       -2   -1    0    0    0  501  0.00000000000E+00  0.00000000000E+00 -0.91150851183E+03  0.91150851184E+03  0.25500000920E-02 0. -1.
    10030    2    1    2    0    0  0.00000000000E+00  0.00000000000E+00  0.12414107331E+04  0.30644277568E+04  0.28017167716E+04 0.  0.
        3    1    3    3  502    0 -0.58564637244E+02 -0.93001714252E+03  0.17647481214E+04  0.19956697232E+04  0.10100000352E+00 0.  1.
       -3    1    3    3    0  502  0.58564637244E+02  0.93001714252E+03 -0.52333738827E+03  0.10687580336E+04  0.10100000352E+00 0. -1.
</event>
<event>
 5   0  0.1357902E-07  0.2800725E+04  0.7818609E-02  0.8303043E-01
        1   -1    0    0  501    0  0.00000000000E+00  0.00000000000E+00  0.25436769216E+04  0.25436769216E+04  0.50400001928E-02 0.  1.
       -1   -1    0    0    0  501  0.00000000000E+00  0.00000000000E+00 -0.77093723653E+03  0.77093723654E+03  0.50400001928E-02 0. -1.
    10030    2    1    2    0    0  0.00000000000E+00  0.00000000000E+00  0.17727396851E+04  0.33146141582E+04  0.28007250894E+04 0.  0.
        4    1    3    3  502    0  0.68860560057E+03  0.79054436949E+03 -0.21234447688E+03  0.10696868060E+04  0.12699999809E+01 0. -1.
       -4    1    3    3    0  502 -0.68860560057E+03 -0.79054436949E+03  0.19850841620E+04  0.22449273521E+04  0.12699999809E+01 0.  1.
</event>
<event>
 5   0  0.3502141E-07  0.2797184E+04  0.7818609E-02  0.8304143E-01
       -2   -1    0    0    0  501  0.00000000000E+00  0.00000000000E+00  0.98289592241E+03  0.98289592242E+03  0.25500000920E-02 0.  1.
        2   -1    0    0  501    0  0.00000000000E+00  0.00000000000E+00 -0.19900989833E+04  0.19900989833E+04  0.25500000920E-02 0. -1.
    10030    2    1    2    0    0  0.00000000000E+00  0.00000000000E+00 -0.10072030609E+04  0.29729949057E+04  0.27971844243E+04 0.  0.
        3    1    3    3  502    0 -0.84080152096E+02 -0.82058126746E+03 -0.17040309508E+04  0.18931837154E+04  0.10100000352E+00 0. -1.
       -3    1    3    3    0  502  0.84080152096E+02  0.82058126746E+03  0.69682788993E+03  0.10798111904E+04  0.10100000352E+00 0.  1.
</event>
<event>
 5   0  0.1173363E-07  0.2800939E+04  0.7818609E-02  0.8302977E-01
       -3   -1    0    0    0  501  0.00000000000E+00  0.00000000000E+00  0.14199536449E+04  0.14199536485E+04  0.10100000352E+00 0.  1.
        3   -1    0    0  501    0  0.00000000000E+00  0.00000000000E+00 -0.13812525974E+04  0.13812526011E+04  0.10100000352E+00 0. -1.
    10030    2    1    2    0    0  0.00000000000E+00  0.00000000000E+00  0.38701047490E+02  0.28012062495E+04  0.28009388928E+04 0.  0.
        2    1    3    3  502    0 -0.75380688657E+03 -0.97654130436E+03 -0.64362822971E+03  0.13914435093E+04  0.25500000920E-02 0. -1.
       -2    1    3    3    0  502  0.75380688657E+03  0.97654130436E+03  0.68232927720E+03  0.14097627403E+04  0.25500000920E-02 0.  1.
</event>
<event>
 5   0  0.1366235E-07  0.2800310E+04  0.7818609E-02  0.8303172E-01
        1   -1    0    0  501    0  0.00000000000E+00  0.00000000000E+00  0.87590283799E+03  0.87590283801E+03  0.50400001928E-02 0.  1.
       -1   -1    0    0    0  501  0.00000000000E+00  0.00000000000E+00 -0.22381870303E+04  0.22381870303E+04  0.50400001928E-02 0. -1.
    10030    2    1    2    0    0  0.00000000000E+00  0.00000000000E+00 -0.13622841923E+04  0.31140898683E+04  0.28003102484E+04 0.  0.
        2    1    3    3  502    0  0.13543042521E+04  0.29321840957E+03 -0.45785127664E+03  0.14593645310E+04  0.25500000920E-02 0. -1.
       -2    1    3    3    0  502 -0.13543042521E+04 -0.29321840957E+03 -0.90443291563E+03  0.16547253373E+04  0.25500000920E-02 0.  1.
</event>
<event>
 5   0  0.3557628E-07  0.2799884E+04  0.7818609E-02  0.8303304E-01
        2   -1    0    0  501    0  0.00000000000E+00  0.00000000000E+00  0.14567351549E+04  0.14567351549E+04  0.25500000920E-02 0. -1.
       -2   -1    0    0    0  501  0.00000000000E+00  0.00000000000E+00 -0.13453628514E+04  0.13453628514E+04  0.25500000920E-02 0.  1.
    10030    2    1    2    0    0  0.00000000000E+00  0.00000000000E+00  0.11137230348E+03  0.28020980064E+04  0.27998838275E+04 0.  0.
        5    1    3    3  502    0  0.17270996738E+03  0.25801454234E+03  0.14218352719E+04  0.14553480227E+04  0.46999998093E+01 0. -1.
       -5    1    3    3    0  502 -0.17270996738E+03 -0.25801454234E+03 -0.13104629684E+04  0.13467499836E+04  0.46999998093E+01 0.  1.
</event>
<event>
 5   0  0.1346049E-07  0.2800204E+04  0.7818609E-02  0.8303205E-01
        1   -1    0    0  501    0  0.00000000000E+00  0.00000000000E+00  0.13475379450E+04  0.13475379450E+04  0.50400001928E-02 0. -1.
       -1   -1    0    0    0  501  0.00000000000E+00  0.00000000000E+00 -0.14547159926E+04  0.14547159926E+04  0.50400001928E-02 0.  1.
    10030    2    1    2    0    0  0.00000000000E+00  0.00000000000E+00 -0.10717804758E+03  0.28022539376E+04  0.28002035634E+04 0.  0.
        1    1    3    3  502    0 -0.10228686108E+04 -0.95325146840E+03  0.19515421257E+02  0.13983309368E+04  0.50400001928E-02 0.  1.
       -1    1    3    3    0  502  0.10228686108E+04  0.95325146840E+03 -0.12669346884E+03  0.14039230008E+04  0.50400001928E-02 0. -1.
</event>
<event>
 5   0  0.1346049E-07  0.2799825E+04  0.7818609E-02  0.8303323E-01
       -1   -1    0    0    0  501  0.00000000000E+00  0.00000000000E+00  0.90398270254E+03  0.90398270255E+03  0.50400001928E-02 0. -1.
        1   -1    0    0  501    0  0.00000000000E+00  0.00000000000E+00 -0.21679120034E+04  0.21679120034E+04  0.50400001928E-02 0.  1.
    10030    2    1    2    0    0  0.00000000000E+00  0.00000000000E+00 -0.12639293009E+04  0.30718947060E+04  0.27998249600E+04 0.  0.
        1    1    3    3  502    0  0.41993724626E+03  0.26453156629E+03 -0.20681441329E+04  0.21268625708E+04  0.50400001928E-02 0.  1.
       -1    1    3    3    0  502 -0.41993724626E+03 -0.26453156629E+03  0.80421483207E+03  0.94503213518E+03  0.50400001928E-02 0. -1.
</event>
<event>
 5   0  0.3502141E-07  0.2799892E+04  0.7818609E-02  0.8303302E-01
        2   -1    0    0  501    0  0.00000000000E+00  0.00000000000E+00  0.16018957783E+04  0.16018957783E+04  0.25500000920E-02 0.  1.
       -2   -1    0    0    0  501  0.00000000000E+00  0.00000000000E+00 -0.12234561824E+04  0.12234561824E+04  0.25500000920E-02 0. -1.
    10030    2    1    2    0    0  0.00000000000E+00  0.00000000000E+00  0.37843959589E+03  0.28253519607E+04  0.27998923504E+04 0.  0.
        3    1    3    3  502    0 -0.46282964441E+03 -0.33621299207E+03  0.14785702080E+04  0.15853770296E+04  0.10100000352E+00 0.  1.
       -3    1    3    3    0  502  0.46282964441E+03  0.33621299207E+03 -0.11001306121E+04  0.12399749311E+04  0.10100000352E+00 0. -1.
</event>
<event>
 5   0  0.1357902E-07  0.2794951E+04  0.7818609E-02  0.8304838E-01
        1   -1    0    0  501    0  0.00000000000E+00  0.00000000000E+00  0.18832295449E+04  0.18832295450E+04  0.50400001928E-02 0. -1.
       -1   -1    0    0    0  501  0.00000000000E+00  0.00000000000E+00 -0.10370149081E+04  0.10370149081E+04  0.50400001928E-02 0.  1.
    10030    2    1    2    0    0  0.00000000000E+00  0.00000000000E+00  0.84621463684E+03  0.29202444531E+04  0.27949505280E+04 0.  0.
        4    1    3    3  502    0  0.87470901067E+03  0.36333254543E+02 -0.71498861105E+03  0.11303301666E+04  0.12699999809E+01 0.  1.
       -4    1    3    3    0  502 -0.87470901067E+03 -0.36333254543E+02  0.15612032479E+04  0.17899142865E+04  0.12699999809E+01 0. -1.
</event>
<event>
 5   0  0.1346049E-07  0.2801802E+04  0.7818609E-02  0.8302709E-01
       -1   -1    0    0    0  501  0.00000000000E+00  0.00000000000E+00  0.96104516609E+03  0.96104516610E+03  0.50400001928E-02 0. -1.
        1   -1    0    0  501    0  0.00000000000E+00  0.00000000000E+00 -0.20420723186E+04  0.20420723186E+04  0.50400001928E-02 0.  1.
    10030    2    1    2    0    0  0.00000000000E+00  0.00000000000E+00 -0.10810271525E+04  0.30031174847E+04  0.28018020848E+04 0.  0.
        1    1    3    3  502    0  0.28042835763E+03 -0.11042270883E+04  0.33327023547E+03  0.11870242525E+04  0.50400001928E-02 0. -1.
       -1    1    3    3    0  502 -0.28042835763E+03  0.11042270883E+04 -0.14142973880E+04  0.18160932322E+04  0.50400001928E-02 0.  1.
</event>
<event>
 5   0  0.3557628E-07  0.2800322E+04  0.7818609E-02  0.8303168E-01
       -2   -1    0    0    0  501  0.00000000000E+00  0.00000000000E+00  0.83968377089E+03  0.83968377089E+03  0.25500000920E-02 0. -1.
        2   -1    0    0  501    0  0.00000000000E+00  0.00000000000E+00 -0.23347490152E+04  0.23347490152E+04  0.25500000920E-02 0.  1.
    10030    2    1    2    0    0  0.00000000000E+00  0.00000000000E+00 -0.14950652444E+04  0.31744327861E+04  0.28003220223E+04 0.  0.
        5    1    3    3  502    0  0.72894284346E+03 -0.10326460464E+03  0.60254479440E+03  0.95136931150E+03  0.46999998093E+01 0. -1.
       -5    1    3    3    0  502 -0.72894284346E+03  0.10326460464E+03 -0.20976100387E+04  0.22230634746E+04  0.46999998093E+01 0.  1.
</event>
<event>
 5   0  0.1361741E-07  0.2796836E+04  0.7818609E-02  0.8304251E-01
        1   -1    0    0  501    0  0.00000000000E+00  0.00000000000E+00  0.24911928255E+04  0.24911928255E+04  0.50400001928E-02 0. -1.
       -1   -1    0    0    0  501  0.00000000000E+00  0.00000000000E+00 -0.78499433336E+03  0.78499433338E+03  0.50400001928E-02 0.  1.
    10030    2    1    2    0    0  0.00000000000E+00  0.00000000000E+00  0.17061984921E+04  0.32761871589E+04  0.27968355342E+04 0.  0.
        5    1    3    3  502    0 -0.57820658792E+03 -0.95807168842E+03 -0.12928206892E+03  0.11264813189E+04  0.46999998093E+01 0.  1.
       -5    1    3    3    0  502  0.57820658792E+03  0.95807168842E+03  0.18354805611E+04  0.21497058400E+04  0.46999998093E+01 0. -1.
</event>
<event>
 5   0  0.3502141E-07  0.2801506E+04  0.7818609E-02  0.8302801E-01
       -2   -1    0    0    0  501  0.00000000000E+00  0.00000000000E+00  0.86714636786E+03  0.86714636786E+03  0.25500000920E-02 0. -1.
        2   -1    0    0  501    0  0.00000000000E+00  0.00000000000E+00 -0.22627201470E+04  0.22627201470E+04  0.25500000920E-02 0.  1.
    10030    2    1    2    0    0  0.00000000000E+00  0.00000000000E+00 -0.13955737792E+04  0.31298665149E+04  0.28015064212E+04 0.  0.
        3    1    3    3  502    0 -0.79589385468E+03 -0.11269088406E+04 -0.96855493398E+03  0.16856658130E+04  0.10100000352E+00 0.  1.
       -3    1    3    3    0  502  0.79589385468E+03  0.11269088406E+04 -0.42701884519E+03  0.14442007019E+04  0.10100000352E+00 0. -1.
</event>
<event>
 5   0  0.1366235E-07  0.2798193E+04  0.7818609E-02  0.8303829E-01
        1   -1    0    0  501    0  0.00000000000E+00  0.00000000000E+00  0.31279491433E+04  0.31279491433E+04  0.50400001928E-02 0. -1.
       -1   -1    0    0    0  501  0.00000000000E+00  0.00000000000E+00 -0.62580032633E+03  0.62580032635E+03  0.50400001928E-02 0.  1.
    10030    2    1    2    0    0  0.00000000000E+00  0.00000000000E+00  0.25021488170E+04  0.37537494697E+04  0.27981934134E+04 0.  0.
        2    1    3    3  502    0  0.11106717173E+04  0.64076650343E+03  0.20019474583E+04  0.23773865907E+04  0.25500000920E-02 0. -1.
       -2    1    3    3    0  502 -0.11106717173E+04 -0.64076650343E+03  0.50020135862E+03  0.13763628790E+04  0.25500000920E-02 0.  1.
</event>
<event>
 5   0  0.1357902E-07  0.2801258E+04  0.7818609E-02  0.8302878E-01
       -1   -1    0    0    0  501  0.00000000000E+00  0.00000000000E+00  0.14499674420E+04  0.14499674420E+04  0.50400001928E-02 0. -1.
        1   -1    0    0  501    0  0.00000000000E+00  0.00000000000E+00 -0.13529696881E+04  0.13529696881E+04  0.50400001928E-02 0.  1.
    10030    2    1    2    0    0  0.00000000000E+00  0.00000000000E+00  0.96997753951E+02  0.28029371301E+04  0.28012582871E+04 0.  0.
        4    1    3    3  502    0 -0.16572509421E+03  0.53802419130E+03 -0.12347772756E+04  0.13570598257E+04  0.12699999809E+01 0.  1.
       -4    1    3    3    0  502  0.16572509421E+03 -0.53802419130E+03  0.13317750295E+04  0.14458773044E+04  0.12699999809E+01 0. -1.
</event>
<event>
 5   0  0.1346049E-07  0.2800806E+04  0.7818609E-02  0.8303018E-01
       -1   -1    0    0    0  501  0.00000000000E+00  0.00000000000E+00  0.12799429703E+04  0.12799429703E+04  0.50400001928E-02 0.  1.
        1   -1    0    0  501    0  0.00000000000E+00  0.00000000000E+00 -0.15321995000E+04  0.15321995000E+04  0.50400001928E-02 0. -1.
    10030    2    1    2    0    0  0.00000000000E+00  0.00000000000E+00 -0.25225652973E+03  0.28121424703E+04  0.28008055835E+04 0.  0.
        1    1    3    3  502    0  0.67896274658E+03 -0.88617925325E+03  0.72276656361E+03  0.13299231503E+04  0.50400001928E-02 0.  1.
       -1    1    3    3    0  502 -0.67896274658E+03  0.88617925325E+03 -0.97502309335E+03  0.14822193200E+04  0.50400001928E-02 0. -1.
</event>
<event>
 5   0  0.1357902E-07  0.2799538E+04  0.7818609E-02  0.8303412E-01
        1   -1    0    0  501    0  0.00000000000E+00  0.00000000000E+00  0.22047917618E+04  0.22047917618E+04  0.50400001928E-02 0. -1.
       -1   -1    0    0    0  501  0.00000000000E+00  0.00000000000E+00 -0.88867939399E+03  0.88867939400E+03  0.50400001928E-02 0.  1.
    10030    2    1    2    0    0  0.00000000000E+00  0.00000000000E+00  0.13161123678E+04  0.30934711558E+04  0.27995378239E+04 0.  0.
        4    1    3    3  502    0  0.43011362637E+03  0.12631755548E+04  0.19088930801E+03  0.13479801759E+04  0.12699999809E+01 0.  1.
       -4    1    3    3    0  502 -0.43011362637E+03 -0.12631755548E+04  0.11252230598E+04  0.17454909799E+04  0.12699999809E+01 0. -1.
</event>
<event>
 5   0  0.3571498E-07  0.2799682E+04  0.7818609E-02  0.8303367E-01
        2   -1    0    0  501    0  0.00000000000E+00  0.00000000000E+00  0.16934000547E+04  0.16934000547E+04  0.25500000920E-02 0. -1.
       -2   -1    0    0    0  501  0.00000000000E+00  0.00000000000E+00 -0.11571721286E+04  0.11571721286E+04  0.25500000920E-02 0.  1.
    10030    2    1    2    0    0  0.00000000000E+00  0.00000000000E+00  0.53622792612E+03  0.28505721832E+04  0.27996823718E+04 0.  0.
        2    1    3    3  502    0  0.94388780398E+03 -0.67299406108E+02 -0.78218974665E+03  0.12277109580E+04  0.25500000920E-02 0.  1.
       -2    1    3    3    0  502 -0.94388780398E+03  0.67299406108E+02  0.13184176728E+04  0.16228612253E+04  0.25500000920E-02 0. -1.
</event>
<event>
 5   0  0.3522569E-07  0.2800789E+04  0.7818609E-02  0.8303023E-01
       -2   -1    0    0    0  501  0.00000000000E+00  0.00000000000E+00  0.21558401165E+04  0.21558401166E+04  0.25500000920E-02 0.  1.
        2   -1    0    0  501    0  0.00000000000E+00  0.00000000000E+00 -0.90967094949E+03  0.90967094949E+03  0.25500000920E-02 0. -1.
    10030    2    1    2    0    0  0.00000000000E+00  0.00000000000E+00  0.12461691671E+04  0.30655110660E+04  0.28007892643E+04 0.  0.
        1    1    3    3  502    0 -0.18115855339E+03 -0.12799251795E+04  0.12125794541E+04  0.17723926819E+04  0.50400001928E-02 0.  1.
       -1    1    3    3    0  502  0.18115855339E+03  0.12799251795E+04  0.33589712948E+02  0.12931183841E+04  0.50400001928E-02 0. -1.
</event>
<event>
 5   0  0.3502141E-07  0.2797807E+04  0.7818609E-02  0.8303949E-01
        2   -1    0    0  501    0  0.00000000000E+00  0.00000000000E+00  0.17528161443E+04  0.17528161443E+04  0.25500000920E-02 0. -1.
       -2   -1    0    0    0  501  0.00000000000E+00  0.00000000000E+00 -0.11164497871E+04  0.11164497871E+04  0.25500000920E-02 0.  1.
    10030    2    1    2    0    0  0.00000000000E+00  0.00000000000E+00  0.63636635722E+03  0.28692659314E+04  0.27978071493E+04 0.  0.
        3    1    3    3  502    0 -0.35585138014E+03 -0.41622109886E+03  0.16383301181E+04  0.17274246131E+04  0.10100000352E+00 0. -1.
       -3    1    3    3    0  502  0.35585138014E+03  0.41622109886E+03 -0.10019637609E+04  0.11418413183E+04  0.10100000352E+00 0.  1.
</event>
<event>
 5   0  0.3522569E-07  0.2787744E+04  0.7818609E-02  0.8307084E-01
        2   -1    0    0  501    0  0.00000000000E+00  0.00000000000E+00  0.16450552056E+04  0.16450552057E+04  0.25500000920E-02 0. -1.
       -2   -1    0    0    0  501  0.00000000000E+00  0.00000000000E+00 -0.11810417117E+04  0.11810417117E+04  0.25500000920E-02 0.  1.
    10030    2    1    2    0    0  0.00000000000E+00  0.00000000000E+00  0.46401349396E+03  0.28260969173E+04  0.27877437586E+04 0.  0.
        1    1    3    3  502    0 -0.19842072404E+03 -0.46767734866E+03  0.15478572857E+04  0.16290963947E+04  0.50400001928E-02 0. -1.
       -1    1    3    3    0  502  0.19842072404E+03  0.46767734866E+03 -0.10838437918E+04  0.11970005226E+04  0.50400001928E-02 0.  1.
</event>
<event>
 5   0  0.3406920E-07  0.2798284E+04  0.7818609E-02  0.8303801E-01
        2   -1    0    0  501    0  0.00000000000E+00  0.00000000000E+00  0.92373289497E+03  0.92373289497E+03  0.25500000920E-02 0. -1.
       -2   -1    0    0    0  501  0.00000000000E+00  0.00000000000E+00 -0.21192255075E+04  0.21192255075E+04  0.25500000920E-02 0.  1.
    10030    2    1    2    0    0  0.00000000000E+00  0.00000000000E+00 -0.11954926125E+04  0.30429584024E+04  0.27982839835E+04 0.  0.
        4    1    3    3  502    0 -0.35406453212E+03 -0.94097592141E+03 -0.16558621031E+04  0.19371830824E+04  0.12699999809E+01 0.  1.
       -4    1    3    3    0  502  0.35406453212E+03  0.94097592141E+03  0.46036949058E+03  0.11057753200E+04  0.12699999809E+01 0. -1.
</event>
<event>
 5   0  0.1374680E-07  0.2800433E+04  0.7818609E-02  0.8303134E-01
       -1   -1    0    0    0  501  0.00000000000E+00  0.00000000000E+00  0.78642280307E+03  0.78642280308E+03  0.50400001928E-02 0.  1.
        1   -1    0    0  501    0  0.00000000000E+00  0.00000000000E+00 -0.24930694810E+04  0.24930694810E+04  0.50400001928E-02 0. -1.
    10030    2    1    2    0    0  0.00000000000E+00  0.00000000000E+00 -0.17066466779E+04  0.32794922841E+04  0.28004333161E+04 0.  0.
        3    1    3    3  502    0  0.12724396027E+04 -0.86818783637E+02 -0.15300805913E+04  0.19919303878E+04  0.10100000352E+00 0. -1.
       -3    1    3    3    0  502 -0.12724396027E+04  0.86818783637E+02 -0.17656608658E+03  0.12875618963E+04  0.10100000352E+00 0.  1.
</event>
<event>
 5   0  0.1346049E-07  0.2800245E+04  0.7818609E-02  0.8303192E-01
        1   -1    0    0  501    0  0.00000000000E+00  0.00000000000E+00  0.22099841665E+04  0.22099841665E+04  0.50400001928E-02 0. -1.
       -1   -1    0    0    0  501  0.00000000000E+00  0.00000000000E+00 -0.88703920259E+03  0.88703920260E+03  0.50400001928E-02 0.  1.
    10030    2    1    2    0    0  0.00000000000E+00  0.00000000000E+00  0.13229449639E+04  0.30970233691E+04  0.28002446985E+04 0.  0.
        1    1    3    3  502    0  0.35617329242E+03  0.12939646473E+04  0.11026733530E+04  0.17369779636E+04  0.50400001928E-02 0.  1.
       -1    1    3    3    0  502 -0.35617329242E+03 -0.12939646473E+04  0.22027161098E+03  0.13600454056E+04  0.50400001928E-02 0. -1.
</event>
<event>
 5   0  0.1173363E-07  0.2801017E+04  0.7818609E-02  0.8302953E-01
       -3   -1    0    0    0  501  0.00000000000E+00  0.00000000000E+00  0.15427475408E+04  0.15427475441E+04  0.10100000352E+00 0. -1.
        3   -1    0    0  501    0  0.00000000000E+00  0.00000000000E+00 -0.12713834287E+04  0.12713834327E+04  0.10100000352E+00 0.  1.
    10030    2    1    2    0    0  0.00000000000E+00  0.00000000000E+00  0.27136411217E+03  0.28141309768E+04  0.28010167214E+04 0.  0.
        1    1    3    3  502    0  0.11496730703E+04  0.77349059215E+03 -0.68710368320E+02  0.13873561113E+04  0.50400001928E-02 0.  1.
       -1    1    3    3    0  502 -0.11496730703E+04 -0.77349059215E+03  0.34007448049E+03  0.14267748656E+04  0.50400001928E-02 0. -1.
</event>
<event>
 5   0  0.1346049E-07  0.2798901E+04  0.7818609E-02  0.8303610E-01
        1   -1    0    0  501    0  0.00000000000E+00  0.00000000000E+00  0.27353106090E+04  0.27353106090E+04  0.50400001928E-02 0. -1.
       -1   -1    0    0    0  501  0.00000000000E+00  0.00000000000E+00 -0.71599250843E+03  0.71599250845E+03  0.50400001928E-02 0.  1.
    10030    2    1    2    0    0  0.00000000000E+00  0.00000000000E+00  0.20193181006E+04  0.34513031175E+04  0.27989011446E+04 0.  0.
        1    1    3    3  502    0  0.17365120052E+03 -0.10681772106E+04 -0.84465950121E+02  0.10854914967E+04  0.50400001928E-02 0.  1.
       -1    1    3    3    0  502 -0.17365120052E+03  0.10681772106E+04  0.21037840507E+04  0.23658116207E+04  0.50400001928E-02 0. -1.
</event>
<event>
 5   0  0.1357902E-07  0.2799819E+04  0.7818609E-02  0.8303324E-01
        1   -1    0    0  501    0  0.00000000000E+00  0.00000000000E+00  0.18187898835E+04  0.18187898835E+04  0.50400001928E-02 0.  1.
       -1   -1    0    0    0  501  0.00000000000E+00  0.00000000000E+00 -0.10775004559E+04  0.10775004559E+04  0.50400001928E-02 0. -1.
    10030    2    1    2    0    0  0.00000000000E+00  0.00000000000E+00  0.74128942762E+03  0.28962903394E+04  0.27998192289E+04 0.  0.
        4    1    3    3  502    0  0.98564563949E+03 -0.56652323325E+03  0.12156753919E+04  0.16644260788E+04  0.12699999809E+01 0.  1.
       -4    1    3    3    0  502 -0.98564563949E+03  0.56652323325E+03 -0.47438596427E+03  0.12318642606E+04  0.12699999809E+01 0. -1.
</event>
<event>
 5   0  0.1374680E-07  0.2798911E+04  0.7818609E-02  0.8303606E-01
        1   -1    0    0  501    0  0.00000000000E+00  0.00000000000E+00  0.11442941476E+04  0.11442941476E+04  0.50400001928E-02 0.  1.
       -1   -1    0    0    0  501  0.00000000000E+00  0.00000000000E+00 -0.17115146709E+04  0.17115146709E+04  0.50400001928E-02 0. -1.
    10030    2    1    2    0    0  0.00000000000E+00  0.00000000000E+00 -0.56722052324E+03  0.28558088185E+04  0.27989113751E+04 0.  0.
        3    1    3    3  502    0 -0.94596085182E+03  0.10182771994E+04 -0.11674421847E+03  0.13947614889E+04  0.10100000352E+00 0.  1.
       -3    1    3    3    0  502  0.94596085182E+03 -0.10182771994E+04 -0.45047630477E+03  0.14610473296E+04  0.10100000352E+00 0. -1.
</event>
<event>
 5   0  0.3406920E-07  0.2798759E+04  0.7818609E-02  0.8303654E-01
       -2   -1    0    0    0  501  0.00000000000E+00  0.00000000000E+00  0.96568133438E+03  0.96568133438E+03  0.25500000920E-02 0.  1.
        2   -1    0    0  501    0  0.00000000000E+00  0.00000000000E+00 -0.20278562147E+04  0.20278562147E+04  0.25500000920E-02 0. -1.
    10030    2    1    2    0    0  0.00000000000E+00  0.00000000000E+00 -0.10621748803E+04  0.29935375491E+04  0.27987589359E+04 0.  0.
        4    1    3    3  502    0 -0.99180396064E+03  0.76283069143E+02 -0.15838462949E+04  0.18703114451E+04  0.12699999809E+01 0. -1.
       -4    1    3    3    0  502  0.99180396064E+03 -0.76283069143E+02  0.52167141457E+03  0.11232261040E+04  0.12699999809E+01 0.  1.
</event>
<event>
 5   0  0.1366235E-07  0.2798196E+04  0.7818609E-02  0.8303829E-01
        1   -1    0    0  501    0  0.00000000000E+00  0.00000000000E+00  0.11703156373E+04  0.11703156373E+04  0.50400001928E-02 0. -1.
       -1   -1    0    0    0  501  0.00000000000E+00  0.00000000000E+00 -0.16726041220E+04  0.16726041221E+04  0.50400001928E-02 0.  1.
    10030    2    1    2    0    0  0.00000000000E+00  0.00000000000E+00 -0.50228848477E+03  0.28429197593E+04  0.27981956751E+04 0.  0.
        2    1    3    3  502    0 -0.73549294263E+03 -0.49330682090E+03 -0.13515873656E+04  0.16158867210E+04  0.25500000920E-02 0.  1.
       -2    1    3    3    0  502  0.73549294263E+03  0.49330682090E+03  0.84929888083E+03  0.12270330383E+04  0.25500000920E-02 0. -1.
</event>
<event>
 5   0  0.1374680E-07  0.2799467E+04  0.7818609E-02  0.8303434E-01
       -1   -1    0    0    0  501  0.00000000000E+00  0.00000000000E+00  0.14246393761E+04  0.14246393761E+04  0.50400001928E-02 0.  1.
        1   -1    0    0  501    0  0.00000000000E+00  0.00000000000E+00 -0.13752633506E+04  0.13752633506E+04  0.50400001928E-02 0. -1.
    10030    2    1    2    0    0  0.00000000000E+00  0.00000000000E+00  0.49376025490E+02  0.27999027267E+04  0.27994673221E+04 0.  0.
        3    1    3    3  502    0 -0.69012805104E+03 -0.27430997374E+03  0.12113512125E+04  0.14208780591E+04  0.10100000352E+00 0.  1.
       -3    1    3    3    0  502  0.69012805104E+03  0.27430997374E+03 -0.11619751870E+04  0.13790246677E+04  0.10100000352E+00 0. -1.
</event>
<event>
 5   0  0.3557628E-07  0.2799738E+04  0.7818609E-02  0.8303350E-01
        2   -1    0    0  501    0  0.00000000000E+00  0.00000000000E+00  0.23007913075E+04  0.23007913075E+04  0.25500000920E-02 0. -1.
       -2   -1    0    0    0  501  0.00000000000E+00  0.00000000000E+00 -0.85172157721E+03  0.85172157721E+03  0.25500000920E-02 0.  1.
    10030    2    1    2    0    0  0.00000000000E+00  0.00000000000E+00  0.14490697303E+04  0.31525128847E+04  0.27997382744E+04 0.  0.
        5    1    3    3  502    0  0.59690961453E+03 -0.12082541950E+04  0.29809008639E+03  0.13802387755E+04  0.46999998093E+01 0.  1.
       -5    1    3    3    0  502 -0.59690961453E+03  0.12082541950E+04  0.11509796439E+04  0.17722741093E+04  0.46999998093E+01 0. -1.
</event>
<event>
 5   0  0.1366235E-07  0.2804948E+04  0.7818609E-02  0.8301734E-01
       -1   -1    0    0    0  501  0.00000000000E+00  0.00000000000E+00  0.94466980073E+03  0.94466980074E+03  0.50400001928E-02 0.  1.
        1   -1    0    0  501    0  0.00000000000E+00  0.00000000000E+00 -0.20821390090E+04  0.20821390090E+04  0.50400001928E-02 0. -1.
    10030    2    1    2    0    0  0.00000000000E+00  0.00000000000E+00 -0.11374692083E+04  0.30268088097E+04  0.28049483722E+04 0.  0.
        2    1    3    3  502    0  0.48108719446E+03  0.61771029033E+03  0.68688212235E+03  0.10415459382E+04  0.25500000920E-02 0.  1.
       -2    1    3    3    0  502 -0.48108719446E+03 -0.61771029033E+03 -0.18243513306E+04  0.19852628715E+04  0.25500000920E-02 0. -1.
</event>
<event>
 5   0  0.1361741E-07  0.2800752E+04  0.7818609E-02  0.8303035E-01
        1   -1    0    0  501    0  0.00000000000E+00  0.00000000000E+00  0.14991691571E+04  0.14991691571E+04  0.50400001928E-02 0. -1.
       -1   -1    0    0    0  501  0.00000000000E+00  0.00000000000E+00 -0.13080932263E+04  0.13080932263E+04  0.50400001928E-02 0.  1.
    10030    2    1    2    0    0  0.00000000000E+00  0.00000000000E+00  0.19107593083E+03  0.28072623835E+04  0.28007520558E+04 0.  0.
        5    1    3    3  502    0 -0.10962985167E+04 -0.53703858008E+02 -0.77612503804E+03  0.13443015684E+04  0.46999998093E+01 0.  1.
       -5    1    3    3    0  502  0.10962985167E+04  0.53703858008E+02  0.96720096887E+03  0.14629608150E+04  0.46999998093E+01 0. -1.
</event>
<event>
 5   0  0.1361741E-07  0.2801244E+04  0.7818609E-02  0.8302882E-01
       -1   -1    0    0    0  501  0.00000000000E+00  0.00000000000E+00  0.12400212972E+04  0.12400212972E+04  0.50400001928E-02 0.  1.
        1   -1    0    0  501    0  0.00000000000E+00  0.00000000000E+00 -0.15820224471E+04  0.15820224471E+04  0.50400001928E-02 0. -1.
    10030    2    1    2    0    0  0.00000000000E+00  0.00000000000E+00 -0.34200114989E+03  0.28220437443E+04  0.28012436717E+04 0.  0.
        5    1    3    3  502    0 -0.12196278297E+03  0.31581035295E+03  0.11981746667E+04  0.12450926558E+04  0.46999998093E+01 0.  1.
       -5    1    3    3    0  502  0.12196278297E+03 -0.31581035295E+03 -0.15401758166E+04  0.15769510885E+04  0.46999998093E+01 0. -1.
</event>
<event>
 5   0  0.3571498E-07  0.2799725E+04  0.7818609E-02  0.8303354E-01
       -2   -1    0    0    0  501  0.00000000000E+00  0.00000000000E+00  0.84901364889E+03  0.84901364889E+03  0.25500000920E-02 0. -1.
        2   -1    0    0  501    0  0.00000000000E+00  0.00000000000E+00 -0.23081081581E+04  0.23081081581E+04  0.25500000920E-02 0.  1.
    10030    2    1    2    0    0  0.00000000000E+00  0.00000000000E+00 -0.14590945092E+04  0.31571218070E+04  0.27997252218E+04 0.  0.
        2    1    3    3  502    0 -0.97489332720E+03  0.43927017516E+03  0.28924322189E+03  0.11077169890E+04  0.25500000920E-02 0. -1.
       -2    1    3    3    0  502  0.97489332720E+03 -0.43927017516E+03 -0.17483377311E+04  0.20494048180E+04  0.25500000920E-02 0.  1.
</event>
<event>
 5   0  0.3571498E-07  0.2799930E+04  0.7818609E-02  0.8303290E-01
        2   -1    0    0  501    0  0.00000000000E+00  0.00000000000E+00  0.22169255868E+04  0.22169255868E+04  0.25500000920E-02 0. -1.
       -2   -1    0    0    0  501  0.00000000000E+00  0.00000000000E+00 -0.88406315589E+03  0.88406315590E+03  0.25500000920E-02 0.  1.
    10030    2    1    2    0    0  0.00000000000E+00  0.00000000000E+00  0.13328624309E+04  0.31009887427E+04  0.27999301639E+04 0.  0.
        2    1    3    3  502    0 -0.41691578049E+03  0.62365621535E+02 -0.81209993197E+03  0.91499428320E+03  0.25500000920E-02 0.  1.
       -2    1    3    3    0  502  0.41691578049E+03 -0.62365621535E+02  0.21449623629E+04  0.21859944595E+04  0.25500000920E-02 0. -1.
</event>
<event>
 5   0  0.3502141E-07  0.2798661E+04  0.7818609E-02  0.8303684E-01
       -2   -1    0    0    0  501  0.00000000000E+00  0.00000000000E+00  0.85415342053E+03  0.85415342054E+03  0.25500000920E-02 0.  1.
        2   -1    0    0  501    0  0.00000000000E+00  0.00000000000E+00 -0.22924752151E+04  0.22924752151E+04  0.25500000920E-02 0. -1.
    10030    2    1    2    0    0  0.00000000000E+00  0.00000000000E+00 -0.14383217946E+04  0.31466286357E+04  0.27986607844E+04 0.  0.
        3    1    3    3  502    0  0.38664017966E+03 -0.43365475062E+03  0.71213774721E+03  0.91906868757E+03  0.10100000352E+00 0.  1.
       -3    1    3    3    0  502 -0.38664017966E+03  0.43365475062E+03 -0.21504595418E+04  0.22275599481E+04  0.10100000352E+00 0. -1.
</event>
<event>
 5   0  0.3406920E-07  0.2799663E+04  0.7818609E-02  0.8303373E-01
       -2   -1    0    0    0  501  0.00000000000E+00  0.00000000000E+00  0.88641246998E+03  0.88641246998E+03  0.25500000920E-02 0. -1.
        2   -1    0    0  501    0  0.00000000000E+00  0.00000000000E+00 -0.22106272514E+04  0.22106272514E+04  0.25500000920E-02 0.  1.
    10030    2    1    2    0    0  0.00000000000E+00  0.00000000000E+00 -0.13242147814E+04  0.30970397214E+04  0.27996625240E+04 0.  0.
        4    1    3    3  502    0 -0.93701330125E+03 -0.10225561928E+04 -0.45247713482E+03  0.14588873379E+04  0.12699999809E+01 0. -1.
       -4    1    3    3    0  502  0.93701330125E+03  0.10225561928E+04 -0.87173764658E+03  0.16381523835E+04  0.12699999809E+01 0.  1.
</event>
<event>
 5   0  0.1346049E-07  0.2798081E+04  0.7818609E-02  0.8303864E-01
       -1   -1    0    0    0  501  0.00000000000E+00  0.00000000000E+00  0.83676553270E+03  0.83676553272E+03  0.50400001928E-02 0.  1.
        1   -1    0    0  501    0  0.00000000000E+00  0.00000000000E+00 -0.23391431129E+04  0.23391431129E+04  0.50400001928E-02 0. -1.
    10030    2    1    2    0    0  0.00000000000E+00  0.00000000000E+00 -0.15023775802E+04  0.31759086456E+04  0.27980810088E+04 0.  0.
        1    1    3    3  502    0  0.65852787950E+03 -0.11377459531E+04 -0.20780699176E+03  0.13309051686E+04  0.50400001928E-02 0.  1.
       -1    1    3    3    0  502 -0.65852787950E+03  0.11377459531E+04 -0.12945705884E+04  0.18450034771E+04  0.50400001928E-02 0. -1.
</event>
<event>
 5   0  0.3406920E-07  0.2800026E+04  0.7818609E-02  0.8303260E-01
        2   -1    0    0  501    0  0.00000000000E+00  0.00000000000E+00  0.21096375496E+04  0.21096375496E+04  0.25500000920E-02 0. -1.
       -2   -1    0    0    0  501  0.00000000000E+00  0.00000000000E+00 -0.92908694991E+03  0.92908694991E+03  0.25500000920E-02 0.  1.
    10030    2    1    2    0    0  0.00000000000E+00  0.00000000000E+00  0.11805505997E+04  0.30387244995E+04  0.28000262259E+04 0.  0.
        4    1    3    3  502    0 -0.23715457911E+03  0.11401007192E+04 -0.25312636178E+03  0.11916990024E+04  0.12699999809E+01 0.  1.
       -4    1    3    3    0  502  0.23715457911E+03 -0.11401007192E+04  0.14336769615E+04  0.18470254972E+04  0.12699999809E+01 0. -1.
</event>
<event>
 5   0  0.1357902E-07  0.2799706E+04  0.7818609E-02  0.8303360E-01
       -1   -1    0    0    0  501  0.00000000000E+00  0.00000000000E+00  0.13624202153E+04  0.13624202153E+04  0.50400001928E-02 0. -1.
        1   -1    0    0  501    0  0.00000000000E+00  0.00000000000E+00 -0.14383142625E+04  0.14383142625E+04  0.50400001928E-02 0.  1.
    10030    2    1    2    0    0  0.00000000000E+00  0.00000000000E+00 -0.75894047187E+02  0.28007344777E+04  0.27997060039E+04 0.  0.
        4    1    3    3  502    0 -0.35698489851E+03  0.10591476873E+04 -0.88108210605E+03  0.14232144364E+04  0.12699999809E+01 0.  1.
       -4    1    3    3    0  502  0.35698489851E+03 -0.10591476873E+04  0.80518805886E+03  0.13775200414E+04  0.12699999809E+01 0. -1.
</event>
<event>
 5   0  0.3522569E-07  0.2803315E+04  0.7818609E-02  0.8302240E-01
       -2   -1    0    0    0  501  0.00000000000E+00  0.00000000000E+00  0.10862508837E+04  0.10862508837E+04  0.25500000920E-02 0.  1.
        2   -1    0    0  501    0  0.00000000000E+00  0.00000000000E+00 -0.18086469095E+04  0.18086469095E+04  0.25500000920E-02 0. -1.
    10030    2    1    2    0    0  0.00000000000E+00  0.00000000000E+00 -0.72239602584E+03  0.28948977932E+04  0.28033153970E+04 0.  0.
        1    1    3    3  502    0 -0.71137944269E+03  0.64894414861E+03  0.69063288573E+03  0.11849738404E+04  0.50400001928E-02 0.  1.
       -1    1    3    3    0  502  0.71137944269E+03 -0.64894414861E+03 -0.14130289116E+04  0.17099239528E+04  0.50400001928E-02 0. -1.
</event>
<event>
 5   0  0.1374680E-07  0.2800246E+04  0.7818609E-02  0.8303192E-01
       -1   -1    0    0    0  501  0.00000000000E+00  0.00000000000E+00  0.12723746738E+04  0.12723746738E+04  0.50400001928E-02 0. -1.
        1   -1    0    0  501    0  0.00000000000E+00  0.00000000000E+00 -0.15406973078E+04  0.15406973078E+04  0.50400001928E-02 0.  1.
    10030    2    1    2    0    0  0.00000000000E+00  0.00000000000E+00 -0.26832263399E+03  0.28130719817E+04  0.28002458710E+04 0.  0.
        3    1    3    3  502    0  0.12188996004E+04 -0.47258969387E+03  0.36942006360E+03  0.13585022813E+04  0.10100000352E+00 0. -1.
       -3    1    3    3    0  502 -0.12188996004E+04  0.47258969387E+03 -0.63774269759E+03  0.14545697004E+04  0.10100000352E+00 0.  1.
</event>
<event>
 5   0  0.3502141E-07  0.2798003E+04  0.7818609E-02  0.8303888E-01
       -2   -1    0    0    0  501  0.00000000000E+00  0.00000000000E+00  0.73125053336E+03  0.73125053337E+03  0.25500000920E-02 0. -1.
        2   -1    0    0  501    0  0.00000000000E+00  0.00000000000E+00 -0.26765187270E+04  0.26765187270E+04  0.25500000920E-02 0.  1.
    10030    2    1    2    0    0  0.00000000000E+00  0.00000000000E+00 -0.19452681936E+04  0.34077692604E+04  0.27980033929E+04 0.  0.
        3    1    3    3  502    0  0.11325521912E+04  0.63067983066E+03 -0.33188977909E+03  0.13381264329E+04  0.10100000352E+00 0. -1.
       -3    1    3    3    0  502 -0.11325521912E+04 -0.63067983066E+03 -0.16133784146E+04  0.20696428275E+04  0.10100000352E+00 0.  1.
</event>
<event>
 5   0  0.1361741E-07  0.2794961E+04  0.7818609E-02  0.8304835E-01
       -1   -1    0    0    0  501  0.00000000000E+00  0.00000000000E+00  0.14934609878E+04  0.14934609878E+04  0.50400001928E-02 0. -1.
        1   -1    0    0  501    0  0.00000000000E+00  0.00000000000E+00 -0.13076682701E+04  0.13076682701E+04  0.50400001928E-02 0.  1.
    10030    2    1    2    0    0  0.00000000000E+00  0.00000000000E+00  0.18579271768E+03  0.28011292580E+04  0.27949608559E+04 0.  0.
        5    1    3    3  502    0  0.52381028921E+03 -0.90953170810E+03  0.10175941832E+04  0.14618977936E+04  0.46999998093E+01 0. -1.
       -5    1    3    3    0  502 -0.52381028921E+03  0.90953170810E+03 -0.83180146556E+03  0.13392314644E+04  0.46999998093E+01 0.  1.
</event>
<event>
 5   0  0.3522569E-07  0.2800181E+04  0.7818609E-02  0.8303212E-01
       -2   -1    0    0    0  501  0.00000000000E+00  0.00000000000E+00  0.16063904130E+04  0.16063904130E+04  0.25500000920E-02 0. -1.
        2   -1    0    0  501    0  0.00000000000E+00  0.00000000000E+00 -0.12202843001E+04  0.12202843001E+04  0.25500000920E-02 0.  1.
    10030    2    1    2    0    0  0.00000000000E+00  0.00000000000E+00  0.38610611290E+03  0.28266747130E+04  0.28001807089E+04 0.  0.
        1    1    3    3  502    0 -0.10129619169E+04 -0.55659338791E+03 -0.60459081759E+03  0.13043841847E+04  0.50400001928E-02 0.  1.
       -1    1    3    3    0  502  0.10129619169E+04  0.55659338791E+03  0.99069693049E+03  0.15222905283E+04  0.50400001928E-02 0. -1.
</event>
<event>
 5   0  0.3502141E-07  0.2797583E+04  0.7818609E-02  0.8304019E-01
       -2   -1    0    0    0  501  0.00000000000E+00  0.00000000000E+00  0.15975941739E+04  0.15975941739E+04  0.25500000920E-02 0.  1.
        2   -1    0    0  501    0  0.00000000000E+00  0.00000000000E+00 -0.12247279614E+04  0.12247279614E+04  0.25500000920E-02 0. -1.
    10030    2    1    2    0    0  0.00000000000E+00  0.00000000000E+00  0.37286621245E+03  0.28223221353E+04  0.27975834256E+04 0.  0.
        3    1    3    3  502    0  0.12090500574E+04  0.55931365556E+03  0.61680179073E+03  0.14680184828E+04  0.10100000352E+00 0.  1.
       -3    1    3    3    0  502 -0.12090500574E+04 -0.55931365556E+03 -0.24393557829E+03  0.13543036525E+04  0.10100000352E+00 0. -1.
</event>
<event>
 5   0  0.1173363E-07  0.2800417E+04  0.7818609E-02  0.8303139E-01
        3   -1    0    0  501    0  0.00000000000E+00  0.00000000000E+00  0.71168806162E+03  0.71168806879E+03  0.10100000352E+00 0.  1.
       -3   -1    0    0    0  501  0.00000000000E+00  0.00000000000E+00 -0.27548350767E+04  0.27548350786E+04  0.10100000352E+00 0. -1.
    10030    2    1    2    0    0  0.00000000000E+00  0.00000000000E+00 -0.20431470151E+04  0.34665231473E+04  0.28004165772E+04 0.  0.
        1    1    3    3  502    0  0.46072803343E+03 -0.79965391443E+03  0.28192670296E+03  0.96498671987E+03  0.50400001928E-02 0.  1.
       -1    1    3    3    0  502 -0.46072803343E+03  0.79965391443E+03 -0.23250737180E+04  0.25015364275E+04  0.50400001928E-02 0. -1.
</event>
<event>
 5   0  0.1357902E-07  0.2800472E+04  0.7818609E-02  0.8303122E-01
       -1   -1    0    0    0  501  0.00000000000E+00  0.00000000000E+00  0.93654902836E+03  0.93654902838E+03  0.50400001928E-02 0.  1.
        1   -1    0    0  501    0  0.00000000000E+00  0.00000000000E+00 -0.20934944537E+04  0.20934944537E+04  0.50400001928E-02 0. -1.
    10030    2    1    2    0    0  0.00000000000E+00  0.00000000000E+00 -0.11569454254E+04  0.30300434821E+04  0.28004715293E+04 0.  0.
        4    1    3    3  502    0  0.10232085429E+04 -0.12113696728E+03 -0.16043714049E+04  0.19067351953E+04  0.12699999809E+01 0. -1.
       -4    1    3    3    0  502 -0.10232085429E+04  0.12113696728E+03  0.44742597953E+03  0.11233082868E+04  0.12699999809E+01 0.  1.
</event>
<event>
 5   0  0.1366235E-07  0.2799503E+04  0.7818609E-02  0.8303423E-01
        1   -1    0    0  501    0  0.00000000000E+00  0.00000000000E+00  0.10905297842E+04  0.10905297842E+04  0.50400001928E-02 0. -1.
       -1   -1    0    0    0  501  0.00000000000E+00  0.00000000000E+00 -0.17966536564E+04  0.17966536564E+04  0.50400001928E-02 0.  1.
    10030    2    1    2    0    0  0.00000000000E+00  0.00000000000E+00 -0.70612387221E+03  0.28871834406E+04  0.27995030446E+04 0.  0.
        2    1    3    3  502    0  0.91231823768E+03  0.44160575215E+03  0.64255672859E+03  0.12000913951E+04  0.25500000920E-02 0. -1.
       -2    1    3    3    0  502 -0.91231823768E+03 -0.44160575215E+03 -0.13486806008E+04  0.16870920455E+04  0.25500000920E-02 0.  1.
</event>
<event>
 5   0  0.3406920E-07  0.2799419E+04  0.7818609E-02  0.8303449E-01
       -2   -1    0    0    0  501  0.00000000000E+00  0.00000000000E+00  0.13858818581E+04  0.13858818581E+04  0.25500000920E-02 0. -1.
        2   -1    0    0  501    0  0.00000000000E+00  0.00000000000E+00 -0.14136752867E+04  0.14136752867E+04  0.25500000920E-02 0.  1.
    10030    2    1    2    0    0  0.00000000000E+00  0.00000000000E+00 -0.27793428573E+02  0.27995571449E+04  0.27994191777E+04 0.  0.
        4    1    3    3  502    0  0.90449984316E+03  0.53735464649E+03  0.90935804541E+03  0.13906126887E+04  0.12699999809E+01 0. -1.
       -4    1    3    3    0  502 -0.90449984316E+03 -0.53735464649E+03 -0.93715147398E+03  0.14089444561E+04  0.12699999809E+01 0.  1.
</event>
<event>
 5   0  0.3522569E-07  0.2799992E+04  0.7818609E-02  0.8303271E-01
        2   -1    0    0  501    0  0.00000000000E+00  0.00000000000E+00  0.24349119080E+04  0.24349119080E+04  0.25500000920E-02 0. -1.
       -2   -1    0    0    0  501  0.00000000000E+00  0.00000000000E+00 -0.80495291666E+03  0.80495291666E+03  0.25500000920E-02 0.  1.
    10030    2    1    2    0    0  0.00000000000E+00  0.00000000000E+00  0.16299589913E+04  0.32398648246E+04  0.27999924587E+04 0.  0.
        1    1    3    3  502    0  0.38186899567E+01 -0.26945983220E+03 -0.77465808875E+03  0.82019408560E+03  0.50400001928E-02 0.  1.
       -1    1    3    3    0  502 -0.38186899567E+01  0.26945983220E+03  0.24046170801E+04  0.24196707390E+04  0.50400001928E-02 0. -1.
</event>
<event>
 5   0  0.1346049E-07  0.2798261E+04  0.7818609E-02  0.8303809E-01
        1   -1    0    0  501    0  0.00000000000E+00  0.00000000000E+00  0.20877862642E+04  0.20877862642E+04  0.50400001928E-02 0.  1.
       -1   -1    0    0    0  501  0.00000000000E+00  0.00000000000E+00 -0.93762747107E+03  0.93762747109E+03  0.50400001928E-02 0. -1.
    10030    2    1    2    0    0  0.00000000000E+00  0.00000000000E+00  0.11501587932E+04  0.30254137353E+04  0.27982607135E+04 0.  0.
        1    1    3    3  502    0 -0.13047158264E+04  0.48622337878E+03  0.42656338920E+03  0.14562461629E+04  0.50400001928E-02 0.  1.
       -1    1    3    3    0  502  0.13047158264E+04 -0.48622337878E+03  0.72359540396E+03  0.15691675725E+04  0.50400001928E-02 0. -1.
</event>
<event>
 5   0  0.3557628E-07  0.2800980E+04  0.7818609E-02  0.8302964E-01
        2   -1    0    0  501    0  0.00000000000E+00  0.00000000000E+00  0.77754898687E+03  0.77754898687E+03  0.25500000920E-02 0.  1.
       -2   -1    0    0    0  501  0.00000000000E+00  0.00000000000E+00 -0.25225061634E+04  0.25225061634E+04  0.25500000920E-02 0. -1.
    10030    2    1    2    0    0  0.00000000000E+00  0.00000000000E+00 -0.17449571765E+04  0.33000551502E+04  0.28009799083E+04 0.  0.
        5    1    3    3  502    0  0.44857029619E+03  0.50209589749E+03  0.57434916687E+03  0.88499415613E+03  0.46999998093E+01 0.  1.
       -5    1    3    3    0  502 -0.44857029619E+03 -0.50209589749E+03 -0.23193063434E+04  0.24150609941E+04  0.46999998093E+01 0. -1.
</event>
<event>
 5   0  0.1357902E-07  0.2799498E+04  0.7818609E-02  0.8303424E-01
        1   -1    0    0  501    0  0.00000000000E+00  0.00000000000E+00  0.17013244994E+04  0.17013244994E+04  0.50400001928E-02 0. -1.
       -1   -1    0    0    0  501  0.00000000000E+00  0.00000000000E+00 -0.11516308990E+04  0.11516308990E+04  0.50400001928E-02 0.  1.
    10030    2    1    2    0    0  0.00000000000E+00  0.00000000000E+00  0.54969360036E+03  0.28529553984E+04  0.27994984285E+04 0.  0.
        4    1    3    3  502    0 -0.32058978094E+03 -0.12192331463E+04 -0.34503537320E+03  0.13070418104E+04  0.12699999809E+01 0.  1.
       -4    1    3    3    0  502  0.32058978094E+03  0.12192331463E+04  0.89472897356E+03  0.15459135880E+04  0.12699999809E+01 0. -1.
</event>
<event>
 5   0  0.1374680E-07  0.2798531E+04  0.7818609E-02  0.8303724E-01
       -1   -1    0    0    0  501  0.00000000000E+00  0.00000000000E+00  0.20597054423E+04  0.20597054423E+04  0.50400001928E-02 0. -1.
        1   -1    0    0  501    0  0.00000000000E+00  0.00000000000E+00 -0.95059440688E+03  0.95059440689E+03  0.50400001928E-02 0.  1.
    10030    2    1    2    0    0  0.00000000000E+00  0.00000000000E+00  0.11091110354E+04  0.30102998492E+04  0.27985313815E+04 0.  0.
        3    1    3    3  502    0 -0.37568340789E+03  0.12409561190E+04  0.11205205047E+04  0.17136733422E+04  0.10100000352E+00 0. -1.
       -3    1    3    3    0  502  0.37568340789E+03 -0.12409561190E+04 -0.11409469264E+02  0.12966265069E+04  0.10100000352E+00 0.  1.
</event>
<event>
 5   0  0.1366235E-07  0.2801514E+04  0.7818609E-02  0.8302799E-01
       -1   -1    0    0    0  501  0.00000000000E+00  0.00000000000E+00  0.65014950783E+03  0.65014950785E+03  0.50400001928E-02 0. -1.
        1   -1    0    0  501    0  0.00000000000E+00  0.00000000000E+00 -0.30179515087E+04  0.30179515087E+04  0.50400001928E-02 0.  1.
    10030    2    1    2    0    0  0.00000000000E+00  0.00000000000E+00 -0.23678020009E+04  0.36681010166E+04  0.28015136538E+04 0.  0.
        2    1    3    3  502    0 -0.62279680373E+02 -0.49078414808E+03  0.53195450993E+03  0.72644575795E+03  0.25500000920E-02 0. -1.
       -2    1    3    3    0  502  0.62279680373E+02  0.49078414808E+03 -0.28997565108E+04  0.29416552587E+04  0.25500000920E-02 0.  1.
</event>
<event>
 5   0  0.3406920E-07  0.2800254E+04  0.7818609E-02  0.8303190E-01
        2   -1    0    0  501    0  0.00000000000E+00  0.00000000000E+00  0.17049935752E+04  0.17049935752E+04  0.25500000920E-02 0. -1.
       -2   -1    0    0    0  501  0.00000000000E+00  0.00000000000E+00 -0.11497726635E+04  0.11497726635E+04  0.25500000920E-02 0.  1.
    10030    2    1    2    0    0  0.00000000000E+00  0.00000000000E+00  0.55522091168E+03  0.28547662387E+04  0.28002535629E+04 0.  0.
        4    1    3    3  502    0 -0.10020298603E+04  0.93790156290E+03  0.55982097491E+03  0.14822699887E+04  0.12699999809E+01 0. -1.
       -4    1    3    3    0  502  0.10020298603E+04 -0.93790156290E+03 -0.46000632328E+01  0.13724962500E+04  0.12699999809E+01 0.  1.
</event>
<event>
 5   0  0.1346049E-07  0.2800125E+04  0.7818609E-02  0.8303230E-01
       -1   -1    0    0    0  501  0.00000000000E+00  0.00000000000E+00  0.74276673305E+03  0.74276673307E+03  0.50400001928E-02 0. -1.
        1   -1    0    0  501    0  0.00000000000E+00  0.00000000000E+00 -0.26390177893E+04  0.26390177894E+04  0.50400001928E-02 0.  1.
    10030    2    1    2    0    0  0.00000000000E+00  0.00000000000E+00 -0.18962510563E+04  0.33817845224E+04  0.28001247271E+04 0.  0.
        1    1    3    3  502    0  0.96257173992E+03  0.64580912212E+03 -0.18964490572E+04  0.22226409524E+04  0.50400001928E-02 0.  1.
       -1    1    3    3    0  502 -0.96257173992E+03 -0.64580912212E+03  0.19800089245E+00  0.11591435700E+04  0.50400001928E-02 0. -1.
</event>
<event>
 5   0  0.1374680E-07  0.2800536E+04  0.7818609E-02  0.8303102E-01
        1   -1    0    0  501    0  0.00000000000E+00  0.00000000000E+00  0.13696412217E+04  0.13696412217E+04  0.50400001928E-02 0. -1.
       -1   -1    0    0    0  501  0.00000000000E+00  0.00000000000E+00 -0.14315794158E+04  0.14315794158E+04  0.50400001928E-02 0.  1.
    10030    2    1    2    0    0  0.00000000000E+00  0.00000000000E+00 -0.61938194062E+02  0.28012206376E+04  0.28005357917E+04 0.  0.
        3    1    3    3  502    0 -0.52601107667E+03  0.62629174147E+03  0.11058919567E+04  0.13754730198E+04  0.10100000352E+00 0. -1.
       -3    1    3    3    0  502  0.52601107667E+03 -0.62629174147E+03 -0.11678301508E+04  0.14257476177E+04  0.10100000352E+00 0.  1.
</event>
<event>
 5   0  0.3571498E-07  0.2807545E+04  0.7818609E-02  0.8300930E-01
       -2   -1    0    0    0  501  0.00000000000E+00  0.00000000000E+00  0.95419186968E+03  0.95419186968E+03  0.25500000920E-02 0.  1.
        2   -1    0    0  501    0  0.00000000000E+00  0.00000000000E+00 -0.20651797148E+04  0.20651797148E+04  0.25500000920E-02 0. -1.
    10030    2    1    2    0    0  0.00000000000E+00  0.00000000000E+00 -0.11109878451E+04  0.30193715844E+04  0.28075453287E+04 0.  0.
        2    1    3    3  502    0 -0.90304463075E+03  0.95692654797E+03 -0.29315034766E+02  0.13160765155E+04  0.25500000920E-02 0.  1.
       -2    1    3    3    0  502  0.90304463075E+03 -0.95692654797E+03 -0.10816728103E+04  0.17032950689E+04  0.25500000920E-02 0. -1.
</event>
<event>
 5   0  0.3406920E-07  0.2799743E+04  0.7818609E-02  0.8303348E-01
       -2   -1    0    0    0  501  0.00000000000E+00  0.00000000000E+00  0.12375943410E+04  0.12375943410E+04  0.25500000920E-02 0. -1.
        2   -1    0    0  501    0  0.00000000000E+00  0.00000000000E+00 -0.15834265724E+04  0.15834265724E+04  0.25500000920E-02 0.  1.
    10030    2    1    2    0    0  0.00000000000E+00  0.00000000000E+00 -0.34583223142E+03  0.28210209134E+04  0.27997426778E+04 0.  0.
        4    1    3    3  502    0 -0.10425011312E+04  0.63729344207E+02  0.76624504704E+03  0.12953775986E+04  0.12699999809E+01 0. -1.
       -4    1    3    3    0  502  0.10425011312E+04 -0.63729344207E+02 -0.11120772785E+04  0.15256433148E+04  0.12699999809E+01 0.  1.
</event>
<event>
 5   0  0.1361741E-07  0.2799961E+04  0.7818609E-02  0.8303280E-01
        1   -1    0    0  501    0  0.00000000000E+00  0.00000000000E+00  0.14486754623E+04  0.14486754623E+04  0.50400001928E-02 0. -1.
       -1   -1    0    0    0  501  0.00000000000E+00  0.00000000000E+00 -0.13529226776E+04  0.13529226776E+04  0.50400001928E-02 0.  1.
    10030    2    1    2    0    0  0.00000000000E+00  0.00000000000E+00  0.95752784723E+02  0.28015981398E+04  0.27999613464E+04 0.  0.
        5    1    3    3  502    0  0.33931526413E+03  0.13257979223E+04  0.34308922963E+03  0.14108888294E+04  0.46999998093E+01 0. -1.
       -5    1    3    3    0  502 -0.33931526413E+03 -0.13257979223E+04 -0.24733644491E+03  0.13907093105E+04  0.46999998093E+01 0.  1.
</event>
<event>
 5   0  0.3406920E-07  0.2801482E+04  0.7818609E-02  0.8302808E-01
        2   -1    0    0  501    0  0.00000000000E+00  0.00000000000E+00  0.22935744730E+04  0.22935744730E+04  0.25500000920E-02 0.  1.
       -2   -1    0    0    0  501  0.00000000000E+00  0.00000000000E+00 -0.85546599126E+03  0.85546599126E+03  0.25500000920E-02 0. -1.
    10030    2    1    2    0    0  0.00000000000E+00  0.00000000000E+00  0.14381084817E+04  0.31490404642E+04  0.28014817223E+04 0.  0.
        4    1    3    3  502    0 -0.13825813280E+04  0.16168418444E+03  0.89464000560E+03  0.16547070003E+04  0.12699999809E+01 0. -1.
       -4    1    3    3    0  502  0.13825813280E+04 -0.16168418444E+03  0.54346847612E+03  0.14943334640E+04  0.12699999809E+01 0.  1.
</event>
<event>
 5   0  0.1366235E-07  0.2797887E+04  0.7818609E-02  0.8303925E-01
        1   -1    0    0  501    0  0.00000000000E+00  0.00000000000E+00  0.21726562184E+04  0.21726562184E+04  0.50400001928E-02 0. -1.
       -1   -1    0    0    0  501  0.00000000000E+00  0.00000000000E+00 -0.90076062254E+03  0.90076062256E+03  0.50400001928E-02 0.  1.
    10030    2    1    2    0    0  0.00000000000E+00  0.00000000000E+00  0.12718955959E+04  0.30734168410E+04  0.27978871799E+04 0.  0.
        2    1    3    3  502    0 -0.12651485042E+04  0.33352858901E+03  0.92005934537E+02  0.13116047993E+04  0.25500000920E-02 0.  1.
       -2    1    3    3    0  502  0.12651485042E+04 -0.33352858901E+03  0.11798896613E+04  0.17618120417E+04  0.25500000920E-02 0. -1.
</event>
<event>
 5   0  0.3557628E-07  0.2799753E+04  0.7818609E-02  0.8303345E-01
       -2   -1    0    0    0  501  0.00000000000E+00  0.00000000000E+00  0.11826043309E+04  0.11826043309E+04  0.25500000920E-02 0. -1.
        2   -1    0    0  501    0  0.00000000000E+00  0.00000000000E+00 -0.16570665606E+04  0.16570665606E+04  0.25500000920E-02 0.  1.
    10030    2    1    2    0    0  0.00000000000E+00  0.00000000000E+00 -0.47446222968E+03  0.28396708915E+04  0.27997529114E+04 0.  0.
        5    1    3    3  502    0 -0.92136823214E+03 -0.32921641332E+02 -0.13056391721E+04  0.15983488329E+04  0.46999998093E+01 0.  1.
       -5    1    3    3    0  502  0.92136823214E+03  0.32921641332E+02  0.83117694246E+03  0.12413220587E+04  0.46999998093E+01 0. -1.
</event>
<event>
 5   0  0.1357902E-07  0.2800495E+04  0.7818609E-02  0.8303115E-01
        1   -1    0    0  501    0  0.00000000000E+00  0.00000000000E+00  0.21948424751E+04  0.21948424751E+04  0.50400001928E-02 0.  1.
       -1   -1    0    0    0  501  0.00000000000E+00  0.00000000000E+00 -0.89331865127E+03  0.89331865129E+03  0.50400001928E-02 0. -1.
    10030    2    1    2    0    0  0.00000000000E+00  0.00000000000E+00  0.13015238238E+04  0.30881611264E+04  0.28004954702E+04 0.  0.
        4    1    3    3  502    0  0.86811053218E+02 -0.12954382276E+04  0.12290284540E+04  0.17877944273E+04  0.12699999809E+01 0.  1.
       -4    1    3    3    0  502 -0.86811053218E+02  0.12954382276E+04  0.72495369803E+02  0.13003666991E+04  0.12699999809E+01 0. -1.
</event>
<event>
 5   0  0.3502141E-07  0.2800347E+04  0.7818609E-02  0.8303161E-01
       -2   -1    0    0    0  501  0.00000000000E+00  0.00000000000E+00  0.14897836767E+04  0.14897836767E+04  0.25500000920E-02 0.  1.
        2   -1    0    0  501    0  0.00000000000E+00  0.00000000000E+00 -0.13159532620E+04  0.13159532620E+04  0.25500000920E-02 0. -1.
    10030    2    1    2    0    0  0.00000000000E+00  0.00000000000E+00  0.17383041471E+03  0.28057369387E+04  0.28003468993E+04 0.  0.
        3    1    3    3  502    0  0.75950987620E+03 -0.17643120939E+03  0.12521250569E+04  0.14750594537E+04  0.10100000352E+00 0.  1.
       -3    1    3    3    0  502 -0.75950987620E+03  0.17643120939E+03 -0.10782946422E+04  0.13306774850E+04  0.10100000352E+00 0. -1.
</event>
<event>
 5   0  0.1173363E-07  0.2796969E+04  0.7818609E-02  0.8304210E-01
        4   -1    0    0  501    0  0.00000000000E+00  0.00000000000E+00  0.10877583059E+04  0.10877590472E+04  0.12699999809E+01 0. -1.
       -4   -1    0    0    0  501  0.00000000000E+00  0.00000000000E+00 -0.17979701986E+04  0.17979706471E+04  0.12699999809E+01 0.  1.
    10030    2    1    2    0    0  0.00000000000E+00  0.00000000000E+00 -0.71021189275E+03  0.28857296944E+04  0.27969688837E+04 0.  0.
        5    1    3    3  502    0  0.73004640358E+03 -0.63252271361E+03  0.68826496588E+03  0.11860790395E+04  0.46999998093E+01 0. -1.
       -5    1    3    3    0  502 -0.73004640358E+03  0.63252271361E+03 -0.13984768586E+04  0.16996506549E+04  0.46999998093E+01 0.  1.
</event>
<event>
 5   0  0.3571498E-07  0.2799905E+04  0.7818609E-02  0.8303298E-01
       -2   -1    0    0    0  501  0.00000000000E+00  0.00000000000E+00  0.12111950848E+04  0.12111950848E+04  0.25500000920E-02 0.  1.
        2   -1    0    0  501    0  0.00000000000E+00  0.00000000000E+00 -0.16181266644E+04  0.16181266644E+04  0.25500000920E-02 0. -1.
    10030    2    1    2    0    0  0.00000000000E+00  0.00000000000E+00 -0.40693157968E+03  0.28293217492E+04  0.27999050430E+04 0.  0.
        2    1    3    3  502    0 -0.83610222287E+03 -0.59865180488E+03 -0.11634022012E+04  0.15527252147E+04  0.25500000920E-02 0. -1.
       -2    1    3    3    0  502  0.83610222287E+03  0.59865180488E+03  0.75647062154E+03  0.12765965345E+04  0.25500000920E-02 0.  1.
</event>
<event>
 5   0  0.1173363E-07  0.2802434E+04  0.7818609E-02  0.8302513E-01
        3   -1    0    0  501    0  0.00000000000E+00  0.00000000000E+00  0.13313130202E+04  0.13313130240E+04  0.10100000352E+00 0.  1.
       -3   -1    0    0    0  501  0.00000000000E+00  0.00000000000E+00 -0.14747914012E+04  0.14747914046E+04  0.10100000352E+00 0. -1.
    10030    2    1    2    0    0  0.00000000000E+00  0.00000000000E+00 -0.14347838101E+03  0.28061044287E+04  0.28024339455E+04 0.  0.
        5    1    3    3  502    0  0.10980773953E+04  0.71217982242E+03 -0.57280728400E+03  0.14286722298E+04  0.46999998093E+01 0. -1.
       -5    1    3    3    0  502 -0.10980773953E+04 -0.71217982242E+03  0.42932890299E+03  0.13774321989E+04  0.46999998093E+01 0.  1.
</event>
<event>
 5   0  0.3406920E-07  0.2793226E+04  0.7818609E-02  0.8305374E-01
        2   -1    0    0  501    0  0.00000000000E+00  0.00000000000E+00  0.16830105833E+04  0.16830105833E+04  0.25500000920E-02 0. -1.
       -2   -1    0    0    0  501  0.00000000000E+00  0.00000000000E+00 -0.11589516322E+04  0.11589516322E+04  0.25500000920E-02 0.  1.
    10030    2    1    2    0    0  0.00000000000E+00  0.00000000000E+00  0.52405895110E+03  0.28419622155E+04  0.27932259934E+04 0.  0.
        4    1    3    3  502    0  0.91025570514E+03  0.10171766603E+03  0.13347566703E+04  0.16187924247E+04  0.12699999809E+01 0. -1.
       -4    1    3    3    0  502 -0.91025570514E+03 -0.10171766603E+03 -0.81069771923E+03  0.12231697908E+04  0.12699999809E+01 0.  1.
</event>
<event>
 5   0  0.3557628E-07  0.2801608E+04  0.7818609E-02  0.8302769E-01
       -2   -1    0    0    0  501  0.00000000000E+00  0.00000000000E+00  0.90685601183E+03  0.90685601183E+03  0.25500000920E-02 0.  1.
        2   -1    0    0  501    0  0.00000000000E+00  0.00000000000E+00 -0.21637959984E+04  0.21637959984E+04  0.25500000920E-02 0. -1.
    10030    2    1    2    0    0  0.00000000000E+00  0.00000000000E+00 -0.12569399865E+04  0.30706520102E+04  0.28016076881E+04 0.  0.
        5    1    3    3  502    0  0.29644609841E+03 -0.15166725209E+02  0.87198116467E+03  0.92113167374E+03  0.46999998093E+01 0.  1.
       -5    1    3    3    0  502 -0.29644609841E+03  0.15166725209E+02 -0.21289211512E+04  0.21495203365E+04  0.46999998093E+01 0. -1.
</event>
<event>
 5   0  0.1357902E-07  0.2799606E+04  0.7818609E-02  0.8303391E-01
        1   -1    0    0  501    0  0.00000000000E+00  0.00000000000E+00  0.22474280511E+04  0.22474280511E+04  0.50400001928E-02 0.  1.
       -1   -1    0    0    0  501  0.00000000000E+00  0.00000000000E+00 -0.87186227810E+03  0.87186227811E+03  0.50400001928E-02 0. -1.
    10030    2    1    2    0    0  0.00000000000E+00  0.00000000000E+00  0.13755657730E+04  0.31192903292E+04  0.27996055011E+04 0.  0.
        4    1    3    3  502    0 -0.41414456398E+03  0.18506109271E+03  0.21632668095E+04  0.22103140568E+04  0.12699999809E+01 0.  1.
       -4    1    3    3    0  502  0.41414456398E+03 -0.18506109271E+03 -0.78770103651E+03  0.90897627236E+03  0.12699999809E+01 0. -1.
</event>
<event>
 5   0  0.1366235E-07  0.2797874E+04  0.7818609E-02  0.8303929E-01
       -1   -1    0    0    0  501  0.00000000000E+00  0.00000000000E+00  0.11282601750E+04  0.11282601751E+04  0.50400001928E-02 0.  1.
        1   -1    0    0  501    0  0.00000000000E+00  0.00000000000E+00 -0.17345508602E+04  0.17345508603E+04  0.50400001928E-02 0. -1.
    10030    2    1    2    0    0  0.00000000000E+00  0.00000000000E+00 -0.60629068521E+03  0.28628110353E+04  0.27978739480E+04 0.  0.
        2    1    3    3  502    0 -0.13488137318E+04 -0.30768248932E+03 -0.90825907639E+02  0.13864401692E+04  0.25500000920E-02 0. -1.
       -2    1    3    3    0  502  0.13488137318E+04  0.30768248932E+03 -0.51546477757E+03  0.14763708661E+04  0.25500000920E-02 0.  1.
</event>
<event>
 5   0  0.3557628E-07  0.2800072E+04  0.7818609E-02  0.8303246E-01
        2   -1    0    0  501    0  0.00000000000E+00  0.00000000000E+00  0.14854639259E+04  0.14854639259E+04  0.25500000920E-02 0.  1.
       -2   -1    0    0    0  501  0.00000000000E+00  0.00000000000E+00 -0.13195208709E+04  0.13195208709E+04  0.25500000920E-02 0. -1.
    10030    2    1    2    0    0  0.00000000000E+00  0.00000000000E+00  0.16594305498E+03  0.28049847968E+04  0.28000718942E+04 0.  0.
        5    1    3    3  502    0  0.31369841779E+03 -0.13540743148E+04  0.25105930355E+03  0.14124364805E+04  0.46999998093E+01 0. -1.
       -5    1    3    3    0  502 -0.31369841779E+03  0.13540743148E+04 -0.85116248571E+02  0.13925483163E+04  0.46999998093E+01 0.  1.
</event>
<event>
 5   0  0.1374680E-07  0.2799630E+04  0.7818609E-02  0.8303383E-01
        1   -1    0    0  501    0  0.00000000000E+00  0.00000000000E+00  0.11568714772E+04  0.11568714772E+04  0.50400001928E-02 0.  1.
       -1   -1    0    0    0  501  0.00000000000E+00  0.00000000000E+00 -0.16937768172E+04  0.16937768172E+04  0.50400001928E-02 0. -1.
    10030    2    1    2    0    0  0.00000000000E+00  0.00000000000E+00 -0.53690534003E+03  0.28506482944E+04  0.27996300388E+04 0.  0.
        3    1    3    3  502    0 -0.67125056966E+03  0.70632146235E+03 -0.12917618034E+04  0.16180593013E+04  0.10100000352E+00 0. -1.
       -3    1    3    3    0  502  0.67125056966E+03 -0.70632146235E+03  0.75485646340E+03  0.12325889931E+04  0.10100000352E+00 0.  1.
</event>
<event>
 5   0  0.3522569E-07  0.2798005E+04  0.7818609E-02  0.8303888E-01
       -2   -1    0    0    0  501  0.00000000000E+00  0.00000000000E+00  0.13045474989E+04  0.13045474989E+04  0.25500000920E-02 0. -1.
        2   -1    0    0  501    0  0.00000000000E+00  0.00000000000E+00 -0.15002959648E+04  0.15002959648E+04  0.25500000920E-02 0.  1.
    10030    2    1    2    0    0  0.00000000000E+00  0.00000000000E+00 -0.19574846595E+03  0.28048434637E+04  0.27980045379E+04 0.  0.
        1    1    3    3  502    0 -0.56891273244E+03 -0.71840351353E+03  0.96180083845E+03  0.13284675977E+04  0.50400001928E-02 0. -1.
       -1    1    3    3    0  502  0.56891273244E+03  0.71840351353E+03 -0.11575493044E+04  0.14763758659E+04  0.50400001928E-02 0.  1.
</event>
<event>
 5   0  0.1346049E-07  0.2799253E+04  0.7818609E-02  0.8303500E-01
       -1   -1    0    0    0  501  0.00000000000E+00  0.00000000000E+00  0.83858246933E+03  0.83858246935E+03  0.50400001928E-02 0.  1.
        1   -1    0    0  501    0  0.00000000000E+00  0.00000000000E+00 -0.23360304509E+04  0.23360304509E+04  0.50400001928E-02 0. -1.
    10030    2    1    2    0    0  0.00000000000E+00  0.00000000000E+00 -0.14974479816E+04  0.31746129203E+04  0.27992528889E+04 0.  0.
        1    1    3    3  502    0  0.27579029872E+03 -0.12917649069E+04 -0.22380025831E+03  0.13397027354E+04  0.50400001928E-02 0.  1.
       -1    1    3    3    0  502 -0.27579029872E+03  0.12917649069E+04 -0.12736477233E+04  0.18349101849E+04  0.50400001928E-02 0. -1.
</event>
<event>
 5   0  0.3522569E-07  0.2800050E+04  0.7818609E-02  0.8303253E-01
       -2   -1    0    0    0  501  0.00000000000E+00  0.00000000000E+00  0.75766895158E+03  0.75766895158E+03  0.25500000920E-02 0. -1.
        2   -1    0    0  501    0  0.00000000000E+00  0.00000000000E+00 -0.25869736860E+04  0.25869736860E+04  0.25500000920E-02 0.  1.
    10030    2    1    2    0    0  0.00000000000E+00  0.00000000000E+00 -0.18293047345E+04  0.33446426376E+04  0.28000497427E+04 0.  0.
        1    1    3    3  502    0  0.40299030442E+03 -0.97559132331E+02  0.68264593554E+03  0.79870172348E+03  0.50400001928E-02 0. -1.
       -1    1    3    3    0  502 -0.40299030442E+03  0.97559132331E+02 -0.25119506700E+04  0.25459409141E+04  0.50400001928E-02 0.  1.
</event>
<event>
 5   0  0.3522569E-07  0.2796239E+04  0.7818609E-02  0.8304437E-01
       -2   -1    0    0    0  501  0.00000000000E+00  0.00000000000E+00  0.11852162158E+04  0.11852162158E+04  0.25500000920E-02 0.  1.
        2   -1    0    0  501    0  0.00000000000E+00  0.00000000000E+00 -0.16492672838E+04  0.16492672838E+04  0.25500000920E-02 0. -1.
    10030    2    1    2    0    0  0.00000000000E+00  0.00000000000E+00 -0.46405106801E+03  0.28344834995E+04  0.27962391377E+04 0.  0.
        1    1    3    3  502    0 -0.94407840322E+02  0.69899906790E+03  0.99164090150E+03  0.12169076443E+04  0.50400001928E-02 0.  1.
       -1    1    3    3    0  502  0.94407840322E+02 -0.69899906790E+03 -0.14556919695E+04  0.16175758552E+04  0.50400001928E-02 0. -1.
</event>
<event>
 5   0  0.3557628E-07  0.2801386E+04  0.7818609E-02  0.8302838E-01
        2   -1    0    0  501    0  0.00000000000E+00  0.00000000000E+00  0.18461070701E+04  0.18461070701E+04  0.25500000920E-02 0.  1.
       -2   -1    0    0    0  501  0.00000000000E+00  0.00000000000E+00 -0.10627452071E+04  0.10627452071E+04  0.25500000920E-02 0. -1.
    10030    2    1    2    0    0  0.00000000000E+00  0.00000000000E+00  0.78336186302E+03  0.29088522772E+04  0.28013864000E+04 0.  0.
        5    1    3    3  502    0  0.10941183202E+04 -0.40164347417E+03 -0.41497772064E+03  0.12371907604E+04  0.46999998093E+01 0. -1.
       -5    1    3    3    0  502 -0.10941183202E+04  0.40164347417E+03  0.11983395837E+04  0.16716615168E+04  0.46999998093E+01 0.  1.
</event>
<event>
 5   0  0.3502141E-07  0.2802921E+04  0.7818609E-02  0.8302362E-01
       -2   -1    0    0    0  501  0.00000000000E+00  0.00000000000E+00  0.71244179890E+03  0.71244179890E+03  0.25500000920E-02 0.  1.
        2   -1    0    0  501    0  0.00000000000E+00  0.00000000000E+00 -0.27568452709E+04  0.27568452709E+04  0.25500000920E-02 0. -1.
    10030    2    1    2    0    0  0.00000000000E+00  0.00000000000E+00 -0.20444034720E+04  0.34692870698E+04  0.28029211934E+04 0.  0.
        3    1    3    3  502    0  0.98887552483E+03 -0.47605605180E+03 -0.21009454815E+04  0.23703324860E+04  0.10100000352E+00 0.  1.
       -3    1    3    3    0  502 -0.98887552483E+03  0.47605605180E+03  0.56542009502E+02  0.10989545837E+04  0.10100000352E+00 0. -1.
</event>
<event>
 5   0  0.1366235E-07  0.2799587E+04  0.7818609E-02  0.8303397E-01
       -1   -1    0    0    0  501  0.00000000000E+00  0.00000000000E+00  0.10387821799E+04  0.10387821799E+04  0.50400001928E-02 0. -1.
        1   -1    0    0  501    0  0.00000000000E+00  0.00000000000E+00 -0.18862683665E+04  0.18862683665E+04  0.50400001928E-02 0.  1.
    10030    2    1    2    0    0  0.00000000000E+00  0.00000000000E+00 -0.84748618663E+03  0.29250505465E+04  0.27995870879E+04 0.  0.
        2    1    3    3  502    0  0.53187414062E+03  0.30067601323E+03 -0.17395986177E+04  0.18437731740E+04  0.25500000920E-02 0.  1.
       -2    1    3    3    0  502 -0.53187414062E+03 -0.30067601323E+03  0.89211243111E+03  0.10812773724E+04  0.25500000920E-02 0. -1.
</event>
<event>
 5   0  0.1374680E-07  0.2779806E+04  0.7818609E-02  0.8309565E-01
       -1   -1    0    0    0  501  0.00000000000E+00  0.00000000000E+00  0.11111648746E+04  0.11111648746E+04  0.50400001928E-02 0.  1.
        1   -1    0    0  501    0  0.00000000000E+00  0.00000000000E+00 -0.17385631148E+04  0.17385631148E+04  0.50400001928E-02 0. -1.
    10030    2    1    2    0    0  0.00000000000E+00  0.00000000000E+00 -0.62739824014E+03  0.28497279894E+04  0.27798059396E+04 0.  0.
        3    1    3    3  502    0  0.74728894811E+03  0.11214390313E+04 -0.66249846348E+03  0.15016559184E+04  0.10100000352E+00 0. -1.
       -3    1    3    3    0  502 -0.74728894811E+03 -0.11214390313E+04  0.35100223335E+02  0.13480720710E+04  0.10100000352E+00 0.  1.
</event>
<event>
 5   0  0.1366235E-07  0.2800483E+04  0.7818609E-02  0.8303118E-01
        1   -1    0    0  501    0  0.00000000000E+00  0.00000000000E+00  0.17593139973E+04  0.17593139973E+04  0.50400001928E-02 0. -1.
       -1   -1    0    0    0  501  0.00000000000E+00  0.00000000000E+00 -0.11144550756E+04  0.11144550756E+04  0.50400001928E-02 0.  1.
    10030    2    1    2    0    0  0.00000000000E+00  0.00000000000E+00  0.64485892174E+03  0.28737690729E+04  0.28004831110E+04 0.  0.
        2    1    3    3  502    0  0.33127646405E+03 -0.12637152246E+04  0.83955772534E+03  0.15529254453E+04  0.25500000920E-02 0. -1.
       -2    1    3    3    0  502 -0.33127646405E+03  0.12637152246E+04 -0.19469880360E+03  0.13208436276E+04  0.25500000920E-02 0.  1.
</event>
<event>
 5   0  0.1346049E-07  0.2799117E+04  0.7818609E-02  0.8303543E-01
       -1   -1    0    0    0  501  0.00000000000E+00  0.00000000000E+00  0.17003464550E+04  0.17003464550E+04  0.50400001928E-02 0. -1.
        1   -1    0    0  501    0  0.00000000000E+00  0.00000000000E+00 -0.11519794657E+04  0.11519794657E+04  0.50400001928E-02 0.  1.
    10030    2    1    2    0    0  0.00000000000E+00  0.00000000000E+00  0.54836698930E+03  0.28523259207E+04  0.27991171470E+04 0.  0.
        1    1    3    3  502    0 -0.85655429412E+03  0.87492606081E+03 -0.41662903773E+03  0.12933524755E+04  0.50400001928E-02 0.  1.
       -1    1    3    3    0  502  0.85655429412E+03 -0.87492606081E+03  0.96499602703E+03  0.15589734452E+04  0.50400001928E-02 0. -1.
</event>
<event>
 5   0  0.3406920E-07  0.2799766E+04  0.7818609E-02  0.8303341E-01
       -2   -1    0    0    0  501  0.00000000000E+00  0.00000000000E+00  0.18164226044E+04  0.18164226044E+04  0.25500000920E-02 0. -1.
        2   -1    0    0  501    0  0.00000000000E+00  0.00000000000E+00 -0.10788639696E+04  0.10788639696E+04  0.25500000920E-02 0.  1.
    10030    2    1    2    0    0  0.00000000000E+00  0.00000000000E+00  0.73755863480E+03  0.28952865740E+04  0.27997663484E+04 0.  0.
        4    1    3    3  502    0 -0.39156121281E+03  0.87945300545E+03  0.14197769733E+04  0.17153792698E+04  0.12699999809E+01 0. -1.
       -4    1    3    3    0  502  0.39156121281E+03 -0.87945300545E+03 -0.68221833855E+03  0.11799073042E+04  0.12699999809E+01 0.  1.
</event>
<event>
 5   0  0.1374680E-07  0.2800951E+04  0.7818609E-02  0.8302973E-01
        1   -1    0    0  501    0  0.00000000000E+00  0.00000000000E+00  0.25039447494E+04  0.25039447494E+04  0.50400001928E-02 0.  1.
       -1   -1    0    0    0  501  0.00000000000E+00  0.00000000000E+00 -0.78329657388E+03  0.78329657390E+03  0.50400001928E-02 0. -1.
    10030    2    1    2    0    0  0.00000000000E+00  0.00000000000E+00  0.17206481755E+04  0.32872413233E+04  0.28009507982E+04 0.  0.
        3    1    3    3  502    0  0.11443916023E+04  0.77453024835E+03  0.11274399886E+04  0.17834377430E+04  0.10100000352E+00 0.  1.
       -3    1    3    3    0  502 -0.11443916023E+04 -0.77453024835E+03  0.59320818689E+03  0.15038035803E+04  0.10100000352E+00 0. -1.
</event>
<event>
 5   0  0.3571498E-07  0.2803268E+04  0.7818609E-02  0.8302254E-01
        2   -1    0    0  501    0  0.00000000000E+00  0.00000000000E+00  0.15668760706E+04  0.15668760706E+04  0.25500000920E-02 0. -1.
       -2   -1    0    0    0  501  0.00000000000E+00  0.00000000000E+00 -0.12538185637E+04  0.12538185637E+04  0.25500000920E-02 0.  1.
    10030    2    1    2    0    0  0.00000000000E+00  0.00000000000E+00  0.31305750686E+03  0.28206946343E+04  0.28032683099E+04 0.  0.
        2    1    3    3  502    0  0.51004924005E+02  0.10527516983E+04 -0.77316876307E+03  0.13071639441E+04  0.25500000920E-02 0.  1.
       -2    1    3    3    0  502 -0.51004924005E+02 -0.10527516983E+04  0.10862262699E+04  0.15135306902E+04  0.25500000920E-02 0. -1.
</event>
<event>
 5   0  0.1361741E-07  0.2813423E+04  0.7818609E-02  0.8299113E-01
       -1   -1    0    0    0  501  0.00000000000E+00  0.00000000000E+00  0.14871522541E+04  0.14871522541E+04  0.50400001928E-02 0.  1.
        1   -1    0    0  501    0  0.00000000000E+00  0.00000000000E+00 -0.13306216639E+04  0.13306216639E+04  0.50400001928E-02 0. -1.
    10030    2    1    2    0    0  0.00000000000E+00  0.00000000000E+00  0.15653059022E+03  0.28177739180E+04  0.28134228312E+04 0.  0.
        5    1    3    3  502    0 -0.76814161483E+03  0.38551452153E+02  0.12579184161E+04  0.14744180501E+04  0.46999998093E+01 0.  1.
       -5    1    3    3    0  502  0.76814161483E+03 -0.38551452153E+02 -0.11013878259E+04  0.13433558679E+04  0.46999998093E+01 0. -1.
</event>
<event>
 5   0  0.3406920E-07  0.2799678E+04  0.7818609E-02  0.8303368E-01
        2   -1    0    0  501    0  0.00000000000E+00  0.00000000000E+00  0.11643199433E+04  0.11643199433E+04  0.25500000920E-02 0. -1.
       -2   -1    0    0    0  501  0.00000000000E+00  0.00000000000E+00 -0.16829983473E+04  0.16829983473E+04  0.25500000920E-02 0.  1.
    10030    2    1    2    0    0  0.00000000000E+00  0.00000000000E+00 -0.51867840399E+03  0.28473182907E+04  0.27996775103E+04 0.  0.
        4    1    3    3  502    0 -0.11779106451E+04 -0.60095297438E+03  0.20774600972E+03  0.13385731144E+04  0.12699999809E+01 0. -1.
       -4    1    3    3    0  502  0.11779106451E+04  0.60095297438E+03 -0.72642441372E+03  0.15087451763E+04  0.12699999809E+01 0.  1.
</event>
<event>
 5   0  0.3522569E-07  0.2788316E+04  0.7818609E-02  0.8306905E-01
        2   -1    0    0  501    0  0.00000000000E+00  0.00000000000E+00  0.14998454324E+04  0.14998454324E+04  0.25500000920E-02 0. -1.
       -2   -1    0    0    0  501  0.00000000000E+00  0.00000000000E+00 -0.12959179871E+04  0.12959179871E+04  0.25500000920E-02 0.  1.
    10030    2    1    2    0    0  0.00000000000E+00  0.00000000000E+00  0.20392744522E+03  0.27957634195E+04  0.27883161038E+04 0.  0.
        1    1    3    3  502    0 -0.10000585239E+03 -0.13472907784E+04  0.44709676910E+03  0.14230562649E+04  0.50400001928E-02 0. -1.
       -1    1    3    3    0  502  0.10000585239E+03  0.13472907784E+04 -0.24316932388E+03  0.13727071546E+04  0.50400001928E-02 0.  1.
</event>
<event>
 5   0  0.3522569E-07  0.2800284E+04  0.7818609E-02  0.8303180E-01
        2   -1    0    0  501    0  0.00000000000E+00  0.00000000000E+00  0.17162887075E+04  0.17162887075E+04  0.25500000920E-02 0. -1.
       -2   -1    0    0    0  501  0.00000000000E+00  0.00000000000E+00 -0.11422307705E+04  0.11422307705E+04  0.25500000920E-02 0.  1.
    10030    2    1    2    0    0  0.00000000000E+00  0.00000000000E+00  0.57405793698E+03  0.28585194780E+04  0.28002841090E+04 0.  0.
        1    1    3    3  502    0  0.78535848761E+03  0.49477397466E+03 -0.78301117661E+03  0.12143705130E+04  0.50400001928E-02 0.  1.
       -1    1    3    3    0  502 -0.78535848761E+03 -0.49477397466E+03  0.13570691136E+04  0.16441489650E+04  0.50400001928E-02 0. -1.
</event>
<event>
 5   0  0.1357902E-07  0.2793255E+04  0.7818609E-02  0.8305366E-01
        1   -1    0    0  501    0  0.00000000000E+00  0.00000000000E+00  0.20937250114E+04  0.20937250114E+04  0.50400001928E-02 0. -1.
       -1   -1    0    0    0  501  0.00000000000E+00  0.00000000000E+00 -0.93162578977E+03  0.93162578978E+03  0.50400001928E-02 0.  1.
    10030    2    1    2    0    0  0.00000000000E+00  0.00000000000E+00  0.11620992217E+04  0.30253508012E+04  0.27932548880E+04 0.  0.
        4    1    3    3  502    0  0.23548923569E+03 -0.12403135435E+04 -0.65850558824E+02  0.12641877927E+04  0.12699999809E+01 0.  1.
       -4    1    3    3    0  502 -0.23548923569E+03  0.12403135435E+04  0.12279497805E+04  0.17611630085E+04  0.12699999809E+01 0. -1.
</event>
<event>
 5   0  0.3406920E-07  0.2795087E+04  0.7818609E-02  0.8304795E-01
       -2   -1    0    0    0  501  0.00000000000E+00  0.00000000000E+00  0.88622765296E+03  0.88622765297E+03  0.25500000920E-02 0.  1.
        2   -1    0    0  501    0  0.00000000000E+00  0.00000000000E+00 -0.22038677263E+04  0.22038677263E+04  0.25500000920E-02 0. -1.
    10030    2    1    2    0    0  0.00000000000E+00  0.00000000000E+00 -0.13176400733E+04  0.30900953792E+04  0.27950874924E+04 0.  0.
        4    1    3    3  502    0 -0.13108171016E+04 -0.36870402385E+03 -0.31106892327E+03  0.13967639811E+04  0.12699999809E+01 0. -1.
       -4    1    3    3    0  502  0.13108171016E+04  0.36870402385E+03 -0.10065711500E+04  0.16933313981E+04  0.12699999809E+01 0.  1.
</event>
<event>
 5   0  0.3406920E-07  0.2798674E+04  0.7818609E-02  0.8303680E-01
       -2   -1    0    0    0  501  0.00000000000E+00  0.00000000000E+00  0.63696269373E+03  0.63696269373E+03  0.25500000920E-02 0. -1.
        2   -1    0    0  501    0  0.00000000000E+00  0.00000000000E+00 -0.30741885907E+04  0.30741885907E+04  0.25500000920E-02 0.  1.
    10030    2    1    2    0    0  0.00000000000E+00  0.00000000000E+00 -0.24372258970E+04  0.37111512845E+04  0.27986735757E+04 0.  0.
        4    1    3    3  502    0  0.68789000177E+03  0.62972728332E+02  0.39511952318E+03  0.79578845779E+03  0.12699999809E+01 0. -1.
       -4    1    3    3    0  502 -0.68789000177E+03 -0.62972728332E+02 -0.28323454202E+04  0.29153628267E+04  0.12699999809E+01 0.  1.
</event>
<event>
 5   0  0.1366235E-07  0.2799799E+04  0.7818609E-02  0.8303331E-01
       -1   -1    0    0    0  501  0.00000000000E+00  0.00000000000E+00  0.18386437138E+04  0.18386437138E+04  0.50400001928E-02 0.  1.
        1   -1    0    0  501    0  0.00000000000E+00  0.00000000000E+00 -0.10658501964E+04  0.10658501964E+04  0.50400001928E-02 0. -1.
    10030    2    1    2    0    0  0.00000000000E+00  0.00000000000E+00  0.77279351734E+03  0.29044939102E+04  0.27997991096E+04 0.  0.
        2    1    3    3  502    0 -0.13900557583E+04  0.13106657240E+03  0.49160559245E+03  0.14802396820E+04  0.25500000920E-02 0.  1.
       -2    1    3    3    0  502  0.13900557583E+04 -0.13106657240E+03  0.28118792489E+03  0.14242542282E+04  0.25500000920E-02 0. -1.
</event>
<event>
 5   0  0.3406920E-07  0.2801274E+04  0.7818609E-02  0.8302873E-01
        2   -1    0    0  501    0  0.00000000000E+00  0.00000000000E+00  0.13934557642E+04  0.13934557642E+04  0.25500000920E-02 0.  1.
       -2   -1    0    0    0  501  0.00000000000E+00  0.00000000000E+00 -0.14078551536E+04  0.14078551536E+04  0.25500000920E-02 0. -1.
    10030    2    1    2    0    0  0.00000000000E+00  0.00000000000E+00 -0.14399389403E+02  0.28013109179E+04  0.28012739095E+04 0.  0.
        4    1    3    3  502    0  0.10090260523E+04  0.95862675938E+03 -0.16431137589E+03  0.14014630495E+04  0.12699999809E+01 0. -1.
       -4    1    3    3    0  502 -0.10090260523E+04 -0.95862675938E+03  0.14991198649E+03  0.13998478684E+04  0.12699999809E+01 0.  1.
</event>
<event>
 5   0  0.1361741E-07  0.2799559E+04  0.7818609E-02  0.8303405E-01
       -1   -1    0    0    0  501  0.00000000000E+00  0.00000000000E+00  0.13167087801E+04  0.13167087801E+04  0.50400001928E-02 0.  1.
        1   -1    0    0  501    0  0.00000000000E+00  0.00000000000E+00 -0.14880912403E+04  0.14880912403E+04  0.50400001928E-02 0. -1.
    10030    2    1    2    0    0  0.00000000000E+00  0.00000000000E+00 -0.17138246020E+03  0.28048000205E+04  0.27995591094E+04 0.  0.
        5    1    3    3  502    0 -0.61345499438E+03  0.36324240328E+03 -0.12925577268E+04  0.14761435028E+04  0.46999998093E+01 0. -1.
       -5    1    3    3    0  502  0.61345499438E+03 -0.36324240328E+03  0.11211752666E+04  0.13286565177E+04  0.46999998093E+01 0.  1.
</event>
<event>
 5   0  0.1361741E-07  0.2798689E+04  0.7818609E-02  0.8303676E-01
        1   -1    0    0  501    0  0.00000000000E+00  0.00000000000E+00  0.18815720730E+04  0.18815720731E+04  0.50400001928E-02 0. -1.
       -1   -1    0    0    0  501  0.00000000000E+00  0.00000000000E+00 -0.10407067138E+04  0.10407067138E+04  0.50400001928E-02 0.  1.
    10030    2    1    2    0    0  0.00000000000E+00  0.00000000000E+00  0.84086535923E+03  0.29222787869E+04  0.27986887565E+04 0.  0.
        5    1    3    3  502    0  0.48120652879E+03 -0.73760928862E+03  0.15558890402E+04  0.17878590496E+04  0.46999998093E+01 0. -1.
       -5    1    3    3    0  502 -0.48120652879E+03  0.73760928862E+03 -0.71502368093E+03  0.11344197373E+04  0.46999998093E+01 0.  1.
</event>
<event>
 5   0  0.1361741E-07  0.2799718E+04  0.7818609E-02  0.8303356E-01
        1   -1    0    0  501    0  0.00000000000E+00  0.00000000000E+00  0.27133950943E+04  0.27133950943E+04  0.50400001928E-02 0. -1.
       -1   -1    0    0    0  501  0.00000000000E+00  0.00000000000E+00 -0.72219656170E+03  0.72219656171E+03  0.50400001928E-02 0.  1.
    10030    2    1    2    0    0  0.00000000000E+00  0.00000000000E+00  0.19911985326E+04  0.34355916560E+04  0.27997175626E+04 0.  0.
        5    1    3    3  502    0  0.80700597143E+03  0.99812539300E+03  0.31009046421E+03  0.13204889716E+04  0.46999998093E+01 0.  1.
       -5    1    3    3    0  502 -0.80700597143E+03 -0.99812539300E+03  0.16811080683E+04  0.21151026844E+04  0.46999998093E+01 0. -1.
</event>
<event>
 5   0  0.1366235E-07  0.2799780E+04  0.7818609E-02  0.8303337E-01
        1   -1    0    0  501    0  0.00000000000E+00  0.00000000000E+00  0.88802382753E+03  0.88802382754E+03  0.50400001928E-02 0.  1.
       -1   -1    0    0    0  501  0.00000000000E+00  0.00000000000E+00 -0.22068010174E+04  0.22068010174E+04  0.50400001928E-02 0. -1.
    10030    2    1    2    0    0  0.00000000000E+00  0.00000000000E+00 -0.13187771898E+04  0.30948248449E+04  0.27997799100E+04 0.  0.
        2    1    3    3  502    0 -0.26725644565E+02  0.10886300546E+04 -0.16317864833E+04  0.19617738868E+04  0.25500000920E-02 0. -1.
       -2    1    3    3    0  502  0.26725644565E+02 -0.10886300546E+04  0.31300929345E+03  0.11330509581E+04  0.25500000920E-02 0.  1.
</event>
<event>
 5   0  0.3502141E-07  0.2799340E+04  0.7818609E-02  0.8303473E-01
       -2   -1    0    0    0  501  0.00000000000E+00  0.00000000000E+00  0.95761560770E+03  0.95761560770E+03  0.25500000920E-02 0. -1.
        2   -1    0    0  501    0  0.00000000000E+00  0.00000000000E+00 -0.20457858147E+04  0.20457858147E+04  0.25500000920E-02 0.  1.
    10030    2    1    2    0    0  0.00000000000E+00  0.00000000000E+00 -0.10881702070E+04  0.30034014224E+04  0.27993402267E+04 0.  0.
        3    1    3    3  502    0  0.24622871482E+03  0.87798330626E+03  0.59520391565E+03  0.10889219336E+04  0.10100000352E+00 0. -1.
       -3    1    3    3    0  502 -0.24622871482E+03 -0.87798330626E+03 -0.16833741227E+04  0.19144794888E+04  0.10100000352E+00 0.  1.
</event>
<event>
 5   0  0.3557628E-07  0.2800149E+04  0.7818609E-02  0.8303222E-01
        2   -1    0    0  501    0  0.00000000000E+00  0.00000000000E+00  0.23422936473E+04  0.23422936473E+04  0.25500000920E-02 0.  1.
       -2   -1    0    0    0  501  0.00000000000E+00  0.00000000000E+00 -0.83687560704E+03  0.83687560704E+03  0.25500000920E-02 0. -1.
    10030    2    1    2    0    0  0.00000000000E+00  0.00000000000E+00  0.15054180402E+04  0.31791692543E+04  0.28001488660E+04 0.  0.
        5    1    3    3  502    0 -0.29293476821E+03 -0.13255436117E+04  0.11415745609E+04  0.17737224171E+04  0.46999998093E+01 0.  1.
       -5    1    3    3    0  502  0.29293476821E+03  0.13255436117E+04  0.36384347936E+03  0.14054468372E+04  0.46999998093E+01 0. -1.
</event>
<event>
 5   0  0.3571498E-07  0.2799126E+04  0.7818609E-02  0.8303540E-01
       -2   -1    0    0    0  501  0.00000000000E+00  0.00000000000E+00  0.16527212783E+04  0.16527212783E+04  0.25500000920E-02 0. -1.
        2   -1    0    0  501    0  0.00000000000E+00  0.00000000000E+00 -0.11851822939E+04  0.11851822939E+04  0.25500000920E-02 0.  1.
    10030    2    1    2    0    0  0.00000000000E+00  0.00000000000E+00  0.46753898440E+03  0.28379035721E+04  0.27991255746E+04 0.  0.
        2    1    3    3  502    0 -0.10922997644E+04 -0.62117534616E+03  0.85858503342E+03  0.15218889071E+04  0.25500000920E-02 0. -1.
       -2    1    3    3    0  502  0.10922997644E+04  0.62117534616E+03 -0.39104604902E+03  0.13160146650E+04  0.25500000920E-02 0.  1.
</event>
<event>
 5   0  0.1357902E-07  0.2800505E+04  0.7818609E-02  0.8303112E-01
       -1   -1    0    0    0  501  0.00000000000E+00  0.00000000000E+00  0.17769662496E+04  0.17769662496E+04  0.50400001928E-02 0. -1.
        1   -1    0    0  501    0  0.00000000000E+00  0.00000000000E+00 -0.11034014346E+04  0.11034014346E+04  0.50400001928E-02 0.  1.
    10030    2    1    2    0    0  0.00000000000E+00  0.00000000000E+00  0.67356481501E+03  0.28803676843E+04  0.28005050324E+04 0.  0.
        4    1    3    3  502    0 -0.61028721271E+03 -0.53744311268E+03  0.15092063007E+04  0.17143514378E+04  0.12699999809E+01 0. -1.
       -4    1    3    3    0  502  0.61028721271E+03  0.53744311268E+03 -0.83564148573E+03  0.11660162464E+04  0.12699999809E+01 0.  1.
</event>
<event>
 5   0  0.3522569E-07  0.2797793E+04  0.7818609E-02  0.8303954E-01
        2   -1    0    0  501    0  0.00000000000E+00  0.00000000000E+00  0.11130377561E+04  0.11130377561E+04  0.25500000920E-02 0.  1.
       -2   -1    0    0    0  501  0.00000000000E+00  0.00000000000E+00 -0.17581721597E+04  0.17581721597E+04  0.25500000920E-02 0. -1.
    10030    2    1    2    0    0  0.00000000000E+00  0.00000000000E+00 -0.64513440360E+03  0.28712099157E+04  0.27977934129E+04 0.  0.
        1    1    3    3  502    0  0.67569341429E+03  0.44235676761E+03  0.84962759408E+03  0.11722235916E+04  0.50400001928E-02 0.  1.
       -1    1    3    3    0  502 -0.67569341429E+03 -0.44235676761E+03 -0.14947619977E+04  0.16989863242E+04  0.50400001928E-02 0. -1.
</event>
<event>
 5   0  0.1366235E-07  0.2798825E+04  0.7818609E-02  0.8303633E-01
       -1   -1    0    0    0  501  0.00000000000E+00  0.00000000000E+00  0.79517192801E+03  0.79517192803E+03  0.50400001928E-02 0. -1.
        1   -1    0    0  501    0  0.00000000000E+00  0.00000000000E+00 -0.24628068840E+04  0.24628068840E+04  0.50400001928E-02 0.  1.
    10030    2    1    2    0    0  0.00000000000E+00  0.00000000000E+00 -0.16676349559E+04  0.32579788120E+04  0.27988246807E+04 0.  0.
        2    1    3    3  502    0 -0.93905495565E+01 -0.14874772927E+03 -0.24535415338E+04  0.24580643050E+04  0.25500000920E-02 0.  1.
       -2    1    3    3    0  502  0.93905495565E+01  0.14874772927E+03  0.78590657785E+03  0.79991450700E+03  0.25500000920E-02 0. -1.
</event>
<event>
 5   0  0.1346049E-07  0.2784324E+04  0.7818609E-02  0.8308152E-01
       -1   -1    0    0    0  501  0.00000000000E+00  0.00000000000E+00  0.81239090329E+03  0.81239090330E+03  0.50400001928E-02 0.  1.
        1   -1    0    0  501    0  0.00000000000E+00  0.00000000000E+00 -0.23856934400E+04  0.23856934400E+04  0.50400001928E-02 0. -1.
    10030    2    1    2    0    0  0.00000000000E+00  0.00000000000E+00 -0.15733025367E+04  0.31980843433E+04  0.27843244414E+04 0.  0.
        1    1    3    3  502    0  0.87785215441E+03 -0.54177646919E+03  0.28713590566E+03  0.10707909114E+04  0.50400001928E-02 0. -1.
       -1    1    3    3    0  502 -0.87785215441E+03  0.54177646919E+03 -0.18604384423E+04  0.21272934319E+04  0.50400001928E-02 0.  1.
</event>
<event>
 5   0  0.1374680E-07  0.2800467E+04  0.7818609E-02  0.8303123E-01
        1   -1    0    0  501    0  0.00000000000E+00  0.00000000000E+00  0.14919226807E+04  0.14919226807E+04  0.50400001928E-02 0.  1.
       -1   -1    0    0    0  501  0.00000000000E+00  0.00000000000E+00 -0.13141795545E+04  0.13141795545E+04  0.50400001928E-02 0. -1.
    10030    2    1    2    0    0  0.00000000000E+00  0.00000000000E+00  0.17774312618E+03  0.28061022352E+04  0.28004673066E+04 0.  0.
        3    1    3    3  502    0  0.12527660843E+04 -0.44968107423E+03  0.52450876378E+03  0.14306450937E+04  0.10100000352E+00 0.  1.
       -3    1    3    3    0  502 -0.12527660843E+04  0.44968107423E+03 -0.34676563759E+03  0.13754571415E+04  0.10100000352E+00 0. -1.
</event>
<event>
 5   0  0.1366235E-07  0.2800680E+04  0.7818609E-02  0.8303057E-01
       -1   -1    0    0    0  501  0.00000000000E+00  0.00000000000E+00  0.11435214926E+04  0.11435214926E+04  0.50400001928E-02 0. -1.
        1   -1    0    0  501    0  0.00000000000E+00  0.00000000000E+00 -0.17148367055E+04  0.17148367055E+04  0.50400001928E-02 0.  1.
    10030    2    1    2    0    0  0.00000000000E+00  0.00000000000E+00 -0.57131521287E+03  0.28583581981E+04  0.28006803667E+04 0.  0.
        2    1    3    3  502    0  0.45030039106E+03  0.11025860303E+03 -0.16342427224E+04  0.16987279586E+04  0.25500000920E-02 0.  1.
       -2    1    3    3    0  502 -0.45030039106E+03 -0.11025860303E+03  0.10629275095E+04  0.11596302395E+04  0.25500000920E-02 0. -1.
</event>
<event>
 5   0  0.1374680E-07  0.2801319E+04  0.7818609E-02  0.8302859E-01
       -1   -1    0    0    0  501  0.00000000000E+00  0.00000000000E+00  0.91076480746E+03  0.91076480748E+03  0.50400001928E-02 0. -1.
        1   -1    0    0  501    0  0.00000000000E+00  0.00000000000E+00 -0.21540658818E+04  0.21540658818E+04  0.50400001928E-02 0.  1.
    10030    2    1    2    0    0  0.00000000000E+00  0.00000000000E+00 -0.12433010743E+04  0.30648306892E+04  0.28013192593E+04 0.  0.
        3    1    3    3  502    0  0.47218221146E+03 -0.12421807811E+04 -0.11058641480E+04  0.17288448912E+04  0.10100000352E+00 0.  1.
       -3    1    3    3    0  502 -0.47218221146E+03  0.12421807811E+04 -0.13743692632E+03  0.13359857981E+04  0.10100000352E+00 0. -1.
</event>
<event>
 5   0  0.1346049E-07  0.2800175E+04  0.7818609E-02  0.8303214E-01
        1   -1    0    0  501    0  0.00000000000E+00  0.00000000000E+00  0.13164278893E+04  0.13164278893E+04  0.50400001928E-02 0. -1.
       -1   -1    0    0    0  501  0.00000000000E+00  0.00000000000E+00 -0.14890635416E+04  0.14890635416E+04  0.50400001928E-02 0.  1.
    10030    2    1    2    0    0  0.00000000000E+00  0.00000000000E+00 -0.17263565235E+03  0.28054914309E+04  0.28001748339E+04 0.  0.
        1    1    3    3  502    0 -0.81285736574E+03  0.17188997075E+03  0.10427475217E+04  0.13332687851E+04  0.50400001928E-02 0. -1.
       -1    1    3    3    0  502  0.81285736574E+03 -0.17188997075E+03 -0.12153831741E+04  0.14722226459E+04  0.50400001928E-02 0.  1.
</event>
<event>
 5   0  0.1366235E-07  0.2798756E+04  0.7818609E-02  0.8303655E-01
        1   -1    0    0  501    0  0.00000000000E+00  0.00000000000E+00  0.20412070034E+04  0.20412070034E+04  0.50400001928E-02 0. -1.
       -1   -1    0    0    0  501  0.00000000000E+00  0.00000000000E+00 -0.95936294389E+03  0.95936294390E+03  0.50400001928E-02 0.  1.
    10030    2    1    2    0    0  0.00000000000E+00  0.00000000000E+00  0.10818440595E+04  0.30005699473E+04  0.27987556949E+04 0.  0.
        2    1    3    3  502    0 -0.15713240126E+03  0.13087274963E+04  0.37144947985E+02  0.13186500667E+04  0.25500000920E-02 0.  1.
       -2    1    3    3    0  502  0.15713240126E+03 -0.13087274963E+04  0.10446991115E+04  0.16819198806E+04  0.25500000920E-02 0. -1.
</event>
<event>
 5   0  0.3571498E-07  0.2800172E+04  0.7818609E-02  0.8303215E-01
        2   -1    0    0  501    0  0.00000000000E+00  0.00000000000E+00  0.18658332733E+04  0.18658332733E+04  0.25500000920E-02 0.  1.
       -2   -1    0    0    0  501  0.00000000000E+00  0.00000000000E+00 -0.10505979602E+04  0.10505979602E+04  0.25500000920E-02 0. -1.
    10030    2    1    2    0    0  0.00000000000E+00  0.00000000000E+00  0.81523531310E+03  0.29164312335E+04  0.28001718741E+04 0.  0.
        2    1    3    3  502    0 -0.88439120740E+02  0.11828300959E+04 -0.36712950011E+03  0.12416491387E+04  0.25500000920E-02 0.  1.
       -2    1    3    3    0  502  0.88439120740E+02 -0.11828300959E+04  0.11823648132E+04  0.16747820949E+04  0.25500000920E-02 0. -1.
</event>
<event>
 5   0  0.1366235E-07  0.2800373E+04  0.7818609E-02  0.8303153E-01
        1   -1    0    0  501    0  0.00000000000E+00  0.00000000000E+00  0.19943987995E+04  0.19943987995E+04  0.50400001928E-02 0. -1.
       -1   -1    0    0    0  501  0.00000000000E+00  0.00000000000E+00 -0.98301384751E+03  0.98301384752E+03  0.50400001928E-02 0.  1.
    10030    2    1    2    0    0  0.00000000000E+00  0.00000000000E+00  0.10113849520E+04  0.29774126470E+04  0.28003725734E+04 0.  0.
        2    1    3    3  502    0 -0.21394686324E+03  0.23021204931E+03 -0.94502882065E+03  0.99591682374E+03  0.25500000920E-02 0.  1.
       -2    1    3    3    0  502  0.21394686324E+03 -0.23021204931E+03  0.19564137726E+04  0.19814958233E+04  0.25500000920E-02 0. -1.
</event>
<event>
 5   0  0.1361741E-07  0.2800080E+04  0.7818609E-02  0.8303243E-01
       -1   -1    0    0    0  501  0.00000000000E+00  0.00000000000E+00  0.18677763420E+04  0.18677763420E+04  0.50400001928E-02 0.  1.
        1   -1    0    0  501    0  0.00000000000E+00  0.00000000000E+00 -0.10494363666E+04  0.10494363666E+04  0.50400001928E-02 0. -1.
    10030    2    1    2    0    0  0.00000000000E+00  0.00000000000E+00  0.81833997538E+03  0.29172127086E+04  0.28000802974E+04 0.  0.
        5    1    3    3  502    0  0.24546892216E+02 -0.13517515476E+04  0.78805247694E+03  0.15648909204E+04  0.46999998093E+01 0.  1.
       -5    1    3    3    0  502 -0.24546892216E+02  0.13517515476E+04  0.30287498435E+02  0.13523217882E+04  0.46999998093E+01 0. -1.
</event>
<event>
 5   0  0.3502141E-07  0.2802151E+04  0.7818609E-02  0.8302601E-01
       -2   -1    0    0    0  501  0.00000000000E+00  0.00000000000E+00  0.13468719738E+04  0.13468719738E+04  0.25500000920E-02 0. -1.
        2   -1    0    0  501    0  0.00000000000E+00  0.00000000000E+00 -0.14574608910E+04  0.14574608910E+04  0.25500000920E-02 0.  1.
    10030    2    1    2    0    0  0.00000000000E+00  0.00000000000E+00 -0.11058891720E+03  0.28043328649E+04  0.28021514785E+04 0.  0.
        3    1    3    3  502    0  0.57351370584E+03  0.97047374889E+03 -0.88797338729E+03  0.14350031410E+04  0.10100000352E+00 0.  1.
       -3    1    3    3    0  502 -0.57351370584E+03 -0.97047374889E+03  0.77738447008E+03  0.13693297238E+04  0.10100000352E+00 0. -1.
</event>
<event>
 5   0  0.3502141E-07  0.2799777E+04  0.7818609E-02  0.8303338E-01
        2   -1    0    0  501    0  0.00000000000E+00  0.00000000000E+00  0.13177276625E+04  0.13177276625E+04  0.25500000920E-02 0. -1.
       -2   -1    0    0    0  501  0.00000000000E+00  0.00000000000E+00 -0.14871722553E+04  0.14871722553E+04  0.25500000920E-02 0.  1.
    10030    2    1    2    0    0  0.00000000000E+00  0.00000000000E+00 -0.16944459276E+03  0.28048999178E+04  0.27997771481E+04 0.  0.
        3    1    3    3  502    0  0.76407170240E+03  0.14931738080E+03 -0.12502885222E+04  0.14728620592E+04  0.10100000352E+00 0.  1.
       -3    1    3    3    0  502 -0.76407170240E+03 -0.14931738080E+03  0.10808439294E+04  0.13320378585E+04  0.10100000352E+00 0. -1.
</event>
<event>
 5   0  0.3406920E-07  0.2798713E+04  0.7818609E-02  0.8303668E-01
       -2   -1    0    0    0  501  0.00000000000E+00  0.00000000000E+00  0.10273271563E+04  0.10273271563E+04  0.25500000920E-02 0.  1.
        2   -1    0    0  501    0  0.00000000000E+00  0.00000000000E+00 -0.19061098186E+04  0.19061098186E+04  0.25500000920E-02 0. -1.
    10030    2    1    2    0    0  0.00000000000E+00  0.00000000000E+00 -0.87878266229E+03  0.29334369749E+04  0.27987128323E+04 0.  0.
        4    1    3    3  502    0  0.67566955146E+03 -0.44930321756E+03 -0.16343577305E+04  0.18246998461E+04  0.12699999809E+01 0. -1.
       -4    1    3    3    0  502 -0.67566955146E+03  0.44930321756E+03  0.75557506824E+03  0.11087371288E+04  0.12699999809E+01 0.  1.
</event>
<event>
 5   0  0.3502141E-07  0.2799521E+04  0.7818609E-02  0.8303417E-01
       -2   -1    0    0    0  501  0.00000000000E+00  0.00000000000E+00  0.15015571695E+04  0.15015571695E+04  0.25500000920E-02 0. -1.
        2   -1    0    0  501    0  0.00000000000E+00  0.00000000000E+00 -0.13048651476E+04  0.13048651476E+04  0.25500000920E-02 0.  1.
    10030    2    1    2    0    0  0.00000000000E+00  0.00000000000E+00  0.19669202195E+03  0.28064223171E+04  0.27995211145E+04 0.  0.
        3    1    3    3  502    0  0.25243035842E+03 -0.99484000067E+03  0.10524810873E+04  0.14700830460E+04  0.10100000352E+00 0. -1.
       -3    1    3    3    0  502 -0.25243035842E+03  0.99484000067E+03 -0.85578906537E+03  0.13363392711E+04  0.10100000352E+00 0.  1.
</event>
<event>
 5   0  0.3522569E-07  0.2800335E+04  0.7818609E-02  0.8303164E-01
        2   -1    0    0  501    0  0.00000000000E+00  0.00000000000E+00  0.31576771474E+04  0.31576771474E+04  0.25500000920E-02 0. -1.
       -2   -1    0    0    0  501  0.00000000000E+00  0.00000000000E+00 -0.62085811725E+03  0.62085811725E+03  0.25500000920E-02 0.  1.
    10030    2    1    2    0    0  0.00000000000E+00  0.00000000000E+00  0.25368190302E+04  0.37785352647E+04  0.28003353289E+04 0.  0.
        1    1    3    3  502    0  0.85314191406E+03  0.63027529589E+03  0.25016655387E+04  0.27172464999E+04  0.50400001928E-02 0. -1.
       -1    1    3    3    0  502 -0.85314191406E+03 -0.63027529589E+03  0.35153491508E+02  0.10612887647E+04  0.50400001928E-02 0.  1.
</event>
<event>
 5   0  0.3502141E-07  0.2799940E+04  0.7818609E-02  0.8303287E-01
       -2   -1    0    0    0  501  0.00000000000E+00  0.00000000000E+00  0.94645542535E+03  0.94645542536E+03  0.25500000920E-02 0. -1.
        2   -1    0    0  501    0  0.00000000000E+00  0.00000000000E+00 -0.20707964288E+04  0.20707964288E+04  0.25500000920E-02 0.  1.
    10030    2    1    2    0    0  0.00000000000E+00  0.00000000000E+00 -0.11243410035E+04  0.30172518542E+04  0.27999403671E+04 0.  0.
        3    1    3    3  502    0  0.16041239139E+03  0.27789741742E+03  0.90629500862E+03  0.96142070020E+03  0.10100000352E+00 0. -1.
       -3    1    3    3    0  502 -0.16041239139E+03 -0.27789741742E+03 -0.20306360121E+04  0.20558311540E+04  0.10100000352E+00 0.  1.
</event>
<event>
 5   0  0.3557628E-07  0.2796417E+04  0.7818609E-02  0.8304382E-01
        2   -1    0    0  501    0  0.00000000000E+00  0.00000000000E+00  0.27312301365E+04  0.27312301365E+04  0.25500000920E-02 0. -1.
       -2   -1    0    0    0  501  0.00000000000E+00  0.00000000000E+00 -0.71578977758E+03  0.71578977759E+03  0.25500000920E-02 0.  1.
    10030    2    1    2    0    0  0.00000000000E+00  0.00000000000E+00  0.20154403589E+04  0.34470199141E+04  0.27964167157E+04 0.  0.
        5    1    3    3  502    0 -0.12704995657E+04  0.47210635994E+03  0.14309916443E+04  0.19709928305E+04  0.46999998093E+01 0.  1.
       -5    1    3    3    0  502  0.12704995657E+04 -0.47210635994E+03  0.58444871454E+03  0.14760270836E+04  0.46999998093E+01 0. -1.
</event>
<event>
 5   0  0.1374680E-07  0.2801075E+04  0.7818609E-02  0.8302935E-01
       -1   -1    0    0    0  501  0.00000000000E+00  0.00000000000E+00  0.75489804428E+03  0.75489804430E+03  0.50400001928E-02 0.  1.
        1   -1    0    0  501    0  0.00000000000E+00  0.00000000000E+00 -0.25983706145E+04  0.25983706145E+04  0.50400001928E-02 0. -1.
    10030    2    1    2    0    0  0.00000000000E+00  0.00000000000E+00 -0.18434725703E+04  0.33532686588E+04  0.28010747189E+04 0.  0.
        3    1    3    3  502    0  0.11963820475E+04 -0.73846004771E+01 -0.50108845646E+02  0.11974537329E+04  0.10100000352E+00 0.  1.
       -3    1    3    3    0  502 -0.11963820475E+04  0.73846004771E+01 -0.17933637246E+04  0.21558149259E+04  0.10100000352E+00 0. -1.
</event>
<event>
 5   0  0.1346049E-07  0.2801414E+04  0.7818609E-02  0.8302830E-01
       -1   -1    0    0    0  501  0.00000000000E+00  0.00000000000E+00  0.93193914143E+03  0.93193914145E+03  0.50400001928E-02 0.  1.
        1   -1    0    0  501    0  0.00000000000E+00  0.00000000000E+00 -0.21052655850E+04  0.21052655850E+04  0.50400001928E-02 0. -1.
    10030    2    1    2    0    0  0.00000000000E+00  0.00000000000E+00 -0.11733264436E+04  0.30372047265E+04  0.28014135017E+04 0.  0.
        1    1    3    3  502    0 -0.83965933320E+02 -0.13891999103E+04 -0.75826603584E+03  0.15848955959E+04  0.50400001928E-02 0. -1.
       -1    1    3    3    0  502  0.83965933320E+02  0.13891999103E+04 -0.41506040777E+03  0.14523091306E+04  0.50400001928E-02 0.  1.
</event>
<event>
 5   0  0.1374680E-07  0.2801896E+04  0.7818609E-02  0.8302680E-01
        1   -1    0    0  501    0  0.00000000000E+00  0.00000000000E+00  0.12171039918E+04  0.12171039919E+04  0.50400001928E-02 0.  1.
       -1   -1    0    0    0  501  0.00000000000E+00  0.00000000000E+00 -0.16125619816E+04  0.16125619816E+04  0.50400001928E-02 0. -1.
    10030    2    1    2    0    0  0.00000000000E+00  0.00000000000E+00 -0.39545798980E+03  0.28296659735E+04  0.28018962329E+04 0.  0.
        3    1    3    3  502    0  0.52122796088E+03 -0.48083985979E+03  0.10224550747E+04  0.12443070152E+04  0.10100000352E+00 0.  1.
       -3    1    3    3    0  502 -0.52122796088E+03  0.48083985979E+03 -0.14179130645E+04  0.15853589583E+04  0.10100000352E+00 0. -1.
</event>
<event>
 5   0  0.1346049E-07  0.2802426E+04  0.7818609E-02  0.8302516E-01
       -1   -1    0    0    0  501  0.00000000000E+00  0.00000000000E+00  0.13298128292E+04  0.13298128293E+04  0.50400001928E-02 0.  1.
        1   -1    0    0  501    0  0.00000000000E+00  0.00000000000E+00 -0.14764463233E+04  0.14764463233E+04  0.50400001928E-02 0. -1.
    10030    2    1    2    0    0  0.00000000000E+00  0.00000000000E+00 -0.14663349404E+03  0.28062591526E+04  0.28024255654E+04 0.  0.
        1    1    3    3  502    0  0.94677190850E+03 -0.17609126153E+03  0.94592240753E+03  0.13498719866E+04  0.50400001928E-02 0.  1.
       -1    1    3    3    0  502 -0.94677190850E+03  0.17609126153E+03 -0.10925559016E+04  0.14563871660E+04  0.50400001928E-02 0. -1.
</event>
<event>
 5   0  0.1357902E-07  0.2800139E+04  0.7818609E-02  0.8303225E-01
        1   -1    0    0  501    0  0.00000000000E+00  0.00000000000E+00  0.28614392388E+04  0.28614392388E+04  0.50400001928E-02 0.  1.
       -1   -1    0    0    0  501  0.00000000000E+00  0.00000000000E+00 -0.68503785534E+03  0.68503785536E+03  0.50400001928E-02 0. -1.
    10030    2    1    2    0    0  0.00000000000E+00  0.00000000000E+00  0.21764013834E+04  0.35464770941E+04  0.28001387104E+04 0.  0.
        4    1    3    3  502    0 -0.46959034718E+02  0.13865489027E+04  0.84966926129E+03  0.16268566246E+04  0.12699999809E+01 0. -1.
       -4    1    3    3    0  502  0.46959034718E+02 -0.13865489027E+04  0.13267321221E+04  0.19196204696E+04  0.12699999809E+01 0.  1.
</event>
<event>
 5   0  0.3406920E-07  0.2807448E+04  0.7818609E-02  0.8300960E-01
        2   -1    0    0  501    0  0.00000000000E+00  0.00000000000E+00  0.24404151988E+04  0.24404151988E+04  0.25500000920E-02 0. -1.
       -2   -1    0    0    0  501  0.00000000000E+00  0.00000000000E+00 -0.80742061230E+03  0.80742061231E+03  0.25500000920E-02 0.  1.
    10030    2    1    2    0    0  0.00000000000E+00  0.00000000000E+00  0.16329945865E+04  0.32478358111E+04  0.28074483319E+04 0.  0.
        4    1    3    3  502    0 -0.87229820250E+03  0.24374559401E+03 -0.42416790204E+03  0.10001180384E+04  0.12699999809E+01 0.  1.
       -4    1    3    3    0  502  0.87229820250E+03 -0.24374559401E+03  0.20571624885E+04  0.22477177727E+04  0.12699999809E+01 0. -1.
</event>
<event>
 5   0  0.3557628E-07  0.2801354E+04  0.7818609E-02  0.8302848E-01
        2   -1    0    0  501    0  0.00000000000E+00  0.00000000000E+00  0.28556829764E+04  0.28556829764E+04  0.25500000920E-02 0.  1.
       -2   -1    0    0    0  501  0.00000000000E+00  0.00000000000E+00 -0.68701455310E+03  0.68701455310E+03  0.25500000920E-02 0. -1.
    10030    2    1    2    0    0  0.00000000000E+00  0.00000000000E+00  0.21686684233E+04  0.35426975295E+04  0.28013537897E+04 0.  0.
        5    1    3    3  502    0 -0.71645787574E+02 -0.64705341711E+03  0.26527207139E+04  0.27314392762E+04  0.46999998093E+01 0.  1.
       -5    1    3    3    0  502  0.71645787574E+02  0.64705341711E+03 -0.48405229063E+03  0.81125825329E+03  0.46999998093E+01 0. -1.
</event>
<event>
 5   0  0.1346049E-07  0.2799231E+04  0.7818609E-02  0.8303507E-01
        1   -1    0    0  501    0  0.00000000000E+00  0.00000000000E+00  0.18950691642E+04  0.18950691642E+04  0.50400001928E-02 0. -1.
       -1   -1    0    0    0  501  0.00000000000E+00  0.00000000000E+00 -0.10336949973E+04  0.10336949973E+04  0.50400001928E-02 0.  1.
    10030    2    1    2    0    0  0.00000000000E+00  0.00000000000E+00  0.86137416687E+03  0.29287641616E+04  0.27992309763E+04 0.  0.
        1    1    3    3  502    0 -0.89302705025E+03 -0.10317500918E+04  0.10496457078E+03  0.13685843509E+04  0.50400001928E-02 0.  1.
       -1    1    3    3    0  502  0.89302705025E+03  0.10317500918E+04  0.75640959609E+03  0.15601798106E+04  0.50400001928E-02 0. -1.
</event>
<event>
 5   0  0.3502141E-07  0.2800538E+04  0.7818609E-02  0.8303101E-01
       -2   -1    0    0    0  501  0.00000000000E+00  0.00000000000E+00  0.16749047598E+04  0.16749047598E+04  0.25500000920E-02 0. -1.
        2   -1    0    0  501    0  0.00000000000E+00  0.00000000000E+00 -0.11706658811E+04  0.11706658811E+04  0.25500000920E-02 0.  1.
    10030    2    1    2    0    0  0.00000000000E+00  0.00000000000E+00  0.50423887865E+03  0.28455706409E+04  0.28005384171E+04 0.  0.
        3    1    3    3  502    0 -0.17897124226E+03  0.90980491377E+03 -0.81402780494E+03  0.12338626196E+04  0.10100000352E+00 0.  1.
       -3    1    3    3    0  502  0.17897124226E+03 -0.90980491377E+03  0.13182666836E+04  0.16117080213E+04  0.10100000352E+00 0. -1.
</event>
<event>
 5   0  0.3522569E-07  0.2799946E+04  0.7818609E-02  0.8303285E-01
       -2   -1    0    0    0  501  0.00000000000E+00  0.00000000000E+00  0.13178689951E+04  0.13178689951E+04  0.25500000920E-02 0.  1.
        2   -1    0    0  501    0  0.00000000000E+00  0.00000000000E+00 -0.14871925886E+04  0.14871925886E+04  0.25500000920E-02 0. -1.
    10030    2    1    2    0    0  0.00000000000E+00  0.00000000000E+00 -0.16932359348E+03  0.28050615837E+04  0.27999464297E+04 0.  0.
        1    1    3    3  502    0  0.59767762632E+03 -0.57672737322E+03 -0.12137042377E+04  0.14706838493E+04  0.50400001928E-02 0. -1.
       -1    1    3    3    0  502 -0.59767762632E+03  0.57672737322E+03  0.10443806442E+04  0.13343777344E+04  0.50400001928E-02 0.  1.
</event>
<event>
 5   0  0.3571498E-07  0.2799975E+04  0.7818609E-02  0.8303276E-01
        2   -1    0    0  501    0  0.00000000000E+00  0.00000000000E+00  0.15216603305E+04  0.15216603305E+04  0.25500000920E-02 0. -1.
       -2   -1    0    0    0  501  0.00000000000E+00  0.00000000000E+00 -0.12880434085E+04  0.12880434086E+04  0.25500000920E-02 0.  1.
    10030    2    1    2    0    0  0.00000000000E+00  0.00000000000E+00  0.23361692200E+03  0.28097037391E+04  0.27999746848E+04 0.  0.
        2    1    3    3  502    0 -0.76697868858E+03 -0.76402320124E+03 -0.77395652916E+03  0.13307879132E+04  0.25500000920E-02 0.  1.
       -2    1    3    3    0  502  0.76697868858E+03  0.76402320124E+03  0.10075734512E+04  0.14789158259E+04  0.25500000920E-02 0. -1.
</event>
<event>
 5   0  0.1366235E-07  0.2800300E+04  0.7818609E-02  0.8303175E-01
        1   -1    0    0  501    0  0.00000000000E+00  0.00000000000E+00  0.12728183428E+04  0.12728183428E+04  0.50400001928E-02 0.  1.
       -1   -1    0    0    0  501  0.00000000000E+00  0.00000000000E+00 -0.15402199863E+04  0.15402199863E+04  0.50400001928E-02 0. -1.
    10030    2    1    2    0    0  0.00000000000E+00  0.00000000000E+00 -0.26740164346E+03  0.28130383292E+04  0.28003001629E+04 0.  0.
        2    1    3    3  502    0 -0.27811834417E+03 -0.13199542312E+04  0.24322762886E+03  0.13706891206E+04  0.25500000920E-02 0. -1.
       -2    1    3    3    0  502  0.27811834417E+03  0.13199542312E+04 -0.51062927233E+03  0.14423492086E+04  0.25500000920E-02 0.  1.
</event>
<event>
 5   0  0.1357902E-07  0.2799666E+04  0.7818609E-02  0.8303372E-01
       -1   -1    0    0    0  501  0.00000000000E+00  0.00000000000E+00  0.92881299525E+03  0.92881299526E+03  0.50400001928E-02 0.  1.
        1   -1    0    0  501    0  0.00000000000E+00  0.00000000000E+00 -0.21097174407E+04  0.21097174407E+04  0.50400001928E-02 0. -1.
    10030    2    1    2    0    0  0.00000000000E+00  0.00000000000E+00 -0.11809044455E+04  0.30385304360E+04  0.27996663910E+04 0.  0.
        4    1    3    3  502    0 -0.12292027033E+04  0.64936373345E+03 -0.41238446034E+03  0.14500603781E+04  0.12699999809E+01 0. -1.
       -4    1    3    3    0  502  0.12292027033E+04 -0.64936373345E+03 -0.76851998512E+03  0.15884700578E+04  0.12699999809E+01 0.  1.
</event>
<event>
 5   0  0.3557628E-07  0.2794941E+04  0.7818609E-02  0.8304841E-01
       -2   -1    0    0    0  501  0.00000000000E+00  0.00000000000E+00  0.95831105918E+03  0.95831105919E+03  0.25500000920E-02 0.  1.
        2   -1    0    0  501    0  0.00000000000E+00  0.00000000000E+00 -0.20378802284E+04  0.20378802284E+04  0.25500000920E-02 0. -1.
    10030    2    1    2    0    0  0.00000000000E+00  0.00000000000E+00 -0.10795691692E+04  0.29961912876E+04  0.27949405433E+04 0.  0.
        5    1    3    3  502    0 -0.12735245247E+04  0.55055351723E+03 -0.71893198224E+03  0.15626449294E+04  0.46999998093E+01 0. -1.
       -5    1    3    3    0  502  0.12735245247E+04 -0.55055351723E+03 -0.36063718694E+03  0.14335463581E+04  0.46999998093E+01 0.  1.
</event>
<event>
 5   0  0.1173363E-07  0.2799103E+04  0.7818609E-02  0.8303547E-01
       -4   -1    0    0    0  501  0.00000000000E+00  0.00000000000E+00  0.11818251079E+04  0.11818257903E+04  0.12699999809E+01 0. -1.
        4   -1    0    0  501    0  0.00000000000E+00  0.00000000000E+00 -0.16573879233E+04  0.16573884098E+04  0.12699999809E+01 0.  1.
    10030    2    1    2    0    0  0.00000000000E+00  0.00000000000E+00 -0.47556281539E+03  0.28392142001E+04  0.27991029425E+04 0.  0.
        5    1    3    3  502    0 -0.10461822420E+04  0.86046764034E+03 -0.59470509119E+03  0.14793911177E+04  0.46999998093E+01 0.  1.
       -5    1    3    3    0  502  0.10461822420E+04 -0.86046764034E+03  0.11914227581E+03  0.13598230824E+04  0.46999998093E+01 0. -1.
</event>
<event>
 5   0  0.1361741E-07  0.2799010E+04  0.7818609E-02  0.8303576E-01
        1   -1    0    0  501    0  0.00000000000E+00  0.00000000000E+00  0.14967480810E+04  0.14967480810E+04  0.50400001928E-02 0.  1.
       -1   -1    0    0    0  501  0.00000000000E+00  0.00000000000E+00 -0.13085798168E+04  0.13085798168E+04  0.50400001928E-02 0. -1.
    10030    2    1    2    0    0  0.00000000000E+00  0.00000000000E+00  0.18816826425E+03  0.28053278978E+04  0.27990100604E+04 0.  0.
        5    1    3    3  502    0 -0.13141895892E+04  0.46794880165E+03  0.20623792825E+03  0.14101867006E+04  0.46999998093E+01 0.  1.
       -5    1    3    3    0  502  0.13141895892E+04 -0.46794880165E+03 -0.18069664005E+02  0.13951411972E+04  0.46999998093E+01 0. -1.
</event>
<event>
 5   0  0.1357902E-07  0.2795889E+04  0.7818609E-02  0.8304546E-01
       -1   -1    0    0    0  501  0.00000000000E+00  0.00000000000E+00  0.30617912174E+04  0.30617912174E+04  0.50400001928E-02 0.  1.
        1   -1    0    0  501    0  0.00000000000E+00  0.00000000000E+00 -0.63826987914E+03  0.63826987916E+03  0.50400001928E-02 0. -1.
    10030    2    1    2    0    0  0.00000000000E+00  0.00000000000E+00  0.24235213383E+04  0.37000610966E+04  0.27958892041E+04 0.  0.
        4    1    3    3  502    0  0.28134136581E+03 -0.69239788916E+03  0.27752028274E+04  0.28740772688E+04  0.12699999809E+01 0.  1.
       -4    1    3    3    0  502 -0.28134136581E+03  0.69239788916E+03 -0.35168148912E+03  0.82598382776E+03  0.12699999809E+01 0. -1.
</event>
<event>
 5   0  0.1374680E-07  0.2799732E+04  0.7818609E-02  0.8303352E-01
       -1   -1    0    0    0  501  0.00000000000E+00  0.00000000000E+00  0.12395187086E+04  0.12395187086E+04  0.50400001928E-02 0. -1.
        1   -1    0    0  501    0  0.00000000000E+00  0.00000000000E+00 -0.15809558328E+04  0.15809558328E+04  0.50400001928E-02 0.  1.
    10030    2    1    2    0    0  0.00000000000E+00  0.00000000000E+00 -0.34143712412E+03  0.28204745414E+04  0.27997316530E+04 0.  0.
        3    1    3    3  502    0  0.11612053977E+04  0.78178728908E+03 -0.17667685048E+03  0.14109585610E+04  0.10100000352E+00 0. -1.
       -3    1    3    3    0  502 -0.11612053977E+04 -0.78178728908E+03 -0.16476027364E+03  0.14095159804E+04  0.10100000352E+00 0.  1.
</event>
<event>
 5   0  0.1361741E-07  0.2798523E+04  0.7818609E-02  0.8303727E-01
       -1   -1    0    0    0  501  0.00000000000E+00  0.00000000000E+00  0.91786160255E+03  0.91786160257E+03  0.50400001928E-02 0.  1.
        1   -1    0    0  501    0  0.00000000000E+00  0.00000000000E+00 -0.21331454885E+04  0.21331454885E+04  0.50400001928E-02 0. -1.
    10030    2    1    2    0    0  0.00000000000E+00  0.00000000000E+00 -0.12152838859E+04  0.30510070911E+04  0.27985227078E+04 0.  0.
        5    1    3    3  502    0 -0.39705316357E+03 -0.88013324848E+03 -0.17117423614E+04  0.19652912638E+04  0.46999998093E+01 0. -1.
       -5    1    3    3    0  502  0.39705316357E+03  0.88013324848E+03  0.49645847543E+03  0.10857158273E+04  0.46999998093E+01 0.  1.
</event>
<event>
 5   0  0.1346049E-07  0.2801327E+04  0.7818609E-02  0.8302857E-01
       -1   -1    0    0    0  501  0.00000000000E+00  0.00000000000E+00  0.97091819073E+03  0.97091819074E+03  0.50400001928E-02 0. -1.
        1   -1    0    0  501    0  0.00000000000E+00  0.00000000000E+00 -0.20206208983E+04  0.20206208983E+04  0.50400001928E-02 0.  1.
    10030    2    1    2    0    0  0.00000000000E+00  0.00000000000E+00 -0.10497027075E+04  0.29915390890E+04  0.28013265334E+04 0.  0.
        1    1    3    3  502    0  0.11765800732E+04 -0.73791791641E+03 -0.33087496473E+03  0.14277050684E+04  0.50400001928E-02 0.  1.
       -1    1    3    3    0  502 -0.11765800732E+04  0.73791791641E+03 -0.71882774282E+03  0.15638340206E+04  0.50400001928E-02 0. -1.
</event>
<event>
 5   0  0.3522569E-07  0.2801946E+04  0.7818609E-02  0.8302664E-01
       -2   -1    0    0    0  501  0.00000000000E+00  0.00000000000E+00  0.14863507514E+04  0.14863507514E+04  0.25500000920E-02 0. -1.
        2   -1    0    0  501    0  0.00000000000E+00  0.00000000000E+00 -0.13204993775E+04  0.13204993775E+04  0.25500000920E-02 0.  1.
    10030    2    1    2    0    0  0.00000000000E+00  0.00000000000E+00  0.16585137397E+03  0.28068501289E+04  0.28019459252E+04 0.  0.
        1    1    3    3  502    0 -0.10182412672E+04  0.68696674470E+03  0.75789032171E+03  0.14433074261E+04  0.50400001928E-02 0. -1.
       -1    1    3    3    0  502  0.10182412672E+04 -0.68696674470E+03 -0.59203894774E+03  0.13635427028E+04  0.50400001928E-02 0.  1.
</event>
<event>
 5   0  0.1346049E-07  0.2798593E+04  0.7818609E-02  0.8303705E-01
       -1   -1    0    0    0  501  0.00000000000E+00  0.00000000000E+00  0.70829363116E+03  0.70829363118E+03  0.50400001928E-02 0. -1.
        1   -1    0    0  501    0  0.00000000000E+00  0.00000000000E+00 -0.27644331145E+04  0.27644331145E+04  0.50400001928E-02 0.  1.
    10030    2    1    2    0    0  0.00000000000E+00  0.00000000000E+00 -0.20561394833E+04  0.34727267457E+04  0.27985927670E+04 0.  0.
        1    1    3    3  502    0  0.51791366918E+02 -0.50070985630E+03 -0.26481888501E+04  0.26956069617E+04  0.50400001928E-02 0.  1.
       -1    1    3    3    0  502 -0.51791366918E+02  0.50070985630E+03  0.59204936682E+03  0.77711978398E+03  0.50400001928E-02 0. -1.
</event>
<event>
 5   0  0.3406920E-07  0.2800730E+04  0.7818609E-02  0.8303042E-01
        2   -1    0    0  501    0  0.00000000000E+00  0.00000000000E+00  0.21649512144E+04  0.21649512144E+04  0.25500000920E-02 0.  1.
       -2   -1    0    0    0  501  0.00000000000E+00  0.00000000000E+00 -0.90580400265E+03  0.90580400265E+03  0.25500000920E-02 0. -1.
    10030    2    1    2    0    0  0.00000000000E+00  0.00000000000E+00  0.12591472118E+04  0.30707552171E+04  0.28007295304E+04 0.  0.
        4    1    3    3  502    0 -0.60397030309E+03 -0.68860945410E+03 -0.53182537394E+03  0.10591519950E+04  0.12699999809E+01 0. -1.
       -4    1    3    3    0  502  0.60397030309E+03  0.68860945410E+03  0.17909725857E+04  0.20116032221E+04  0.12699999809E+01 0.  1.
</event>
<event>
 5   0  0.3557628E-07  0.2799330E+04  0.7818609E-02  0.8303477E-01
        2   -1    0    0  501    0  0.00000000000E+00  0.00000000000E+00  0.17735725571E+04  0.17735725571E+04  0.25500000920E-02 0.  1.
       -2   -1    0    0    0  501  0.00000000000E+00  0.00000000000E+00 -0.11045849318E+04  0.11045849318E+04  0.25500000920E-02 0. -1.
    10030    2    1    2    0    0  0.00000000000E+00  0.00000000000E+00  0.66898762530E+03  0.28781574889E+04  0.27993295784E+04 0.  0.
        5    1    3    3  502    0 -0.65652667021E+03 -0.12081028562E+04  0.60358824027E+03  0.15016259966E+04  0.46999998093E+01 0.  1.
       -5    1    3    3    0  502  0.65652667021E+03  0.12081028562E+04  0.65399385039E+02  0.13765314923E+04  0.46999998093E+01 0. -1.
</event>
<event>
 5   0  0.1366235E-07  0.2800335E+04  0.7818609E-02  0.8303164E-01
        1   -1    0    0  501    0  0.00000000000E+00  0.00000000000E+00  0.12323242759E+04  0.12323242759E+04  0.50400001928E-02 0. -1.
       -1   -1    0    0    0  501  0.00000000000E+00  0.00000000000E+00 -0.15908712348E+04  0.15908712348E+04  0.50400001928E-02 0.  1.
    10030    2    1    2    0    0  0.00000000000E+00  0.00000000000E+00 -0.35854695885E+03  0.28231955107E+04  0.28003351531E+04 0.  0.
        2    1    3    3  502    0 -0.10954222938E+04  0.62156556856E+03 -0.79596589541E+03  0.14899179388E+04  0.25500000920E-02 0.  1.
       -2    1    3    3    0  502  0.10954222938E+04 -0.62156556856E+03  0.43741893657E+03  0.13332775719E+04  0.25500000920E-02 0. -1.
</event>
<event>
 5   0  0.1346049E-07  0.2799966E+04  0.7818609E-02  0.8303279E-01
       -1   -1    0    0    0  501  0.00000000000E+00  0.00000000000E+00  0.15178281815E+04  0.15178281816E+04  0.50400001928E-02 0.  1.
        1   -1    0    0  501    0  0.00000000000E+00  0.00000000000E+00 -0.12912871136E+04  0.12912871136E+04  0.50400001928E-02 0. -1.
    10030    2    1    2    0    0  0.00000000000E+00  0.00000000000E+00  0.22654106791E+03  0.28091152952E+04  0.27999656938E+04 0.  0.
        1    1    3    3  502    0  0.23137754297E+03 -0.32777909537E+03 -0.12323719565E+04  0.12960383258E+04  0.50400001928E-02 0. -1.
       -1    1    3    3    0  502 -0.23137754297E+03  0.32777909537E+03  0.14589130244E+04  0.15130769694E+04  0.50400001928E-02 0.  1.
</event>
<event>
 5   0  0.3571498E-07  0.2800507E+04  0.7818609E-02  0.8303111E-01
       -2   -1    0    0    0  501  0.00000000000E+00  0.00000000000E+00  0.14330904886E+04  0.14330904886E+04  0.25500000920E-02 0. -1.
        2   -1    0    0  501    0  0.00000000000E+00  0.00000000000E+00 -0.13681689486E+04  0.13681689486E+04  0.25500000920E-02 0.  1.
    10030    2    1    2    0    0  0.00000000000E+00  0.00000000000E+00  0.64921540060E+02  0.28012594372E+04  0.28005070306E+04 0.  0.
        2    1    3    3  502    0  0.33037992600E+03  0.97743083917E+02  0.13900303667E+04  0.14320925342E+04  0.25500000920E-02 0. -1.
       -2    1    3    3    0  502 -0.33037992600E+03 -0.97743083917E+02 -0.13251088267E+04  0.13691669031E+04  0.25500000920E-02 0.  1.
</event>
<event>
 5   0  0.1374680E-07  0.2800329E+04  0.7818609E-02  0.8303166E-01
       -1   -1    0    0    0  501  0.00000000000E+00  0.00000000000E+00  0.96062892615E+03  0.96062892617E+03  0.50400001928E-02 0. -1.
        1   -1    0    0  501    0  0.00000000000E+00  0.00000000000E+00 -0.20408094943E+04  0.20408094943E+04  0.50400001928E-02 0.  1.
    10030    2    1    2    0    0  0.00000000000E+00  0.00000000000E+00 -0.10801805682E+04  0.30014384205E+04  0.28003290043E+04 0.  0.
        3    1    3    3  502    0  0.72487198203E+03 -0.40708192577E+02 -0.18233029471E+04  0.19625315779E+04  0.10100000352E+00 0.  1.
       -3    1    3    3    0  502 -0.72487198203E+03  0.40708192577E+02  0.74312237892E+03  0.10389068426E+04  0.10100000352E+00 0. -1.
</event>
<event>
 5   0  0.1374680E-07  0.2798762E+04  0.7818609E-02  0.8303653E-01
       -1   -1    0    0    0  501  0.00000000000E+00  0.00000000000E+00  0.14502687577E+04  0.14502687577E+04  0.50400001928E-02 0.  1.
        1   -1    0    0  501    0  0.00000000000E+00  0.00000000000E+00 -0.13502785406E+04  0.13502785406E+04  0.50400001928E-02 0. -1.
    10030    2    1    2    0    0  0.00000000000E+00  0.00000000000E+00  0.99990217042E+02  0.28005472983E+04  0.27987617131E+04 0.  0.
        3    1    3    3  502    0 -0.13047298095E+04  0.11065986322E+03  0.54397116882E+03  0.14179104780E+04  0.10100000352E+00 0.  1.
       -3    1    3    3    0  502  0.13047298095E+04 -0.11065986322E+03 -0.44398095178E+03  0.13826368203E+04  0.10100000352E+00 0. -1.
</event>
<event>
 5   0  0.3571498E-07  0.2806019E+04  0.7818609E-02  0.8301402E-01
        2   -1    0    0  501    0  0.00000000000E+00  0.00000000000E+00  0.21286367170E+04  0.21286367170E+04  0.25500000920E-02 0. -1.
       -2   -1    0    0    0  501  0.00000000000E+00  0.00000000000E+00 -0.92474013733E+03  0.92474013733E+03  0.25500000920E-02 0.  1.
    10030    2    1    2    0    0  0.00000000000E+00  0.00000000000E+00  0.12038965797E+04  0.30533768544E+04  0.28060191090E+04 0.  0.
        2    1    3    3  502    0 -0.84712073145E+03 -0.62525883317E+03  0.16109853322E+04  0.19245352381E+04  0.25500000920E-02 0. -1.
       -2    1    3    3    0  502  0.84712073145E+03  0.62525883317E+03 -0.40708875253E+03  0.11288416162E+04  0.25500000920E-02 0.  1.
</event>
<event>
 5   0  0.1361741E-07  0.2798832E+04  0.7818609E-02  0.8303631E-01
       -1   -1    0    0    0  501  0.00000000000E+00  0.00000000000E+00  0.21717913295E+04  0.21717913295E+04  0.50400001928E-02 0.  1.
        1   -1    0    0  501    0  0.00000000000E+00  0.00000000000E+00 -0.90172803067E+03  0.90172803069E+03  0.50400001928E-02 0. -1.
    10030    2    1    2    0    0  0.00000000000E+00  0.00000000000E+00  0.12700632989E+04  0.30735193602E+04  0.27988319840E+04 0.  0.
        5    1    3    3  502    0 -0.77916568356E+03 -0.11620135626E+03 -0.63508954116E+03  0.10119104372E+04  0.46999998093E+01 0. -1.
       -5    1    3    3    0  502  0.77916568356E+03  0.11620135626E+03  0.19051528400E+04  0.20616089230E+04  0.46999998093E+01 0.  1.
</event>
<event>
 5   0  0.3502141E-07  0.2798319E+04  0.7818609E-02  0.8303790E-01
        2   -1    0    0  501    0  0.00000000000E+00  0.00000000000E+00  0.12723525801E+04  0.12723525801E+04  0.25500000920E-02 0. -1.
       -2   -1    0    0    0  501  0.00000000000E+00  0.00000000000E+00 -0.15386042249E+04  0.15386042249E+04  0.25500000920E-02 0.  1.
    10030    2    1    2    0    0  0.00000000000E+00  0.00000000000E+00 -0.26625164478E+03  0.28109568050E+04  0.27983188206E+04 0.  0.
        3    1    3    3  502    0 -0.13459307683E+04 -0.19279658466E+03 -0.46468755126E+03  0.14368836719E+04  0.10100000352E+00 0.  1.
       -3    1    3    3    0  502  0.13459307683E+04  0.19279658466E+03  0.19843590649E+03  0.13740731332E+04  0.10100000352E+00 0. -1.
</event>
<event>
 5   0  0.3502141E-07  0.2798470E+04  0.7818609E-02  0.8303744E-01
        2   -1    0    0  501    0  0.00000000000E+00  0.00000000000E+00  0.14285886712E+04  0.14285886712E+04  0.25500000920E-02 0.  1.
       -2   -1    0    0    0  501  0.00000000000E+00  0.00000000000E+00 -0.13704843093E+04  0.13704843093E+04  0.25500000920E-02 0. -1.
    10030    2    1    2    0    0  0.00000000000E+00  0.00000000000E+00  0.58104361888E+02  0.27990729804E+04  0.27984698378E+04 0.  0.
        3    1    3    3  502    0  0.11442794425E+04 -0.58155414699E+03 -0.52809361659E+03  0.13879710179E+04  0.10100000352E+00 0. -1.
       -3    1    3    3    0  502 -0.11442794425E+04  0.58155414699E+03  0.58619797848E+03  0.14111019625E+04  0.10100000352E+00 0.  1.
</event>
<event>
 5   0  0.3571498E-07  0.2800109E+04  0.7818609E-02  0.8303235E-01
       -2   -1    0    0    0  501  0.00000000000E+00  0.00000000000E+00  0.65647670865E+03  0.65647670866E+03  0.25500000920E-02 0.  1.
        2   -1    0    0  501    0  0.00000000000E+00  0.00000000000E+00 -0.29858666864E+04  0.29858666864E+04  0.25500000920E-02 0. -1.
    10030    2    1    2    0    0  0.00000000000E+00  0.00000000000E+00 -0.23293899777E+04  0.36423433950E+04  0.28001085227E+04 0.  0.
        2    1    3    3  502    0 -0.76078321259E+03 -0.80552564863E+03 -0.22779807577E+04  0.25331519891E+04  0.25500000920E-02 0. -1.
       -2    1    3    3    0  502  0.76078321259E+03  0.80552564863E+03 -0.51409219992E+02  0.11091914060E+04  0.25500000920E-02 0.  1.
</event>
<event>
 5   0  0.1357902E-07  0.2798871E+04  0.7818609E-02  0.8303619E-01
       -1   -1    0    0    0  501  0.00000000000E+00  0.00000000000E+00  0.10225565957E+04  0.10225565957E+04  0.50400001928E-02 0. -1.
        1   -1    0    0  501    0  0.00000000000E+00  0.00000000000E+00 -0.19152184149E+04  0.19152184149E+04  0.50400001928E-02 0.  1.
    10030    2    1    2    0    0  0.00000000000E+00  0.00000000000E+00 -0.89266181928E+03  0.29377750106E+04  0.27988706453E+04 0.  0.
        4    1    3    3  502    0 -0.10579967106E+04 -0.79002731979E+03 -0.93293022993E+03  0.16167438364E+04  0.12699999809E+01 0.  1.
       -4    1    3    3    0  502  0.10579967106E+04  0.79002731979E+03  0.40268410642E+02  0.13210311743E+04  0.12699999809E+01 0. -1.
</event>
<event>
 5   0  0.3522569E-07  0.2800340E+04  0.7818609E-02  0.8303163E-01
       -2   -1    0    0    0  501  0.00000000000E+00  0.00000000000E+00  0.12804823169E+04  0.12804823170E+04  0.25500000920E-02 0. -1.
        2   -1    0    0  501    0  0.00000000000E+00  0.00000000000E+00 -0.15310446050E+04  0.15310446050E+04  0.25500000920E-02 0.  1.
    10030    2    1    2    0    0  0.00000000000E+00  0.00000000000E+00 -0.25056228806E+03  0.28115269220E+04  0.28003396531E+04 0.  0.
        1    1    3    3  502    0 -0.13088516582E+04 -0.20660911689E+03  0.32895923760E+03  0.13652817183E+04  0.50400001928E-02 0. -1.
       -1    1    3    3    0  502  0.13088516582E+04  0.20660911689E+03 -0.57952152566E+03  0.14462452036E+04  0.50400001928E-02 0.  1.
</event>
<event>
 5   0  0.3571498E-07  0.2800278E+04  0.7818609E-02  0.8303182E-01
        2   -1    0    0  501    0  0.00000000000E+00  0.00000000000E+00  0.17425267573E+04  0.17425267573E+04  0.25500000920E-02 0. -1.
       -2   -1    0    0    0  501  0.00000000000E+00  0.00000000000E+00 -0.11250270238E+04  0.11250270239E+04  0.25500000920E-02 0.  1.
    10030    2    1    2    0    0  0.00000000000E+00  0.00000000000E+00  0.61749973344E+03  0.28675537811E+04  0.28002783374E+04 0.  0.
        2    1    3    3  502    0  0.29135611901E+03  0.77277804517E+03  0.14665387652E+04  0.16830954355E+04  0.25500000920E-02 0. -1.
       -2    1    3    3    0  502 -0.29135611901E+03 -0.77277804517E+03 -0.84903903173E+03  0.11844583457E+04  0.25500000920E-02 0.  1.
</event>
<event>
 5   0  0.3522569E-07  0.2800507E+04  0.7818609E-02  0.8303111E-01
        2   -1    0    0  501    0  0.00000000000E+00  0.00000000000E+00  0.16344512454E+04  0.16344512454E+04  0.25500000920E-02 0.  1.
       -2   -1    0    0    0  501  0.00000000000E+00  0.00000000000E+00 -0.11996139372E+04  0.11996139372E+04  0.25500000920E-02 0. -1.
    10030    2    1    2    0    0  0.00000000000E+00  0.00000000000E+00  0.43483730820E+03  0.28340651826E+04  0.28005074495E+04 0.  0.
        1    1    3    3  502    0  0.80463114983E+03 -0.88216546517E+03  0.95766399672E+03  0.15306101809E+04  0.50400001928E-02 0.  1.
       -1    1    3    3    0  502 -0.80463114983E+03  0.88216546517E+03 -0.52282668852E+03  0.13034550017E+04  0.50400001928E-02 0. -1.
</event>
<event>
 5   0  0.3502141E-07  0.2801196E+04  0.7818609E-02  0.8302897E-01
       -2   -1    0    0    0  501  0.00000000000E+00  0.00000000000E+00  0.10027307118E+04  0.10027307118E+04  0.25500000920E-02 0. -1.
        2   -1    0    0  501    0  0.00000000000E+00  0.00000000000E+00 -0.19563320664E+04  0.19563320664E+04  0.25500000920E-02 0.  1.
    10030    2    1    2    0    0  0.00000000000E+00  0.00000000000E+00 -0.95360135458E+03  0.29590627783E+04  0.28011956344E+04 0.  0.
        3    1    3    3  502    0  0.91987580211E+03  0.77474710374E+02 -0.15894914137E+04  0.18381122889E+04  0.10100000352E+00 0.  1.
       -3    1    3    3    0  502 -0.91987580211E+03 -0.77474710374E+02  0.63589005916E+03  0.11209504894E+04  0.10100000352E+00 0. -1.
</event>
<event>
 5   0  0.1366235E-07  0.2795394E+04  0.7818609E-02  0.8304700E-01
        1   -1    0    0  501    0  0.00000000000E+00  0.00000000000E+00  0.11530305257E+04  0.11530305257E+04  0.50400001928E-02 0. -1.
       -1   -1    0    0    0  501  0.00000000000E+00  0.00000000000E+00 -0.16942802947E+04  0.16942802947E+04  0.50400001928E-02 0.  1.
    10030    2    1    2    0    0  0.00000000000E+00  0.00000000000E+00 -0.54124976902E+03  0.28473108204E+04  0.27953939965E+04 0.  0.
        2    1    3    3  502    0 -0.27928141036E+03 -0.12320159731E+04  0.33855920085E+03  0.13078546542E+04  0.25500000920E-02 0. -1.
       -2    1    3    3    0  502  0.27928141036E+03  0.12320159731E+04 -0.87980896987E+03  0.15394561662E+04  0.25500000920E-02 0.  1.
</event>
<event>
 5   0  0.3522569E-07  0.2800185E+04  0.7818609E-02  0.8303211E-01
       -2   -1    0    0    0  501  0.00000000000E+00  0.00000000000E+00  0.11077491249E+04  0.11077491249E+04  0.25500000920E-02 0.  1.
        2   -1    0    0  501    0  0.00000000000E+00  0.00000000000E+00 -0.17695875733E+04  0.17695875733E+04  0.25500000920E-02 0. -1.
    10030    2    1    2    0    0  0.00000000000E+00  0.00000000000E+00 -0.66183844837E+03  0.28773366983E+04  0.28001850552E+04 0.  0.
        1    1    3    3  502    0 -0.79461352551E+03 -0.16792597777E+03  0.84096324290E+03  0.11691146072E+04  0.50400001928E-02 0.  1.
       -1    1    3    3    0  502  0.79461352551E+03  0.16792597777E+03 -0.15028016913E+04  0.17082220910E+04  0.50400001928E-02 0. -1.
</event>
<event>
 5   0  0.3406920E-07  0.2800291E+04  0.7818609E-02  0.8303178E-01
       -2   -1    0    0    0  501  0.00000000000E+00  0.00000000000E+00  0.17811039696E+04  0.17811039696E+04  0.25500000920E-02 0. -1.
        2   -1    0    0  501    0  0.00000000000E+00  0.00000000000E+00 -0.11006699595E+04  0.11006699595E+04  0.25500000920E-02 0.  1.
    10030    2    1    2    0    0  0.00000000000E+00  0.00000000000E+00  0.68043401005E+03  0.28817739291E+04  0.28002911521E+04 0.  0.
        4    1    3    3  502    0 -0.12592896911E+04 -0.12950239684E+03  0.95580739570E+03  0.15862379353E+04  0.12699999809E+01 0. -1.
       -4    1    3    3    0  502  0.12592896911E+04  0.12950239684E+03 -0.27537338565E+03  0.12955359938E+04  0.12699999809E+01 0.  1.
</event>
<event>
 5   0  0.1346049E-07  0.2799397E+04  0.7818609E-02  0.8303456E-01
       -1   -1    0    0    0  501  0.00000000000E+00  0.00000000000E+00  0.91036802421E+03  0.91036802422E+03  0.50400001928E-02 0. -1.
        1   -1    0    0  501    0  0.00000000000E+00  0.00000000000E+00 -0.21520481228E+04  0.21520481228E+04  0.50400001928E-02 0.  1.
    10030    2    1    2    0    0  0.00000000000E+00  0.00000000000E+00 -0.12416800986E+04  0.30624161470E+04  0.27993969333E+04 0.  0.
        1    1    3    3  502    0  0.76450221742E+03 -0.51206111881E+03 -0.17746835716E+04  0.19990427732E+04  0.50400001928E-02 0.  1.
       -1    1    3    3    0  502 -0.76450221742E+03  0.51206111881E+03  0.53300347301E+03  0.10633733738E+04  0.50400001928E-02 0. -1.
</event>
<event>
 5   0  0.1366235E-07  0.2799296E+04  0.7818609E-02  0.8303487E-01
        1   -1    0    0  501    0  0.00000000000E+00  0.00000000000E+00  0.21554294670E+04  0.21554294670E+04  0.50400001928E-02 0. -1.
       -1   -1    0    0    0  501  0.00000000000E+00  0.00000000000E+00 -0.90887424325E+03  0.90887424326E+03  0.50400001928E-02 0.  1.
    10030    2    1    2    0    0  0.00000000000E+00  0.00000000000E+00  0.12465552238E+04  0.30643037103E+04  0.27992958584E+04 0.  0.
        2    1    3    3  502    0  0.27483799191E+03  0.20847932921E+03 -0.86161026105E+03  0.92810117684E+03  0.25500000920E-02 0.  1.
       -2    1    3    3    0  502 -0.27483799191E+03 -0.20847932921E+03  0.21081654848E+04  0.21362025335E+04  0.25500000920E-02 0. -1.
</event>
<event>
 5   0  0.1361741E-07  0.2799398E+04  0.7818609E-02  0.8303455E-01
       -1   -1    0    0    0  501  0.00000000000E+00  0.00000000000E+00  0.81355732779E+03  0.81355732781E+03  0.50400001928E-02 0. -1.
        1   -1    0    0  501    0  0.00000000000E+00  0.00000000000E+00 -0.24081370812E+04  0.24081370812E+04  0.50400001928E-02 0.  1.
    10030    2    1    2    0    0  0.00000000000E+00  0.00000000000E+00 -0.15945797534E+04  0.32216944090E+04  0.27993981987E+04 0.  0.
        5    1    3    3  502    0  0.10536213358E+03  0.58427292398E+03  0.66146251457E+03  0.88883675502E+03  0.46999998093E+01 0. -1.
       -5    1    3    3    0  502 -0.10536213358E+03 -0.58427292398E+03 -0.22560422680E+04  0.23328576540E+04  0.46999998093E+01 0.  1.
</event>
<event>
 5   0  0.1374680E-07  0.2800215E+04  0.7818609E-02  0.8303202E-01
        1   -1    0    0  501    0  0.00000000000E+00  0.00000000000E+00  0.17836187648E+04  0.17836187649E+04  0.50400001928E-02 0. -1.
       -1   -1    0    0    0  501  0.00000000000E+00  0.00000000000E+00 -0.10990579695E+04  0.10990579695E+04  0.50400001928E-02 0.  1.
    10030    2    1    2    0    0  0.00000000000E+00  0.00000000000E+00  0.68456079532E+03  0.28826767344E+04  0.28002145761E+04 0.  0.
        3    1    3    3  502    0  0.11178592925E+04  0.38743669140E+03 -0.42848979379E+03  0.12583004813E+04  0.10100000352E+00 0.  1.
       -3    1    3    3    0  502 -0.11178592925E+04 -0.38743669140E+03  0.11130505891E+04  0.16243762531E+04  0.10100000352E+00 0. -1.
</event>
<event>
 5   0  0.3406920E-07  0.2799309E+04  0.7818609E-02  0.8303483E-01
       -2   -1    0    0    0  501  0.00000000000E+00  0.00000000000E+00  0.17419385929E+04  0.17419385929E+04  0.25500000920E-02 0.  1.
        2   -1    0    0  501    0  0.00000000000E+00  0.00000000000E+00 -0.11246278487E+04  0.11246278487E+04  0.25500000920E-02 0. -1.
    10030    2    1    2    0    0  0.00000000000E+00  0.00000000000E+00  0.61731074418E+03  0.28665664416E+04  0.27993089521E+04 0.  0.
        4    1    3    3  502    0  0.98009689097E+03 -0.64404333898E+03 -0.47366954775E+03  0.12648107335E+04  0.12699999809E+01 0. -1.
       -4    1    3    3    0  502 -0.98009689097E+03  0.64404333898E+03  0.10909802919E+04  0.16017557081E+04  0.12699999809E+01 0.  1.
</event>
<event>
 5   0  0.1346049E-07  0.2799748E+04  0.7818609E-02  0.8303347E-01
       -1   -1    0    0    0  501  0.00000000000E+00  0.00000000000E+00  0.13941849707E+04  0.13941849707E+04  0.50400001928E-02 0. -1.
        1   -1    0    0  501    0  0.00000000000E+00  0.00000000000E+00 -0.14055858558E+04  0.14055858558E+04  0.50400001928E-02 0.  1.
    10030    2    1    2    0    0  0.00000000000E+00  0.00000000000E+00 -0.11400885026E+02  0.27997708265E+04  0.27997476138E+04 0.  0.
        1    1    3    3  502    0 -0.57383441006E+03  0.40432474892E+03 -0.12168596255E+04  0.14048173479E+04  0.50400001928E-02 0.  1.
       -1    1    3    3    0  502  0.57383441006E+03 -0.40432474892E+03  0.12054587404E+04  0.13949534787E+04  0.50400001928E-02 0. -1.
</event>
<event>
 5   0  0.3557628E-07  0.2798433E+04  0.7818609E-02  0.8303755E-01
       -2   -1    0    0    0  501  0.00000000000E+00  0.00000000000E+00  0.96571272631E+03  0.96571272631E+03  0.25500000920E-02 0.  1.
        2   -1    0    0  501    0  0.00000000000E+00  0.00000000000E+00 -0.20273176907E+04  0.20273176907E+04  0.25500000920E-02 0. -1.
    10030    2    1    2    0    0  0.00000000000E+00  0.00000000000E+00 -0.10616049643E+04  0.29930304170E+04  0.27984327715E+04 0.  0.
        5    1    3    3  502    0 -0.10993010216E+04  0.80989754339E+03 -0.85764680522E+03  0.16124443865E+04  0.46999998093E+01 0. -1.
       -5    1    3    3    0  502  0.10993010216E+04 -0.80989754339E+03 -0.20395815912E+03  0.13805860305E+04  0.46999998093E+01 0.  1.
</event>
<event>
 5   0  0.3557628E-07  0.2801116E+04  0.7818609E-02  0.8302922E-01
       -2   -1    0    0    0  501  0.00000000000E+00  0.00000000000E+00  0.73063420860E+03  0.73063420860E+03  0.25500000920E-02 0. -1.
        2   -1    0    0  501    0  0.00000000000E+00  0.00000000000E+00 -0.26847390099E+04  0.26847390099E+04  0.25500000920E-02 0.  1.
    10030    2    1    2    0    0  0.00000000000E+00  0.00000000000E+00 -0.19541048013E+04  0.34153732185E+04  0.28011156076E+04 0.  0.
        5    1    3    3  502    0 -0.20404578510E+03 -0.11435541450E+04 -0.19310559817E+04  0.22535194829E+04  0.46999998093E+01 0.  1.
       -5    1    3    3    0  502  0.20404578510E+03  0.11435541450E+04 -0.23048819598E+02  0.11618537357E+04  0.46999998093E+01 0. -1.
</event>
<event>
 5   0  0.3557628E-07  0.2805092E+04  0.7818609E-02  0.8301689E-01
        2   -1    0    0  501    0  0.00000000000E+00  0.00000000000E+00  0.86766677013E+03  0.86766677014E+03  0.25500000920E-02 0. -1.
       -2   -1    0    0    0  501  0.00000000000E+00  0.00000000000E+00 -0.22671547654E+04  0.22671547654E+04  0.25500000920E-02 0.  1.
    10030    2    1    2    0    0  0.00000000000E+00  0.00000000000E+00 -0.13994879953E+04  0.31348215356E+04  0.28050916938E+04 0.  0.
        5    1    3    3  502    0  0.11392693531E+03  0.75287984592E+02  0.86021103320E+03  0.87099525765E+03  0.46999998093E+01 0. -1.
       -5    1    3    3    0  502 -0.11392693531E+03 -0.75287984592E+02 -0.22596990285E+04  0.22638262779E+04  0.46999998093E+01 0.  1.
</event>
<event>
 5   0  0.3571498E-07  0.2798120E+04  0.7818609E-02  0.8303852E-01
        2   -1    0    0  501    0  0.00000000000E+00  0.00000000000E+00  0.14580196037E+04  0.14580196037E+04  0.25500000920E-02 0. -1.
       -2   -1    0    0    0  501  0.00000000000E+00  0.00000000000E+00 -0.13424845306E+04  0.13424845306E+04  0.25500000920E-02 0.  1.
    10030    2    1    2    0    0  0.00000000000E+00  0.00000000000E+00  0.11553507305E+03  0.28005041343E+04  0.27981199140E+04 0.  0.
        2    1    3    3  502    0 -0.22172293764E+03  0.13003860871E+04  0.52421585517E+03  0.14194954383E+04  0.25500000920E-02 0. -1.
       -2    1    3    3    0  502  0.22172293764E+03 -0.13003860871E+04 -0.40868078211E+03  0.13810086959E+04  0.25500000920E-02 0.  1.
</event>
<event>
 5   0  0.1357902E-07  0.2799784E+04  0.7818609E-02  0.8303335E-01
        1   -1    0    0  501    0  0.00000000000E+00  0.00000000000E+00  0.12444889680E+04  0.12444889680E+04  0.50400001928E-02 0. -1.
       -1   -1    0    0    0  501  0.00000000000E+00  0.00000000000E+00 -0.15747011047E+04  0.15747011047E+04  0.50400001928E-02 0.  1.
    10030    2    1    2    0    0  0.00000000000E+00  0.00000000000E+00 -0.33021213671E+03  0.28191900727E+04  0.27997843865E+04 0.  0.
        4    1    3    3  502    0  0.86594804713E+03  0.10792543381E+04 -0.37880473898E+03  0.14346255922E+04  0.12699999809E+01 0.  1.
       -4    1    3    3    0  502 -0.86594804713E+03 -0.10792543381E+04  0.48592602270E+02  0.13845644805E+04  0.12699999809E+01 0. -1.
</event>
<event>
 5   0  0.3522569E-07  0.2800242E+04  0.7818609E-02  0.8303193E-01
        2   -1    0    0  501    0  0.00000000000E+00  0.00000000000E+00  0.16904643834E+04  0.16904643834E+04  0.25500000920E-02 0. -1.
       -2   -1    0    0    0  501  0.00000000000E+00  0.00000000000E+00 -0.11596454777E+04  0.11596454777E+04  0.25500000920E-02 0.  1.
    10030    2    1    2    0    0  0.00000000000E+00  0.00000000000E+00  0.53081890570E+03  0.28501098611E+04  0.28002424019E+04 0.  0.
        1    1    3    3  502    0 -0.10326874450E+03  0.12584026013E+03 -0.11499806350E+04  0.11614455070E+04  0.50400001928E-02 0.  1.
       -1    1    3    3    0  502  0.10326874450E+03 -0.12584026013E+03  0.16807995407E+04  0.16886643541E+04  0.50400001928E-02 0. -1.
</event>
<event>
 5   0  0.3557628E-07  0.2800098E+04  0.7818609E-02  0.8303238E-01
       -2   -1    0    0    0  501  0.00000000000E+00  0.00000000000E+00  0.10969262210E+04  0.10969262210E+04  0.25500000920E-02 0. -1.
        2   -1    0    0  501    0  0.00000000000E+00  0.00000000000E+00 -0.17869367672E+04  0.17869367672E+04  0.25500000920E-02 0.  1.
    10030    2    1    2    0    0  0.00000000000E+00  0.00000000000E+00 -0.69001054620E+03  0.28838629883E+04  0.28000984235E+04 0.  0.
        5    1    3    3  502    0  0.74498374327E+03 -0.99321808403E+03 -0.10113791052E+04  0.16013721381E+04  0.46999998093E+01 0.  1.
       -5    1    3    3    0  502 -0.74498374327E+03  0.99321808403E+03  0.32136855898E+03  0.12824908502E+04  0.46999998093E+01 0. -1.
</event>
<event>
 5   0  0.3406920E-07  0.2800075E+04  0.7818609E-02  0.8303245E-01
        2   -1    0    0  501    0  0.00000000000E+00  0.00000000000E+00  0.17631354172E+04  0.17631354172E+04  0.25500000920E-02 0.  1.
       -2   -1    0    0    0  501  0.00000000000E+00  0.00000000000E+00 -0.11117151569E+04  0.11117151569E+04  0.25500000920E-02 0. -1.
    10030    2    1    2    0    0  0.00000000000E+00  0.00000000000E+00  0.65142026039E+03  0.28748505741E+04  0.28000745468E+04 0.  0.
        4    1    3    3  502    0  0.32709694234E+03  0.86869032032E+03 -0.75036659155E+03  0.11935941173E+04  0.12699999809E+01 0. -1.
       -4    1    3    3    0  502 -0.32709694234E+03 -0.86869032032E+03  0.14017868519E+04  0.16812564568E+04  0.12699999809E+01 0.  1.
</event>
<event>
 5   0  0.3502141E-07  0.2799082E+04  0.7818609E-02  0.8303553E-01
       -2   -1    0    0    0  501  0.00000000000E+00  0.00000000000E+00  0.13800396877E+04  0.13800396877E+04  0.25500000920E-02 0.  1.
        2   -1    0    0  501    0  0.00000000000E+00  0.00000000000E+00 -0.14193178101E+04  0.14193178101E+04  0.25500000920E-02 0. -1.
    10030    2    1    2    0    0  0.00000000000E+00  0.00000000000E+00 -0.39278122361E+02  0.27993574978E+04  0.27990819262E+04 0.  0.
        3    1    3    3  502    0  0.77649605124E+03  0.20579886115E+02 -0.11839466367E+04  0.14160152888E+04  0.10100000352E+00 0. -1.
       -3    1    3    3    0  502 -0.77649605124E+03 -0.20579886115E+02  0.11446685143E+04  0.13833422090E+04  0.10100000352E+00 0.  1.
</event>
<event>
 5   0  0.3557628E-07  0.2781118E+04  0.7818609E-02  0.8309155E-01
       -2   -1    0    0    0  501  0.00000000000E+00  0.00000000000E+00  0.11952079363E+04  0.11952079363E+04  0.25500000920E-02 0. -1.
        2   -1    0    0  501    0  0.00000000000E+00  0.00000000000E+00 -0.16178389372E+04  0.16178389372E+04  0.25500000920E-02 0.  1.
    10030    2    1    2    0    0  0.00000000000E+00  0.00000000000E+00 -0.42263100093E+03  0.28130468735E+04  0.27811177159E+04 0.  0.
        5    1    3    3  502    0 -0.11327332643E+02  0.64758181868E+03 -0.14559470455E+04  0.15935163663E+04  0.46999998093E+01 0.  1.
       -5    1    3    3    0  502  0.11327332643E+02 -0.64758181868E+03  0.10333160445E+04  0.12195305073E+04  0.46999998093E+01 0. -1.
</event>
<event>
 5   0  0.1357902E-07  0.2798157E+04  0.7818609E-02  0.8303841E-01
        1   -1    0    0  501    0  0.00000000000E+00  0.00000000000E+00  0.18659281875E+04  0.18659281875E+04  0.50400001928E-02 0.  1.
       -1   -1    0    0    0  501  0.00000000000E+00  0.00000000000E+00 -0.10490331251E+04  0.10490331252E+04  0.50400001928E-02 0. -1.
    10030    2    1    2    0    0  0.00000000000E+00  0.00000000000E+00  0.81689506240E+03  0.29149613127E+04  0.27981568776E+04 0.  0.
        4    1    3    3  502    0 -0.31775542688E+03  0.10077212678E+04  0.13637598070E+04  0.17251994345E+04  0.12699999809E+01 0.  1.
       -4    1    3    3    0  502  0.31775542688E+03 -0.10077212678E+04 -0.54686474457E+03  0.11897618782E+04  0.12699999809E+01 0. -1.
</event>
<event>
 5   0  0.1374680E-07  0.2799710E+04  0.7818609E-02  0.8303358E-01
       -1   -1    0    0    0  501  0.00000000000E+00  0.00000000000E+00  0.25582574743E+04  0.25582574743E+04  0.50400001928E-02 0. -1.
        1   -1    0    0  501    0  0.00000000000E+00  0.00000000000E+00 -0.76598781490E+03  0.76598781491E+03  0.50400001928E-02 0.  1.
    10030    2    1    2    0    0  0.00000000000E+00  0.00000000000E+00  0.17922696594E+04  0.33242452892E+04  0.27997100226E+04 0.  0.
        3    1    3    3  502    0 -0.63198294016E+03  0.11961063641E+04  0.46881761190E+03  0.14317342052E+04  0.10100000352E+00 0. -1.
       -3    1    3    3    0  502  0.63198294016E+03 -0.11961063641E+04  0.13234520475E+04  0.18925110840E+04  0.10100000352E+00 0.  1.
</event>
<event>
 5   0  0.1361741E-07  0.2800266E+04  0.7818609E-02  0.8303186E-01
       -1   -1    0    0    0  501  0.00000000000E+00  0.00000000000E+00  0.15834402180E+04  0.15834402180E+04  0.50400001928E-02 0.  1.
        1   -1    0    0  501    0  0.00000000000E+00  0.00000000000E+00 -0.12380465242E+04  0.12380465242E+04  0.50400001928E-02 0. -1.
    10030    2    1    2    0    0  0.00000000000E+00  0.00000000000E+00  0.34539369380E+03  0.28214867422E+04  0.28002661718E+04 0.  0.
        5    1    3    3  502    0 -0.98494291409E+03  0.98311415588E+03  0.17501758500E+02  0.13917450877E+04  0.46999998093E+01 0.  1.
       -5    1    3    3    0  502  0.98494291409E+03 -0.98311415588E+03  0.32789193530E+03  0.14297416545E+04  0.46999998093E+01 0. -1.
</event>
<event>
 5   0  0.3522569E-07  0.2800413E+04  0.7818609E-02  0.8303140E-01
        2   -1    0    0  501    0  0.00000000000E+00  0.00000000000E+00  0.22469791992E+04  0.22469791992E+04  0.25500000920E-02 0.  1.
       -2   -1    0    0    0  501  0.00000000000E+00  0.00000000000E+00 -0.87253952344E+03  0.87253952344E+03  0.25500000920E-02 0. -1.
    10030    2    1    2    0    0  0.00000000000E+00  0.00000000000E+00  0.13744396758E+04  0.31195187226E+04  0.28004129407E+04 0.  0.
        1    1    3    3  502    0 -0.26950579547E+01  0.97421405306E+03  0.18075440306E+04  0.20533669198E+04  0.50400001928E-02 0.  1.
       -1    1    3    3    0  502  0.26950579547E+01 -0.97421405306E+03 -0.43310435487E+03  0.10661518029E+04  0.50400001928E-02 0. -1.
</event>
<event>
 5   0  0.3557628E-07  0.2801640E+04  0.7818609E-02  0.8302759E-01
        2   -1    0    0  501    0  0.00000000000E+00  0.00000000000E+00  0.13985128022E+04  0.13985128022E+04  0.25500000920E-02 0.  1.
       -2   -1    0    0    0  501  0.00000000000E+00  0.00000000000E+00 -0.14031308426E+04  0.14031308426E+04  0.25500000920E-02 0. -1.
    10030    2    1    2    0    0  0.00000000000E+00  0.00000000000E+00 -0.46180403551E+01  0.28016436448E+04  0.28016398387E+04 0.  0.
        5    1    3    3  502    0 -0.27095381702E+03  0.50595095908E+03 -0.12801495615E+04  0.14029281285E+04  0.46999998093E+01 0. -1.
       -5    1    3    3    0  502  0.27095381702E+03 -0.50595095908E+03  0.12755315212E+04  0.13987155163E+04  0.46999998093E+01 0.  1.
</event>
<event>
 5   0  0.1361741E-07  0.2800626E+04  0.7818609E-02  0.8303074E-01
        1   -1    0    0  501    0  0.00000000000E+00  0.00000000000E+00  0.14983526964E+04  0.14983526964E+04  0.50400001928E-02 0.  1.
       -1   -1    0    0    0  501  0.00000000000E+00  0.00000000000E+00 -0.13086886325E+04  0.13086886325E+04  0.50400001928E-02 0. -1.
    10030    2    1    2    0    0  0.00000000000E+00  0.00000000000E+00  0.18966406385E+03  0.28070413289E+04  0.28006264594E+04 0.  0.
        5    1    3    3  502    0 -0.50688770037E+03  0.28894905903E+03 -0.11810441672E+04  0.13173132181E+04  0.46999998093E+01 0. -1.
       -5    1    3    3    0  502  0.50688770037E+03 -0.28894905903E+03  0.13707082311E+04  0.14897281109E+04  0.46999998093E+01 0.  1.
</event>
<event>
 5   0  0.1346049E-07  0.2802113E+04  0.7818609E-02  0.8302613E-01
        1   -1    0    0  501    0  0.00000000000E+00  0.00000000000E+00  0.17802992058E+04  0.17802992058E+04  0.50400001928E-02 0. -1.
       -1   -1    0    0    0  501  0.00000000000E+00  0.00000000000E+00 -0.11026008394E+04  0.11026008394E+04  0.50400001928E-02 0.  1.
    10030    2    1    2    0    0  0.00000000000E+00  0.00000000000E+00  0.67769836641E+03  0.28829000452E+04  0.28021130589E+04 0.  0.
        1    1    3    3  502    0 -0.41148204581E+03  0.65448541536E+03  0.15409932223E+04  0.17240442987E+04  0.50400001928E-02 0. -1.
       -1    1    3    3    0  502  0.41148204581E+03 -0.65448541536E+03 -0.86329485584E+03  0.11588557465E+04  0.50400001928E-02 0.  1.
</event>
<event>
 5   0  0.3406920E-07  0.2800766E+04  0.7818609E-02  0.8303030E-01
        2   -1    0    0  501    0  0.00000000000E+00  0.00000000000E+00  0.19525525389E+04  0.19525525389E+04  0.25500000920E-02 0.  1.
       -2   -1    0    0    0  501  0.00000000000E+00  0.00000000000E+00 -0.10043638724E+04  0.10043638724E+04  0.25500000920E-02 0. -1.
    10030    2    1    2    0    0  0.00000000000E+00  0.00000000000E+00  0.94818866653E+03  0.29569164113E+04  0.28007664872E+04 0.  0.
        4    1    3    3  502    0  0.78748216795E+03  0.13297332833E+03  0.16885593028E+04  0.18678983385E+04  0.12699999809E+01 0.  1.
       -4    1    3    3    0  502 -0.78748216795E+03 -0.13297332833E+03 -0.74037063629E+03  0.10890180728E+04  0.12699999809E+01 0. -1.
</event>
<event>
 5   0  0.1346049E-07  0.2799776E+04  0.7818609E-02  0.8303338E-01
       -1   -1    0    0    0  501  0.00000000000E+00  0.00000000000E+00  0.14348823331E+04  0.14348823331E+04  0.50400001928E-02 0. -1.
        1   -1    0    0  501    0  0.00000000000E+00  0.00000000000E+00 -0.13657468887E+04  0.13657468887E+04  0.50400001928E-02 0.  1.
    10030    2    1    2    0    0  0.00000000000E+00  0.00000000000E+00  0.69135444465E+02  0.28006292218E+04  0.27997757639E+04 0.  0.
        1    1    3    3  502    0 -0.59183533262E+02  0.17242604868E+03  0.14229579096E+04  0.14345879706E+04  0.50400001928E-02 0. -1.
       -1    1    3    3    0  502  0.59183533262E+02 -0.17242604868E+03 -0.13538224651E+04  0.13660412512E+04  0.50400001928E-02 0.  1.
</event>
<event>
 5   0  0.3406920E-07  0.2799397E+04  0.7818609E-02  0.8303456E-01
        2   -1    0    0  501    0  0.00000000000E+00  0.00000000000E+00  0.22486165855E+04  0.22486165855E+04  0.25500000920E-02 0.  1.
       -2   -1    0    0    0  501  0.00000000000E+00  0.00000000000E+00 -0.87127148135E+03  0.87127148136E+03  0.25500000920E-02 0. -1.
    10030    2    1    2    0    0  0.00000000000E+00  0.00000000000E+00  0.13773451041E+04  0.31198880669E+04  0.27993967232E+04 0.  0.
        4    1    3    3  502    0  0.63464209890E+03 -0.50453341692E+03  0.19602756834E+04  0.21213219771E+04  0.12699999809E+01 0.  1.
       -4    1    3    3    0  502 -0.63464209890E+03  0.50453341692E+03 -0.58293057929E+03  0.99856608978E+03  0.12699999809E+01 0. -1.
</event>
<event>
 5   0  0.3522569E-07  0.2799356E+04  0.7818609E-02  0.8303468E-01
       -2   -1    0    0    0  501  0.00000000000E+00  0.00000000000E+00  0.16062110640E+04  0.16062110641E+04  0.25500000920E-02 0.  1.
        2   -1    0    0  501    0  0.00000000000E+00  0.00000000000E+00 -0.12197019708E+04  0.12197019708E+04  0.25500000920E-02 0. -1.
    10030    2    1    2    0    0  0.00000000000E+00  0.00000000000E+00  0.38650909323E+03  0.28259130349E+04  0.27993562120E+04 0.  0.
        1    1    3    3  502    0  0.98495283859E+03 -0.88603591541E+03  0.64909909153E+03  0.14753038224E+04  0.50400001928E-02 0. -1.
       -1    1    3    3    0  502 -0.98495283859E+03  0.88603591541E+03 -0.26258999830E+03  0.13506092125E+04  0.50400001928E-02 0.  1.
</event>
<event>
 5   0  0.1173363E-07  0.2800980E+04  0.7818609E-02  0.8302964E-01
       -4   -1    0    0    0  501  0.00000000000E+00  0.00000000000E+00  0.15643671031E+04  0.15643676186E+04  0.12699999809E+01 0. -1.
        4   -1    0    0  501    0  0.00000000000E+00  0.00000000000E+00 -0.12537790172E+04  0.12537796604E+04  0.12699999809E+01 0.  1.
    10030    2    1    2    0    0  0.00000000000E+00  0.00000000000E+00  0.31058808589E+03  0.28181472789E+04  0.28009800297E+04 0.  0.
        1    1    3    3  502    0  0.65423520829E+03  0.10722593203E+04  0.77845150223E+03  0.14777518395E+04  0.50400001928E-02 0.  1.
       -1    1    3    3    0  502 -0.65423520829E+03 -0.10722593203E+04 -0.46786341634E+03  0.13403954395E+04  0.50400001928E-02 0. -1.
</event>
<event>
 5   0  0.1346049E-07  0.2798399E+04  0.7818609E-02  0.8303766E-01
       -1   -1    0    0    0  501  0.00000000000E+00  0.00000000000E+00  0.12401296345E+04  0.12401296345E+04  0.50400001928E-02 0.  1.
        1   -1    0    0  501    0  0.00000000000E+00  0.00000000000E+00 -0.15786731744E+04  0.15786731744E+04  0.50400001928E-02 0. -1.
    10030    2    1    2    0    0  0.00000000000E+00  0.00000000000E+00 -0.33854353994E+03  0.28188028090E+04  0.27983991044E+04 0.  0.
        1    1    3    3  502    0 -0.24555505178E+03 -0.67633454350E+03  0.10394918165E+04  0.12642266153E+04  0.50400001928E-02 0.  1.
       -1    1    3    3    0  502  0.24555505178E+03  0.67633454350E+03 -0.13780353565E+04  0.15545761937E+04  0.50400001928E-02 0. -1.
</event>
<event>
 5   0  0.1173363E-07  0.2801227E+04  0.7818609E-02  0.8302888E-01
        3   -1    0    0  501    0  0.00000000000E+00  0.00000000000E+00  0.13807466201E+04  0.13807466238E+04  0.10100000352E+00 0. -1.
       -3   -1    0    0    0  501  0.00000000000E+00  0.00000000000E+00 -0.14207657580E+04  0.14207657616E+04  0.10100000352E+00 0.  1.
    10030    2    1    2    0    0  0.00000000000E+00  0.00000000000E+00 -0.40019137834E+02  0.28015123854E+04  0.28012265374E+04 0.  0.
        3    1    3    3  502    0  0.38100769764E+03 -0.74765724579E+03  0.11015143769E+04  0.13847354099E+04  0.10100000352E+00 0. -1.
       -3    1    3    3    0  502 -0.38100769764E+03  0.74765724579E+03 -0.11415335147E+04  0.14167769755E+04  0.10100000352E+00 0.  1.
</event>
<event>
 5   0  0.3406920E-07  0.2797371E+04  0.7818609E-02  0.8304085E-01
        2   -1    0    0  501    0  0.00000000000E+00  0.00000000000E+00  0.19660699357E+04  0.19660699357E+04  0.25500000920E-02 0.  1.
       -2   -1    0    0    0  501  0.00000000000E+00  0.00000000000E+00 -0.99504146234E+03  0.99504146234E+03  0.25500000920E-02 0. -1.
    10030    2    1    2    0    0  0.00000000000E+00  0.00000000000E+00  0.97102847340E+03  0.29611113981E+04  0.27973709829E+04 0.  0.
        4    1    3    3  502    0  0.29011381665E+03 -0.86292799037E+03 -0.63848143906E+03  0.11119671327E+04  0.12699999809E+01 0. -1.
       -4    1    3    3    0  502 -0.29011381665E+03  0.86292799037E+03  0.16095099125E+04  0.18491442654E+04  0.12699999809E+01 0.  1.
</event>
<event>
 5   0  0.1357902E-07  0.2796691E+04  0.7818609E-02  0.8304296E-01
        1   -1    0    0  501    0  0.00000000000E+00  0.00000000000E+00  0.17849090368E+04  0.17849090368E+04  0.50400001928E-02 0.  1.
       -1   -1    0    0    0  501  0.00000000000E+00  0.00000000000E+00 -0.10955012338E+04  0.10955012338E+04  0.50400001928E-02 0. -1.
    10030    2    1    2    0    0  0.00000000000E+00  0.00000000000E+00  0.68940780306E+03  0.28804102706E+04  0.27966909390E+04 0.  0.
        4    1    3    3  502    0  0.90429720901E+03 -0.20024566743E+03 -0.73428117525E+03  0.11819569479E+04  0.12699999809E+01 0. -1.
       -4    1    3    3    0  502 -0.90429720901E+03  0.20024566743E+03  0.14236889783E+04  0.16984533227E+04  0.12699999809E+01 0.  1.
</event>
<event>
 5   0  0.3406920E-07  0.2799883E+04  0.7818609E-02  0.8303305E-01
        2   -1    0    0  501    0  0.00000000000E+00  0.00000000000E+00  0.26664229946E+04  0.26664229946E+04  0.25500000920E-02 0. -1.
       -2   -1    0    0    0  501  0.00000000000E+00  0.00000000000E+00 -0.73500561876E+03  0.73500561876E+03  0.25500000920E-02 0.  1.
    10030    2    1    2    0    0  0.00000000000E+00  0.00000000000E+00  0.19314173758E+04  0.34014286133E+04  0.27998827711E+04 0.  0.
        4    1    3    3  502    0  0.20334356166E+03 -0.31480087768E+03 -0.67293279729E+03  0.77025214003E+03  0.12699999809E+01 0.  1.
       -4    1    3    3    0  502 -0.20334356166E+03  0.31480087768E+03  0.26043501731E+04  0.26311764733E+04  0.12699999809E+01 0. -1.
</event>
<event>
 5   0  0.1366235E-07  0.2800358E+04  0.7818609E-02  0.8303157E-01
        1   -1    0    0  501    0  0.00000000000E+00  0.00000000000E+00  0.15329803295E+04  0.15329803295E+04  0.50400001928E-02 0.  1.
       -1   -1    0    0    0  501  0.00000000000E+00  0.00000000000E+00 -0.12788825404E+04  0.12788825404E+04  0.50400001928E-02 0. -1.
    10030    2    1    2    0    0  0.00000000000E+00  0.00000000000E+00  0.25409778906E+03  0.28118628699E+04  0.28003583900E+04 0.  0.
        2    1    3    3  502    0 -0.81631696955E+03  0.29915251549E+02  0.12689250064E+04  0.15091186133E+04  0.25500000920E-02 0.  1.
       -2    1    3    3    0  502  0.81631696955E+03 -0.29915251549E+02 -0.10148272173E+04  0.13027442566E+04  0.25500000920E-02 0. -1.
</event>
<event>
 5   0  0.3522569E-07  0.2801551E+04  0.7818609E-02  0.8302787E-01
        2   -1    0    0  501    0  0.00000000000E+00  0.00000000000E+00  0.13889043770E+04  0.13889043770E+04  0.25500000920E-02 0.  1.
       -2   -1    0    0    0  501  0.00000000000E+00  0.00000000000E+00 -0.14127485240E+04  0.14127485240E+04  0.25500000920E-02 0. -1.
    10030    2    1    2    0    0  0.00000000000E+00  0.00000000000E+00 -0.23844146954E+02  0.28016529010E+04  0.28015514334E+04 0.  0.
        1    1    3    3  502    0 -0.43963538099E+03 -0.30335824438E+02  0.13177775717E+04  0.13895097189E+04  0.50400001928E-02 0.  1.
       -1    1    3    3    0  502  0.43963538099E+03  0.30335824438E+02 -0.13416217187E+04  0.14121431820E+04  0.50400001928E-02 0. -1.
</event>
<event>
 5   0  0.1374680E-07  0.2799145E+04  0.7818609E-02  0.8303534E-01
        1   -1    0    0  501    0  0.00000000000E+00  0.00000000000E+00  0.13116942472E+04  0.13116942472E+04  0.50400001928E-02 0. -1.
       -1   -1    0    0    0  501  0.00000000000E+00  0.00000000000E+00 -0.14933382874E+04  0.14933382874E+04  0.50400001928E-02 0.  1.
    10030    2    1    2    0    0  0.00000000000E+00  0.00000000000E+00 -0.18164404023E+03  0.28050325346E+04  0.27991450414E+04 0.  0.
        3    1    3    3  502    0 -0.57041783682E+03  0.48439188856E+03 -0.12760146690E+04  0.14792651743E+04  0.10100000352E+00 0.  1.
       -3    1    3    3    0  502  0.57041783682E+03 -0.48439188856E+03  0.10943706288E+04  0.13257673603E+04  0.10100000352E+00 0. -1.
</event>
<event>
 5   0  0.1346049E-07  0.2800488E+04  0.7818609E-02  0.8303117E-01
       -1   -1    0    0    0  501  0.00000000000E+00  0.00000000000E+00  0.10848027295E+04  0.10848027295E+04  0.50400001928E-02 0. -1.
        1   -1    0    0  501    0  0.00000000000E+00  0.00000000000E+00 -0.18074099701E+04  0.18074099701E+04  0.50400001928E-02 0.  1.
    10030    2    1    2    0    0  0.00000000000E+00  0.00000000000E+00 -0.72260724062E+03  0.28922126997E+04  0.28004880067E+04 0.  0.
        1    1    3    3  502    0  0.11633535527E+04 -0.50982733989E+03  0.24737960131E+03  0.12940293939E+04  0.50400001928E-02 0. -1.
       -1    1    3    3    0  502 -0.11633535527E+04  0.50982733989E+03 -0.96998684193E+03  0.15981833057E+04  0.50400001928E-02 0.  1.
</event>
<event>
 5   0  0.1374680E-07  0.2800090E+04  0.7818609E-02  0.8303241E-01
       -1   -1    0    0    0  501  0.00000000000E+00  0.00000000000E+00  0.11578804681E+04  0.11578804681E+04  0.50400001928E-02 0.  1.
        1   -1    0    0  501    0  0.00000000000E+00  0.00000000000E+00 -0.16928565548E+04  0.16928565549E+04  0.50400001928E-02 0. -1.
    10030    2    1    2    0    0  0.00000000000E+00  0.00000000000E+00 -0.53497608677E+03  0.28507370229E+04  0.28000896701E+04 0.  0.
        3    1    3    3  502    0  0.73222871146E+03 -0.83811576890E+03 -0.11322806985E+04  0.15876575570E+04  0.10100000352E+00 0. -1.
       -3    1    3    3    0  502 -0.73222871146E+03  0.83811576890E+03  0.59730461168E+03  0.12630794659E+04  0.10100000352E+00 0.  1.
</event>
<event>
 5   0  0.3502141E-07  0.2799038E+04  0.7818609E-02  0.8303567E-01
       -2   -1    0    0    0  501  0.00000000000E+00  0.00000000000E+00  0.10207894792E+04  0.10207894792E+04  0.25500000920E-02 0. -1.
        2   -1    0    0  501    0  0.00000000000E+00  0.00000000000E+00 -0.19187638454E+04  0.19187638454E+04  0.25500000920E-02 0.  1.
    10030    2    1    2    0    0  0.00000000000E+00  0.00000000000E+00 -0.89797436629E+03  0.29395533246E+04  0.27990383680E+04 0.  0.
        3    1    3    3  502    0  0.69872161140E+03  0.52358132492E+03  0.69967780885E+03  0.11188826303E+04  0.10100000352E+00 0. -1.
       -3    1    3    3    0  502 -0.69872161140E+03 -0.52358132492E+03 -0.15976521751E+04  0.18206706943E+04  0.10100000352E+00 0.  1.
</event>
<event>
 5   0  0.3571498E-07  0.2800148E+04  0.7818609E-02  0.8303222E-01
        2   -1    0    0  501    0  0.00000000000E+00  0.00000000000E+00  0.14663128402E+04  0.14663128402E+04  0.25500000920E-02 0. -1.
       -2   -1    0    0    0  501  0.00000000000E+00  0.00000000000E+00 -0.13368272622E+04  0.13368272622E+04  0.25500000920E-02 0.  1.
    10030    2    1    2    0    0  0.00000000000E+00  0.00000000000E+00  0.12948557803E+03  0.28031401024E+04  0.28001478387E+04 0.  0.
        2    1    3    3  502    0  0.47797480513E+03  0.88713448364E+03  0.10377585477E+04  0.14465166123E+04  0.25500000920E-02 0. -1.
       -2    1    3    3    0  502 -0.47797480513E+03 -0.88713448364E+03 -0.90827296964E+03  0.13566234901E+04  0.25500000920E-02 0.  1.
</event>
<event>
 5   0  0.1357902E-07  0.2798233E+04  0.7818609E-02  0.8303817E-01
        1   -1    0    0  501    0  0.00000000000E+00  0.00000000000E+00  0.11675969170E+04  0.11675969170E+04  0.50400001928E-02 0. -1.
       -1   -1    0    0    0  501  0.00000000000E+00  0.00000000000E+00 -0.16765429411E+04  0.16765429411E+04  0.50400001928E-02 0.  1.
    10030    2    1    2    0    0  0.00000000000E+00  0.00000000000E+00 -0.50894602411E+03  0.28441398581E+04  0.27982325630E+04 0.  0.
        4    1    3    3  502    0 -0.13184168098E+04  0.76580969234E+02 -0.72404504992E+03  0.15060977313E+04  0.12699999809E+01 0.  1.
       -4    1    3    3    0  502  0.13184168098E+04 -0.76580969234E+02  0.21509902581E+03  0.13380421267E+04  0.12699999809E+01 0. -1.
</event>
<event>
 5   0  0.3522569E-07  0.2800084E+04  0.7818609E-02  0.8303242E-01
       -2   -1    0    0    0  501  0.00000000000E+00  0.00000000000E+00  0.96188793656E+03  0.96188793656E+03  0.25500000920E-02 0. -1.
        2   -1    0    0  501    0  0.00000000000E+00  0.00000000000E+00 -0.20377811212E+04  0.20377811212E+04  0.25500000920E-02 0.  1.
    10030    2    1    2    0    0  0.00000000000E+00  0.00000000000E+00 -0.10758931846E+04  0.29996690577E+04  0.28000836257E+04 0.  0.
        1    1    3    3  502    0  0.38694713815E+03  0.12230820129E+04 -0.11386839196E+04  0.17153013633E+04  0.50400001928E-02 0.  1.
       -1    1    3    3    0  502 -0.38694713815E+03 -0.12230820129E+04  0.62790734980E+02  0.12843676944E+04  0.50400001928E-02 0. -1.
</event>
<event>
 5   0  0.3557628E-07  0.2800389E+04  0.7818609E-02  0.8303148E-01
        2   -1    0    0  501    0  0.00000000000E+00  0.00000000000E+00  0.98478340826E+03  0.98478340827E+03  0.25500000920E-02 0. -1.
       -2   -1    0    0    0  501  0.00000000000E+00  0.00000000000E+00 -0.19908388259E+04  0.19908388259E+04  0.25500000920E-02 0.  1.
    10030    2    1    2    0    0  0.00000000000E+00  0.00000000000E+00 -0.10060554176E+04  0.29756222341E+04  0.28003892902E+04 0.  0.
        5    1    3    3  502    0 -0.10080257379E+03  0.69092408306E+03 -0.17926384846E+04  0.19238274543E+04  0.46999998093E+01 0.  1.
       -5    1    3    3    0  502  0.10080257379E+03 -0.69092408306E+03  0.78658306705E+03  0.10517947798E+04  0.46999998093E+01 0. -1.
</event>
<event>
 5   0  0.1357902E-07  0.2801504E+04  0.7818609E-02  0.8302802E-01
        1   -1    0    0  501    0  0.00000000000E+00  0.00000000000E+00  0.22358432894E+04  0.22358432894E+04  0.50400001928E-02 0.  1.
       -1   -1    0    0    0  501  0.00000000000E+00  0.00000000000E+00 -0.87756844289E+03  0.87756844290E+03  0.50400001928E-02 0. -1.
    10030    2    1    2    0    0  0.00000000000E+00  0.00000000000E+00  0.13582748466E+04  0.31134117324E+04  0.28015035350E+04 0.  0.
        4    1    3    3  502    0  0.12755423025E+04 -0.53676319047E+03  0.92002065668E+03  0.16617949662E+04  0.12699999809E+01 0.  1.
       -4    1    3    3    0  502 -0.12755423025E+04  0.53676319047E+03  0.43825418987E+03  0.14516167662E+04  0.12699999809E+01 0. -1.
</event>
<event>
 5   0  0.3522569E-07  0.2798914E+04  0.7818609E-02  0.8303606E-01
        2   -1    0    0  501    0  0.00000000000E+00  0.00000000000E+00  0.12457399938E+04  0.12457399938E+04  0.25500000920E-02 0. -1.
       -2   -1    0    0    0  501  0.00000000000E+00  0.00000000000E+00 -0.15721416752E+04  0.15721416752E+04  0.25500000920E-02 0.  1.
    10030    2    1    2    0    0  0.00000000000E+00  0.00000000000E+00 -0.32640168143E+03  0.28178816690E+04  0.27989139041E+04 0.  0.
        1    1    3    3  502    0 -0.84286378349E+03  0.66205616877E+03  0.74275400869E+03  0.13040020113E+04  0.50400001928E-02 0. -1.
       -1    1    3    3    0  502  0.84286378349E+03 -0.66205616877E+03 -0.10691556901E+04  0.15138796577E+04  0.50400001928E-02 0.  1.
</event>
<event>
 5   0  0.1346049E-07  0.2798943E+04  0.7818609E-02  0.8303597E-01
       -1   -1    0    0    0  501  0.00000000000E+00  0.00000000000E+00  0.10955001360E+04  0.10955001361E+04  0.50400001928E-02 0.  1.
        1   -1    0    0  501    0  0.00000000000E+00  0.00000000000E+00 -0.17877862827E+04  0.17877862827E+04  0.50400001928E-02 0. -1.
    10030    2    1    2    0    0  0.00000000000E+00  0.00000000000E+00 -0.69228614662E+03  0.28832864187E+04  0.27989427403E+04 0.  0.
        1    1    3    3  502    0 -0.52889829385E+03  0.12469551349E+04  0.16443068712E+02  0.13545851351E+04  0.50400001928E-02 0.  1.
       -1    1    3    3    0  502  0.52889829385E+03 -0.12469551349E+04 -0.70872921533E+03  0.15287012836E+04  0.50400001928E-02 0. -1.
</event>
<event>
 5   0  0.3522569E-07  0.2800768E+04  0.7818609E-02  0.8303030E-01
        2   -1    0    0  501    0  0.00000000000E+00  0.00000000000E+00  0.13301959034E+04  0.13301959034E+04  0.25500000920E-02 0.  1.
       -2   -1    0    0    0  501  0.00000000000E+00  0.00000000000E+00 -0.14742757462E+04  0.14742757462E+04  0.25500000920E-02 0. -1.
    10030    2    1    2    0    0  0.00000000000E+00  0.00000000000E+00 -0.14407984279E+03  0.28044716496E+04  0.28007681504E+04 0.  0.
        1    1    3    3  502    0 -0.17582473428E+03 -0.12844517280E+03 -0.14572212587E+04  0.14733995712E+04  0.50400001928E-02 0. -1.
       -1    1    3    3    0  502  0.17582473428E+03  0.12844517280E+03  0.13131414159E+04  0.13310720784E+04  0.50400001928E-02 0.  1.
</event>
<event>
 5   0  0.1357902E-07  0.2799748E+04  0.7818609E-02  0.8303347E-01
        1   -1    0    0  501    0  0.00000000000E+00  0.00000000000E+00  0.21372848859E+04  0.21372848859E+04  0.50400001928E-02 0.  1.
       -1   -1    0    0    0  501  0.00000000000E+00  0.00000000000E+00 -0.91688641407E+03  0.91688641409E+03  0.50400001928E-02 0. -1.
    10030    2    1    2    0    0  0.00000000000E+00  0.00000000000E+00  0.12203984718E+04  0.30541713000E+04  0.27997481851E+04 0.  0.
        4    1    3    3  502    0  0.49894381314E+03 -0.29004380018E+03  0.20014696088E+04  0.20830152525E+04  0.12699999809E+01 0.  1.
       -4    1    3    3    0  502 -0.49894381314E+03  0.29004380018E+03 -0.78107113691E+03  0.97115604746E+03  0.12699999809E+01 0. -1.
</event>
<event>
 5   0  0.3571498E-07  0.2799189E+04  0.7818609E-02  0.8303520E-01
       -2   -1    0    0    0  501  0.00000000000E+00  0.00000000000E+00  0.10119908579E+04  0.10119908579E+04  0.25500000920E-02 0.  1.
        2   -1    0    0  501    0  0.00000000000E+00  0.00000000000E+00 -0.19356545505E+04  0.19356545505E+04  0.25500000920E-02 0. -1.
    10030    2    1    2    0    0  0.00000000000E+00  0.00000000000E+00 -0.92366369259E+03  0.29476454085E+04  0.27991889606E+04 0.  0.
        2    1    3    3  502    0 -0.28689940790E+03 -0.12971331951E+04  0.19808898616E+01  0.13284839931E+04  0.25500000920E-02 0.  1.
       -2    1    3    3    0  502  0.28689940790E+03  0.12971331951E+04 -0.92564458245E+03  0.16191614154E+04  0.25500000920E-02 0. -1.
</event>
<event>
 5   0  0.3571498E-07  0.2800059E+04  0.7818609E-02  0.8303250E-01
       -2   -1    0    0    0  501  0.00000000000E+00  0.00000000000E+00  0.74180749031E+03  0.74180749031E+03  0.25500000920E-02 0.  1.
        2   -1    0    0  501    0  0.00000000000E+00  0.00000000000E+00 -0.26423068046E+04  0.26423068046E+04  0.25500000920E-02 0. -1.
    10030    2    1    2    0    0  0.00000000000E+00  0.00000000000E+00 -0.19004993143E+04  0.33841142949E+04  0.28000592704E+04 0.  0.
        2    1    3    3  502    0  0.17659556536E+03  0.25075448020E+03  0.70070767484E+03  0.76488891260E+03  0.25500000920E-02 0.  1.
       -2    1    3    3    0  502 -0.17659556536E+03 -0.25075448020E+03 -0.26012069892E+04  0.26192253823E+04  0.25500000920E-02 0. -1.
</event>
<event>
 5   0  0.1357902E-07  0.2801696E+04  0.7818609E-02  0.8302742E-01
        1   -1    0    0  501    0  0.00000000000E+00  0.00000000000E+00  0.20905608400E+04  0.20905608401E+04  0.50400001928E-02 0.  1.
       -1   -1    0    0    0  501  0.00000000000E+00  0.00000000000E+00 -0.93868375052E+03  0.93868375053E+03  0.50400001928E-02 0. -1.
    10030    2    1    2    0    0  0.00000000000E+00  0.00000000000E+00  0.11518770895E+04  0.30292445906E+04  0.28016962648E+04 0.  0.
        4    1    3    3  502    0  0.53772485548E+03  0.11885698538E+04  0.11278127883E+04  0.17244737214E+04  0.12699999809E+01 0. -1.
       -4    1    3    3    0  502 -0.53772485548E+03 -0.11885698538E+04  0.24064301279E+02  0.13047708692E+04  0.12699999809E+01 0.  1.
</event>
<event>
 5   0  0.1361741E-07  0.2801492E+04  0.7818609E-02  0.8302805E-01
       -1   -1    0    0    0  501  0.00000000000E+00  0.00000000000E+00  0.12107680204E+04  0.12107680204E+04  0.50400001928E-02 0.  1.
        1   -1    0    0  501    0  0.00000000000E+00  0.00000000000E+00 -0.16205328551E+04  0.16205328551E+04  0.50400001928E-02 0. -1.
    10030    2    1    2    0    0  0.00000000000E+00  0.00000000000E+00 -0.40976483472E+03  0.28313008756E+04  0.28014920004E+04 0.  0.
        5    1    3    3  502    0 -0.98551538644E+03 -0.96326732757E+03  0.48671006183E+02  0.13789544873E+04  0.46999998093E+01 0.  1.
       -5    1    3    3    0  502  0.98551538644E+03  0.96326732757E+03 -0.45843584090E+03  0.14523463883E+04  0.46999998093E+01 0. -1.
</event>
<event>
 5   0  0.1366235E-07  0.2787922E+04  0.7818609E-02  0.8307028E-01
       -1   -1    0    0    0  501  0.00000000000E+00  0.00000000000E+00  0.81352214020E+03  0.81352214021E+03  0.50400001928E-02 0. -1.
        1   -1    0    0  501    0  0.00000000000E+00  0.00000000000E+00 -0.23885370935E+04  0.23885370935E+04  0.50400001928E-02 0.  1.
    10030    2    1    2    0    0  0.00000000000E+00  0.00000000000E+00 -0.15750149533E+04  0.32020592337E+04  0.27879223865E+04 0.  0.
        2    1    3    3  502    0 -0.14210049848E+03 -0.13325051601E+04 -0.12284137033E+04  0.18179006518E+04  0.25500000920E-02 0.  1.
       -2    1    3    3    0  502  0.14210049848E+03  0.13325051601E+04 -0.34660125001E+03  0.13841585819E+04  0.25500000920E-02 0. -1.
</event>
<event>
 5   0  0.3502141E-07  0.2799938E+04  0.7818609E-02  0.8303288E-01
       -2   -1    0    0    0  501  0.00000000000E+00  0.00000000000E+00  0.16172496073E+04  0.16172496073E+04  0.25500000920E-02 0. -1.
        2   -1    0    0  501    0  0.00000000000E+00  0.00000000000E+00 -0.12118803935E+04  0.12118803935E+04  0.25500000920E-02 0.  1.
    10030    2    1    2    0    0  0.00000000000E+00  0.00000000000E+00  0.40536921382E+03  0.28291300008E+04  0.27999379211E+04 0.  0.
        3    1    3    3  502    0 -0.65390554384E+03  0.28638292954E+03  0.14195267415E+04  0.15889190737E+04  0.10100000352E+00 0. -1.
       -3    1    3    3    0  502  0.65390554384E+03 -0.28638292954E+03 -0.10141575277E+04  0.12402109271E+04  0.10100000352E+00 0.  1.
</event>
<event>
 5   0  0.1366235E-07  0.2792453E+04  0.7818609E-02  0.8305615E-01
       -1   -1    0    0    0  501  0.00000000000E+00  0.00000000000E+00  0.11956402176E+04  0.11956402176E+04  0.50400001928E-02 0.  1.
        1   -1    0    0  501    0  0.00000000000E+00  0.00000000000E+00 -0.16304643882E+04  0.16304643882E+04  0.50400001928E-02 0. -1.
    10030    2    1    2    0    0  0.00000000000E+00  0.00000000000E+00 -0.43482417060E+03  0.28261046058E+04  0.27924532554E+04 0.  0.
        2    1    3    3  502    0  0.95902922280E+02 -0.62054797621E+03 -0.14795054518E+04  0.16072378614E+04  0.25500000920E-02 0. -1.
       -2    1    3    3    0  502 -0.95902922280E+02  0.62054797621E+03  0.10446812812E+04  0.12188667444E+04  0.25500000920E-02 0.  1.
</event>
<event>
 5   0  0.1346049E-07  0.2799248E+04  0.7818609E-02  0.8303502E-01
       -1   -1    0    0    0  501  0.00000000000E+00  0.00000000000E+00  0.17221227058E+04  0.17221227058E+04  0.50400001928E-02 0.  1.
        1   -1    0    0  501    0  0.00000000000E+00  0.00000000000E+00 -0.11375189240E+04  0.11375189240E+04  0.50400001928E-02 0. -1.
    10030    2    1    2    0    0  0.00000000000E+00  0.00000000000E+00  0.58460378181E+03  0.28596416298E+04  0.27992478756E+04 0.  0.
        1    1    3    3  502    0 -0.67563528787E+03 -0.74053803399E+03  0.12901393760E+04  0.16338112595E+04  0.50400001928E-02 0.  1.
       -1    1    3    3    0  502  0.67563528787E+03  0.74053803399E+03 -0.70553559421E+03  0.12258303703E+04  0.50400001928E-02 0. -1.
</event>
<event>
 5   0  0.3522569E-07  0.2792130E+04  0.7818609E-02  0.8305716E-01
       -2   -1    0    0    0  501  0.00000000000E+00  0.00000000000E+00  0.13622334048E+04  0.13622334048E+04  0.25500000920E-02 0.  1.
        2   -1    0    0  501    0  0.00000000000E+00  0.00000000000E+00 -0.14307372417E+04  0.14307372417E+04  0.25500000920E-02 0. -1.
    10030    2    1    2    0    0  0.00000000000E+00  0.00000000000E+00 -0.68503836933E+02  0.27929706465E+04  0.27921304154E+04 0.  0.
        1    1    3    3  502    0 -0.88571589178E+03 -0.10776434443E+04  0.22245430742E+02  0.13950995997E+04  0.50400001928E-02 0. -1.
       -1    1    3    3    0  502  0.88571589178E+03  0.10776434443E+04 -0.90749267675E+02  0.13978710468E+04  0.50400001928E-02 0.  1.
</event>
<event>
 5   0  0.1173363E-07  0.2797820E+04  0.7818609E-02  0.8303945E-01
       -3   -1    0    0    0  501  0.00000000000E+00  0.00000000000E+00  0.84350010773E+03  0.84350011378E+03  0.10100000352E+00 0.  1.
        3   -1    0    0  501    0  0.00000000000E+00  0.00000000000E+00 -0.23200349705E+04  0.23200349727E+04  0.10100000352E+00 0. -1.
    10030    2    1    2    0    0  0.00000000000E+00  0.00000000000E+00 -0.14765348628E+04  0.31635350865E+04  0.27978204093E+04 0.  0.
        2    1    3    3  502    0  0.41128128972E+03  0.58539568707E+03 -0.20975294361E+04  0.22161836893E+04  0.25500000920E-02 0. -1.
       -2    1    3    3    0  502 -0.41128128972E+03 -0.58539568707E+03  0.62099457326E+03  0.94735139718E+03  0.25500000920E-02 0.  1.
</event>
<event>
 5   0  0.1361741E-07  0.2799945E+04  0.7818609E-02  0.8303286E-01
       -1   -1    0    0    0  501  0.00000000000E+00  0.00000000000E+00  0.12173861881E+04  0.12173861881E+04  0.50400001928E-02 0. -1.
        1   -1    0    0  501    0  0.00000000000E+00  0.00000000000E+00 -0.16099431140E+04  0.16099431140E+04  0.50400001928E-02 0.  1.
    10030    2    1    2    0    0  0.00000000000E+00  0.00000000000E+00 -0.39255692593E+03  0.28273293021E+04  0.27999446498E+04 0.  0.
        5    1    3    3  502    0 -0.47738500057E+03 -0.57398624868E+02 -0.15239417379E+04  0.15980023628E+04  0.46999998093E+01 0.  1.
       -5    1    3    3    0  502  0.47738500057E+03  0.57398624868E+02  0.11313848120E+04  0.12293269393E+04  0.46999998093E+01 0. -1.
</event>
<event>
 5   0  0.3571498E-07  0.2799903E+04  0.7818609E-02  0.8303299E-01
       -2   -1    0    0    0  501  0.00000000000E+00  0.00000000000E+00  0.13797353181E+04  0.13797353181E+04  0.25500000920E-02 0. -1.
        2   -1    0    0  501    0  0.00000000000E+00  0.00000000000E+00 -0.14204638050E+04  0.14204638050E+04  0.25500000920E-02 0.  1.
    10030    2    1    2    0    0  0.00000000000E+00  0.00000000000E+00 -0.40728486930E+02  0.28001991232E+04  0.27999029125E+04 0.  0.
        2    1    3    3  502    0  0.11422718075E+04 -0.24918282191E+03  0.74977379196E+03  0.13888980164E+04  0.25500000920E-02 0. -1.
       -2    1    3    3    0  502 -0.11422718075E+04  0.24918282191E+03 -0.79050227889E+03  0.14113011067E+04  0.25500000920E-02 0.  1.
</event>
<event>
 5   0  0.3571498E-07  0.2799539E+04  0.7818609E-02  0.8303411E-01
       -2   -1    0    0    0  501  0.00000000000E+00  0.00000000000E+00  0.95461819197E+03  0.95461819197E+03  0.25500000920E-02 0.  1.
        2   -1    0    0  501    0  0.00000000000E+00  0.00000000000E+00 -0.20525011796E+04  0.20525011796E+04  0.25500000920E-02 0. -1.
    10030    2    1    2    0    0  0.00000000000E+00  0.00000000000E+00 -0.10978829876E+04  0.30071193716E+04  0.27995392229E+04 0.  0.
        2    1    3    3  502    0 -0.72116565908E+03 -0.11718674294E+04 -0.82489883560E+03  0.16043102159E+04  0.25500000920E-02 0. -1.
       -2    1    3    3    0  502  0.72116565908E+03  0.11718674294E+04 -0.27298415204E+03  0.14028091557E+04  0.25500000920E-02 0.  1.
</event>
<event>
 5   0  0.1374680E-07  0.2799898E+04  0.7818609E-02  0.8303300E-01
        1   -1    0    0  501    0  0.00000000000E+00  0.00000000000E+00  0.99233659396E+03  0.99233659397E+03  0.50400001928E-02 0. -1.
       -1   -1    0    0    0  501  0.00000000000E+00  0.00000000000E+00 -0.19749922975E+04  0.19749922976E+04  0.50400001928E-02 0.  1.
    10030    2    1    2    0    0  0.00000000000E+00  0.00000000000E+00 -0.98265570359E+03  0.29673288915E+04  0.27998979479E+04 0.  0.
        3    1    3    3  502    0 -0.95824867662E+03 -0.60432501434E+03 -0.13629491002E+04  0.17723090896E+04  0.10100000352E+00 0.  1.
       -3    1    3    3    0  502  0.95824867662E+03  0.60432501434E+03  0.38029339662E+03  0.11950198019E+04  0.10100000352E+00 0. -1.
</event>
<event>
 5   0  0.3557628E-07  0.2799477E+04  0.7818609E-02  0.8303431E-01
       -2   -1    0    0    0  501  0.00000000000E+00  0.00000000000E+00  0.11009102951E+04  0.11009102951E+04  0.25500000920E-02 0. -1.
        2   -1    0    0  501    0  0.00000000000E+00  0.00000000000E+00 -0.17796801858E+04  0.17796801859E+04  0.25500000920E-02 0.  1.
    10030    2    1    2    0    0  0.00000000000E+00  0.00000000000E+00 -0.67876989075E+03  0.28805904810E+04  0.27994772645E+04 0.  0.
        5    1    3    3  502    0 -0.13625676745E+04  0.43738514731E+02 -0.66598087916E+03  0.15172528947E+04  0.46999998093E+01 0.  1.
       -5    1    3    3    0  502  0.13625676745E+04 -0.43738514731E+02 -0.12789011588E+02  0.13633375862E+04  0.46999998093E+01 0. -1.
</event>
<event>
 5   0  0.1357902E-07  0.2799237E+04  0.7818609E-02  0.8303505E-01
       -1   -1    0    0    0  501  0.00000000000E+00  0.00000000000E+00  0.24910962137E+04  0.24910962137E+04  0.50400001928E-02 0. -1.
        1   -1    0    0  501    0  0.00000000000E+00  0.00000000000E+00 -0.78637360993E+03  0.78637360995E+03  0.50400001928E-02 0.  1.
    10030    2    1    2    0    0  0.00000000000E+00  0.00000000000E+00  0.17047226038E+04  0.32774698237E+04  0.27992372692E+04 0.  0.
        4    1    3    3  502    0 -0.56846194693E+02  0.86746566393E+03  0.21366668548E+04  0.23067455493E+04  0.12699999809E+01 0. -1.
       -4    1    3    3    0  502  0.56846194693E+02 -0.86746566393E+03 -0.43194425101E+03  0.97072427436E+03  0.12699999809E+01 0.  1.
</event>
<event>
 5   0  0.3571498E-07  0.2798996E+04  0.7818609E-02  0.8303580E-01
        2   -1    0    0  501    0  0.00000000000E+00  0.00000000000E+00  0.16066852719E+04  0.16066852719E+04  0.25500000920E-02 0.  1.
       -2   -1    0    0    0  501  0.00000000000E+00  0.00000000000E+00 -0.12190279272E+04  0.12190279272E+04  0.25500000920E-02 0. -1.
    10030    2    1    2    0    0  0.00000000000E+00  0.00000000000E+00  0.38765734466E+03  0.28257131991E+04  0.27989956889E+04 0.  0.
        2    1    3    3  502    0 -0.53459766910E+03  0.10558504617E+04 -0.56028170047E+03  0.13094007977E+04  0.25500000920E-02 0. -1.
       -2    1    3    3    0  502  0.53459766910E+03 -0.10558504617E+04  0.94793904512E+03  0.15163124014E+04  0.25500000920E-02 0.  1.
</event>
<event>
 5   0  0.1361741E-07  0.2799898E+04  0.7818609E-02  0.8303300E-01
        1   -1    0    0  501    0  0.00000000000E+00  0.00000000000E+00  0.18777245622E+04  0.18777245623E+04  0.50400001928E-02 0.  1.
       -1   -1    0    0    0  501  0.00000000000E+00  0.00000000000E+00 -0.10437404256E+04  0.10437404256E+04  0.50400001928E-02 0. -1.
    10030    2    1    2    0    0  0.00000000000E+00  0.00000000000E+00  0.83398413667E+03  0.29214649878E+04  0.27998978794E+04 0.  0.
        5    1    3    3  502    0  0.70557852894E+03  0.70821558046E+03  0.14395551906E+04  0.17526413226E+04  0.46999998093E+01 0.  1.
       -5    1    3    3    0  502 -0.70557852894E+03 -0.70821558046E+03 -0.60557105398E+03  0.11688236652E+04  0.46999998093E+01 0. -1.
</event>
<event>
 5   0  0.1173363E-07  0.2800355E+04  0.7818609E-02  0.8303158E-01
       -3   -1    0    0    0  501  0.00000000000E+00  0.00000000000E+00  0.18893197089E+04  0.18893197116E+04  0.10100000352E+00 0.  1.
        3   -1    0    0  501    0  0.00000000000E+00  0.00000000000E+00 -0.10376732377E+04  0.10376732426E+04  0.10100000352E+00 0. -1.
    10030    2    1    2    0    0  0.00000000000E+00  0.00000000000E+00  0.85164647126E+03  0.29269929542E+04  0.28003546279E+04 0.  0.
        4    1    3    3  502    0  0.72744141744E+03  0.20317849280E+03  0.16581408764E+04  0.18220552391E+04  0.12699999809E+01 0.  1.
       -4    1    3    3    0  502 -0.72744141744E+03 -0.20317849280E+03 -0.80649440510E+03  0.11049377150E+04  0.12699999809E+01 0. -1.
</event>
<event>
 5   0  0.1366235E-07  0.2799616E+04  0.7818609E-02  0.8303388E-01
        1   -1    0    0  501    0  0.00000000000E+00  0.00000000000E+00  0.14843623785E+04  0.14843623785E+04  0.50400001928E-02 0. -1.
       -1   -1    0    0    0  501  0.00000000000E+00  0.00000000000E+00 -0.13200701287E+04  0.13200701287E+04  0.50400001928E-02 0.  1.
    10030    2    1    2    0    0  0.00000000000E+00  0.00000000000E+00  0.16429224986E+03  0.28044325072E+04  0.27996159994E+04 0.  0.
        2    1    3    3  502    0 -0.54552235318E+03  0.58328063697E+03 -0.10694627465E+04  0.13347514771E+04  0.25500000920E-02 0.  1.
       -2    1    3    3    0  502  0.54552235318E+03 -0.58328063697E+03  0.12337549964E+04  0.14696810302E+04  0.25500000920E-02 0. -1.
</event>
<event>
 5   0  0.1361741E-07  0.2799363E+04  0.7818609E-02  0.8303466E-01
        1   -1    0    0  501    0  0.00000000000E+00  0.00000000000E+00  0.15479084739E+04  0.15479084739E+04  0.50400001928E-02 0. -1.
       -1   -1    0    0    0  501  0.00000000000E+00  0.00000000000E+00 -0.12656491132E+04  0.12656491132E+04  0.50400001928E-02 0.  1.
    10030    2    1    2    0    0  0.00000000000E+00  0.00000000000E+00  0.28225936065E+03  0.28135575871E+04  0.27993634900E+04 0.  0.
        5    1    3    3  502    0 -0.34209258372E+03 -0.46608832855E+03 -0.11400183320E+04  0.12782525389E+04  0.46999998093E+01 0.  1.
       -5    1    3    3    0  502  0.34209258372E+03  0.46608832855E+03  0.14222776927E+04  0.15353050482E+04  0.46999998093E+01 0. -1.
</event>
<event>
 5   0  0.3571498E-07  0.2789553E+04  0.7818609E-02  0.8306519E-01
        2   -1    0    0  501    0  0.00000000000E+00  0.00000000000E+00  0.21441077741E+04  0.21441077741E+04  0.25500000920E-02 0.  1.
       -2   -1    0    0    0  501  0.00000000000E+00  0.00000000000E+00 -0.90732442562E+03  0.90732442562E+03  0.25500000920E-02 0. -1.
    10030    2    1    2    0    0  0.00000000000E+00  0.00000000000E+00  0.12367833485E+04  0.30514321997E+04  0.27895529065E+04 0.  0.
        2    1    3    3  502    0 -0.86152990758E+03  0.39735934775E+03  0.17367578241E+04  0.19790037829E+04  0.25500000920E-02 0.  1.
       -2    1    3    3    0  502  0.86152990758E+03 -0.39735934775E+03 -0.49997447568E+03  0.10724284168E+04  0.25500000920E-02 0. -1.
</event>
<event>
 5   0  0.3571498E-07  0.2802684E+04  0.7818609E-02  0.8302436E-01
        2   -1    0    0  501    0  0.00000000000E+00  0.00000000000E+00  0.19545125693E+04  0.19545125693E+04  0.25500000920E-02 0.  1.
       -2   -1    0    0    0  501  0.00000000000E+00  0.00000000000E+00 -0.10047310231E+04  0.10047310231E+04  0.25500000920E-02 0. -1.
    10030    2    1    2    0    0  0.00000000000E+00  0.00000000000E+00  0.94978154622E+03  0.29592435923E+04  0.28026840088E+04 0.  0.
        2    1    3    3  502    0  0.11017610323E+04  0.16793943907E+03  0.13718618297E+04  0.17675083897E+04  0.25500000920E-02 0.  1.
       -2    1    3    3    0  502 -0.11017610323E+04 -0.16793943907E+03 -0.42208028353E+03  0.11917352027E+04  0.25500000920E-02 0. -1.
</event>
<event>
 5   0  0.1357902E-07  0.2799915E+04  0.7818609E-02  0.8303295E-01
       -1   -1    0    0    0  501  0.00000000000E+00  0.00000000000E+00  0.19455678600E+04  0.19455678600E+04  0.50400001928E-02 0. -1.
        1   -1    0    0  501    0  0.00000000000E+00  0.00000000000E+00 -0.10073564641E+04  0.10073564641E+04  0.50400001928E-02 0.  1.
    10030    2    1    2    0    0  0.00000000000E+00  0.00000000000E+00  0.93821139595E+03  0.29529243241E+04  0.27999145417E+04 0.  0.
        4    1    3    3  502    0  0.58858892309E+03  0.11704601291E+04  0.98949185104E+03  0.16418007097E+04  0.12699999809E+01 0. -1.
       -4    1    3    3    0  502 -0.58858892309E+03 -0.11704601291E+04 -0.51280455087E+02  0.13111236144E+04  0.12699999809E+01 0.  1.
</event>
<event>
 5   0  0.3406920E-07  0.2800347E+04  0.7818609E-02  0.8303161E-01
        2   -1    0    0  501    0  0.00000000000E+00  0.00000000000E+00  0.11995079682E+04  0.11995079682E+04  0.25500000920E-02 0.  1.
       -2   -1    0    0    0  501  0.00000000000E+00  0.00000000000E+00 -0.16344079186E+04  0.16344079186E+04  0.25500000920E-02 0. -1.
    10030    2    1    2    0    0  0.00000000000E+00  0.00000000000E+00 -0.43489995042E+03  0.28339158868E+04  0.28003466369E+04 0.  0.
        4    1    3    3  502    0  0.17720878243E+03 -0.26883425834E+03  0.11615325634E+04  0.12053357705E+04  0.12699999809E+01 0.  1.
       -4    1    3    3    0  502 -0.17720878243E+03  0.26883425834E+03 -0.15964325138E+04  0.16285801163E+04  0.12699999809E+01 0. -1.
</event>
<event>
 5   0  0.1173363E-07  0.2799558E+04  0.7818609E-02  0.8303406E-01
        3   -1    0    0  501    0  0.00000000000E+00  0.00000000000E+00  0.20512620221E+04  0.20512620246E+04  0.10100000352E+00 0.  1.
       -3   -1    0    0    0  501  0.00000000000E+00  0.00000000000E+00 -0.95520744522E+03  0.95520745056E+03  0.10100000352E+00 0. -1.
    10030    2    1    2    0    0  0.00000000000E+00  0.00000000000E+00  0.10960545769E+04  0.30064694751E+04  0.27995576560E+04 0.  0.
        5    1    3    3  502    0 -0.19886375932E+03 -0.19209049065E+03 -0.92558259000E+03  0.96600764608E+03  0.46999998093E+01 0. -1.
       -5    1    3    3    0  502  0.19886375932E+03  0.19209049065E+03  0.20216371669E+04  0.20404618291E+04  0.46999998093E+01 0.  1.
</event>
<event>
 5   0  0.1173363E-07  0.2802478E+04  0.7818609E-02  0.8302499E-01
        3   -1    0    0  501    0  0.00000000000E+00  0.00000000000E+00  0.24500497504E+04  0.24500497525E+04  0.10100000352E+00 0. -1.
       -3   -1    0    0    0  501  0.00000000000E+00  0.00000000000E+00 -0.80140049940E+03  0.80140050576E+03  0.10100000352E+00 0.  1.
    10030    2    1    2    0    0  0.00000000000E+00  0.00000000000E+00  0.16486492510E+04  0.32514502582E+04  0.28024782656E+04 0.  0.
        4    1    3    3  502    0  0.13392513365E+03 -0.77151932309E+03 -0.52385769006E+03  0.94212870653E+03  0.12699999809E+01 0.  1.
       -4    1    3    3    0  502 -0.13392513365E+03  0.77151932309E+03  0.21725069411E+04  0.23093215517E+04  0.12699999809E+01 0. -1.
</event>
<event>
 5   0  0.1374680E-07  0.2799999E+04  0.7818609E-02  0.8303269E-01
       -1   -1    0    0    0  501  0.00000000000E+00  0.00000000000E+00  0.12706350758E+04  0.12706350759E+04  0.50400001928E-02 0. -1.
        1   -1    0    0  501    0  0.00000000000E+00  0.00000000000E+00 -0.15425345957E+04  0.15425345957E+04  0.50400001928E-02 0.  1.
    10030    2    1    2    0    0  0.00000000000E+00  0.00000000000E+00 -0.27189951982E+03  0.28131696715E+04  0.27999989736E+04 0.  0.
        3    1    3    3  502    0  0.13136012346E+04 -0.15675059055E+03  0.32433136944E+03  0.13620975731E+04  0.10100000352E+00 0. -1.
       -3    1    3    3    0  502 -0.13136012346E+04  0.15675059055E+03 -0.59623088926E+03  0.14510720984E+04  0.10100000352E+00 0.  1.
</event>
<event>
 5   0  0.3571498E-07  0.2799120E+04  0.7818609E-02  0.8303541E-01
       -2   -1    0    0    0  501  0.00000000000E+00  0.00000000000E+00  0.11264260914E+04  0.11264260914E+04  0.25500000920E-02 0. -1.
        2   -1    0    0  501    0  0.00000000000E+00  0.00000000000E+00 -0.17389234719E+04  0.17389234720E+04  0.25500000920E-02 0.  1.
    10030    2    1    2    0    0  0.00000000000E+00  0.00000000000E+00 -0.61249738052E+03  0.28653495634E+04  0.27991204117E+04 0.  0.
        2    1    3    3  502    0  0.13039144014E+04  0.38878948197E+03 -0.64175142329E+03  0.15043918761E+04  0.25500000920E-02 0. -1.
       -2    1    3    3    0  502 -0.13039144014E+04 -0.38878948197E+03  0.29254042774E+02  0.13609576873E+04  0.25500000920E-02 0.  1.
</event>
<event>
 5   0  0.1346049E-07  0.2800011E+04  0.7818609E-02  0.8303265E-01
        1   -1    0    0  501    0  0.00000000000E+00  0.00000000000E+00  0.26840710695E+04  0.26840710695E+04  0.50400001928E-02 0. -1.
       -1   -1    0    0    0  501  0.00000000000E+00  0.00000000000E+00 -0.73023994282E+03  0.73023994284E+03  0.50400001928E-02 0.  1.
    10030    2    1    2    0    0  0.00000000000E+00  0.00000000000E+00  0.19538311267E+04  0.34143110124E+04  0.28000113602E+04 0.  0.
        1    1    3    3  502    0 -0.10222742467E+04 -0.91399773280E+03  0.13209038481E+04  0.19040019608E+04  0.50400001928E-02 0.  1.
       -1    1    3    3    0  502  0.10222742467E+04  0.91399773280E+03  0.63292727863E+03  0.15103090515E+04  0.50400001928E-02 0. -1.
</event>
<event>
 5   0  0.3571498E-07  0.2798186E+04  0.7818609E-02  0.8303832E-01
       -2   -1    0    0    0  501  0.00000000000E+00  0.00000000000E+00  0.11979350008E+04  0.11979350008E+04  0.25500000920E-02 0.  1.
        2   -1    0    0  501    0  0.00000000000E+00  0.00000000000E+00 -0.16340301509E+04  0.16340301509E+04  0.25500000920E-02 0. -1.
    10030    2    1    2    0    0  0.00000000000E+00  0.00000000000E+00 -0.43609515016E+03  0.28319651517E+04  0.27981864914E+04 0.  0.
        2    1    3    3  502    0  0.63010066599E+03 -0.47376289087E+03 -0.13878481828E+04  0.15961205170E+04  0.25500000920E-02 0. -1.
       -2    1    3    3    0  502 -0.63010066599E+03  0.47376289087E+03  0.95175303267E+03  0.12358446348E+04  0.25500000920E-02 0.  1.
</event>
<event>
 5   0  0.3571498E-07  0.2794953E+04  0.7818609E-02  0.8304837E-01
        2   -1    0    0  501    0  0.00000000000E+00  0.00000000000E+00  0.12395491418E+04  0.12395491418E+04  0.25500000920E-02 0. -1.
       -2   -1    0    0    0  501  0.00000000000E+00  0.00000000000E+00 -0.15755253671E+04  0.15755253671E+04  0.25500000920E-02 0.  1.
    10030    2    1    2    0    0  0.00000000000E+00  0.00000000000E+00 -0.33597622538E+03  0.28150745089E+04  0.27949533926E+04 0.  0.
        2    1    3    3  502    0 -0.43053377819E+03  0.67282696315E+02  0.11693715882E+04  0.12479247600E+04  0.25500000920E-02 0. -1.
       -2    1    3    3    0  502  0.43053377819E+03 -0.67282696315E+02 -0.15053478136E+04  0.15671497488E+04  0.25500000920E-02 0.  1.
</event>
<event>
 5   0  0.1374680E-07  0.2800751E+04  0.7818609E-02  0.8303035E-01
       -1   -1    0    0    0  501  0.00000000000E+00  0.00000000000E+00  0.11758494797E+04  0.11758494797E+04  0.50400001928E-02 0.  1.
        1   -1    0    0  501    0  0.00000000000E+00  0.00000000000E+00 -0.16677737741E+04  0.16677737741E+04  0.50400001928E-02 0. -1.
    10030    2    1    2    0    0  0.00000000000E+00  0.00000000000E+00 -0.49192429432E+03  0.28436232538E+04  0.28007505598E+04 0.  0.
        3    1    3    3  502    0 -0.28250001328E+03  0.75255935619E+03 -0.14102056823E+04  0.16232165348E+04  0.10100000352E+00 0. -1.
       -3    1    3    3    0  502  0.28250001328E+03 -0.75255935619E+03  0.91828138801E+03  0.12204067190E+04  0.10100000352E+00 0.  1.
</event>
<event>
 5   0  0.1346049E-07  0.2799722E+04  0.7818609E-02  0.8303355E-01
        1   -1    0    0  501    0  0.00000000000E+00  0.00000000000E+00  0.14509440722E+04  0.14509440722E+04  0.50400001928E-02 0. -1.
       -1   -1    0    0    0  501  0.00000000000E+00  0.00000000000E+00 -0.13505766445E+04  0.13505766445E+04  0.50400001928E-02 0.  1.
    10030    2    1    2    0    0  0.00000000000E+00  0.00000000000E+00  0.10036742764E+03  0.28015207167E+04  0.27997222551E+04 0.  0.
        1    1    3    3  502    0 -0.13493813961E+04 -0.68900112923E+02  0.41652515690E+03  0.14138849260E+04  0.50400001928E-02 0. -1.
       -1    1    3    3    0  502  0.13493813961E+04  0.68900112923E+02 -0.31615772925E+03  0.13876357907E+04  0.50400001928E-02 0.  1.
</event>
<event>
 5   0  0.1374680E-07  0.2799056E+04  0.7818609E-02  0.8303562E-01
       -1   -1    0    0    0  501  0.00000000000E+00  0.00000000000E+00  0.13227064101E+04  0.13227064101E+04  0.50400001928E-02 0.  1.
        1   -1    0    0  501    0  0.00000000000E+00  0.00000000000E+00 -0.14808112181E+04  0.14808112182E+04  0.50400001928E-02 0. -1.
    10030    2    1    2    0    0  0.00000000000E+00  0.00000000000E+00 -0.15810480807E+03  0.28035176282E+04  0.27990559054E+04 0.  0.
        3    1    3    3  502    0 -0.50243701846E+03  0.80800711742E+03 -0.11070216788E+04  0.14597312996E+04  0.10100000352E+00 0. -1.
       -3    1    3    3    0  502  0.50243701846E+03 -0.80800711742E+03  0.94891687076E+03  0.13437863287E+04  0.10100000352E+00 0.  1.
</event>
<event>
 5   0  0.1173363E-07  0.2801587E+04  0.7818609E-02  0.8302776E-01
       -3   -1    0    0    0  501  0.00000000000E+00  0.00000000000E+00  0.19630894683E+04  0.19630894709E+04  0.10100000352E+00 0.  1.
        3   -1    0    0  501    0  0.00000000000E+00  0.00000000000E+00 -0.99955815221E+03  0.99955815731E+03  0.10100000352E+00 0. -1.
    10030    2    1    2    0    0  0.00000000000E+00  0.00000000000E+00  0.96353131612E+03  0.29626476282E+04  0.28015867597E+04 0.  0.
        3    1    3    3  502    0  0.95038281651E+03  0.92043047045E+03  0.96844318763E+03  0.16396042104E+04  0.10100000352E+00 0. -1.
       -3    1    3    3    0  502 -0.95038281651E+03 -0.92043047045E+03 -0.49118715090E+01  0.13230434179E+04  0.10100000352E+00 0.  1.
</event>
<event>
 5   0  0.1357902E-07  0.2799755E+04  0.7818609E-02  0.8303345E-01
        1   -1    0    0  501    0  0.00000000000E+00  0.00000000000E+00  0.18973641473E+04  0.18973641473E+04  0.50400001928E-02 0. -1.
       -1   -1    0    0    0  501  0.00000000000E+00  0.00000000000E+00 -0.10328310684E+04  0.10328310684E+04  0.50400001928E-02 0.  1.
    10030    2    1    2    0    0  0.00000000000E+00  0.00000000000E+00  0.86453307887E+03  0.29301952157E+04  0.27997547317E+04 0.  0.
        4    1    3    3  502    0  0.12996255867E+04 -0.51187282195E+03  0.33512756839E+03  0.14364374513E+04  0.12699999809E+01 0.  1.
       -4    1    3    3    0  502 -0.12996255867E+04  0.51187282195E+03  0.52940551048E+03  0.14937577645E+04  0.12699999809E+01 0. -1.
</event>
<event>
 5   0  0.1357902E-07  0.2799644E+04  0.7818609E-02  0.8303379E-01
       -1   -1    0    0    0  501  0.00000000000E+00  0.00000000000E+00  0.11534550706E+04  0.11534550707E+04  0.50400001928E-02 0. -1.
        1   -1    0    0  501    0  0.00000000000E+00  0.00000000000E+00 -0.16988103336E+04  0.16988103336E+04  0.50400001928E-02 0.  1.
    10030    2    1    2    0    0  0.00000000000E+00  0.00000000000E+00 -0.54535526291E+03  0.28522654042E+04  0.27996438297E+04 0.  0.
        4    1    3    3  502    0 -0.54302826306E+03  0.48330489326E+03 -0.14914216597E+04  0.16591574651E+04  0.12699999809E+01 0.  1.
       -4    1    3    3    0  502  0.54302826306E+03 -0.48330489326E+03  0.94606639675E+03  0.11931079391E+04  0.12699999809E+01 0. -1.
</event>
<event>
 5   0  0.3522569E-07  0.2801278E+04  0.7818609E-02  0.8302872E-01
       -2   -1    0    0    0  501  0.00000000000E+00  0.00000000000E+00  0.89932740530E+03  0.89932740530E+03  0.25500000920E-02 0.  1.
        2   -1    0    0  501    0  0.00000000000E+00  0.00000000000E+00 -0.21813959638E+04  0.21813959638E+04  0.25500000920E-02 0. -1.
    10030    2    1    2    0    0  0.00000000000E+00  0.00000000000E+00 -0.12820685585E+04  0.30807233691E+04  0.28012776885E+04 0.  0.
        1    1    3    3  502    0 -0.14305371252E+02 -0.86727224843E+03 -0.18504781554E+04  0.20436817757E+04  0.50400001928E-02 0. -1.
       -1    1    3    3    0  502  0.14305371252E+02  0.86727224843E+03  0.56840959693E+03  0.10370415934E+04  0.50400001928E-02 0.  1.
</event>
<event>
 5   0  0.3502141E-07  0.2800049E+04  0.7818609E-02  0.8303253E-01
       -2   -1    0    0    0  501  0.00000000000E+00  0.00000000000E+00  0.59942433409E+03  0.59942433410E+03  0.25500000920E-02 0.  1.
        2   -1    0    0  501    0  0.00000000000E+00  0.00000000000E+00 -0.32699193970E+04  0.32699193970E+04  0.25500000920E-02 0. -1.
    10030    2    1    2    0    0  0.00000000000E+00  0.00000000000E+00 -0.26704950629E+04  0.38693437311E+04  0.28000494689E+04 0.  0.
        3    1    3    3  502    0  0.58403913768E+03  0.12470804958E+04 -0.98631764800E+03  0.16938518206E+04  0.10100000352E+00 0. -1.
       -3    1    3    3    0  502 -0.58403913768E+03 -0.12470804958E+04 -0.16841774149E+04  0.21754919104E+04  0.10100000352E+00 0.  1.
</event>
<event>
 5   0  0.1173363E-07  0.2781141E+04  0.7818609E-02  0.8309147E-01
        3   -1    0    0  501    0  0.00000000000E+00  0.00000000000E+00  0.75465667153E+03  0.75465667829E+03  0.10100000352E+00 0.  1.
       -3   -1    0    0    0  501  0.00000000000E+00  0.00000000000E+00 -0.25623398739E+04  0.25623398758E+04  0.10100000352E+00 0. -1.
    10030    2    1    2    0    0  0.00000000000E+00  0.00000000000E+00 -0.18076832023E+04  0.33169965541E+04  0.27811414168E+04 0.  0.
        4    1    3    3  502    0  0.99284425574E+03  0.41835486914E+03 -0.19523950191E+04  0.22299346260E+04  0.12699999809E+01 0. -1.
       -4    1    3    3    0  502 -0.99284425574E+03 -0.41835486914E+03  0.14471181683E+03  0.10870619281E+04  0.12699999809E+01 0.  1.
</event>
<event>
 5   0  0.3571498E-07  0.2797216E+04  0.7818609E-02  0.8304133E-01
        2   -1    0    0  501    0  0.00000000000E+00  0.00000000000E+00  0.15993048169E+04  0.15993048169E+04  0.25500000920E-02 0.  1.
       -2   -1    0    0    0  501  0.00000000000E+00  0.00000000000E+00 -0.12230970146E+04  0.12230970146E+04  0.25500000920E-02 0. -1.
    10030    2    1    2    0    0  0.00000000000E+00  0.00000000000E+00  0.37620780235E+03  0.28224018315E+04  0.27972164357E+04 0.  0.
        2    1    3    3  502    0 -0.19698469764E+03  0.35365613166E+03 -0.11626914659E+04  0.12311486812E+04  0.25500000920E-02 0. -1.
       -2    1    3    3    0  502  0.19698469764E+03 -0.35365613166E+03  0.15388992682E+04  0.15912531503E+04  0.25500000920E-02 0.  1.
</event>
<event>
 5   0  0.3406920E-07  0.2801026E+04  0.7818609E-02  0.8302950E-01
        2   -1    0    0  501    0  0.00000000000E+00  0.00000000000E+00  0.82901070318E+03  0.82901070319E+03  0.25500000920E-02 0.  1.
       -2   -1    0    0    0  501  0.00000000000E+00  0.00000000000E+00 -0.23659969615E+04  0.23659969615E+04  0.25500000920E-02 0. -1.
    10030    2    1    2    0    0  0.00000000000E+00  0.00000000000E+00 -0.15369862583E+04  0.31950076647E+04  0.28010261011E+04 0.  0.
        4    1    3    3  502    0  0.95578320681E+03  0.62083004827E+03 -0.16969085570E+04  0.20441261583E+04  0.12699999809E+01 0. -1.
       -4    1    3    3    0  502 -0.95578320681E+03 -0.62083004827E+03  0.15992229869E+03  0.11508815064E+04  0.12699999809E+01 0.  1.
</event>
<event>
 5   0  0.1357902E-07  0.2799415E+04  0.7818609E-02  0.8303450E-01
        1   -1    0    0  501    0  0.00000000000E+00  0.00000000000E+00  0.31821967702E+04  0.31821967702E+04  0.50400001928E-02 0.  1.
       -1   -1    0    0    0  501  0.00000000000E+00  0.00000000000E+00 -0.61566955891E+03  0.61566955893E+03  0.50400001928E-02 0. -1.
    10030    2    1    2    0    0  0.00000000000E+00  0.00000000000E+00  0.25665272113E+04  0.37978663292E+04  0.27994154261E+04 0.  0.
        4    1    3    3  502    0 -0.90726811551E+03  0.10453143758E+04  0.10007564601E+04  0.17080201061E+04  0.12699999809E+01 0.  1.
       -4    1    3    3    0  502  0.90726811551E+03 -0.10453143758E+04  0.15657707513E+04  0.20898462231E+04  0.12699999809E+01 0. -1.
</event>
<event>
 5   0  0.3557628E-07  0.2798598E+04  0.7818609E-02  0.8303704E-01
       -2   -1    0    0    0  501  0.00000000000E+00  0.00000000000E+00  0.20417376059E+04  0.20417376059E+04  0.25500000920E-02 0. -1.
        2   -1    0    0  501    0  0.00000000000E+00  0.00000000000E+00 -0.95900563957E+03  0.95900563957E+03  0.25500000920E-02 0.  1.
    10030    2    1    2    0    0  0.00000000000E+00  0.00000000000E+00  0.10827319663E+04  0.30007432455E+04  0.27985981338E+04 0.  0.
        5    1    3    3  502    0  0.20771105890E+03 -0.93500739967E+03 -0.55243197409E+03  0.11057060629E+04  0.46999998093E+01 0.  1.
       -5    1    3    3    0  502 -0.20771105890E+03  0.93500739967E+03  0.16351639404E+04  0.18950371826E+04  0.46999998093E+01 0. -1.
</event>
<event>
 5   0  0.3522569E-07  0.2800331E+04  0.7818609E-02  0.8303166E-01
        2   -1    0    0  501    0  0.00000000000E+00  0.00000000000E+00  0.11157152158E+04  0.11157152158E+04  0.25500000920E-02 0.  1.
       -2   -1    0    0    0  501  0.00000000000E+00  0.00000000000E+00 -0.17571363495E+04  0.17571363495E+04  0.25500000920E-02 0. -1.
    10030    2    1    2    0    0  0.00000000000E+00  0.00000000000E+00 -0.64142113373E+03  0.28728515654E+04  0.28003312386E+04 0.  0.
        1    1    3    3  502    0  0.97314244907E+03  0.57757647889E+03 -0.11666016917E+04  0.16252877659E+04  0.50400001928E-02 0. -1.
       -1    1    3    3    0  502 -0.97314244907E+03 -0.57757647889E+03  0.52518055793E+03  0.12475637994E+04  0.50400001928E-02 0.  1.
</event>
<event>
 5   0  0.1357902E-07  0.2798876E+04  0.7818609E-02  0.8303618E-01
       -1   -1    0    0    0  501  0.00000000000E+00  0.00000000000E+00  0.13046683427E+04  0.13046683428E+04  0.50400001928E-02 0. -1.
        1   -1    0    0  501    0  0.00000000000E+00  0.00000000000E+00 -0.15010911379E+04  0.15010911379E+04  0.50400001928E-02 0.  1.
    10030    2    1    2    0    0  0.00000000000E+00  0.00000000000E+00 -0.19642279517E+03  0.28057594807E+04  0.27988755508E+04 0.  0.
        4    1    3    3  502    0  0.34188482122E+03  0.13224098019E+04  0.20712197765E+03  0.13815042677E+04  0.12699999809E+01 0. -1.
       -4    1    3    3    0  502 -0.34188482122E+03 -0.13224098019E+04 -0.40354477281E+03  0.14242552130E+04  0.12699999809E+01 0.  1.
</event>
<event>
 5   0  0.1374680E-07  0.2800069E+04  0.7818609E-02  0.8303247E-01
       -1   -1    0    0    0  501  0.00000000000E+00  0.00000000000E+00  0.87677582751E+03  0.87677582752E+03  0.50400001928E-02 0.  1.
        1   -1    0    0  501    0  0.00000000000E+00  0.00000000000E+00 -0.22355727042E+04  0.22355727042E+04  0.50400001928E-02 0. -1.
    10030    2    1    2    0    0  0.00000000000E+00  0.00000000000E+00 -0.13587968767E+04  0.31123485317E+04  0.28000686475E+04 0.  0.
        3    1    3    3  502    0  0.10020943691E+04 -0.33615601844E+03 -0.16998869385E+04  0.20017016779E+04  0.10100000352E+00 0. -1.
       -3    1    3    3    0  502 -0.10020943691E+04  0.33615601844E+03  0.34109006187E+03  0.11106468538E+04  0.10100000352E+00 0.  1.
</event>
<event>
 5   0  0.3406920E-07  0.2799903E+04  0.7818609E-02  0.8303299E-01
        2   -1    0    0  501    0  0.00000000000E+00  0.00000000000E+00  0.23738494028E+04  0.23738494028E+04  0.25500000920E-02 0.  1.
       -2   -1    0    0    0  501  0.00000000000E+00  0.00000000000E+00 -0.82560571343E+03  0.82560571343E+03  0.25500000920E-02 0. -1.
    10030    2    1    2    0    0  0.00000000000E+00  0.00000000000E+00  0.15482436894E+04  0.31994551163E+04  0.27999025910E+04 0.  0.
        4    1    3    3  502    0  0.67429188341E+03  0.92543864408E+03 -0.14627203616E+03  0.11543410889E+04  0.12699999809E+01 0. -1.
       -4    1    3    3    0  502 -0.67429188341E+03 -0.92543864408E+03  0.16945157256E+04  0.20451140274E+04  0.12699999809E+01 0.  1.
</event>
<event>
 5   0  0.3502141E-07  0.2799104E+04  0.7818609E-02  0.8303547E-01
        2   -1    0    0  501    0  0.00000000000E+00  0.00000000000E+00  0.18712186548E+04  0.18712186548E+04  0.25500000920E-02 0. -1.
       -2   -1    0    0    0  501  0.00000000000E+00  0.00000000000E+00 -0.10467751061E+04  0.10467751061E+04  0.25500000920E-02 0.  1.
    10030    2    1    2    0    0  0.00000000000E+00  0.00000000000E+00  0.82444354872E+03  0.29179937609E+04  0.27991035036E+04 0.  0.
        3    1    3    3  502    0 -0.64216765298E+03 -0.20326727243E+03 -0.86669006538E+03  0.10976559380E+04  0.10100000352E+00 0.  1.
       -3    1    3    3    0  502  0.64216765298E+03  0.20326727243E+03  0.16911336141E+04  0.18203378229E+04  0.10100000352E+00 0. -1.
</event>
<event>
 5   0  0.3571498E-07  0.2796661E+04  0.7818609E-02  0.8304306E-01
       -2   -1    0    0    0  501  0.00000000000E+00  0.00000000000E+00  0.21321317955E+04  0.21321317955E+04  0.25500000920E-02 0.  1.
        2   -1    0    0  501    0  0.00000000000E+00  0.00000000000E+00 -0.91707639068E+03  0.91707639069E+03  0.25500000920E-02 0. -1.
    10030    2    1    2    0    0  0.00000000000E+00  0.00000000000E+00  0.12150554048E+04  0.30492081862E+04  0.27966606741E+04 0.  0.
        2    1    3    3  502    0 -0.13074007187E+04  0.43568818492E+03  0.34903867658E+03  0.14216007989E+04  0.25500000920E-02 0. -1.
       -2    1    3    3    0  502  0.13074007187E+04 -0.43568818492E+03  0.86601672827E+03  0.16276073873E+04  0.25500000920E-02 0.  1.
</event>
<event>
 5   0  0.3571498E-07  0.2800791E+04  0.7818609E-02  0.8303023E-01
        2   -1    0    0  501    0  0.00000000000E+00  0.00000000000E+00  0.17923245473E+04  0.17923245473E+04  0.25500000920E-02 0. -1.
       -2   -1    0    0    0  501  0.00000000000E+00  0.00000000000E+00 -0.10941696514E+04  0.10941696514E+04  0.25500000920E-02 0.  1.
    10030    2    1    2    0    0  0.00000000000E+00  0.00000000000E+00  0.69815489589E+03  0.28864941987E+04  0.28007906920E+04 0.  0.
        2    1    3    3  502    0 -0.35789064116E+03 -0.58574413229E+03 -0.90889830732E+03  0.11389811379E+04  0.25500000920E-02 0.  1.
       -2    1    3    3    0  502  0.35789064116E+03  0.58574413229E+03  0.16070532032E+04  0.17475130607E+04  0.25500000920E-02 0. -1.
</event>
<event>
 5   0  0.3406920E-07  0.2793033E+04  0.7818609E-02  0.8305435E-01
       -2   -1    0    0    0  501  0.00000000000E+00  0.00000000000E+00  0.25263984621E+04  0.25263984621E+04  0.25500000920E-02 0.  1.
        2   -1    0    0  501    0  0.00000000000E+00  0.00000000000E+00 -0.77195211143E+03  0.77195211144E+03  0.25500000920E-02 0. -1.
    10030    2    1    2    0    0  0.00000000000E+00  0.00000000000E+00  0.17544463507E+04  0.32983505735E+04  0.27930332094E+04 0.  0.
        4    1    3    3  502    0  0.47324760544E+03 -0.22191885504E+03  0.24065248645E+04  0.24626357446E+04  0.12699999809E+01 0.  1.
       -4    1    3    3    0  502 -0.47324760544E+03  0.22191885504E+03 -0.65207851380E+03  0.83571482896E+03  0.12699999809E+01 0. -1.
</event>
<event>
 5   0  0.3557628E-07  0.2806630E+04  0.7818609E-02  0.8301213E-01
       -2   -1    0    0    0  501  0.00000000000E+00  0.00000000000E+00  0.98531945786E+03  0.98531945786E+03  0.25500000920E-02 0. -1.
        2   -1    0    0  501    0  0.00000000000E+00  0.00000000000E+00 -0.19986341070E+04  0.19986341070E+04  0.25500000920E-02 0.  1.
    10030    2    1    2    0    0  0.00000000000E+00  0.00000000000E+00 -0.10133146491E+04  0.29839535649E+04  0.28066300610E+04 0.  0.
        5    1    3    3  502    0 -0.11317121991E+04  0.11875241454E+03  0.36644368964E+03  0.11954822061E+04  0.46999998093E+01 0. -1.
       -5    1    3    3    0  502  0.11317121991E+04 -0.11875241454E+03 -0.13797583388E+04  0.17884713587E+04  0.46999998093E+01 0.  1.
</event>
<event>
 5   0  0.3557628E-07  0.2799578E+04  0.7818609E-02  0.8303399E-01
        2   -1    0    0  501    0  0.00000000000E+00  0.00000000000E+00  0.16914171325E+04  0.16914171325E+04  0.25500000920E-02 0.  1.
       -2   -1    0    0    0  501  0.00000000000E+00  0.00000000000E+00 -0.11584426664E+04  0.11584426664E+04  0.25500000920E-02 0. -1.
    10030    2    1    2    0    0  0.00000000000E+00  0.00000000000E+00  0.53297446610E+03  0.28498597988E+04  0.27995783775E+04 0.  0.
        5    1    3    3  502    0 -0.11674900217E+04 -0.61526784437E+03  0.74155986626E+03  0.15137769308E+04  0.46999998093E+01 0.  1.
       -5    1    3    3    0  502  0.11674900217E+04  0.61526784437E+03 -0.20858540016E+03  0.13360828680E+04  0.46999998093E+01 0. -1.
</event>
<event>
 5   0  0.3502141E-07  0.2800180E+04  0.7818609E-02  0.8303212E-01
        2   -1    0    0  501    0  0.00000000000E+00  0.00000000000E+00  0.20456244416E+04  0.20456244417E+04  0.25500000920E-02 0.  1.
       -2   -1    0    0    0  501  0.00000000000E+00  0.00000000000E+00 -0.95826582219E+03  0.95826582219E+03  0.25500000920E-02 0. -1.
    10030    2    1    2    0    0  0.00000000000E+00  0.00000000000E+00  0.10873586195E+04  0.30038902638E+04  0.28001799853E+04 0.  0.
        3    1    3    3  502    0 -0.60705609620E+03 -0.11383540487E+04 -0.39845790144E+02  0.12907186918E+04  0.10100000352E+00 0. -1.
       -3    1    3    3    0  502  0.60705609620E+03  0.11383540487E+04  0.11272044096E+04  0.17131715721E+04  0.10100000352E+00 0.  1.
</event>
<event>
 5   0  0.1346049E-07  0.2799752E+04  0.7818609E-02  0.8303345E-01
        1   -1    0    0  501    0  0.00000000000E+00  0.00000000000E+00  0.15927386885E+04  0.15927386885E+04  0.50400001928E-02 0. -1.
       -1   -1    0    0    0  501  0.00000000000E+00  0.00000000000E+00 -0.12303668801E+04  0.12303668801E+04  0.50400001928E-02 0.  1.
    10030    2    1    2    0    0  0.00000000000E+00  0.00000000000E+00  0.36237180841E+03  0.28231055687E+04  0.27997520826E+04 0.  0.
        1    1    3    3  502    0 -0.66342166480E+03  0.12098837759E+04 -0.56803729400E+02  0.13810046054E+04  0.50400001928E-02 0. -1.
       -1    1    3    3    0  502  0.66342166480E+03 -0.12098837759E+04  0.41917553781E+03  0.14421009632E+04  0.50400001928E-02 0.  1.
</event>
<event>
 5   0  0.1346049E-07  0.2800142E+04  0.7818609E-02  0.8303224E-01
       -1   -1    0    0    0  501  0.00000000000E+00  0.00000000000E+00  0.10949227283E+04  0.10949227284E+04  0.50400001928E-02 0. -1.
        1   -1    0    0  501    0  0.00000000000E+00  0.00000000000E+00 -0.17902616283E+04  0.17902616283E+04  0.50400001928E-02 0.  1.
    10030    2    1    2    0    0  0.00000000000E+00  0.00000000000E+00 -0.69533889999E+03  0.28851843567E+04  0.28001415297E+04 0.  0.
        1    1    3    3  502    0  0.10235572223E+04 -0.53564968493E+03  0.46730650089E+03  0.12461802992E+04  0.50400001928E-02 0. -1.
       -1    1    3    3    0  502 -0.10235572223E+04  0.53564968493E+03 -0.11626454009E+04  0.16390040575E+04  0.50400001928E-02 0.  1.
</event>
<event>
 5   0  0.3571498E-07  0.2800015E+04  0.7818609E-02  0.8303264E-01
        2   -1    0    0  501    0  0.00000000000E+00  0.00000000000E+00  0.22276007268E+04  0.22276007268E+04  0.25500000920E-02 0.  1.
       -2   -1    0    0    0  501  0.00000000000E+00  0.00000000000E+00 -0.87987968705E+03  0.87987968706E+03  0.25500000920E-02 0. -1.
    10030    2    1    2    0    0  0.00000000000E+00  0.00000000000E+00  0.13477210398E+04  0.31074804139E+04  0.28000147360E+04 0.  0.
        2    1    3    3  502    0 -0.39783941497E+01  0.13786428926E+04  0.94422724460E+03  0.16709988457E+04  0.25500000920E-02 0.  1.
       -2    1    3    3    0  502  0.39783941497E+01 -0.13786428926E+04  0.40349379518E+03  0.14364815682E+04  0.25500000920E-02 0. -1.
</event>
<event>
 5   0  0.3406920E-07  0.2800190E+04  0.7818609E-02  0.8303209E-01
        2   -1    0    0  501    0  0.00000000000E+00  0.00000000000E+00  0.24442220563E+04  0.24442220563E+04  0.25500000920E-02 0.  1.
       -2   -1    0    0    0  501  0.00000000000E+00  0.00000000000E+00 -0.80200006303E+03  0.80200006303E+03  0.25500000920E-02 0. -1.
    10030    2    1    2    0    0  0.00000000000E+00  0.00000000000E+00  0.16422219933E+04  0.32462221194E+04  0.28001901673E+04 0.  0.
        4    1    3    3  502    0  0.88836635448E+03  0.39749111598E+02 -0.43257546628E+03  0.98888721226E+03  0.12699999809E+01 0. -1.
       -4    1    3    3    0  502 -0.88836635448E+03 -0.39749111598E+02  0.20747974596E+04  0.22573349071E+04  0.12699999809E+01 0.  1.
</event>
<event>
 5   0  0.1361741E-07  0.2799817E+04  0.7818609E-02  0.8303325E-01
       -1   -1    0    0    0  501  0.00000000000E+00  0.00000000000E+00  0.90912061176E+03  0.90912061178E+03  0.50400001928E-02 0. -1.
        1   -1    0    0  501    0  0.00000000000E+00  0.00000000000E+00 -0.21556478080E+04  0.21556478080E+04  0.50400001928E-02 0.  1.
    10030    2    1    2    0    0  0.00000000000E+00  0.00000000000E+00 -0.12465271962E+04  0.30647684198E+04  0.27998170326E+04 0.  0.
        5    1    3    3  502    0  0.52113649761E+02  0.37026060892E+03  0.85343998227E+03  0.93176748406E+03  0.46999998093E+01 0. -1.
       -5    1    3    3    0  502 -0.52113649761E+02 -0.37026060892E+03 -0.20999671785E+04  0.21330009357E+04  0.46999998093E+01 0.  1.
</event>
<event>
 5   0  0.3522569E-07  0.2799053E+04  0.7818609E-02  0.8303562E-01
       -2   -1    0    0    0  501  0.00000000000E+00  0.00000000000E+00  0.11806763463E+04  0.11806763463E+04  0.25500000920E-02 0.  1.
        2   -1    0    0  501    0  0.00000000000E+00  0.00000000000E+00 -0.16589432347E+04  0.16589432347E+04  0.25500000920E-02 0. -1.
    10030    2    1    2    0    0  0.00000000000E+00  0.00000000000E+00 -0.47826688842E+03  0.28396195810E+04  0.27990534379E+04 0.  0.
        1    1    3    3  502    0  0.42431364759E+02  0.11247908245E+03 -0.16536955467E+04  0.16580593856E+04  0.50400001928E-02 0. -1.
       -1    1    3    3    0  502 -0.42431364759E+02 -0.11247908245E+03  0.11754286583E+04  0.11815601955E+04  0.50400001928E-02 0.  1.
</event>
<event>
 5   0  0.1361741E-07  0.2800319E+04  0.7818609E-02  0.8303169E-01
        1   -1    0    0  501    0  0.00000000000E+00  0.00000000000E+00  0.18994595249E+04  0.18994595249E+04  0.50400001928E-02 0. -1.
       -1   -1    0    0    0  501  0.00000000000E+00  0.00000000000E+00 -0.10321073448E+04  0.10321073448E+04  0.50400001928E-02 0.  1.
    10030    2    1    2    0    0  0.00000000000E+00  0.00000000000E+00  0.86735218007E+03  0.29315668698E+04  0.28003186439E+04 0.  0.
        5    1    3    3  502    0 -0.11570185898E+04  0.62132313678E+03 -0.74556539119E+02  0.13154144689E+04  0.46999998093E+01 0.  1.
       -5    1    3    3    0  502  0.11570185898E+04 -0.62132313678E+03  0.94190871919E+03  0.16161524009E+04  0.46999998093E+01 0. -1.
</event>
<event>
 5   0  0.1357902E-07  0.2800090E+04  0.7818609E-02  0.8303240E-01
        1   -1    0    0  501    0  0.00000000000E+00  0.00000000000E+00  0.22082838030E+04  0.22082838030E+04  0.50400001928E-02 0.  1.
       -1   -1    0    0    0  501  0.00000000000E+00  0.00000000000E+00 -0.88762439820E+03  0.88762439821E+03  0.50400001928E-02 0. -1.
    10030    2    1    2    0    0  0.00000000000E+00  0.00000000000E+00  0.13206594048E+04  0.30959082012E+04  0.28000904140E+04 0.  0.
        4    1    3    3  502    0  0.10929278166E+02 -0.87035701426E+03 -0.55209759813E+03  0.10307541667E+04  0.12699999809E+01 0. -1.
       -4    1    3    3    0  502 -0.10929278166E+02  0.87035701426E+03  0.18727570029E+04  0.20651540345E+04  0.12699999809E+01 0.  1.
</event>
<event>
 5   0  0.1346049E-07  0.2800867E+04  0.7818609E-02  0.8302999E-01
        1   -1    0    0  501    0  0.00000000000E+00  0.00000000000E+00  0.18771748917E+04  0.18771748917E+04  0.50400001928E-02 0. -1.
       -1   -1    0    0    0  501  0.00000000000E+00  0.00000000000E+00 -0.10447691920E+04  0.10447691920E+04  0.50400001928E-02 0.  1.
    10030    2    1    2    0    0  0.00000000000E+00  0.00000000000E+00  0.83240569973E+03  0.29219440838E+04  0.28008673620E+04 0.  0.
        1    1    3    3  502    0 -0.16837814504E+03 -0.49662073751E+03  0.17708865655E+04  0.18468953908E+04  0.50400001928E-02 0. -1.
       -1    1    3    3    0  502  0.16837814504E+03  0.49662073751E+03 -0.93848086581E+03  0.10750486929E+04  0.50400001928E-02 0.  1.
</event>
<event>
 5   0  0.1346049E-07  0.2798312E+04  0.7818609E-02  0.8303793E-01
       -1   -1    0    0    0  501  0.00000000000E+00  0.00000000000E+00  0.13915580461E+04  0.13915580461E+04  0.50400001928E-02 0. -1.
        1   -1    0    0  501    0  0.00000000000E+00  0.00000000000E+00 -0.14067956779E+04  0.14067956779E+04  0.50400001928E-02 0.  1.
    10030    2    1    2    0    0  0.00000000000E+00  0.00000000000E+00 -0.15237631787E+02  0.27983537240E+04  0.27983122377E+04 0.  0.
        1    1    3    3  502    0  0.24578470009E+03  0.41187813242E+03  0.13067766174E+04  0.13920196991E+04  0.50400001928E-02 0. -1.
       -1    1    3    3    0  502 -0.24578470009E+03 -0.41187813242E+03 -0.13220142492E+04  0.14063340250E+04  0.50400001928E-02 0.  1.
</event>
<event>
 5   0  0.1346049E-07  0.2800325E+04  0.7818609E-02  0.8303167E-01
       -1   -1    0    0    0  501  0.00000000000E+00  0.00000000000E+00  0.14634759959E+04  0.14634759959E+04  0.50400001928E-02 0. -1.
        1   -1    0    0  501    0  0.00000000000E+00  0.00000000000E+00 -0.13395881169E+04  0.13395881169E+04  0.50400001928E-02 0.  1.
    10030    2    1    2    0    0  0.00000000000E+00  0.00000000000E+00  0.12388787902E+03  0.28030641129E+04  0.28003250194E+04 0.  0.
        1    1    3    3  502    0 -0.77068890811E+03  0.78927705700E+03  0.92507235046E+03  0.14396800059E+04  0.50400001928E-02 0. -1.
       -1    1    3    3    0  502  0.77068890811E+03 -0.78927705700E+03 -0.80118447144E+03  0.13633841070E+04  0.50400001928E-02 0.  1.
</event>
<event>
 5   0  0.1366235E-07  0.2798070E+04  0.7818609E-02  0.8303868E-01
       -1   -1    0    0    0  501  0.00000000000E+00  0.00000000000E+00  0.12531150267E+04  0.12531150267E+04  0.50400001928E-02 0. -1.
        1   -1    0    0  501    0  0.00000000000E+00  0.00000000000E+00 -0.15619462822E+04  0.15619462822E+04  0.50400001928E-02 0.  1.
    10030    2    1    2    0    0  0.00000000000E+00  0.00000000000E+00 -0.30883125553E+03  0.28150613089E+04  0.27980695896E+04 0.  0.
        2    1    3    3  502    0 -0.11870943299E+04 -0.47560156994E+03 -0.72523092859E+03  0.14701529517E+04  0.25500000920E-02 0.  1.
       -2    1    3    3    0  502  0.11870943299E+04  0.47560156994E+03  0.41639967306E+03  0.13449083572E+04  0.25500000920E-02 0. -1.
</event>
<event>
 5   0  0.1361741E-07  0.2800136E+04  0.7818609E-02  0.8303226E-01
       -1   -1    0    0    0  501  0.00000000000E+00  0.00000000000E+00  0.94123013906E+03  0.94123013907E+03  0.50400001928E-02 0.  1.
        1   -1    0    0  501    0  0.00000000000E+00  0.00000000000E+00 -0.20825828668E+04  0.20825828668E+04  0.50400001928E-02 0. -1.
    10030    2    1    2    0    0  0.00000000000E+00  0.00000000000E+00 -0.11413527277E+04  0.30238130059E+04  0.28001355405E+04 0.  0.
        5    1    3    3  502    0  0.39699518289E+02 -0.13610668430E+04 -0.92240714447E+03  0.16446689737E+04  0.46999998093E+01 0. -1.
       -5    1    3    3    0  502 -0.39699518289E+02  0.13610668430E+04 -0.21894558325E+03  0.13791440321E+04  0.46999998093E+01 0.  1.
</event>
<event>
 5   0  0.3502141E-07  0.2799587E+04  0.7818609E-02  0.8303397E-01
       -2   -1    0    0    0  501  0.00000000000E+00  0.00000000000E+00  0.10159284375E+04  0.10159284375E+04  0.25500000920E-02 0. -1.
        2   -1    0    0  501    0  0.00000000000E+00  0.00000000000E+00 -0.19287005760E+04  0.19287005761E+04  0.25500000920E-02 0.  1.
    10030    2    1    2    0    0  0.00000000000E+00  0.00000000000E+00 -0.91277213858E+03  0.29446290135E+04  0.27995869428E+04 0.  0.
        3    1    3    3  502    0  0.28212073614E+03 -0.89714179463E+03 -0.15469070884E+04  0.18103527446E+04  0.10100000352E+00 0.  1.
       -3    1    3    3    0  502 -0.28212073614E+03  0.89714179463E+03  0.63413494985E+03  0.11342762689E+04  0.10100000352E+00 0. -1.
</event>
<event>
 5   0  0.1374680E-07  0.2798682E+04  0.7818609E-02  0.8303678E-01
        1   -1    0    0  501    0  0.00000000000E+00  0.00000000000E+00  0.16502271173E+04  0.16502271173E+04  0.50400001928E-02 0. -1.
       -1   -1    0    0    0  501  0.00000000000E+00  0.00000000000E+00 -0.11865974308E+04  0.11865974308E+04  0.50400001928E-02 0.  1.
    10030    2    1    2    0    0  0.00000000000E+00  0.00000000000E+00  0.46362968652E+03  0.28368245481E+04  0.27986820167E+04 0.  0.
        3    1    3    3  502    0  0.37011318638E+02 -0.11408759814E+04  0.10522829225E+04  0.15525035271E+04  0.10100000352E+00 0. -1.
       -3    1    3    3    0  502 -0.37011318638E+02  0.11408759814E+04 -0.58865323596E+03  0.12843210210E+04  0.10100000352E+00 0.  1.
</event>
<event>
 5   0  0.1366235E-07  0.2798102E+04  0.7818609E-02  0.8303858E-01
        1   -1    0    0  501    0  0.00000000000E+00  0.00000000000E+00  0.15893396763E+04  0.15893396763E+04  0.50400001928E-02 0. -1.
       -1   -1    0    0    0  501  0.00000000000E+00  0.00000000000E+00 -0.12315453047E+04  0.12315453047E+04  0.50400001928E-02 0.  1.
    10030    2    1    2    0    0  0.00000000000E+00  0.00000000000E+00  0.35779437162E+03  0.28208849811E+04  0.27981020825E+04 0.  0.
        2    1    3    3  502    0  0.61388558304E+03 -0.85609623470E+03 -0.74924413252E+03  0.12927192434E+04  0.25500000920E-02 0.  1.
       -2    1    3    3    0  502 -0.61388558304E+03  0.85609623470E+03  0.11070385041E+04  0.15281657377E+04  0.25500000920E-02 0. -1.
</event>
<event>
 5   0  0.3557628E-07  0.2800330E+04  0.7818609E-02  0.8303166E-01
        2   -1    0    0  501    0  0.00000000000E+00  0.00000000000E+00  0.17296006216E+04  0.17296006216E+04  0.25500000920E-02 0.  1.
       -2   -1    0    0    0  501  0.00000000000E+00  0.00000000000E+00 -0.11334767322E+04  0.11334767322E+04  0.25500000920E-02 0. -1.
    10030    2    1    2    0    0  0.00000000000E+00  0.00000000000E+00  0.59612388939E+03  0.28630773538E+04  0.28003300238E+04 0.  0.
        5    1    3    3  502    0  0.85078955013E+03  0.71494318303E+01 -0.83885569068E+03  0.11948200420E+04  0.46999998093E+01 0. -1.
       -5    1    3    3    0  502 -0.85078955013E+03 -0.71494318303E+01  0.14349795801E+04  0.16682573117E+04  0.46999998093E+01 0.  1.
</event>
<event>
 5   0  0.3502141E-07  0.2802085E+04  0.7818609E-02  0.8302621E-01
        2   -1    0    0  501    0  0.00000000000E+00  0.00000000000E+00  0.19427839499E+04  0.19427839499E+04  0.25500000920E-02 0.  1.
       -2   -1    0    0    0  501  0.00000000000E+00  0.00000000000E+00 -0.10103644639E+04  0.10103644639E+04  0.25500000920E-02 0. -1.
    10030    2    1    2    0    0  0.00000000000E+00  0.00000000000E+00  0.93241948602E+03  0.29531484138E+04  0.28020848410E+04 0.  0.
        3    1    3    3  502    0  0.10526747229E+04 -0.90226720796E+02 -0.50353450252E+03  0.11703896526E+04  0.10100000352E+00 0. -1.
       -3    1    3    3    0  502 -0.10526747229E+04  0.90226720796E+02  0.14359539885E+04  0.17827587613E+04  0.10100000352E+00 0.  1.
</event>
<event>
 5   0  0.1346049E-07  0.2801050E+04  0.7818609E-02  0.8302942E-01
       -1   -1    0    0    0  501  0.00000000000E+00  0.00000000000E+00  0.27840543270E+04  0.27840543270E+04  0.50400001928E-02 0.  1.
        1   -1    0    0  501    0  0.00000000000E+00  0.00000000000E+00 -0.70453728507E+03  0.70453728509E+03  0.50400001928E-02 0. -1.
    10030    2    1    2    0    0  0.00000000000E+00  0.00000000000E+00  0.20795170419E+04  0.34885916120E+04  0.28010498582E+04 0.  0.
        1    1    3    3  502    0  0.13052322358E+04  0.24055533496E+03  0.48281147060E+03  0.14123048448E+04  0.50400001928E-02 0. -1.
       -1    1    3    3    0  502 -0.13052322358E+04 -0.24055533496E+03  0.15967055713E+04  0.20762867672E+04  0.50400001928E-02 0.  1.
</event>
<event>
 5   0  0.3406920E-07  0.2800589E+04  0.7818609E-02  0.8303085E-01
        2   -1    0    0  501    0  0.00000000000E+00  0.00000000000E+00  0.13990487760E+04  0.13990487760E+04  0.25500000920E-02 0.  1.
       -2   -1    0    0    0  501  0.00000000000E+00  0.00000000000E+00 -0.14015414409E+04  0.14015414409E+04  0.25500000920E-02 0. -1.
    10030    2    1    2    0    0  0.00000000000E+00  0.00000000000E+00 -0.24926649461E+01  0.28005902169E+04  0.28005891076E+04 0.  0.
        4    1    3    3  502    0 -0.82583737675E+03  0.48639608388E+03 -0.10221457041E+04  0.14012037598E+04  0.12699999809E+01 0. -1.
       -4    1    3    3    0  502  0.82583737675E+03 -0.48639608388E+03  0.10196530391E+04  0.13993864571E+04  0.12699999809E+01 0.  1.
</event>
<event>
 5   0  0.3522569E-07  0.2801106E+04  0.7818609E-02  0.8302925E-01
       -2   -1    0    0    0  501  0.00000000000E+00  0.00000000000E+00  0.99224886653E+03  0.99224886653E+03  0.25500000920E-02 0.  1.
        2   -1    0    0  501    0  0.00000000000E+00  0.00000000000E+00 -0.19768713590E+04  0.19768713590E+04  0.25500000920E-02 0. -1.
    10030    2    1    2    0    0  0.00000000000E+00  0.00000000000E+00 -0.98462249250E+03  0.29691202256E+04  0.28011057569E+04 0.  0.
        1    1    3    3  502    0  0.59313700573E+03  0.15479728886E+03 -0.18271199005E+04  0.19272106370E+04  0.50400001928E-02 0. -1.
       -1    1    3    3    0  502 -0.59313700573E+03 -0.15479728886E+03  0.84249740805E+03  0.10419095886E+04  0.50400001928E-02 0.  1.
</event>
<event>
 5   0  0.3502141E-07  0.2799267E+04  0.7818609E-02  0.8303496E-01
        2   -1    0    0  501    0  0.00000000000E+00  0.00000000000E+00  0.12071319748E+04  0.12071319748E+04  0.25500000920E-02 0.  1.
       -2   -1    0    0    0  501  0.00000000000E+00  0.00000000000E+00 -0.16228329714E+04  0.16228329714E+04  0.25500000920E-02 0. -1.
    10030    2    1    2    0    0  0.00000000000E+00  0.00000000000E+00 -0.41570099659E+03  0.28299649463E+04  0.27992667394E+04 0.  0.
        3    1    3    3  502    0 -0.55835942967E+03  0.24674305025E+03 -0.14811571774E+04  0.16020218413E+04  0.10100000352E+00 0.  1.
       -3    1    3    3    0  502  0.55835942967E+03 -0.24674305025E+03  0.10654561808E+04  0.12279431050E+04  0.10100000352E+00 0. -1.
</event>
<event>
 5   0  0.1361741E-07  0.2799266E+04  0.7818609E-02  0.8303496E-01
       -1   -1    0    0    0  501  0.00000000000E+00  0.00000000000E+00  0.14474009553E+04  0.14474009554E+04  0.50400001928E-02 0.  1.
        1   -1    0    0  501    0  0.00000000000E+00  0.00000000000E+00 -0.13534414839E+04  0.13534414839E+04  0.50400001928E-02 0. -1.
    10030    2    1    2    0    0  0.00000000000E+00  0.00000000000E+00  0.93959471425E+02  0.28008424393E+04  0.27992659730E+04 0.  0.
        5    1    3    3  502    0 -0.13845387551E+04 -0.16128285736E+03 -0.79545749971E+02  0.13961766868E+04  0.46999998093E+01 0. -1.
       -5    1    3    3    0  502  0.13845387551E+04  0.16128285736E+03  0.17350522140E+03  0.14046657525E+04  0.46999998093E+01 0.  1.
</event>
<event>
 5   0  0.1366235E-07  0.2800395E+04  0.7818609E-02  0.8303146E-01
        1   -1    0    0  501    0  0.00000000000E+00  0.00000000000E+00  0.22975499584E+04  0.22975499584E+04  0.50400001928E-02 0. -1.
       -1   -1    0    0    0  501  0.00000000000E+00  0.00000000000E+00 -0.85332360731E+03  0.85332360733E+03  0.50400001928E-02 0.  1.
    10030    2    1    2    0    0  0.00000000000E+00  0.00000000000E+00  0.14442263511E+04  0.31508735657E+04  0.28003954139E+04 0.  0.
        2    1    3    3  502    0 -0.31989703696E+03 -0.42242294823E+03 -0.73615571028E+03  0.90702838502E+03  0.25500000920E-02 0.  1.
       -2    1    3    3    0  502  0.31989703696E+03  0.42242294823E+03  0.21803820614E+04  0.22438451807E+04  0.25500000920E-02 0. -1.
</event>
<event>
 5   0  0.1374680E-07  0.2813194E+04  0.7818609E-02  0.8299184E-01
        1   -1    0    0  501    0  0.00000000000E+00  0.00000000000E+00  0.17501451540E+04  0.17501451540E+04  0.50400001928E-02 0.  1.
       -1   -1    0    0    0  501  0.00000000000E+00  0.00000000000E+00 -0.11304862011E+04  0.11304862011E+04  0.50400001928E-02 0. -1.
    10030    2    1    2    0    0  0.00000000000E+00  0.00000000000E+00  0.61965895295E+03  0.28806313551E+04  0.28131938763E+04 0.  0.
        3    1    3    3  502    0 -0.13477134270E+04  0.83395673183E+02 -0.93605840238E+02  0.13535318183E+04  0.10100000352E+00 0. -1.
       -3    1    3    3    0  502  0.13477134270E+04 -0.83395673183E+02  0.71326479318E+03  0.15270995367E+04  0.10100000352E+00 0.  1.
</event>
<event>
 5   0  0.3571498E-07  0.2798817E+04  0.7818609E-02  0.8303636E-01
        2   -1    0    0  501    0  0.00000000000E+00  0.00000000000E+00  0.20467446021E+04  0.20467446021E+04  0.25500000920E-02 0.  1.
       -2   -1    0    0    0  501  0.00000000000E+00  0.00000000000E+00 -0.95680936346E+03  0.95680936347E+03  0.25500000920E-02 0. -1.
    10030    2    1    2    0    0  0.00000000000E+00  0.00000000000E+00  0.10899352387E+04  0.30035539656E+04  0.27988171787E+04 0.  0.
        2    1    3    3  502    0  0.11375768824E+04  0.15346137583E+03  0.14039665499E+04  0.18134921093E+04  0.25500000920E-02 0.  1.
       -2    1    3    3    0  502 -0.11375768824E+04 -0.15346137583E+03 -0.31403131122E+03  0.11900618563E+04  0.25500000920E-02 0. -1.
</event>
<event>
 5   0  0.3406920E-07  0.2800252E+04  0.7818609E-02  0.8303190E-01
        2   -1    0    0  501    0  0.00000000000E+00  0.00000000000E+00  0.16376365462E+04  0.16376365462E+04  0.25500000920E-02 0.  1.
       -2   -1    0    0    0  501  0.00000000000E+00  0.00000000000E+00 -0.11970622675E+04  0.11970622675E+04  0.25500000920E-02 0. -1.
    10030    2    1    2    0    0  0.00000000000E+00  0.00000000000E+00  0.44057427870E+03  0.28346988137E+04  0.28002520725E+04 0.  0.
        4    1    3    3  502    0 -0.13135827838E+02 -0.13179393210E+04  0.69855499325E+03  0.14916827060E+04  0.12699999809E+01 0.  1.
       -4    1    3    3    0  502  0.13135827838E+02  0.13179393210E+04 -0.25798071456E+03  0.13430161078E+04  0.12699999809E+01 0. -1.
</event>
<event>
 5   0  0.1366235E-07  0.2800263E+04  0.7818609E-02  0.8303187E-01
        1   -1    0    0  501    0  0.00000000000E+00  0.00000000000E+00  0.23832719021E+04  0.23832719021E+04  0.50400001928E-02 0. -1.
       -1   -1    0    0    0  501  0.00000000000E+00  0.00000000000E+00 -0.82255324319E+03  0.82255324321E+03  0.50400001928E-02 0.  1.
    10030    2    1    2    0    0  0.00000000000E+00  0.00000000000E+00  0.15607186589E+04  0.32058251453E+04  0.28002628680E+04 0.  0.
        2    1    3    3  502    0  0.11388972492E+04  0.72445997820E+03  0.12063204756E+04  0.18102867988E+04  0.25500000920E-02 0.  1.
       -2    1    3    3    0  502 -0.11388972492E+04 -0.72445997820E+03  0.35439818334E+03  0.13955383465E+04  0.25500000920E-02 0. -1.
</event>
<event>
 5   0  0.1361741E-07  0.2799757E+04  0.7818609E-02  0.8303344E-01
        1   -1    0    0  501    0  0.00000000000E+00  0.00000000000E+00  0.19313072181E+04  0.19313072181E+04  0.50400001928E-02 0. -1.
       -1   -1    0    0    0  501  0.00000000000E+00  0.00000000000E+00 -0.10146805259E+04  0.10146805259E+04  0.50400001928E-02 0.  1.
    10030    2    1    2    0    0  0.00000000000E+00  0.00000000000E+00  0.91662669220E+03  0.29459877440E+04  0.27997570065E+04 0.  0.
        5    1    3    3  502    0 -0.23384408643E+03 -0.31749072468E+03  0.18716559042E+04  0.19127470640E+04  0.46999998093E+01 0. -1.
       -5    1    3    3    0  502  0.23384408643E+03  0.31749072468E+03 -0.95502921204E+03  0.10332406800E+04  0.46999998093E+01 0.  1.
</event>
<event>
 5   0  0.1366235E-07  0.2800101E+04  0.7818609E-02  0.8303237E-01
        1   -1    0    0  501    0  0.00000000000E+00  0.00000000000E+00  0.21037460119E+04  0.21037460119E+04  0.50400001928E-02 0. -1.
       -1   -1    0    0    0  501  0.00000000000E+00  0.00000000000E+00 -0.93173830336E+03  0.93173830337E+03  0.50400001928E-02 0.  1.
    10030    2    1    2    0    0  0.00000000000E+00  0.00000000000E+00  0.11720077085E+04  0.30354843152E+04  0.28001005266E+04 0.  0.
        2    1    3    3  502    0  0.34776361209E+03 -0.13303566011E+04  0.87149030746E+03  0.16279691557E+04  0.25500000920E-02 0. -1.
       -2    1    3    3    0  502 -0.34776361209E+03  0.13303566011E+04  0.30051740104E+03  0.14075151595E+04  0.25500000920E-02 0.  1.
</event>
<event>
 5   0  0.3571498E-07  0.2799677E+04  0.7818609E-02  0.8303369E-01
       -2   -1    0    0    0  501  0.00000000000E+00  0.00000000000E+00  0.96453528865E+03  0.96453528865E+03  0.25500000920E-02 0.  1.
        2   -1    0    0  501    0  0.00000000000E+00  0.00000000000E+00 -0.20315974916E+04  0.20315974916E+04  0.25500000920E-02 0. -1.
    10030    2    1    2    0    0  0.00000000000E+00  0.00000000000E+00 -0.10670622029E+04  0.29961327802E+04  0.27996767477E+04 0.  0.
        2    1    3    3  502    0  0.72488833738E+03  0.10859221236E+04 -0.10737899468E+04  0.16904776869E+04  0.25500000920E-02 0. -1.
       -2    1    3    3    0  502 -0.72488833738E+03 -0.10859221236E+04  0.67277438765E+01  0.13056550933E+04  0.25500000920E-02 0.  1.
</event>
<event>
 5   0  0.3502141E-07  0.2797124E+04  0.7818609E-02  0.8304162E-01
        2   -1    0    0  501    0  0.00000000000E+00  0.00000000000E+00  0.19389142068E+04  0.19389142068E+04  0.25500000920E-02 0.  1.
       -2   -1    0    0    0  501  0.00000000000E+00  0.00000000000E+00 -0.10087993474E+04  0.10087993474E+04  0.25500000920E-02 0. -1.
    10030    2    1    2    0    0  0.00000000000E+00  0.00000000000E+00  0.93011485944E+03  0.29477135542E+04  0.27971237989E+04 0.  0.
        3    1    3    3  502    0 -0.23138821842E+03  0.14934030396E+03  0.19100572736E+04  0.19298087555E+04  0.10100000352E+00 0.  1.
       -3    1    3    3    0  502  0.23138821842E+03 -0.14934030396E+03 -0.97994241419E+03  0.10179047988E+04  0.10100000352E+00 0. -1.
</event>
<event>
 5   0  0.3571498E-07  0.2800609E+04  0.7818609E-02  0.8303079E-01
        2   -1    0    0  501    0  0.00000000000E+00  0.00000000000E+00  0.16706688353E+04  0.16706688353E+04  0.25500000920E-02 0.  1.
       -2   -1    0    0    0  501  0.00000000000E+00  0.00000000000E+00 -0.11736935738E+04  0.11736935738E+04  0.25500000920E-02 0. -1.
    10030    2    1    2    0    0  0.00000000000E+00  0.00000000000E+00  0.49697526145E+03  0.28443624091E+04  0.28006094165E+04 0.  0.
        2    1    3    3  502    0  0.20754697918E+03  0.42516067256E+03  0.15870366689E+04  0.16560563802E+04  0.25500000920E-02 0.  1.
       -2    1    3    3    0  502 -0.20754697918E+03 -0.42516067256E+03 -0.10900614075E+04  0.11883060288E+04  0.25500000920E-02 0. -1.
</event>
<event>
 5   0  0.1374680E-07  0.2798902E+04  0.7818609E-02  0.8303609E-01
       -1   -1    0    0    0  501  0.00000000000E+00  0.00000000000E+00  0.66481639183E+03  0.66481639185E+03  0.50400001928E-02 0.  1.
        1   -1    0    0  501    0  0.00000000000E+00  0.00000000000E+00 -0.29458713534E+04  0.29458713534E+04  0.50400001928E-02 0. -1.
    10030    2    1    2    0    0  0.00000000000E+00  0.00000000000E+00 -0.22810549616E+04  0.36106877452E+04  0.27989023306E+04 0.  0.
        3    1    3    3  502    0  0.92797880936E+02  0.79526453727E+03  0.34015547231E+03  0.86992119557E+03  0.10100000352E+00 0.  1.
       -3    1    3    3    0  502 -0.92797880936E+02 -0.79526453727E+03 -0.26212104339E+04  0.27407665497E+04  0.10100000352E+00 0. -1.
</event>
<event>
 5   0  0.1361741E-07  0.2799084E+04  0.7818609E-02  0.8303553E-01
       -1   -1    0    0    0  501  0.00000000000E+00  0.00000000000E+00  0.11507707792E+04  0.11507707792E+04  0.50400001928E-02 0.  1.
        1   -1    0    0  501    0  0.00000000000E+00  0.00000000000E+00 -0.17020923869E+04  0.17020923869E+04  0.50400001928E-02 0. -1.
    10030    2    1    2    0    0  0.00000000000E+00  0.00000000000E+00 -0.55132160773E+03  0.28528631661E+04  0.27990842662E+04 0.  0.
        5    1    3    3  502    0  0.24374293957E+03 -0.13640723076E+04 -0.75437418147E+02  0.13877380066E+04  0.46999998093E+01 0.  1.
       -5    1    3    3    0  502 -0.24374293957E+03  0.13640723076E+04 -0.47588418959E+03  0.14651251594E+04  0.46999998093E+01 0. -1.
</event>
<event>
 5   0  0.3557628E-07  0.2798175E+04  0.7818609E-02  0.8303835E-01
       -2   -1    0    0    0  501  0.00000000000E+00  0.00000000000E+00  0.13163571857E+04  0.13163571857E+04  0.25500000920E-02 0. -1.
        2   -1    0    0  501    0  0.00000000000E+00  0.00000000000E+00 -0.14870175645E+04  0.14870175645E+04  0.25500000920E-02 0.  1.
    10030    2    1    2    0    0  0.00000000000E+00  0.00000000000E+00 -0.17066037876E+03  0.28033747502E+04  0.27981753028E+04 0.  0.
        5    1    3    3  502    0 -0.47712684763E+03 -0.12197013579E+04 -0.57828383876E+03  0.14316967973E+04  0.46999998093E+01 0. -1.
       -5    1    3    3    0  502  0.47712684763E+03  0.12197013579E+04  0.40762346001E+03  0.13716779529E+04  0.46999998093E+01 0.  1.
</event>
<event>
 5   0  0.1361741E-07  0.2802776E+04  0.7818609E-02  0.8302407E-01
        1   -1    0    0  501    0  0.00000000000E+00  0.00000000000E+00  0.17029935633E+04  0.17029935633E+04  0.50400001928E-02 0. -1.
       -1   -1    0    0    0  501  0.00000000000E+00  0.00000000000E+00 -0.11531978394E+04  0.11531978394E+04  0.50400001928E-02 0.  1.
    10030    2    1    2    0    0  0.00000000000E+00  0.00000000000E+00  0.54979572387E+03  0.28561914027E+04  0.28027761221E+04 0.  0.
        5    1    3    3  502    0 -0.75453599811E+03  0.11322298574E+04  0.61684821111E+03  0.14939186149E+04  0.46999998093E+01 0. -1.
       -5    1    3    3    0  502  0.75453599811E+03 -0.11322298574E+04 -0.67052487249E+02  0.13622727878E+04  0.46999998093E+01 0.  1.
</event>
<event>
 5   0  0.1366235E-07  0.2799291E+04  0.7818609E-02  0.8303489E-01
       -1   -1    0    0    0  501  0.00000000000E+00  0.00000000000E+00  0.14235178888E+04  0.14235178888E+04  0.50400001928E-02 0. -1.
        1   -1    0    0  501    0  0.00000000000E+00  0.00000000000E+00 -0.13761734320E+04  0.13761734320E+04  0.50400001928E-02 0.  1.
    10030    2    1    2    0    0  0.00000000000E+00  0.00000000000E+00  0.47344456872E+02  0.27996913208E+04  0.27992909806E+04 0.  0.
        2    1    3    3  502    0  0.91735656438E+03  0.62846950755E+03 -0.82644375125E+03  0.13854696901E+04  0.25500000920E-02 0.  1.
       -2    1    3    3    0  502 -0.91735656438E+03 -0.62846950755E+03  0.87378820813E+03  0.14142216307E+04  0.25500000920E-02 0. -1.
</event>
<event>
 5   0  0.3557628E-07  0.2801213E+04  0.7818609E-02  0.8302892E-01
        2   -1    0    0  501    0  0.00000000000E+00  0.00000000000E+00  0.17193898277E+04  0.17193898277E+04  0.25500000920E-02 0. -1.
       -2   -1    0    0    0  501  0.00000000000E+00  0.00000000000E+00 -0.11409269187E+04  0.11409269187E+04  0.25500000920E-02 0.  1.
    10030    2    1    2    0    0  0.00000000000E+00  0.00000000000E+00  0.57846290905E+03  0.28603167464E+04  0.28012126932E+04 0.  0.
        5    1    3    3  502    0  0.99058686795E+03  0.89926260779E+03  0.71239121588E+03  0.15157370864E+04  0.46999998093E+01 0.  1.
       -5    1    3    3    0  502 -0.99058686795E+03 -0.89926260779E+03 -0.13392830683E+03  0.13445796600E+04  0.46999998093E+01 0. -1.
</event>
<event>
 5   0  0.1346049E-07  0.2798851E+04  0.7818609E-02  0.8303625E-01
       -1   -1    0    0    0  501  0.00000000000E+00  0.00000000000E+00  0.15124219311E+04  0.15124219311E+04  0.50400001928E-02 0. -1.
        1   -1    0    0  501    0  0.00000000000E+00  0.00000000000E+00 -0.12948712147E+04  0.12948712147E+04  0.50400001928E-02 0.  1.
    10030    2    1    2    0    0  0.00000000000E+00  0.00000000000E+00  0.21755071633E+03  0.28072931458E+04  0.27988509236E+04 0.  0.
        1    1    3    3  502    0  0.62238696288E+03 -0.68703134540E+03  0.11602761764E+04  0.14851324543E+04  0.50400001928E-02 0. -1.
       -1    1    3    3    0  502 -0.62238696288E+03  0.68703134540E+03 -0.94272546009E+03  0.13221606915E+04  0.50400001928E-02 0.  1.
</event>
<event>
 5   0  0.3502141E-07  0.2797886E+04  0.7818609E-02  0.8303925E-01
        2   -1    0    0  501    0  0.00000000000E+00  0.00000000000E+00  0.21976114803E+04  0.21976114803E+04  0.25500000920E-02 0.  1.
       -2   -1    0    0    0  501  0.00000000000E+00  0.00000000000E+00 -0.89053144036E+03  0.89053144036E+03  0.25500000920E-02 0. -1.
    10030    2    1    2    0    0  0.00000000000E+00  0.00000000000E+00  0.13070800400E+04  0.30881429207E+04  0.27978864287E+04 0.  0.
        3    1    3    3  502    0 -0.28832402766E+03  0.12662380274E+04  0.79432571479E+02  0.13010761049E+04  0.10100000352E+00 0.  1.
       -3    1    3    3    0  502  0.28832402766E+03 -0.12662380274E+04  0.12276474685E+04  0.17870668158E+04  0.10100000352E+00 0. -1.
</event>
<event>
 5   0  0.3522569E-07  0.2807682E+04  0.7818609E-02  0.8300887E-01
       -2   -1    0    0    0  501  0.00000000000E+00  0.00000000000E+00  0.99952355109E+03  0.99952355109E+03  0.25500000920E-02 0.  1.
        2   -1    0    0  501    0  0.00000000000E+00  0.00000000000E+00 -0.19717085285E+04  0.19717085285E+04  0.25500000920E-02 0. -1.
    10030    2    1    2    0    0  0.00000000000E+00  0.00000000000E+00 -0.97218497745E+03  0.29712320796E+04  0.28076816844E+04 0.  0.
        1    1    3    3  502    0 -0.86214308051E+03 -0.10930325446E+04 -0.29455701446E+03  0.14229457718E+04  0.50400001928E-02 0.  1.
       -1    1    3    3    0  502  0.86214308051E+03  0.10930325446E+04 -0.67762796299E+03  0.15482863078E+04  0.50400001928E-02 0. -1.
</event>
<event>
 5   0  0.3502141E-07  0.2800134E+04  0.7818609E-02  0.8303227E-01
        2   -1    0    0  501    0  0.00000000000E+00  0.00000000000E+00  0.17891828520E+04  0.17891828520E+04  0.25500000920E-02 0.  1.
       -2   -1    0    0    0  501  0.00000000000E+00  0.00000000000E+00 -0.10955769418E+04  0.10955769418E+04  0.25500000920E-02 0. -1.
    10030    2    1    2    0    0  0.00000000000E+00  0.00000000000E+00  0.69360591029E+03  0.28847597938E+04  0.28001339091E+04 0.  0.
        3    1    3    3  502    0 -0.10809867564E+04 -0.24376813123E+01  0.12634396364E+04  0.16627741984E+04  0.10100000352E+00 0.  1.
       -3    1    3    3    0  502  0.10809867564E+04  0.24376813123E+01 -0.56983372610E+03  0.12219855954E+04  0.10100000352E+00 0. -1.
</event>
<event>
 5   0  0.1366235E-07  0.2799502E+04  0.7818609E-02  0.8303423E-01
        1   -1    0    0  501    0  0.00000000000E+00  0.00000000000E+00  0.26378179992E+04  0.26378179992E+04  0.50400001928E-02 0. -1.
       -1   -1    0    0    0  501  0.00000000000E+00  0.00000000000E+00 -0.74277404135E+03  0.74277404137E+03  0.50400001928E-02 0.  1.
    10030    2    1    2    0    0  0.00000000000E+00  0.00000000000E+00  0.18950439579E+04  0.33805920406E+04  0.27995019098E+04 0.  0.
        2    1    3    3  502    0  0.22162626744E+03 -0.64846245235E+03 -0.52634616816E+03  0.86409608451E+03  0.25500000920E-02 0.  1.
       -2    1    3    3    0  502 -0.22162626744E+03  0.64846245235E+03  0.24213901260E+04  0.25164959561E+04  0.25500000920E-02 0. -1.
</event>
<event>
 5   0  0.3406920E-07  0.2799732E+04  0.7818609E-02  0.8303351E-01
        2   -1    0    0  501    0  0.00000000000E+00  0.00000000000E+00  0.17439548783E+04  0.17439548783E+04  0.25500000920E-02 0.  1.
       -2   -1    0    0    0  501  0.00000000000E+00  0.00000000000E+00 -0.11236673320E+04  0.11236673320E+04  0.25500000920E-02 0. -1.
    10030    2    1    2    0    0  0.00000000000E+00  0.00000000000E+00  0.62028754629E+03  0.28676222104E+04  0.27997322196E+04 0.  0.
        4    1    3    3  502    0 -0.17871808090E+03  0.49602235955E+03 -0.10180842031E+04  0.11465057310E+04  0.12699999809E+01 0. -1.
       -4    1    3    3    0  502  0.17871808090E+03 -0.49602235955E+03  0.16383717494E+04  0.17211164794E+04  0.12699999809E+01 0.  1.
</event>
<event>
 5   0  0.1361741E-07  0.2799343E+04  0.7818609E-02  0.8303472E-01
       -1   -1    0    0    0  501  0.00000000000E+00  0.00000000000E+00  0.12693934784E+04  0.12693934784E+04  0.50400001928E-02 0.  1.
        1   -1    0    0  501    0  0.00000000000E+00  0.00000000000E+00 -0.15433204907E+04  0.15433204907E+04  0.50400001928E-02 0. -1.
    10030    2    1    2    0    0  0.00000000000E+00  0.00000000000E+00 -0.27392701229E+03  0.28127139691E+04  0.27993434702E+04 0.  0.
        5    1    3    3  502    0  0.18172606369E+03 -0.83052249213E+03  0.98022254166E+03  0.12975555068E+04  0.46999998093E+01 0.  1.
       -5    1    3    3    0  502 -0.18172606369E+03  0.83052249213E+03 -0.12541495540E+04  0.15151584623E+04  0.46999998093E+01 0. -1.
</event>
<event>
 5   0  0.1366235E-07  0.2802264E+04  0.7818609E-02  0.8302566E-01
        1   -1    0    0  501    0  0.00000000000E+00  0.00000000000E+00  0.97604227914E+03  0.97604227915E+03  0.50400001928E-02 0. -1.
       -1   -1    0    0    0  501  0.00000000000E+00  0.00000000000E+00 -0.20113588186E+04  0.20113588186E+04  0.50400001928E-02 0.  1.
    10030    2    1    2    0    0  0.00000000000E+00  0.00000000000E+00 -0.10353165394E+04  0.29874010977E+04  0.28022642598E+04 0.  0.
        2    1    3    3  502    0 -0.10355909702E+04 -0.20884380491E+03  0.46353270781E+03  0.11536580791E+04  0.25500000920E-02 0. -1.
       -2    1    3    3    0  502  0.10355909702E+04  0.20884380491E+03 -0.14988492472E+04  0.18337430186E+04  0.25500000920E-02 0.  1.
</event>
<event>
 5   0  0.1366235E-07  0.2799898E+04  0.7818609E-02  0.8303300E-01
        1   -1    0    0  501    0  0.00000000000E+00  0.00000000000E+00  0.14087868408E+04  0.14087868408E+04  0.50400001928E-02 0. -1.
       -1   -1    0    0    0  501  0.00000000000E+00  0.00000000000E+00 -0.13911662153E+04  0.13911662153E+04  0.50400001928E-02 0.  1.
    10030    2    1    2    0    0  0.00000000000E+00  0.00000000000E+00  0.17620625479E+02  0.27999530561E+04  0.27998976106E+04 0.  0.
        2    1    3    3  502    0  0.40047637061E+03  0.12636056533E+04  0.45912588892E+03  0.14028104477E+04  0.25500000920E-02 0. -1.
       -2    1    3    3    0  502 -0.40047637061E+03 -0.12636056533E+04 -0.44150526344E+03  0.13971426083E+04  0.25500000920E-02 0.  1.
</event>
<event>
 5   0  0.1374680E-07  0.2799718E+04  0.7818609E-02  0.8303356E-01
       -1   -1    0    0    0  501  0.00000000000E+00  0.00000000000E+00  0.81125387098E+03  0.81125387100E+03  0.50400001928E-02 0. -1.
        1   -1    0    0  501    0  0.00000000000E+00  0.00000000000E+00 -0.24155270865E+04  0.24155270865E+04  0.50400001928E-02 0.  1.
    10030    2    1    2    0    0  0.00000000000E+00  0.00000000000E+00 -0.16042732155E+04  0.32267809575E+04  0.27997183425E+04 0.  0.
        3    1    3    3  502    0  0.67578109711E+03  0.98465172299E+03  0.39599943102E+02  0.11949005283E+04  0.10100000352E+00 0.  1.
       -3    1    3    3    0  502 -0.67578109711E+03 -0.98465172299E+03 -0.16438731586E+04  0.20318804292E+04  0.10100000352E+00 0. -1.
</event>
<event>
 5   0  0.1361741E-07  0.2799797E+04  0.7818609E-02  0.8303331E-01
       -1   -1    0    0    0  501  0.00000000000E+00  0.00000000000E+00  0.26094660596E+04  0.26094660596E+04  0.50400001928E-02 0.  1.
        1   -1    0    0  501    0  0.00000000000E+00  0.00000000000E+00 -0.75100253308E+03  0.75100253310E+03  0.50400001928E-02 0. -1.
    10030    2    1    2    0    0  0.00000000000E+00  0.00000000000E+00  0.18584635265E+04  0.33604685927E+04  0.27997968646E+04 0.  0.
        5    1    3    3  502    0 -0.28135977967E+03  0.12972339253E+04  0.14629258756E+04  0.19753868963E+04  0.46999998093E+01 0.  1.
       -5    1    3    3    0  502  0.28135977967E+03 -0.12972339253E+04  0.39553765091E+03  0.13850816964E+04  0.46999998093E+01 0. -1.
</event>
<event>
 5   0  0.3557628E-07  0.2798440E+04  0.7818609E-02  0.8303753E-01
       -2   -1    0    0    0  501  0.00000000000E+00  0.00000000000E+00  0.14878895967E+04  0.14878895967E+04  0.25500000920E-02 0. -1.
        2   -1    0    0  501    0  0.00000000000E+00  0.00000000000E+00 -0.13158346878E+04  0.13158346878E+04  0.25500000920E-02 0.  1.
    10030    2    1    2    0    0  0.00000000000E+00  0.00000000000E+00  0.17205490884E+03  0.28037242845E+04  0.27984400962E+04 0.  0.
        5    1    3    3  502    0  0.49343419572E+03  0.36054499919E+03 -0.11750488876E+04  0.13244742278E+04  0.46999998093E+01 0.  1.
       -5    1    3    3    0  502 -0.49343419572E+03 -0.36054499919E+03  0.13471037964E+04  0.14792500567E+04  0.46999998093E+01 0. -1.
</event>
<event>
 5   0  0.1346049E-07  0.2800670E+04  0.7818609E-02  0.8303060E-01
       -1   -1    0    0    0  501  0.00000000000E+00  0.00000000000E+00  0.31840820252E+04  0.31840820252E+04  0.50400001928E-02 0. -1.
        1   -1    0    0  501    0  0.00000000000E+00  0.00000000000E+00 -0.61585659743E+03  0.61585659745E+03  0.50400001928E-02 0.  1.
    10030    2    1    2    0    0  0.00000000000E+00  0.00000000000E+00  0.25682254278E+04  0.37999386227E+04  0.28006698642E+04 0.  0.
        1    1    3    3  502    0 -0.12865833326E+04  0.17696847933E+03  0.57347852613E+03  0.14196802930E+04  0.50400001928E-02 0.  1.
       -1    1    3    3    0  502  0.12865833326E+04 -0.17696847933E+03  0.19947469017E+04  0.23802583297E+04  0.50400001928E-02 0. -1.
</event>
<event>
 5   0  0.1361741E-07  0.2797906E+04  0.7818609E-02  0.8303919E-01
       -1   -1    0    0    0  501  0.00000000000E+00  0.00000000000E+00  0.13238487923E+04  0.13238487924E+04  0.50400001928E-02 0. -1.
        1   -1    0    0  501    0  0.00000000000E+00  0.00000000000E+00 -0.14783179953E+04  0.14783179953E+04  0.50400001928E-02 0.  1.
    10030    2    1    2    0    0  0.00000000000E+00  0.00000000000E+00 -0.15446920291E+03  0.28021667876E+04  0.27979059975E+04 0.  0.
        5    1    3    3  502    0  0.52134934130E+03 -0.68570114075E+03  0.10267399120E+04  0.13402268938E+04  0.46999998093E+01 0. -1.
       -5    1    3    3    0  502 -0.52134934130E+03  0.68570114075E+03 -0.11812091149E+04  0.14619398938E+04  0.46999998093E+01 0.  1.
</event>
<event>
 5   0  0.1357902E-07  0.2799732E+04  0.7818609E-02  0.8303351E-01
       -1   -1    0    0    0  501  0.00000000000E+00  0.00000000000E+00  0.11329916876E+04  0.11329916876E+04  0.50400001928E-02 0.  1.
        1   -1    0    0  501    0  0.00000000000E+00  0.00000000000E+00 -0.17296026765E+04  0.17296026765E+04  0.50400001928E-02 0. -1.
    10030    2    1    2    0    0  0.00000000000E+00  0.00000000000E+00 -0.59661098890E+03  0.28625943641E+04  0.27997324553E+04 0.  0.
        4    1    3    3  502    0 -0.94411701985E+03 -0.90775171527E+03 -0.80362245159E+03  0.15366134131E+04  0.12699999809E+01 0. -1.
       -4    1    3    3    0  502  0.94411701985E+03  0.90775171527E+03  0.20701146270E+03  0.13259809510E+04  0.12699999809E+01 0.  1.
</event>
<event>
 5   0  0.1366235E-07  0.2799469E+04  0.7818609E-02  0.8303433E-01
        1   -1    0    0  501    0  0.00000000000E+00  0.00000000000E+00  0.15895370091E+04  0.15895370091E+04  0.50400001928E-02 0.  1.
       -1   -1    0    0    0  501  0.00000000000E+00  0.00000000000E+00 -0.12325956750E+04  0.12325956750E+04  0.50400001928E-02 0. -1.
    10030    2    1    2    0    0  0.00000000000E+00  0.00000000000E+00  0.35694133403E+03  0.28221326841E+04  0.27994688373E+04 0.  0.
        2    1    3    3  502    0 -0.70128306312E+03  0.48487977016E+03  0.12975705396E+04  0.15526092977E+04  0.25500000920E-02 0.  1.
       -2    1    3    3    0  502  0.70128306312E+03 -0.48487977016E+03 -0.94062920560E+03  0.12695233864E+04  0.25500000920E-02 0. -1.
</event>
<event>
 5   0  0.3571498E-07  0.2801858E+04  0.7818609E-02  0.8302692E-01
        2   -1    0    0  501    0  0.00000000000E+00  0.00000000000E+00  0.15272839014E+04  0.15272839014E+04  0.25500000920E-02 0. -1.
       -2   -1    0    0    0  501  0.00000000000E+00  0.00000000000E+00 -0.12850275018E+04  0.12850275018E+04  0.25500000920E-02 0.  1.
    10030    2    1    2    0    0  0.00000000000E+00  0.00000000000E+00  0.24225639963E+03  0.28123114033E+04  0.28018578240E+04 0.  0.
        2    1    3    3  502    0 -0.38659101011E+02 -0.44790133779E+03 -0.12106573631E+04  0.12914338486E+04  0.25500000920E-02 0.  1.
       -2    1    3    3    0  502  0.38659101011E+02  0.44790133779E+03  0.14529137627E+04  0.15208775547E+04  0.25500000920E-02 0. -1.
</event>
<event>
 5   0  0.3502141E-07  0.2800908E+04  0.7818609E-02  0.8302986E-01
        2   -1    0    0  501    0  0.00000000000E+00  0.00000000000E+00  0.21113137140E+04  0.21113137140E+04  0.25500000920E-02 0. -1.
       -2   -1    0    0    0  501  0.00000000000E+00  0.00000000000E+00 -0.92893438115E+03  0.92893438115E+03  0.25500000920E-02 0.  1.
    10030    2    1    2    0    0  0.00000000000E+00  0.00000000000E+00  0.11823793329E+04  0.30402480952E+04  0.28009083515E+04 0.  0.
        3    1    3    3  502    0 -0.68063475235E+03 -0.62372305638E+03 -0.55187696520E+03  0.10755753400E+04  0.10100000352E+00 0.  1.
       -3    1    3    3    0  502  0.68063475235E+03  0.62372305638E+03  0.17342562981E+04  0.19646727551E+04  0.10100000352E+00 0. -1.
</event>
<event>
 5   0  0.3406920E-07  0.2800250E+04  0.7818609E-02  0.8303191E-01
       -2   -1    0    0    0  501  0.00000000000E+00  0.00000000000E+00  0.81752670681E+03  0.81752670681E+03  0.25500000920E-02 0.  1.
        2   -1    0    0  501    0  0.00000000000E+00  0.00000000000E+00 -0.23979029028E+04  0.23979029028E+04  0.25500000920E-02 0. -1.
    10030    2    1    2    0    0  0.00000000000E+00  0.00000000000E+00 -0.15803761960E+04  0.32154296096E+04  0.28002497484E+04 0.  0.
        4    1    3    3  502    0  0.43217150461E+03  0.70531882624E+03 -0.20873219616E+04  0.22452530905E+04  0.12699999809E+01 0. -1.
       -4    1    3    3    0  502 -0.43217150461E+03 -0.70531882624E+03  0.50694576563E+03  0.97017651911E+03  0.12699999809E+01 0.  1.
</event>
<event>
 5   0  0.1361741E-07  0.2798162E+04  0.7818609E-02  0.8303839E-01
        1   -1    0    0  501    0  0.00000000000E+00  0.00000000000E+00  0.23159365844E+04  0.23159365844E+04  0.50400001928E-02 0. -1.
       -1   -1    0    0    0  501  0.00000000000E+00  0.00000000000E+00 -0.84519930082E+03  0.84519930084E+03  0.50400001928E-02 0.  1.
    10030    2    1    2    0    0  0.00000000000E+00  0.00000000000E+00  0.14707372836E+04  0.31611358852E+04  0.27981622411E+04 0.  0.
        5    1    3    3  502    0 -0.12296828249E+04  0.17524244212E+03  0.14627671715E+04  0.19189944376E+04  0.46999998093E+01 0. -1.
       -5    1    3    3    0  502  0.12296828249E+04 -0.17524244212E+03  0.79701120365E+01  0.12421414477E+04  0.46999998093E+01 0.  1.
</event>
<event>
 5   0  0.3522569E-07  0.2799663E+04  0.7818609E-02  0.8303373E-01
       -2   -1    0    0    0  501  0.00000000000E+00  0.00000000000E+00  0.77543683262E+03  0.77543683263E+03  0.25500000920E-02 0. -1.
        2   -1    0    0  501    0  0.00000000000E+00  0.00000000000E+00 -0.25269988021E+04  0.25269988021E+04  0.25500000920E-02 0.  1.
    10030    2    1    2    0    0  0.00000000000E+00  0.00000000000E+00 -0.17515619695E+04  0.33024356348E+04  0.27996627991E+04 0.  0.
        1    1    3    3  502    0  0.10135588915E+04 -0.48167441214E+03  0.11128156721E+03  0.11276947517E+04  0.50400001928E-02 0. -1.
       -1    1    3    3    0  502 -0.10135588915E+04  0.48167441214E+03 -0.18628435367E+04  0.21747408830E+04  0.50400001928E-02 0.  1.
</event>
<event>
 5   0  0.3557628E-07  0.2801106E+04  0.7818609E-02  0.8302925E-01
        2   -1    0    0  501    0  0.00000000000E+00  0.00000000000E+00  0.75326106130E+03  0.75326106130E+03  0.25500000920E-02 0. -1.
       -2   -1    0    0    0  501  0.00000000000E+00  0.00000000000E+00 -0.26040755381E+04  0.26040755381E+04  0.25500000920E-02 0.  1.
    10030    2    1    2    0    0  0.00000000000E+00  0.00000000000E+00 -0.18508144768E+04  0.33573365994E+04  0.28011059984E+04 0.  0.
        5    1    3    3  502    0 -0.83128532208E+03  0.33842467749E+03 -0.22140625157E+04  0.23890712552E+04  0.46999998093E+01 0.  1.
       -5    1    3    3    0  502  0.83128532208E+03 -0.33842467749E+03  0.36324803889E+03  0.96826534421E+03  0.46999998093E+01 0. -1.
</event>
<event>
 5   0  0.1357902E-07  0.2799568E+04  0.7818609E-02  0.8303402E-01
       -1   -1    0    0    0  501  0.00000000000E+00  0.00000000000E+00  0.13937147810E+04  0.13937147810E+04  0.50400001928E-02 0. -1.
        1   -1    0    0  501    0  0.00000000000E+00  0.00000000000E+00 -0.14058799330E+04  0.14058799330E+04  0.50400001928E-02 0.  1.
    10030    2    1    2    0    0  0.00000000000E+00  0.00000000000E+00 -0.12165152021E+02  0.27995947141E+04  0.27995682832E+04 0.  0.
        4    1    3    3  502    0 -0.12528890573E+04 -0.36677186977E+03  0.49903746251E+03  0.13976024457E+04  0.12699999809E+01 0. -1.
       -4    1    3    3    0  502  0.12528890573E+04  0.36677186977E+03 -0.51120261453E+03  0.14019922683E+04  0.12699999809E+01 0.  1.
</event>
<event>
 5   0  0.1366235E-07  0.2800112E+04  0.7818609E-02  0.8303233E-01
        1   -1    0    0  501    0  0.00000000000E+00  0.00000000000E+00  0.15066520260E+04  0.15066520260E+04  0.50400001928E-02 0. -1.
       -1   -1    0    0    0  501  0.00000000000E+00  0.00000000000E+00 -0.13010020359E+04  0.13010020359E+04  0.50400001928E-02 0.  1.
    10030    2    1    2    0    0  0.00000000000E+00  0.00000000000E+00  0.20564999010E+03  0.28076540619E+04  0.28001123929E+04 0.  0.
        2    1    3    3  502    0  0.53784102623E+03  0.43648246672E+02  0.13981942842E+04  0.14987079086E+04  0.25500000920E-02 0. -1.
       -2    1    3    3    0  502 -0.53784102623E+03 -0.43648246672E+02 -0.11925442941E+04  0.13089461533E+04  0.25500000920E-02 0.  1.
</event>
<event>
 5   0  0.1366235E-07  0.2797702E+04  0.7818609E-02  0.8303982E-01
       -1   -1    0    0    0  501  0.00000000000E+00  0.00000000000E+00  0.91844695266E+03  0.91844695268E+03  0.50400001928E-02 0.  1.
        1   -1    0    0  501    0  0.00000000000E+00  0.00000000000E+00 -0.21305350994E+04  0.21305350994E+04  0.50400001928E-02 0. -1.
    10030    2    1    2    0    0  0.00000000000E+00  0.00000000000E+00 -0.12120881467E+04  0.30489820521E+04  0.27977015349E+04 0.  0.
        2    1    3    3  502    0  0.13979125729E+04 -0.50744580720E+02 -0.61366465961E+03  0.15275205034E+04  0.25500000920E-02 0. -1.
       -2    1    3    3    0  502 -0.13979125729E+04  0.50744580720E+02 -0.59842348709E+03  0.15214615486E+04  0.25500000920E-02 0.  1.
</event>
<event>
 5   0  0.1361741E-07  0.2799195E+04  0.7818609E-02  0.8303518E-01
        1   -1    0    0  501    0  0.00000000000E+00  0.00000000000E+00  0.99226885170E+03  0.99226885171E+03  0.50400001928E-02 0.  1.
       -1   -1    0    0    0  501  0.00000000000E+00  0.00000000000E+00 -0.19741357767E+04  0.19741357767E+04  0.50400001928E-02 0. -1.
    10030    2    1    2    0    0  0.00000000000E+00  0.00000000000E+00 -0.98186692495E+03  0.29664046284E+04  0.27991951988E+04 0.  0.
        5    1    3    3  502    0 -0.90723324373E+03 -0.55571796597E+03 -0.14546262298E+04  0.18021803946E+04  0.46999998093E+01 0. -1.
       -5    1    3    3    0  502  0.90723324373E+03  0.55571796597E+03  0.47275930484E+03  0.11642242338E+04  0.46999998093E+01 0.  1.
</event>
<event>
 5   0  0.1366235E-07  0.2796566E+04  0.7818609E-02  0.8304335E-01
       -1   -1    0    0    0  501  0.00000000000E+00  0.00000000000E+00  0.10228637328E+04  0.10228637328E+04  0.50400001928E-02 0.  1.
        1   -1    0    0  501    0  0.00000000000E+00  0.00000000000E+00 -0.19114920560E+04  0.19114920560E+04  0.50400001928E-02 0. -1.
    10030    2    1    2    0    0  0.00000000000E+00  0.00000000000E+00 -0.88862832327E+03  0.29343557888E+04  0.27965663944E+04 0.  0.
        2    1    3    3  502    0 -0.87365695968E+03  0.16947446173E+03  0.68734182820E+03  0.11244718161E+04  0.25500000920E-02 0.  1.
       -2    1    3    3    0  502  0.87365695968E+03 -0.16947446173E+03 -0.15759701515E+04  0.18098839727E+04  0.25500000920E-02 0. -1.
</event>
<event>
 5   0  0.3571498E-07  0.2801566E+04  0.7818609E-02  0.8302782E-01
       -2   -1    0    0    0  501  0.00000000000E+00  0.00000000000E+00  0.14411124929E+04  0.14411124929E+04  0.25500000920E-02 0.  1.
        2   -1    0    0  501    0  0.00000000000E+00  0.00000000000E+00 -0.13615825946E+04  0.13615825946E+04  0.25500000920E-02 0. -1.
    10030    2    1    2    0    0  0.00000000000E+00  0.00000000000E+00  0.79529898294E+02  0.28026950874E+04  0.28015664812E+04 0.  0.
        2    1    3    3  502    0  0.97035187544E+03 -0.37783417909E+03 -0.89755019694E+03  0.13747500810E+04  0.25500000920E-02 0. -1.
       -2    1    3    3    0  502 -0.97035187544E+03  0.37783417909E+03  0.97708009524E+03  0.14279450065E+04  0.25500000920E-02 0.  1.
</event>
<event>
 5   0  0.3571498E-07  0.2801905E+04  0.7818609E-02  0.8302677E-01
        2   -1    0    0  501    0  0.00000000000E+00  0.00000000000E+00  0.12166804169E+04  0.12166804169E+04  0.25500000920E-02 0.  1.
       -2   -1    0    0    0  501  0.00000000000E+00  0.00000000000E+00 -0.16131331481E+04  0.16131331481E+04  0.25500000920E-02 0. -1.
    10030    2    1    2    0    0  0.00000000000E+00  0.00000000000E+00 -0.39645273118E+03  0.28298135651E+04  0.28019047173E+04 0.  0.
        2    1    3    3  502    0 -0.69893248225E+03  0.12134277968E+04 -0.15592988693E+03  0.14089811079E+04  0.25500000920E-02 0.  1.
       -2    1    3    3    0  502  0.69893248225E+03 -0.12134277968E+04 -0.24052284425E+03  0.14208324572E+04  0.25500000920E-02 0. -1.
</event>
<event>
 5   0  0.3502141E-07  0.2795224E+04  0.7818609E-02  0.8304753E-01
        2   -1    0    0  501    0  0.00000000000E+00  0.00000000000E+00  0.93469963664E+03  0.93469963665E+03  0.25500000920E-02 0.  1.
       -2   -1    0    0    0  501  0.00000000000E+00  0.00000000000E+00 -0.20897824860E+04  0.20897824860E+04  0.25500000920E-02 0. -1.
    10030    2    1    2    0    0  0.00000000000E+00  0.00000000000E+00 -0.11550828494E+04  0.30244821227E+04  0.27952237337E+04 0.  0.
        3    1    3    3  502    0 -0.29990429638E+02 -0.46625744964E+03 -0.20027785465E+04  0.20565547286E+04  0.10100000352E+00 0. -1.
       -3    1    3    3    0  502  0.29990429638E+02  0.46625744964E+03  0.84769569708E+03  0.96792739411E+03  0.10100000352E+00 0.  1.
</event>
<event>
 5   0  0.1346049E-07  0.2800089E+04  0.7818609E-02  0.8303241E-01
        1   -1    0    0  501    0  0.00000000000E+00  0.00000000000E+00  0.24694852247E+04  0.24694852247E+04  0.50400001928E-02 0. -1.
       -1   -1    0    0    0  501  0.00000000000E+00  0.00000000000E+00 -0.79373830461E+03  0.79373830463E+03  0.50400001928E-02 0.  1.
    10030    2    1    2    0    0  0.00000000000E+00  0.00000000000E+00  0.16757469201E+04  0.32632235293E+04  0.28000892954E+04 0.  0.
        1    1    3    3  502    0  0.89892553833E+03 -0.23931247578E+03  0.20572556397E+04  0.22577950198E+04  0.50400001928E-02 0. -1.
       -1    1    3    3    0  502 -0.89892553833E+03  0.23931247578E+03 -0.38150871961E+03  0.10054285095E+04  0.50400001928E-02 0.  1.
</event>
<event>
 5   0  0.1366235E-07  0.2800385E+04  0.7818609E-02  0.8303149E-01
        1   -1    0    0  501    0  0.00000000000E+00  0.00000000000E+00  0.25691505184E+04  0.25691505184E+04  0.50400001928E-02 0. -1.
       -1   -1    0    0    0  501  0.00000000000E+00  0.00000000000E+00 -0.76310792898E+03  0.76310792900E+03  0.50400001928E-02 0.  1.
    10030    2    1    2    0    0  0.00000000000E+00  0.00000000000E+00  0.18060425895E+04  0.33322584474E+04  0.28003850674E+04 0.  0.
        2    1    3    3  502    0 -0.72556345458E+03 -0.11828611975E+04  0.11254335470E+04  0.17866738953E+04  0.25500000920E-02 0. -1.
       -2    1    3    3    0  502  0.72556345458E+03  0.11828611975E+04  0.68060904242E+03  0.15455845522E+04  0.25500000920E-02 0.  1.
</event>
<event>
 5   0  0.1366235E-07  0.2799518E+04  0.7818609E-02  0.8303418E-01
       -1   -1    0    0    0  501  0.00000000000E+00  0.00000000000E+00  0.14319492816E+04  0.14319492816E+04  0.50400001928E-02 0.  1.
        1   -1    0    0  501    0  0.00000000000E+00  0.00000000000E+00 -0.13682927190E+04  0.13682927190E+04  0.50400001928E-02 0. -1.
    10030    2    1    2    0    0  0.00000000000E+00  0.00000000000E+00  0.63656562576E+02  0.28002420006E+04  0.27995183700E+04 0.  0.
        2    1    3    3  502    0  0.13888224944E+04 -0.41193355736E+02 -0.13792404857E+03  0.13962621017E+04  0.25500000920E-02 0. -1.
       -2    1    3    3    0  502 -0.13888224944E+04  0.41193355736E+02  0.20158061115E+03  0.14039798988E+04  0.25500000920E-02 0.  1.
</event>
<event>
 5   0  0.3502141E-07  0.2800869E+04  0.7818609E-02  0.8302999E-01
        2   -1    0    0  501    0  0.00000000000E+00  0.00000000000E+00  0.15211376024E+04  0.15211376024E+04  0.25500000920E-02 0. -1.
       -2   -1    0    0    0  501  0.00000000000E+00  0.00000000000E+00 -0.12893089154E+04  0.12893089154E+04  0.25500000920E-02 0.  1.
    10030    2    1    2    0    0  0.00000000000E+00  0.00000000000E+00  0.23182868694E+03  0.28104465178E+04  0.28008686312E+04 0.  0.
        3    1    3    3  502    0  0.50138823855E+02 -0.81657889560E+03 -0.10245907988E+04  0.13111450376E+04  0.10100000352E+00 0.  1.
       -3    1    3    3    0  502 -0.50138823855E+02  0.81657889560E+03  0.12564194857E+04  0.14993014802E+04  0.10100000352E+00 0. -1.
</event>
<event>
 5   0  0.3571498E-07  0.2799951E+04  0.7818609E-02  0.8303284E-01
        2   -1    0    0  501    0  0.00000000000E+00  0.00000000000E+00  0.13167262257E+04  0.13167262257E+04  0.25500000920E-02 0.  1.
       -2   -1    0    0    0  501  0.00000000000E+00  0.00000000000E+00 -0.14884882901E+04  0.14884882901E+04  0.25500000920E-02 0. -1.
    10030    2    1    2    0    0  0.00000000000E+00  0.00000000000E+00 -0.17176206442E+03  0.28052145157E+04  0.27999511197E+04 0.  0.
        2    1    3    3  502    0  0.89846163913E+03  0.11478560338E+03 -0.11553719069E+04  0.14680917189E+04  0.25500000920E-02 0. -1.
       -2    1    3    3    0  502 -0.89846163913E+03 -0.11478560338E+03  0.98360984248E+03  0.13371227969E+04  0.25500000920E-02 0.  1.
</event>
<event>
 5   0  0.3571498E-07  0.2801344E+04  0.7818609E-02  0.8302851E-01
        2   -1    0    0  501    0  0.00000000000E+00  0.00000000000E+00  0.18212212545E+04  0.18212212545E+04  0.25500000920E-02 0.  1.
       -2   -1    0    0    0  501  0.00000000000E+00  0.00000000000E+00 -0.10772342733E+04  0.10772342733E+04  0.25500000920E-02 0. -1.
    10030    2    1    2    0    0  0.00000000000E+00  0.00000000000E+00  0.74398698119E+03  0.28984555278E+04  0.28013439308E+04 0.  0.
        2    1    3    3  502    0  0.85305636612E+03  0.16532331907E+03 -0.76465441327E+03  0.11574685030E+04  0.25500000920E-02 0. -1.
       -2    1    3    3    0  502 -0.85305636612E+03 -0.16532331907E+03  0.15086413945E+04  0.17409870248E+04  0.25500000920E-02 0.  1.
</event>
<event>
 5   0  0.1357902E-07  0.2798927E+04  0.7818609E-02  0.8303602E-01
        1   -1    0    0  501    0  0.00000000000E+00  0.00000000000E+00  0.15747195545E+04  0.15747195545E+04  0.50400001928E-02 0. -1.
       -1   -1    0    0    0  501  0.00000000000E+00  0.00000000000E+00 -0.12437120465E+04  0.12437120465E+04  0.50400001928E-02 0.  1.
    10030    2    1    2    0    0  0.00000000000E+00  0.00000000000E+00  0.33100750795E+03  0.28184316010E+04  0.27989267084E+04 0.  0.
        4    1    3    3  502    0  0.12142780023E+03 -0.10463897785E+04 -0.76223077543E+03  0.13002590692E+04  0.12699999809E+01 0.  1.
       -4    1    3    3    0  502 -0.12142780023E+03  0.10463897785E+04  0.10932382834E+04  0.15181725318E+04  0.12699999809E+01 0. -1.
</event>
<event>
 5   0  0.1173363E-07  0.2798403E+04  0.7818609E-02  0.8303764E-01
        3   -1    0    0  501    0  0.00000000000E+00  0.00000000000E+00  0.11384618760E+04  0.11384618804E+04  0.10100000352E+00 0.  1.
       -3   -1    0    0    0  501  0.00000000000E+00  0.00000000000E+00 -0.17196581653E+04  0.17196581682E+04  0.10100000352E+00 0. -1.
    10030    2    1    2    0    0  0.00000000000E+00  0.00000000000E+00 -0.58119628931E+03  0.28581200487E+04  0.27984033101E+04 0.  0.
        3    1    3    3  502    0 -0.17597167332E+03  0.10896322087E+04 -0.11688913207E+04  0.16076601972E+04  0.10100000352E+00 0. -1.
       -3    1    3    3    0  502  0.17597167332E+03 -0.10896322087E+04  0.58769503139E+03  0.12504598514E+04  0.10100000352E+00 0.  1.
</event>
<event>
 5   0  0.3522569E-07  0.2799071E+04  0.7818609E-02  0.8303557E-01
        2   -1    0    0  501    0  0.00000000000E+00  0.00000000000E+00  0.19618881085E+04  0.19618881085E+04  0.25500000920E-02 0.  1.
       -2   -1    0    0    0  501  0.00000000000E+00  0.00000000000E+00 -0.99837458098E+03  0.99837458099E+03  0.25500000920E-02 0. -1.
    10030    2    1    2    0    0  0.00000000000E+00  0.00000000000E+00  0.96351352751E+03  0.29602626895E+04  0.27990707160E+04 0.  0.
        1    1    3    3  502    0 -0.13156297821E+04  0.22710408955E+02 -0.22460548839E+02  0.13160174628E+04  0.50400001928E-02 0. -1.
       -1    1    3    3    0  502  0.13156297821E+04 -0.22710408955E+02  0.98597407635E+03  0.16442452267E+04  0.50400001928E-02 0.  1.
</event>
<event>
 5   0  0.3502141E-07  0.2796071E+04  0.7818609E-02  0.8304489E-01
       -2   -1    0    0    0  501  0.00000000000E+00  0.00000000000E+00  0.12270960904E+04  0.12270960904E+04  0.25500000920E-02 0. -1.
        2   -1    0    0  501    0  0.00000000000E+00  0.00000000000E+00 -0.15927873091E+04  0.15927873092E+04  0.25500000920E-02 0.  1.
    10030    2    1    2    0    0  0.00000000000E+00  0.00000000000E+00 -0.36569121878E+03  0.28198833995E+04  0.27960708717E+04 0.  0.
        3    1    3    3  502    0  0.55683359808E+03 -0.88967827193E+03 -0.11142431450E+04  0.15307282188E+04  0.10100000352E+00 0.  1.
       -3    1    3    3    0  502 -0.55683359808E+03  0.88967827193E+03  0.74855192623E+03  0.12891551807E+04  0.10100000352E+00 0. -1.
</event>
<event>
 5   0  0.1366235E-07  0.2805430E+04  0.7818609E-02  0.8301585E-01
        1   -1    0    0  501    0  0.00000000000E+00  0.00000000000E+00  0.17198736885E+04  0.17198736886E+04  0.50400001928E-02 0. -1.
       -1   -1    0    0    0  501  0.00000000000E+00  0.00000000000E+00 -0.11440426418E+04  0.11440426418E+04  0.50400001928E-02 0.  1.
    10030    2    1    2    0    0  0.00000000000E+00  0.00000000000E+00  0.57583104673E+03  0.28639163304E+04  0.28054296200E+04 0.  0.
        2    1    3    3  502    0 -0.26242911741E+03  0.11866948019E+04  0.10028699313E+04  0.15757099015E+04  0.25500000920E-02 0. -1.
       -2    1    3    3    0  502  0.26242911741E+03 -0.11866948019E+04 -0.42703888454E+03  0.12882064289E+04  0.25500000920E-02 0.  1.
</event>
<event>
 5   0  0.3502141E-07  0.2800719E+04  0.7818609E-02  0.8303045E-01
        2   -1    0    0  501    0  0.00000000000E+00  0.00000000000E+00  0.10214056854E+04  0.10214056854E+04  0.25500000920E-02 0. -1.
       -2   -1    0    0    0  501  0.00000000000E+00  0.00000000000E+00 -0.19199096422E+04  0.19199096422E+04  0.25500000920E-02 0.  1.
    10030    2    1    2    0    0  0.00000000000E+00  0.00000000000E+00 -0.89850395685E+03  0.29413153276E+04  0.28007189248E+04 0.  0.
        3    1    3    3  502    0  0.12259553883E+04 -0.14147679985E+03  0.24580621879E+03  0.12583334242E+04  0.10100000352E+00 0. -1.
       -3    1    3    3    0  502 -0.12259553883E+04  0.14147679985E+03 -0.11443101756E+04  0.16829819034E+04  0.10100000352E+00 0.  1.
</event>
<event>
 5   0  0.3571498E-07  0.2800525E+04  0.7818609E-02  0.8303105E-01
        2   -1    0    0  501    0  0.00000000000E+00  0.00000000000E+00  0.16672601089E+04  0.16672601089E+04  0.25500000920E-02 0.  1.
       -2   -1    0    0    0  501  0.00000000000E+00  0.00000000000E+00 -0.11760225259E+04  0.11760225259E+04  0.25500000920E-02 0. -1.
    10030    2    1    2    0    0  0.00000000000E+00  0.00000000000E+00  0.49123758297E+03  0.28432826348E+04  0.28005252683E+04 0.  0.
        2    1    3    3  502    0  0.76838546097E+03 -0.11026972484E+04 -0.15328967240E+03  0.13527213911E+04  0.25500000920E-02 0.  1.
       -2    1    3    3    0  502 -0.76838546097E+03  0.11026972484E+04  0.64452725536E+03  0.14905612437E+04  0.25500000920E-02 0. -1.
</event>
<event>
 5   0  0.3502141E-07  0.2800319E+04  0.7818609E-02  0.8303169E-01
       -2   -1    0    0    0  501  0.00000000000E+00  0.00000000000E+00  0.11184083783E+04  0.11184083783E+04  0.25500000920E-02 0.  1.
        2   -1    0    0  501    0  0.00000000000E+00  0.00000000000E+00 -0.17528896086E+04  0.17528896086E+04  0.25500000920E-02 0. -1.
    10030    2    1    2    0    0  0.00000000000E+00  0.00000000000E+00 -0.63448123030E+03  0.28712979869E+04  0.28003188565E+04 0.  0.
        3    1    3    3  502    0  0.38536991900E+03 -0.11081463122E+04 -0.11007747840E+04  0.16087894079E+04  0.10100000352E+00 0. -1.
       -3    1    3    3    0  502 -0.38536991900E+03  0.11081463122E+04  0.46629355367E+03  0.12625085790E+04  0.10100000352E+00 0.  1.
</event>
<event>
 5   0  0.1361741E-07  0.2798381E+04  0.7818609E-02  0.8303771E-01
        1   -1    0    0  501    0  0.00000000000E+00  0.00000000000E+00  0.18221129259E+04  0.18221129259E+04  0.50400001928E-02 0.  1.
       -1   -1    0    0    0  501  0.00000000000E+00  0.00000000000E+00 -0.10744304603E+04  0.10744304603E+04  0.50400001928E-02 0. -1.
    10030    2    1    2    0    0  0.00000000000E+00  0.00000000000E+00  0.74768246562E+03  0.28965433862E+04  0.27983806958E+04 0.  0.
        5    1    3    3  502    0  0.29865654091E+03  0.13658578393E+04  0.31763949762E+03  0.14337643834E+04  0.46999998093E+01 0. -1.
       -5    1    3    3    0  502 -0.29865654091E+03 -0.13658578393E+04  0.43004296801E+03  0.14627790028E+04  0.46999998093E+01 0.  1.
</event>
<event>
 5   0  0.1361741E-07  0.2794560E+04  0.7818609E-02  0.8304959E-01
       -1   -1    0    0    0  501  0.00000000000E+00  0.00000000000E+00  0.11568071817E+04  0.11568071817E+04  0.50400001928E-02 0. -1.
        1   -1    0    0  501    0  0.00000000000E+00  0.00000000000E+00 -0.16877412338E+04  0.16877412338E+04  0.50400001928E-02 0.  1.
    10030    2    1    2    0    0  0.00000000000E+00  0.00000000000E+00 -0.53093405217E+03  0.28445484155E+04  0.27945598438E+04 0.  0.
        5    1    3    3  502    0 -0.36341470721E+03  0.13229122132E+04  0.42292934316E+01  0.13719354760E+04  0.46999998093E+01 0.  1.
       -5    1    3    3    0  502  0.36341470721E+03 -0.13229122132E+04 -0.53516334560E+03  0.14726129396E+04  0.46999998093E+01 0. -1.
</event>
<event>
 5   0  0.3522569E-07  0.2799446E+04  0.7818609E-02  0.8303440E-01
        2   -1    0    0  501    0  0.00000000000E+00  0.00000000000E+00  0.18976306522E+04  0.18976306522E+04  0.25500000920E-02 0. -1.
       -2   -1    0    0    0  501  0.00000000000E+00  0.00000000000E+00 -0.10324582779E+04  0.10324582779E+04  0.25500000920E-02 0.  1.
    10030    2    1    2    0    0  0.00000000000E+00  0.00000000000E+00  0.86517237428E+03  0.29300889301E+04  0.27994459989E+04 0.  0.
        1    1    3    3  502    0  0.22073025649E+03  0.89027745020E+03 -0.67406785199E+03  0.11382808325E+04  0.50400001928E-02 0. -1.
       -1    1    3    3    0  502 -0.22073025649E+03 -0.89027745020E+03  0.15392402263E+04  0.17918080976E+04  0.50400001928E-02 0.  1.
</event>
<event>
 5   0  0.1357902E-07  0.2801232E+04  0.7818609E-02  0.8302886E-01
       -1   -1    0    0    0  501  0.00000000000E+00  0.00000000000E+00  0.89781291730E+03  0.89781291732E+03  0.50400001928E-02 0.  1.
        1   -1    0    0  501    0  0.00000000000E+00  0.00000000000E+00 -0.21850050857E+04  0.21850050857E+04  0.50400001928E-02 0. -1.
    10030    2    1    2    0    0  0.00000000000E+00  0.00000000000E+00 -0.12871921684E+04  0.30828180030E+04  0.28012324361E+04 0.  0.
        4    1    3    3  502    0  0.73344542083E+03  0.40134280764E+03  0.59306260183E+03  0.10250576068E+04  0.12699999809E+01 0.  1.
       -4    1    3    3    0  502 -0.73344542083E+03 -0.40134280764E+03 -0.18802547702E+04  0.20577603962E+04  0.12699999809E+01 0. -1.
</event>
<event>
 5   0  0.3571498E-07  0.2798832E+04  0.7818609E-02  0.8303631E-01
       -2   -1    0    0    0  501  0.00000000000E+00  0.00000000000E+00  0.15596260760E+04  0.15596260760E+04  0.25500000920E-02 0.  1.
        2   -1    0    0  501    0  0.00000000000E+00  0.00000000000E+00 -0.12556635474E+04  0.12556635474E+04  0.25500000920E-02 0. -1.
    10030    2    1    2    0    0  0.00000000000E+00  0.00000000000E+00  0.30396252863E+03  0.28152896234E+04  0.27988323359E+04 0.  0.
        2    1    3    3  502    0 -0.24390907862E+03 -0.11058505049E+04  0.97898880367E+03  0.14969355549E+04  0.25500000920E-02 0.  1.
       -2    1    3    3    0  502  0.24390907862E+03  0.11058505049E+04 -0.67502627504E+03  0.13183540685E+04  0.25500000920E-02 0. -1.
</event>
<event>
 5   0  0.1346049E-07  0.2795948E+04  0.7818609E-02  0.8304527E-01
        1   -1    0    0  501    0  0.00000000000E+00  0.00000000000E+00  0.17188989848E+04  0.17188989848E+04  0.50400001928E-02 0. -1.
       -1   -1    0    0    0  501  0.00000000000E+00  0.00000000000E+00 -0.11369669459E+04  0.11369669459E+04  0.50400001928E-02 0.  1.
    10030    2    1    2    0    0  0.00000000000E+00  0.00000000000E+00  0.58193203887E+03  0.28558659307E+04  0.27959480174E+04 0.  0.
        1    1    3    3  502    0 -0.43626148024E+03  0.30819976485E+03 -0.10286254927E+04  0.11590433894E+04  0.50400001928E-02 0.  1.
       -1    1    3    3    0  502  0.43626148024E+03 -0.30819976485E+03  0.16105575316E+04  0.16968225413E+04  0.50400001928E-02 0. -1.
</event>
<event>
 5   0  0.3406920E-07  0.2800180E+04  0.7818609E-02  0.8303212E-01
       -2   -1    0    0    0  501  0.00000000000E+00  0.00000000000E+00  0.14393061344E+04  0.14393061344E+04  0.25500000920E-02 0. -1.
        2   -1    0    0  501    0  0.00000000000E+00  0.00000000000E+00 -0.13619424148E+04  0.13619424148E+04  0.25500000920E-02 0.  1.
    10030    2    1    2    0    0  0.00000000000E+00  0.00000000000E+00  0.77363719589E+02  0.28012485493E+04  0.28001800459E+04 0.  0.
        4    1    3    3  502    0  0.26697518652E+03  0.81069871706E+03 -0.10715804987E+04  0.13699615097E+04  0.12699999809E+01 0.  1.
       -4    1    3    3    0  502 -0.26697518652E+03 -0.81069871706E+03  0.11489442183E+04  0.14312870396E+04  0.12699999809E+01 0. -1.
</event>
<event>
 5   0  0.1357902E-07  0.2795882E+04  0.7818609E-02  0.8304548E-01
        1   -1    0    0  501    0  0.00000000000E+00  0.00000000000E+00  0.16767029727E+04  0.16767029727E+04  0.50400001928E-02 0.  1.
       -1   -1    0    0    0  501  0.00000000000E+00  0.00000000000E+00 -0.11655249333E+04  0.11655249334E+04  0.50400001928E-02 0. -1.
    10030    2    1    2    0    0  0.00000000000E+00  0.00000000000E+00  0.51117803937E+03  0.28422279061E+04  0.27958820580E+04 0.  0.
        4    1    3    3  502    0  0.86208575338E+03  0.29444313545E+03 -0.82234108718E+03  0.12272469526E+04  0.12699999809E+01 0. -1.
       -4    1    3    3    0  502 -0.86208575338E+03 -0.29444313545E+03  0.13335191266E+04  0.16149809534E+04  0.12699999809E+01 0.  1.
</event>
<event>
 5   0  0.3557628E-07  0.2797561E+04  0.7818609E-02  0.8304026E-01
        2   -1    0    0  501    0  0.00000000000E+00  0.00000000000E+00  0.98923348951E+03  0.98923348951E+03  0.25500000920E-02 0.  1.
       -2   -1    0    0    0  501  0.00000000000E+00  0.00000000000E+00 -0.19778815386E+04  0.19778815386E+04  0.25500000920E-02 0. -1.
    10030    2    1    2    0    0  0.00000000000E+00  0.00000000000E+00 -0.98864804910E+03  0.29671150281E+04  0.27975608349E+04 0.  0.
        5    1    3    3  502    0 -0.70953835503E+03  0.54355886330E+03 -0.16354827165E+04  0.18637936370E+04  0.46999998093E+01 0. -1.
       -5    1    3    3    0  502  0.70953835503E+03 -0.54355886330E+03  0.64683466745E+03  0.11033213911E+04  0.46999998093E+01 0.  1.
</event>
<event>
 5   0  0.1357902E-07  0.2797738E+04  0.7818609E-02  0.8303971E-01
        1   -1    0    0  501    0  0.00000000000E+00  0.00000000000E+00  0.11782096592E+04  0.11782096592E+04  0.50400001928E-02 0.  1.
       -1   -1    0    0    0  501  0.00000000000E+00  0.00000000000E+00 -0.16608540540E+04  0.16608540540E+04  0.50400001928E-02 0. -1.
    10030    2    1    2    0    0  0.00000000000E+00  0.00000000000E+00 -0.48264439480E+03  0.28390637131E+04  0.27977378640E+04 0.  0.
        4    1    3    3  502    0 -0.10133959962E+04 -0.42696776263E+03  0.63606456259E+03  0.12703750061E+04  0.12699999809E+01 0.  1.
       -4    1    3    3    0  502  0.10133959962E+04  0.42696776263E+03 -0.11187089574E+04  0.15686887071E+04  0.12699999809E+01 0. -1.
</event>
<event>
 5   0  0.1361741E-07  0.2799436E+04  0.7818609E-02  0.8303443E-01
       -1   -1    0    0    0  501  0.00000000000E+00  0.00000000000E+00  0.11669125572E+04  0.11669125572E+04  0.50400001928E-02 0. -1.
        1   -1    0    0  501    0  0.00000000000E+00  0.00000000000E+00 -0.16789699918E+04  0.16789699918E+04  0.50400001928E-02 0.  1.
    10030    2    1    2    0    0  0.00000000000E+00  0.00000000000E+00 -0.51205743461E+03  0.28458825490E+04  0.27994364908E+04 0.  0.
        5    1    3    3  502    0 -0.12269424477E+04  0.80247295621E+02 -0.93597678302E+03  0.15452838014E+04  0.46999998093E+01 0.  1.
       -5    1    3    3    0  502  0.12269424477E+04 -0.80247295621E+02  0.42391934841E+03  0.13005987476E+04  0.46999998093E+01 0. -1.
</event>
<event>
 5   0  0.3522569E-07  0.2800306E+04  0.7818609E-02  0.8303173E-01
        2   -1    0    0  501    0  0.00000000000E+00  0.00000000000E+00  0.19883734864E+04  0.19883734864E+04  0.25500000920E-02 0.  1.
       -2   -1    0    0    0  501  0.00000000000E+00  0.00000000000E+00 -0.98594559664E+03  0.98594559664E+03  0.25500000920E-02 0. -1.
    10030    2    1    2    0    0  0.00000000000E+00  0.00000000000E+00  0.10024278898E+04  0.29743190830E+04  0.28003057572E+04 0.  0.
        1    1    3    3  502    0 -0.42074754710E+03 -0.12967868685E+04  0.16242031738E+03  0.13729767079E+04  0.50400001928E-02 0. -1.
       -1    1    3    3    0  502  0.42074754710E+03  0.12967868685E+04  0.84000757238E+03  0.16013423752E+04  0.50400001928E-02 0.  1.
</event>
<event>
 5   0  0.1361741E-07  0.2800341E+04  0.7818609E-02  0.8303163E-01
       -1   -1    0    0    0  501  0.00000000000E+00  0.00000000000E+00  0.10372007466E+04  0.10372007466E+04  0.50400001928E-02 0.  1.
        1   -1    0    0  501    0  0.00000000000E+00  0.00000000000E+00 -0.18901616843E+04  0.18901616843E+04  0.50400001928E-02 0. -1.
    10030    2    1    2    0    0  0.00000000000E+00  0.00000000000E+00 -0.85296093775E+03  0.29273624309E+04  0.28003407722E+04 0.  0.
        5    1    3    3  502    0 -0.89314532907E+03 -0.67679932759E+03 -0.13040153571E+04  0.17193731562E+04  0.46999998093E+01 0. -1.
       -5    1    3    3    0  502  0.89314532907E+03  0.67679932759E+03  0.45105441935E+03  0.12079892747E+04  0.46999998093E+01 0.  1.
</event>
<event>
 5   0  0.3522569E-07  0.2799942E+04  0.7818609E-02  0.8303286E-01
       -2   -1    0    0    0  501  0.00000000000E+00  0.00000000000E+00  0.10594512814E+04  0.10594512814E+04  0.25500000920E-02 0. -1.
        2   -1    0    0  501    0  0.00000000000E+00  0.00000000000E+00 -0.18499371943E+04  0.18499371943E+04  0.25500000920E-02 0.  1.
    10030    2    1    2    0    0  0.00000000000E+00  0.00000000000E+00 -0.79048591288E+03  0.29093884758E+04  0.27999416645E+04 0.  0.
        1    1    3    3  502    0  0.10899484756E+03  0.95214113510E+03 -0.14556563868E+04  0.17428104126E+04  0.50400001928E-02 0.  1.
       -1    1    3    3    0  502 -0.10899484756E+03 -0.95214113510E+03  0.66517047393E+03  0.11665780631E+04  0.50400001928E-02 0. -1.
</event>
<event>
 5   0  0.1374680E-07  0.2801855E+04  0.7818609E-02  0.8302693E-01
        1   -1    0    0  501    0  0.00000000000E+00  0.00000000000E+00  0.14652346771E+04  0.14652346771E+04  0.50400001928E-02 0.  1.
       -1   -1    0    0    0  501  0.00000000000E+00  0.00000000000E+00 -0.13394430916E+04  0.13394430917E+04  0.50400001928E-02 0. -1.
    10030    2    1    2    0    0  0.00000000000E+00  0.00000000000E+00  0.12579158541E+03  0.28046777687E+04  0.28018554323E+04 0.  0.
        3    1    3    3  502    0  0.76015900642E+03  0.10362471919E+03  0.12362619663E+04  0.14549651051E+04  0.10100000352E+00 0.  1.
       -3    1    3    3    0  502 -0.76015900642E+03 -0.10362471919E+03 -0.11104703809E+04  0.13497126637E+04  0.10100000352E+00 0. -1.
</event>
<event>
 5   0  0.1361741E-07  0.2800172E+04  0.7818609E-02  0.8303215E-01
       -1   -1    0    0    0  501  0.00000000000E+00  0.00000000000E+00  0.93955660211E+03  0.93955660212E+03  0.50400001928E-02 0.  1.
        1   -1    0    0  501    0  0.00000000000E+00  0.00000000000E+00 -0.20863460073E+04  0.20863460073E+04  0.50400001928E-02 0. -1.
    10030    2    1    2    0    0  0.00000000000E+00  0.00000000000E+00 -0.11467894052E+04  0.30259026094E+04  0.28001715415E+04 0.  0.
        5    1    3    3  502    0  0.88941039427E+02  0.58294669456E+02  0.93517757364E+03  0.94121621385E+03  0.46999998093E+01 0.  1.
       -5    1    3    3    0  502 -0.88941039427E+02 -0.58294669456E+02 -0.20819669788E+04  0.20846863956E+04  0.46999998093E+01 0. -1.
</event>
<event>
 5   0  0.3406920E-07  0.2799288E+04  0.7818609E-02  0.8303489E-01
       -2   -1    0    0    0  501  0.00000000000E+00  0.00000000000E+00  0.60104974908E+03  0.60104974908E+03  0.25500000920E-02 0.  1.
        2   -1    0    0  501    0  0.00000000000E+00  0.00000000000E+00 -0.32593035330E+04  0.32593035330E+04  0.25500000920E-02 0. -1.
    10030    2    1    2    0    0  0.00000000000E+00  0.00000000000E+00 -0.26582537839E+04  0.38603532820E+04  0.27992881743E+04 0.  0.
        4    1    3    3  502    0 -0.35847622092E+03 -0.95261602787E+03 -0.26540322927E+04  0.28425114813E+04  0.12699999809E+01 0. -1.
       -4    1    3    3    0  502  0.35847622092E+03  0.95261602787E+03 -0.42214911848E+01  0.10178418008E+04  0.12699999809E+01 0.  1.
</event>
<event>
 5   0  0.3571498E-07  0.2800211E+04  0.7818609E-02  0.8303203E-01
        2   -1    0    0  501    0  0.00000000000E+00  0.00000000000E+00  0.13608148650E+04  0.13608148650E+04  0.25500000920E-02 0.  1.
       -2   -1    0    0    0  501  0.00000000000E+00  0.00000000000E+00 -0.14405309838E+04  0.14405309838E+04  0.25500000920E-02 0. -1.
    10030    2    1    2    0    0  0.00000000000E+00  0.00000000000E+00 -0.79716118815E+02  0.28013458487E+04  0.28002114036E+04 0.  0.
        2    1    3    3  502    0 -0.97762005836E+03  0.87640900817E+02  0.95898224702E+03  0.13722495604E+04  0.25500000920E-02 0.  1.
       -2    1    3    3    0  502  0.97762005836E+03 -0.87640900817E+02 -0.10386983658E+04  0.14290962883E+04  0.25500000920E-02 0. -1.
</event>
<event>
 5   0  0.1357902E-07  0.2797999E+04  0.7818609E-02  0.8303890E-01
       -1   -1    0    0    0  501  0.00000000000E+00  0.00000000000E+00  0.24689276119E+04  0.24689276119E+04  0.50400001928E-02 0. -1.
        1   -1    0    0  501    0  0.00000000000E+00  0.00000000000E+00 -0.79273273985E+03  0.79273273986E+03  0.50400001928E-02 0.  1.
    10030    2    1    2    0    0  0.00000000000E+00  0.00000000000E+00  0.16761948721E+04  0.32616603518E+04  0.27979991067E+04 0.  0.
        4    1    3    3  502    0 -0.10694854446E+04 -0.81773061843E+03  0.39464308212E+03  0.14029352286E+04  0.12699999809E+01 0.  1.
       -4    1    3    3    0  502  0.10694854446E+04  0.81773061843E+03  0.12815517900E+04  0.18587251232E+04  0.12699999809E+01 0. -1.
</event>
<event>
 5   0  0.3557628E-07  0.2799103E+04  0.7818609E-02  0.8303547E-01
       -2   -1    0    0    0  501  0.00000000000E+00  0.00000000000E+00  0.17479324247E+04  0.17479324247E+04  0.25500000920E-02 0.  1.
        2   -1    0    0  501    0  0.00000000000E+00  0.00000000000E+00 -0.11206063799E+04  0.11206063799E+04  0.25500000920E-02 0. -1.
    10030    2    1    2    0    0  0.00000000000E+00  0.00000000000E+00  0.62732604480E+03  0.28685388046E+04  0.27991028754E+04 0.  0.
        5    1    3    3  502    0  0.11729519661E+04 -0.49732721785E+03  0.90731836119E+03  0.15640969839E+04  0.46999998093E+01 0.  1.
       -5    1    3    3    0  502 -0.11729519661E+04  0.49732721785E+03 -0.27999231639E+03  0.13044418207E+04  0.46999998093E+01 0. -1.
</event>
<event>
 5   0  0.1346049E-07  0.2799920E+04  0.7818609E-02  0.8303293E-01
       -1   -1    0    0    0  501  0.00000000000E+00  0.00000000000E+00  0.20052099518E+04  0.20052099518E+04  0.50400001928E-02 0.  1.
        1   -1    0    0  501    0  0.00000000000E+00  0.00000000000E+00 -0.97739799285E+03  0.97739799286E+03  0.50400001928E-02 0. -1.
    10030    2    1    2    0    0  0.00000000000E+00  0.00000000000E+00  0.10278119590E+04  0.29826079447E+04  0.27999201290E+04 0.  0.
        1    1    3    3  502    0  0.10062181988E+04  0.33951930542E+03  0.14856428114E+04  0.18261661987E+04  0.50400001928E-02 0.  1.
       -1    1    3    3    0  502 -0.10062181988E+04 -0.33951930542E+03 -0.45783085243E+03  0.11564417460E+04  0.50400001928E-02 0. -1.
</event>
<event>
 5   0  0.3406920E-07  0.2800023E+04  0.7818609E-02  0.8303261E-01
       -2   -1    0    0    0  501  0.00000000000E+00  0.00000000000E+00  0.17391948697E+04  0.17391948697E+04  0.25500000920E-02 0. -1.
        2   -1    0    0  501    0  0.00000000000E+00  0.00000000000E+00 -0.11269769661E+04  0.11269769661E+04  0.25500000920E-02 0.  1.
    10030    2    1    2    0    0  0.00000000000E+00  0.00000000000E+00  0.61221790363E+03  0.28661718357E+04  0.28000232553E+04 0.  0.
        4    1    3    3  502    0 -0.65402151386E+03 -0.34308877324E+03 -0.91134870764E+03  0.11730354329E+04  0.12699999809E+01 0.  1.
       -4    1    3    3    0  502  0.65402151386E+03  0.34308877324E+03  0.15235666113E+04  0.16931364029E+04  0.12699999809E+01 0. -1.
</event>
<event>
 5   0  0.1366235E-07  0.2785794E+04  0.7818609E-02  0.8307692E-01
        1   -1    0    0  501    0  0.00000000000E+00  0.00000000000E+00  0.14631754939E+04  0.14631754939E+04  0.50400001928E-02 0. -1.
       -1   -1    0    0    0  501  0.00000000000E+00  0.00000000000E+00 -0.13259942958E+04  0.13259942959E+04  0.50400001928E-02 0.  1.
    10030    2    1    2    0    0  0.00000000000E+00  0.00000000000E+00  0.13718119809E+03  0.27891697898E+04  0.27857942198E+04 0.  0.
        2    1    3    3  502    0 -0.54870797337E+03  0.62983193288E+03  0.11845683392E+04  0.14494726124E+04  0.25500000920E-02 0. -1.
       -2    1    3    3    0  502  0.54870797337E+03 -0.62983193288E+03 -0.10473871411E+04  0.13396971774E+04  0.25500000920E-02 0.  1.
</event>
<event>
 5   0  0.1366235E-07  0.2799414E+04  0.7818609E-02  0.8303450E-01
       -1   -1    0    0    0  501  0.00000000000E+00  0.00000000000E+00  0.14171487973E+04  0.14171487973E+04  0.50400001928E-02 0.  1.
        1   -1    0    0  501    0  0.00000000000E+00  0.00000000000E+00 -0.13824803476E+04  0.13824803476E+04  0.50400001928E-02 0. -1.
    10030    2    1    2    0    0  0.00000000000E+00  0.00000000000E+00  0.34668449720E+02  0.27996291449E+04  0.27994144829E+04 0.  0.
        2    1    3    3  502    0  0.68314400168E+03 -0.10829850960E+04 -0.54807442275E+03  0.13928129875E+04  0.25500000920E-02 0.  1.
       -2    1    3    3    0  502 -0.68314400168E+03  0.10829850960E+04  0.58274287247E+03  0.14068161574E+04  0.25500000920E-02 0. -1.
</event>
<event>
 5   0  0.3571498E-07  0.2801173E+04  0.7818609E-02  0.8302904E-01
       -2   -1    0    0    0  501  0.00000000000E+00  0.00000000000E+00  0.82249358821E+03  0.82249358821E+03  0.25500000920E-02 0. -1.
        2   -1    0    0  501    0  0.00000000000E+00  0.00000000000E+00 -0.23849937892E+04  0.23849937892E+04  0.25500000920E-02 0.  1.
    10030    2    1    2    0    0  0.00000000000E+00  0.00000000000E+00 -0.15625002010E+04  0.32074873774E+04  0.28011726827E+04 0.  0.
        2    1    3    3  502    0 -0.13367491282E+04  0.41736421431E+03 -0.75437233342E+03  0.15906504130E+04  0.25500000920E-02 0.  1.
       -2    1    3    3    0  502  0.13367491282E+04 -0.41736421431E+03 -0.80812786756E+03  0.16168369644E+04  0.25500000920E-02 0. -1.
</event>
<event>
 5   0  0.1361741E-07  0.2800705E+04  0.7818609E-02  0.8303050E-01
       -1   -1    0    0    0  501  0.00000000000E+00  0.00000000000E+00  0.20414450525E+04  0.20414450525E+04  0.50400001928E-02 0.  1.
        1   -1    0    0  501    0  0.00000000000E+00  0.00000000000E+00 -0.96058761883E+03  0.96058761884E+03  0.50400001928E-02 0. -1.
    10030    2    1    2    0    0  0.00000000000E+00  0.00000000000E+00  0.10808574336E+04  0.30020326713E+04  0.28007047984E+04 0.  0.
        5    1    3    3  502    0 -0.95416407713E+03  0.65969755759E+03  0.13812502337E+04  0.18037472804E+04  0.46999998093E+01 0.  1.
       -5    1    3    3    0  502  0.95416407713E+03 -0.65969755759E+03 -0.30039280009E+03  0.11982853908E+04  0.46999998093E+01 0. -1.
</event>
<event>
 5   0  0.1346049E-07  0.2799591E+04  0.7818609E-02  0.8303395E-01
        1   -1    0    0  501    0  0.00000000000E+00  0.00000000000E+00  0.15612703512E+04  0.15612703512E+04  0.50400001928E-02 0.  1.
       -1   -1    0    0    0  501  0.00000000000E+00  0.00000000000E+00 -0.12550212448E+04  0.12550212448E+04  0.50400001928E-02 0. -1.
    10030    2    1    2    0    0  0.00000000000E+00  0.00000000000E+00  0.30624910640E+03  0.28162915961E+04  0.27995910128E+04 0.  0.
        1    1    3    3  502    0 -0.13208254202E+04 -0.18450787562E+03 -0.27462312583E+03  0.13616316712E+04  0.50400001928E-02 0. -1.
       -1    1    3    3    0  502  0.13208254202E+04  0.18450787562E+03  0.58087223223E+03  0.14546599249E+04  0.50400001928E-02 0.  1.
</event>
<event>
 5   0  0.1361741E-07  0.2800000E+04  0.7818609E-02  0.8303268E-01
       -1   -1    0    0    0  501  0.00000000000E+00  0.00000000000E+00  0.13421457677E+04  0.13421457677E+04  0.50400001928E-02 0.  1.
        1   -1    0    0  501    0  0.00000000000E+00  0.00000000000E+00 -0.14603484663E+04  0.14603484663E+04  0.50400001928E-02 0. -1.
    10030    2    1    2    0    0  0.00000000000E+00  0.00000000000E+00 -0.11820269857E+03  0.28024942340E+04  0.28000003667E+04 0.  0.
        5    1    3    3  502    0 -0.93027793312E+03 -0.51556343806E+03  0.85206969929E+03  0.13628160382E+04  0.46999998093E+01 0.  1.
       -5    1    3    3    0  502  0.93027793312E+03  0.51556343806E+03 -0.97027239786E+03  0.14396781958E+04  0.46999998093E+01 0. -1.
</event>
<event>
 5   0  0.3571498E-07  0.2800925E+04  0.7818609E-02  0.8302981E-01
        2   -1    0    0  501    0  0.00000000000E+00  0.00000000000E+00  0.20293096006E+04  0.20293096006E+04  0.25500000920E-02 0.  1.
       -2   -1    0    0    0  501  0.00000000000E+00  0.00000000000E+00 -0.96648401719E+03  0.96648401719E+03  0.25500000920E-02 0. -1.
    10030    2    1    2    0    0  0.00000000000E+00  0.00000000000E+00  0.10628255834E+04  0.29957936178E+04  0.28009250578E+04 0.  0.
        2    1    3    3  502    0 -0.45599033941E+03 -0.12512220237E+04  0.67889508593E+02  0.13334514343E+04  0.25500000920E-02 0. -1.
       -2    1    3    3    0  502  0.45599033941E+03  0.12512220237E+04  0.99493607479E+03  0.16623421835E+04  0.25500000920E-02 0.  1.
</event>
<event>
 5   0  0.3571498E-07  0.2799608E+04  0.7818609E-02  0.8303390E-01
       -2   -1    0    0    0  501  0.00000000000E+00  0.00000000000E+00  0.18178009243E+04  0.18178009243E+04  0.25500000920E-02 0. -1.
        2   -1    0    0  501    0  0.00000000000E+00  0.00000000000E+00 -0.10779236619E+04  0.10779236619E+04  0.25500000920E-02 0.  1.
    10030    2    1    2    0    0  0.00000000000E+00  0.00000000000E+00  0.73987726240E+03  0.28957245862E+04  0.27996075646E+04 0.  0.
        2    1    3    3  502    0  0.29466597715E+03  0.61304509263E+03 -0.89550188862E+03  0.11245336617E+04  0.25500000920E-02 0.  1.
       -2    1    3    3    0  502 -0.29466597715E+03 -0.61304509263E+03  0.16353791510E+04  0.17711909246E+04  0.25500000920E-02 0. -1.
</event>
<event>
 5   0  0.1346049E-07  0.2800318E+04  0.7818609E-02  0.8303170E-01
       -1   -1    0    0    0  501  0.00000000000E+00  0.00000000000E+00  0.12149538887E+04  0.12149538887E+04  0.50400001928E-02 0.  1.
        1   -1    0    0  501    0  0.00000000000E+00  0.00000000000E+00 -0.16135964955E+04  0.16135964956E+04  0.50400001928E-02 0. -1.
    10030    2    1    2    0    0  0.00000000000E+00  0.00000000000E+00 -0.39864260689E+03  0.28285503842E+04  0.28003180798E+04 0.  0.
        1    1    3    3  502    0 -0.45519481523E+03  0.11742637343E+04  0.41868675643E+03  0.13271760386E+04  0.50400001928E-02 0.  1.
       -1    1    3    3    0  502  0.45519481523E+03 -0.11742637343E+04 -0.81732936333E+03  0.15013743456E+04  0.50400001928E-02 0. -1.
</event>
<event>
 5   0  0.3502141E-07  0.2790341E+04  0.7818609E-02  0.8306273E-01
       -2   -1    0    0    0  501  0.00000000000E+00  0.00000000000E+00  0.17697984779E+04  0.17697984779E+04  0.25500000920E-02 0. -1.
        2   -1    0    0  501    0  0.00000000000E+00  0.00000000000E+00 -0.10998435145E+04  0.10998435146E+04  0.25500000920E-02 0.  1.
    10030    2    1    2    0    0  0.00000000000E+00  0.00000000000E+00  0.66995496332E+03  0.28696419924E+04  0.27903414687E+04 0.  0.
        3    1    3    3  502    0  0.12205643271E+04 -0.12352840218E+03  0.10182884915E+04  0.15943487714E+04  0.10100000352E+00 0. -1.
       -3    1    3    3    0  502 -0.12205643271E+04  0.12352840218E+03 -0.34833352814E+03  0.12752932211E+04  0.10100000352E+00 0.  1.
</event>
<event>
 5   0  0.3502141E-07  0.2799559E+04  0.7818609E-02  0.8303405E-01
        2   -1    0    0  501    0  0.00000000000E+00  0.00000000000E+00  0.23200068445E+04  0.23200068445E+04  0.25500000920E-02 0.  1.
       -2   -1    0    0    0  501  0.00000000000E+00  0.00000000000E+00 -0.84455884753E+03  0.84455884753E+03  0.25500000920E-02 0. -1.
    10030    2    1    2    0    0  0.00000000000E+00  0.00000000000E+00  0.14754479970E+04  0.31645656921E+04  0.27995587559E+04 0.  0.
        3    1    3    3  502    0  0.21478174053E+03  0.13803303203E+04  0.83844402761E+03  0.16292425807E+04  0.10100000352E+00 0. -1.
       -3    1    3    3    0  502 -0.21478174053E+03 -0.13803303203E+04  0.63700396939E+03  0.15353231114E+04  0.10100000352E+00 0.  1.
</event>
<event>
 5   0  0.3406920E-07  0.2801217E+04  0.7818609E-02  0.8302891E-01
       -2   -1    0    0    0  501  0.00000000000E+00  0.00000000000E+00  0.10952570349E+04  0.10952570349E+04  0.25500000920E-02 0. -1.
        2   -1    0    0  501    0  0.00000000000E+00  0.00000000000E+00 -0.17910904736E+04  0.17910904736E+04  0.25500000920E-02 0.  1.
    10030    2    1    2    0    0  0.00000000000E+00  0.00000000000E+00 -0.69583343862E+03  0.28863475085E+04  0.28012171936E+04 0.  0.
        4    1    3    3  502    0 -0.66928714006E+03 -0.71734337285E+03 -0.13778826034E+04  0.16914753536E+04  0.12699999809E+01 0.  1.
       -4    1    3    3    0  502  0.66928714006E+03  0.71734337285E+03  0.68204916474E+03  0.11948721549E+04  0.12699999809E+01 0. -1.
</event>
<event>
 5   0  0.1357902E-07  0.2798598E+04  0.7818609E-02  0.8303704E-01
       -1   -1    0    0    0  501  0.00000000000E+00  0.00000000000E+00  0.27936649074E+04  0.27936649074E+04  0.50400001928E-02 0. -1.
        1   -1    0    0  501    0  0.00000000000E+00  0.00000000000E+00 -0.70088513610E+03  0.70088513612E+03  0.50400001928E-02 0.  1.
    10030    2    1    2    0    0  0.00000000000E+00  0.00000000000E+00  0.20927797713E+04  0.34945500436E+04  0.27985983698E+04 0.  0.
        4    1    3    3  502    0  0.78064890899E+03  0.90459601566E+03  0.19557245656E+04  0.22918479138E+04  0.12699999809E+01 0. -1.
       -4    1    3    3    0  502 -0.78064890899E+03 -0.90459601566E+03  0.13705520578E+03  0.12027021298E+04  0.12699999809E+01 0.  1.
</event>
<event>
 5   0  0.1357902E-07  0.2799722E+04  0.7818609E-02  0.8303355E-01
        1   -1    0    0  501    0  0.00000000000E+00  0.00000000000E+00  0.15076418852E+04  0.15076418853E+04  0.50400001928E-02 0.  1.
       -1   -1    0    0    0  501  0.00000000000E+00  0.00000000000E+00 -0.12997854072E+04  0.12997854072E+04  0.50400001928E-02 0. -1.
    10030    2    1    2    0    0  0.00000000000E+00  0.00000000000E+00  0.20785647803E+03  0.28074272925E+04  0.27997220732E+04 0.  0.
        4    1    3    3  502    0  0.35092429947E+02 -0.81269062445E+03 -0.10384664706E+04  0.13191329551E+04  0.12699999809E+01 0. -1.
       -4    1    3    3    0  502 -0.35092429947E+02  0.81269062445E+03  0.12463229486E+04  0.14882943374E+04  0.12699999809E+01 0.  1.
</event>
<event>
 5   0  0.3557628E-07  0.2802490E+04  0.7818609E-02  0.8302496E-01
       -2   -1    0    0    0  501  0.00000000000E+00  0.00000000000E+00  0.76292440923E+03  0.76292440924E+03  0.25500000920E-02 0.  1.
        2   -1    0    0  501    0  0.00000000000E+00  0.00000000000E+00 -0.25736330586E+04  0.25736330586E+04  0.25500000920E-02 0. -1.
    10030    2    1    2    0    0  0.00000000000E+00  0.00000000000E+00 -0.18107086493E+04  0.33365574678E+04  0.28024899506E+04 0.  0.
        5    1    3    3  502    0  0.80036523414E+03  0.45070000790E+03 -0.21651936363E+04  0.23519780139E+04  0.46999998093E+01 0. -1.
       -5    1    3    3    0  502 -0.80036523414E+03 -0.45070000790E+03  0.35448498695E+03  0.98457945393E+03  0.46999998093E+01 0.  1.
</event>
<event>
 5   0  0.1357902E-07  0.2808050E+04  0.7818609E-02  0.8300773E-01
       -1   -1    0    0    0  501  0.00000000000E+00  0.00000000000E+00  0.11409820993E+04  0.11409820993E+04  0.50400001928E-02 0. -1.
        1   -1    0    0  501    0  0.00000000000E+00  0.00000000000E+00 -0.17277105386E+04  0.17277105386E+04  0.50400001928E-02 0.  1.
    10030    2    1    2    0    0  0.00000000000E+00  0.00000000000E+00 -0.58672843927E+03  0.28686926379E+04  0.28080504250E+04 0.  0.
        4    1    3    3  502    0 -0.67374736790E+03  0.10270523644E+04 -0.98813435184E+03  0.15764463787E+04  0.12699999809E+01 0.  1.
       -4    1    3    3    0  502  0.67374736790E+03 -0.10270523644E+04  0.40140591257E+03  0.12922462592E+04  0.12699999809E+01 0. -1.
</event>
<event>
 5   0  0.3502141E-07  0.2800372E+04  0.7818609E-02  0.8303153E-01
       -2   -1    0    0    0  501  0.00000000000E+00  0.00000000000E+00  0.11838937831E+04  0.11838937831E+04  0.25500000920E-02 0.  1.
        2   -1    0    0  501    0  0.00000000000E+00  0.00000000000E+00 -0.16559938797E+04  0.16559938797E+04  0.25500000920E-02 0. -1.
    10030    2    1    2    0    0  0.00000000000E+00  0.00000000000E+00 -0.47210009664E+03  0.28398876628E+04  0.28003720174E+04 0.  0.
        3    1    3    3  502    0 -0.89618857599E+03  0.71657073379E+03  0.57770252345E+03  0.12846664143E+04  0.10100000352E+00 0.  1.
       -3    1    3    3    0  502  0.89618857599E+03 -0.71657073379E+03 -0.10498026201E+04  0.15552212484E+04  0.10100000352E+00 0. -1.
</event>
<event>
 5   0  0.3502141E-07  0.2799159E+04  0.7818609E-02  0.8303530E-01
       -2   -1    0    0    0  501  0.00000000000E+00  0.00000000000E+00  0.15445923859E+04  0.15445923859E+04  0.25500000920E-02 0. -1.
        2   -1    0    0  501    0  0.00000000000E+00  0.00000000000E+00 -0.12681808227E+04  0.12681808227E+04  0.25500000920E-02 0.  1.
    10030    2    1    2    0    0  0.00000000000E+00  0.00000000000E+00  0.27641156314E+03  0.28127732086E+04  0.27991587613E+04 0.  0.
        3    1    3    3  502    0 -0.23441762941E+03  0.96150957076E+03  0.11326504364E+04  0.15041108007E+04  0.10100000352E+00 0. -1.
       -3    1    3    3    0  502  0.23441762941E+03 -0.96150957076E+03 -0.85623887324E+03  0.13086624079E+04  0.10100000352E+00 0.  1.
</event>
<event>
 5   0  0.1357902E-07  0.2799826E+04  0.7818609E-02  0.8303322E-01
       -1   -1    0    0    0  501  0.00000000000E+00  0.00000000000E+00  0.88843231121E+03  0.88843231122E+03  0.50400001928E-02 0.  1.
        1   -1    0    0  501    0  0.00000000000E+00  0.00000000000E+00 -0.22058584020E+04  0.22058584020E+04  0.50400001928E-02 0. -1.
    10030    2    1    2    0    0  0.00000000000E+00  0.00000000000E+00 -0.13174260908E+04  0.30942907132E+04  0.27998256219E+04 0.  0.
        4    1    3    3  502    0  0.87135019440E+03 -0.61134588528E+02 -0.18677364023E+04  0.20618994836E+04  0.12699999809E+01 0. -1.
       -4    1    3    3    0  502 -0.87135019440E+03  0.61134588528E+02  0.55031031148E+03  0.10323912296E+04  0.12699999809E+01 0.  1.
</event>
<event>
 5   0  0.1374680E-07  0.2802494E+04  0.7818609E-02  0.8302494E-01
        1   -1    0    0  501    0  0.00000000000E+00  0.00000000000E+00  0.22090489849E+04  0.22090489849E+04  0.50400001928E-02 0. -1.
       -1   -1    0    0    0  501  0.00000000000E+00  0.00000000000E+00 -0.88884095219E+03  0.88884095220E+03  0.50400001928E-02 0.  1.
    10030    2    1    2    0    0  0.00000000000E+00  0.00000000000E+00  0.13202080327E+04  0.30978899371E+04  0.28024940344E+04 0.  0.
        3    1    3    3  502    0  0.22472610365E+03 -0.12201322043E+04 -0.59911444906E+02  0.12421005632E+04  0.10100000352E+00 0. -1.
       -3    1    3    3    0  502 -0.22472610365E+03  0.12201322043E+04  0.13801194776E+04  0.18557893739E+04  0.10100000352E+00 0.  1.
</event>
<event>
 5   0  0.1357902E-07  0.2799521E+04  0.7818609E-02  0.8303417E-01
       -1   -1    0    0    0  501  0.00000000000E+00  0.00000000000E+00  0.22733725670E+04  0.22733725670E+04  0.50400001928E-02 0.  1.
        1   -1    0    0  501    0  0.00000000000E+00  0.00000000000E+00 -0.86186036731E+03  0.86186036732E+03  0.50400001928E-02 0. -1.
    10030    2    1    2    0    0  0.00000000000E+00  0.00000000000E+00  0.14115121997E+04  0.31352329343E+04  0.27995211845E+04 0.  0.
        4    1    3    3  502    0 -0.14688835344E+03 -0.10735856656E+04 -0.28659812506E+03  0.11208489943E+04  0.12699999809E+01 0. -1.
       -4    1    3    3    0  502  0.14688835344E+03  0.10735856656E+04  0.16981103247E+04  0.20143839400E+04  0.12699999809E+01 0.  1.
</event>
<event>
 5   0  0.3557628E-07  0.2797886E+04  0.7818609E-02  0.8303925E-01
       -2   -1    0    0    0  501  0.00000000000E+00  0.00000000000E+00  0.14345214882E+04  0.14345214882E+04  0.25500000920E-02 0. -1.
        2   -1    0    0  501    0  0.00000000000E+00  0.00000000000E+00 -0.13642468718E+04  0.13642468718E+04  0.25500000920E-02 0.  1.
    10030    2    1    2    0    0  0.00000000000E+00  0.00000000000E+00  0.70274616344E+02  0.27987683600E+04  0.27978859540E+04 0.  0.
        5    1    3    3  502    0  0.59879772564E+03 -0.25542339799E+02 -0.12293057463E+04  0.13676351250E+04  0.46999998093E+01 0.  1.
       -5    1    3    3    0  502 -0.59879772564E+03  0.25542339799E+02  0.12995803626E+04  0.14311332350E+04  0.46999998093E+01 0. -1.
</event>
<event>
 5   0  0.1357902E-07  0.2799711E+04  0.7818609E-02  0.8303358E-01
       -1   -1    0    0    0  501  0.00000000000E+00  0.00000000000E+00  0.11442081370E+04  0.11442081370E+04  0.50400001928E-02 0. -1.
        1   -1    0    0  501    0  0.00000000000E+00  0.00000000000E+00 -0.17126210520E+04  0.17126210520E+04  0.50400001928E-02 0.  1.
    10030    2    1    2    0    0  0.00000000000E+00  0.00000000000E+00 -0.56841291504E+03  0.28568291890E+04  0.27997106588E+04 0.  0.
        4    1    3    3  502    0 -0.12119224874E+04  0.26119136281E+03 -0.94755875684E+03  0.15603993892E+04  0.12699999809E+01 0.  1.
       -4    1    3    3    0  502  0.12119224874E+04 -0.26119136281E+03  0.37914584179E+03  0.12964297997E+04  0.12699999809E+01 0. -1.
</event>
<event>
 5   0  0.1366235E-07  0.2791155E+04  0.7818609E-02  0.8306019E-01
       -1   -1    0    0    0  501  0.00000000000E+00  0.00000000000E+00  0.82045026756E+03  0.82045026758E+03  0.50400001928E-02 0. -1.
        1   -1    0    0  501    0  0.00000000000E+00  0.00000000000E+00 -0.23738638396E+04  0.23738638397E+04  0.50400001928E-02 0.  1.
    10030    2    1    2    0    0  0.00000000000E+00  0.00000000000E+00 -0.15534135721E+04  0.31943141072E+04  0.27911554757E+04 0.  0.
        2    1    3    3  502    0 -0.67721407430E+03  0.55312924507E+03 -0.20215026690E+04  0.22025085482E+04  0.25500000920E-02 0.  1.
       -2    1    3    3    0  502  0.67721407430E+03 -0.55312924507E+03  0.46808909694E+03  0.99180555900E+03  0.25500000920E-02 0. -1.
</event>
<event>
 5   0  0.1361741E-07  0.2799742E+04  0.7818609E-02  0.8303348E-01
       -1   -1    0    0    0  501  0.00000000000E+00  0.00000000000E+00  0.10727353074E+04  0.10727353074E+04  0.50400001928E-02 0. -1.
        1   -1    0    0  501    0  0.00000000000E+00  0.00000000000E+00 -0.18267683362E+04  0.18267683362E+04  0.50400001928E-02 0.  1.
    10030    2    1    2    0    0  0.00000000000E+00  0.00000000000E+00 -0.75403302879E+03  0.28995036436E+04  0.27997420544E+04 0.  0.
        5    1    3    3  502    0 -0.32359671916E+03  0.64189514436E+03 -0.16210143640E+04  0.17732608019E+04  0.46999998093E+01 0.  1.
       -5    1    3    3    0  502  0.32359671916E+03 -0.64189514436E+03  0.86698133524E+03  0.11262428418E+04  0.46999998093E+01 0. -1.
</event>
<event>
 5   0  0.3571498E-07  0.2799889E+04  0.7818609E-02  0.8303303E-01
       -2   -1    0    0    0  501  0.00000000000E+00  0.00000000000E+00  0.13904856642E+04  0.13904856642E+04  0.25500000920E-02 0.  1.
        2   -1    0    0  501    0  0.00000000000E+00  0.00000000000E+00 -0.14094676591E+04  0.14094676591E+04  0.25500000920E-02 0. -1.
    10030    2    1    2    0    0  0.00000000000E+00  0.00000000000E+00 -0.18981994925E+02  0.27999533233E+04  0.27998889794E+04 0.  0.
        2    1    3    3  502    0 -0.85369100160E+03 -0.51209340447E+03  0.97481643527E+03  0.13933036509E+04  0.25500000920E-02 0.  1.
       -2    1    3    3    0  502  0.85369100160E+03  0.51209340447E+03 -0.99379843020E+03  0.14066496724E+04  0.25500000920E-02 0. -1.
</event>
<event>
 5   0  0.3406920E-07  0.2800024E+04  0.7818609E-02  0.8303261E-01
       -2   -1    0    0    0  501  0.00000000000E+00  0.00000000000E+00  0.14545266755E+04  0.14545266755E+04  0.25500000920E-02 0.  1.
        2   -1    0    0  501    0  0.00000000000E+00  0.00000000000E+00 -0.13475402358E+04  0.13475402358E+04  0.25500000920E-02 0. -1.
    10030    2    1    2    0    0  0.00000000000E+00  0.00000000000E+00  0.10698643967E+03  0.28020669113E+04  0.28000237279E+04 0.  0.
        4    1    3    3  502    0 -0.11952026024E+04  0.32785100199E+03 -0.59816246520E+03  0.13761524218E+04  0.12699999809E+01 0. -1.
       -4    1    3    3    0  502  0.11952026024E+04 -0.32785100199E+03  0.70514890487E+03  0.14259144895E+04  0.12699999809E+01 0.  1.
</event>
<event>
 5   0  0.3502141E-07  0.2800629E+04  0.7818609E-02  0.8303073E-01
        2   -1    0    0  501    0  0.00000000000E+00  0.00000000000E+00  0.22169541461E+04  0.22169541461E+04  0.25500000920E-02 0.  1.
       -2   -1    0    0    0  501  0.00000000000E+00  0.00000000000E+00 -0.88449313495E+03  0.88449313496E+03  0.25500000920E-02 0. -1.
    10030    2    1    2    0    0  0.00000000000E+00  0.00000000000E+00  0.13324610111E+04  0.31014472810E+04  0.28006290170E+04 0.  0.
        3    1    3    3  502    0 -0.60750618649E+03 -0.10246128373E+04 -0.14904171576E+03  0.12004618595E+04  0.10100000352E+00 0. -1.
       -3    1    3    3    0  502  0.60750618649E+03  0.10246128373E+04  0.14815027269E+04  0.19009854215E+04  0.10100000352E+00 0.  1.
</event>
<event>
 5   0  0.1346049E-07  0.2799388E+04  0.7818609E-02  0.8303458E-01
        1   -1    0    0  501    0  0.00000000000E+00  0.00000000000E+00  0.16553032707E+04  0.16553032707E+04  0.50400001928E-02 0. -1.
       -1   -1    0    0    0  501  0.00000000000E+00  0.00000000000E+00 -0.11835554839E+04  0.11835554839E+04  0.50400001928E-02 0.  1.
    10030    2    1    2    0    0  0.00000000000E+00  0.00000000000E+00  0.47174778680E+03  0.28388587547E+04  0.27993879786E+04 0.  0.
        1    1    3    3  502    0  0.72305597615E+03  0.99606557401E+03 -0.43999656268E+03  0.13071165011E+04  0.50400001928E-02 0.  1.
       -1    1    3    3    0  502 -0.72305597615E+03 -0.99606557401E+03  0.91174434948E+03  0.15317422535E+04  0.50400001928E-02 0. -1.
</event>
<event>
 5   0  0.1374680E-07  0.2801311E+04  0.7818609E-02  0.8302862E-01
        1   -1    0    0  501    0  0.00000000000E+00  0.00000000000E+00  0.98448229959E+03  0.98448229960E+03  0.50400001928E-02 0. -1.
       -1   -1    0    0    0  501  0.00000000000E+00  0.00000000000E+00 -0.19927586814E+04  0.19927586814E+04  0.50400001928E-02 0.  1.
    10030    2    1    2    0    0  0.00000000000E+00  0.00000000000E+00 -0.10082763818E+04  0.29772409810E+04  0.28013108711E+04 0.  0.
        3    1    3    3  502    0 -0.54079057630E+03  0.32210143381E+03 -0.18339724181E+04  0.19389839147E+04  0.10100000352E+00 0.  1.
       -3    1    3    3    0  502  0.54079057630E+03 -0.32210143381E+03  0.82569603629E+03  0.10382570663E+04  0.10100000352E+00 0. -1.
</event>
<event>
 5   0  0.1361741E-07  0.2800841E+04  0.7818609E-02  0.8303007E-01
       -1   -1    0    0    0  501  0.00000000000E+00  0.00000000000E+00  0.13157901154E+04  0.13157901154E+04  0.50400001928E-02 0. -1.
        1   -1    0    0  501    0  0.00000000000E+00  0.00000000000E+00 -0.14904947239E+04  0.14904947239E+04  0.50400001928E-02 0.  1.
    10030    2    1    2    0    0  0.00000000000E+00  0.00000000000E+00 -0.17470460851E+03  0.28062848393E+04  0.28008414627E+04 0.  0.
        5    1    3    3  502    0  0.63077338653E+03 -0.96834213381E+03 -0.87983486201E+03  0.14524782366E+04  0.46999998093E+01 0.  1.
       -5    1    3    3    0  502 -0.63077338653E+03  0.96834213381E+03  0.70513025350E+03  0.13538066028E+04  0.46999998093E+01 0. -1.
</event>
<event>
 5   0  0.1361741E-07  0.2800539E+04  0.7818609E-02  0.8303101E-01
        1   -1    0    0  501    0  0.00000000000E+00  0.00000000000E+00  0.10578353855E+04  0.10578353855E+04  0.50400001928E-02 0.  1.
       -1   -1    0    0    0  501  0.00000000000E+00  0.00000000000E+00 -0.18535533049E+04  0.18535533049E+04  0.50400001928E-02 0. -1.
    10030    2    1    2    0    0  0.00000000000E+00  0.00000000000E+00 -0.79571791940E+03  0.29113886904E+04  0.28005387159E+04 0.  0.
        5    1    3    3  502    0 -0.42907147581E+03  0.55922917471E+03  0.85994574537E+03  0.11119210297E+04  0.46999998093E+01 0.  1.
       -5    1    3    3    0  502  0.42907147581E+03 -0.55922917471E+03 -0.16556636648E+04  0.17994676607E+04  0.46999998093E+01 0. -1.
</event>
<event>
 5   0  0.3571498E-07  0.2803474E+04  0.7818609E-02  0.8302191E-01
       -2   -1    0    0    0  501  0.00000000000E+00  0.00000000000E+00  0.12680689729E+04  0.12680689729E+04  0.25500000920E-02 0. -1.
        2   -1    0    0  501    0  0.00000000000E+00  0.00000000000E+00 -0.15494952812E+04  0.15494952812E+04  0.25500000920E-02 0.  1.
    10030    2    1    2    0    0  0.00000000000E+00  0.00000000000E+00 -0.28142630826E+03  0.28175642541E+04  0.28034741944E+04 0.  0.
        2    1    3    3  502    0  0.10734998194E+04 -0.11253603484E+03 -0.10395236751E+04  0.14985578709E+04  0.25500000920E-02 0.  1.
       -2    1    3    3    0  502 -0.10734998194E+04  0.11253603484E+03  0.75809736680E+03  0.13190063832E+04  0.25500000920E-02 0. -1.
</event>
<event>
 5   0  0.3571498E-07  0.2800709E+04  0.7818609E-02  0.8303048E-01
       -2   -1    0    0    0  501  0.00000000000E+00  0.00000000000E+00  0.93123409963E+03  0.93123409963E+03  0.25500000920E-02 0.  1.
        2   -1    0    0  501    0  0.00000000000E+00  0.00000000000E+00 -0.21058001425E+04  0.21058001425E+04  0.25500000920E-02 0. -1.
    10030    2    1    2    0    0  0.00000000000E+00  0.00000000000E+00 -0.11745660428E+04  0.30370342421E+04  0.28007091243E+04 0.  0.
        2    1    3    3  502    0  0.77513779952E+03 -0.91296152590E+03 -0.13742291665E+04  0.18228667417E+04  0.25500000920E-02 0. -1.
       -2    1    3    3    0  502 -0.77513779952E+03  0.91296152590E+03  0.19966312366E+03  0.12141675004E+04  0.25500000920E-02 0.  1.
</event>
<event>
 5   0  0.1374680E-07  0.2801421E+04  0.7818609E-02  0.8302827E-01
       -1   -1    0    0    0  501  0.00000000000E+00  0.00000000000E+00  0.11104991973E+04  0.11104991973E+04  0.50400001928E-02 0. -1.
        1   -1    0    0  501    0  0.00000000000E+00  0.00000000000E+00 -0.17667636247E+04  0.17667636247E+04  0.50400001928E-02 0.  1.
    10030    2    1    2    0    0  0.00000000000E+00  0.00000000000E+00 -0.65626442745E+03  0.28772628220E+04  0.28014207731E+04 0.  0.
        3    1    3    3  502    0  0.71485341312E+03 -0.10582041703E+04  0.26292837238E+03  0.13038185485E+04  0.10100000352E+00 0. -1.
       -3    1    3    3    0  502 -0.71485341312E+03  0.10582041703E+04 -0.91919279984E+03  0.15734442735E+04  0.10100000352E+00 0.  1.
</event>
<event>
 5   0  0.1346049E-07  0.2809597E+04  0.7818609E-02  0.8300295E-01
        1   -1    0    0  501    0  0.00000000000E+00  0.00000000000E+00  0.26389832382E+04  0.26389832382E+04  0.50400001928E-02 0.  1.
       -1   -1    0    0    0  501  0.00000000000E+00  0.00000000000E+00 -0.74781023044E+03  0.74781023045E+03  0.50400001928E-02 0. -1.
    10030    2    1    2    0    0  0.00000000000E+00  0.00000000000E+00  0.18911730078E+04  0.33867934687E+04  0.28095968846E+04 0.  0.
        1    1    3    3  502    0 -0.98800810315E+03 -0.37498723182E+03  0.20613055145E+04  0.23164101234E+04  0.50400001928E-02 0.  1.
       -1    1    3    3    0  502  0.98800810315E+03  0.37498723182E+03 -0.17013250669E+03  0.10703833452E+04  0.50400001928E-02 0. -1.
</event>
<event>
 5   0  0.3522569E-07  0.2801903E+04  0.7818609E-02  0.8302678E-01
        2   -1    0    0  501    0  0.00000000000E+00  0.00000000000E+00  0.16865577742E+04  0.16865577742E+04  0.25500000920E-02 0. -1.
       -2   -1    0    0    0  501  0.00000000000E+00  0.00000000000E+00 -0.11637108585E+04  0.11637108585E+04  0.25500000920E-02 0.  1.
    10030    2    1    2    0    0  0.00000000000E+00  0.00000000000E+00  0.52284691564E+03  0.28502686327E+04  0.28019033497E+04 0.  0.
        1    1    3    3  502    0 -0.12977171285E+04  0.10030643064E+03 -0.26572466377E+03  0.13284354416E+04  0.50400001928E-02 0. -1.
       -1    1    3    3    0  502  0.12977171285E+04 -0.10030643064E+03  0.78857157941E+03  0.15218331911E+04  0.50400001928E-02 0.  1.
</event>
<event>
 5   0  0.3557628E-07  0.2800049E+04  0.7818609E-02  0.8303253E-01
       -2   -1    0    0    0  501  0.00000000000E+00  0.00000000000E+00  0.11543238215E+04  0.11543238215E+04  0.25500000920E-02 0. -1.
        2   -1    0    0  501    0  0.00000000000E+00  0.00000000000E+00 -0.16980226425E+04  0.16980226425E+04  0.25500000920E-02 0.  1.
    10030    2    1    2    0    0  0.00000000000E+00  0.00000000000E+00 -0.54369882095E+03  0.28523464640E+04  0.28000485608E+04 0.  0.
        5    1    3    3  502    0  0.98796492559E+03 -0.17552024021E+03  0.72268655668E+03  0.12366001772E+04  0.46999998093E+01 0. -1.
       -5    1    3    3    0  502 -0.98796492559E+03  0.17552024021E+03 -0.12663853776E+04  0.16157462869E+04  0.46999998093E+01 0.  1.
</event>
<event>
 5   0  0.1366235E-07  0.2799036E+04  0.7818609E-02  0.8303568E-01
        1   -1    0    0  501    0  0.00000000000E+00  0.00000000000E+00  0.10621219116E+04  0.10621219117E+04  0.50400001928E-02 0.  1.
       -1   -1    0    0    0  501  0.00000000000E+00  0.00000000000E+00 -0.18440918940E+04  0.18440918940E+04  0.50400001928E-02 0. -1.
    10030    2    1    2    0    0  0.00000000000E+00  0.00000000000E+00 -0.78196998231E+03  0.29062138056E+04  0.27990358395E+04 0.  0.
        2    1    3    3  502    0  0.38385957635E+03  0.46001265295E+02  0.10055786314E+04  0.10773359154E+04  0.25500000920E-02 0.  1.
       -2    1    3    3    0  502 -0.38385957635E+03 -0.46001265295E+02 -0.17875486137E+04  0.18288778902E+04  0.25500000920E-02 0. -1.
</event>
<event>
 5   0  0.1366235E-07  0.2801474E+04  0.7818609E-02  0.8302811E-01
        1   -1    0    0  501    0  0.00000000000E+00  0.00000000000E+00  0.11913955119E+04  0.11913955119E+04  0.50400001928E-02 0.  1.
       -1   -1    0    0    0  501  0.00000000000E+00  0.00000000000E+00 -0.16468617897E+04  0.16468617898E+04  0.50400001928E-02 0. -1.
    10030    2    1    2    0    0  0.00000000000E+00  0.00000000000E+00 -0.45546627787E+03  0.28382573016E+04  0.28014737158E+04 0.  0.
        2    1    3    3  502    0  0.10766631967E+04 -0.41311979131E+03  0.57781177316E+03  0.12898597003E+04  0.25500000920E-02 0.  1.
       -2    1    3    3    0  502 -0.10766631967E+04  0.41311979131E+03 -0.10332780510E+04  0.15483976014E+04  0.25500000920E-02 0. -1.
</event>
<event>
 5   0  0.1374680E-07  0.2799913E+04  0.7818609E-02  0.8303295E-01
       -1   -1    0    0    0  501  0.00000000000E+00  0.00000000000E+00  0.12889545268E+04  0.12889545268E+04  0.50400001928E-02 0. -1.
        1   -1    0    0  501    0  0.00000000000E+00  0.00000000000E+00 -0.15205181988E+04  0.15205181988E+04  0.50400001928E-02 0.  1.
    10030    2    1    2    0    0  0.00000000000E+00  0.00000000000E+00 -0.23156367197E+03  0.28094727256E+04  0.27999134382E+04 0.  0.
        3    1    3    3  502    0  0.40069066301E+03  0.13412998260E+04 -0.10021841578E+03  0.14034535873E+04  0.10100000352E+00 0. -1.
       -3    1    3    3    0  502 -0.40069066301E+03 -0.13412998260E+04 -0.13134525619E+03  0.14060191383E+04  0.10100000352E+00 0.  1.
</event>
<event>
 5   0  0.3502141E-07  0.2798884E+04  0.7818609E-02  0.8303615E-01
        2   -1    0    0  501    0  0.00000000000E+00  0.00000000000E+00  0.14927263917E+04  0.14927263917E+04  0.25500000920E-02 0. -1.
       -2   -1    0    0    0  501  0.00000000000E+00  0.00000000000E+00 -0.13119867273E+04  0.13119867273E+04  0.25500000920E-02 0.  1.
    10030    2    1    2    0    0  0.00000000000E+00  0.00000000000E+00  0.18073966443E+03  0.28047131191E+04  0.27988835013E+04 0.  0.
        3    1    3    3  502    0 -0.11876855532E+04 -0.27471108469E+03 -0.59835642358E+03  0.13579740694E+04  0.10100000352E+00 0.  1.
       -3    1    3    3    0  502  0.11876855532E+04  0.27471108469E+03  0.77909608801E+03  0.14467390497E+04  0.10100000352E+00 0. -1.
</event>
<event>
 5   0  0.1361741E-07  0.2800704E+04  0.7818609E-02  0.8303050E-01
        1   -1    0    0  501    0  0.00000000000E+00  0.00000000000E+00  0.55650614432E+03  0.55650614434E+03  0.50400001928E-02 0.  1.
       -1   -1    0    0    0  501  0.00000000000E+00  0.00000000000E+00 -0.35237454610E+04  0.35237454610E+04  0.50400001928E-02 0. -1.
    10030    2    1    2    0    0  0.00000000000E+00  0.00000000000E+00 -0.29672393167E+04  0.40802516053E+04  0.28007041972E+04 0.  0.
        5    1    3    3  502    0  0.99530417487E+03 -0.41969830587E+03 -0.18530175557E+03  0.10959634570E+04  0.46999998093E+01 0.  1.
       -5    1    3    3    0  502 -0.99530417487E+03  0.41969830587E+03 -0.27819375611E+04  0.29842881483E+04  0.46999998093E+01 0. -1.
</event>
<event>
 5   0  0.1366235E-07  0.2799986E+04  0.7818609E-02  0.8303273E-01
       -1   -1    0    0    0  501  0.00000000000E+00  0.00000000000E+00  0.11585838962E+04  0.11585838962E+04  0.50400001928E-02 0.  1.
        1   -1    0    0  501    0  0.00000000000E+00  0.00000000000E+00 -0.16917038728E+04  0.16917038728E+04  0.50400001928E-02 0. -1.
    10030    2    1    2    0    0  0.00000000000E+00  0.00000000000E+00 -0.53311997665E+03  0.28502877690E+04  0.27999863315E+04 0.  0.
        2    1    3    3  502    0  0.36274211466E+03 -0.90996555912E+03 -0.12847089593E+04  0.16155792369E+04  0.25500000920E-02 0. -1.
       -2    1    3    3    0  502 -0.36274211466E+03  0.90996555912E+03  0.75158898262E+03  0.12347085321E+04  0.25500000920E-02 0.  1.
</event>
<event>
 5   0  0.3502141E-07  0.2800567E+04  0.7818609E-02  0.8303093E-01
        2   -1    0    0  501    0  0.00000000000E+00  0.00000000000E+00  0.16023779335E+04  0.16023779335E+04  0.25500000920E-02 0. -1.
       -2   -1    0    0    0  501  0.00000000000E+00  0.00000000000E+00 -0.12236771027E+04  0.12236771027E+04  0.25500000920E-02 0.  1.
    10030    2    1    2    0    0  0.00000000000E+00  0.00000000000E+00  0.37870083081E+03  0.28260550362E+04  0.28005665050E+04 0.  0.
        3    1    3    3  502    0  0.57505308686E+03  0.39816870568E+03 -0.10347724539E+04  0.12489909577E+04  0.10100000352E+00 0.  1.
       -3    1    3    3    0  502 -0.57505308686E+03 -0.39816870568E+03  0.14134732847E+04  0.15770640785E+04  0.10100000352E+00 0. -1.
</event>
<event>
 5   0  0.3557628E-07  0.2798411E+04  0.7818609E-02  0.8303762E-01
        2   -1    0    0  501    0  0.00000000000E+00  0.00000000000E+00  0.24715542525E+04  0.24715542525E+04  0.25500000920E-02 0. -1.
       -2   -1    0    0    0  501  0.00000000000E+00  0.00000000000E+00 -0.79212327886E+03  0.79212327886E+03  0.25500000920E-02 0.  1.
    10030    2    1    2    0    0  0.00000000000E+00  0.00000000000E+00  0.16794309737E+04  0.32636775314E+04  0.27984107335E+04 0.  0.
        5    1    3    3  502    0 -0.76005753322E+03 -0.42479026522E+03 -0.43765687146E+03  0.97452544880E+03  0.46999998093E+01 0.  1.
       -5    1    3    3    0  502  0.76005753322E+03  0.42479026522E+03  0.21170878451E+04  0.22891520826E+04  0.46999998093E+01 0. -1.
</event>
<event>
 5   0  0.3557628E-07  0.2798201E+04  0.7818609E-02  0.8303827E-01
        2   -1    0    0  501    0  0.00000000000E+00  0.00000000000E+00  0.17521069384E+04  0.17521069384E+04  0.25500000920E-02 0.  1.
       -2   -1    0    0    0  501  0.00000000000E+00  0.00000000000E+00 -0.11172160242E+04  0.11172160242E+04  0.25500000920E-02 0. -1.
    10030    2    1    2    0    0  0.00000000000E+00  0.00000000000E+00  0.63489091420E+03  0.28693229627E+04  0.27982008133E+04 0.  0.
        5    1    3    3  502    0 -0.11829690387E+04  0.16839703783E+03  0.10637395905E+04  0.15997928976E+04  0.46999998093E+01 0.  1.
       -5    1    3    3    0  502  0.11829690387E+04 -0.16839703783E+03 -0.42884867632E+03  0.12695300651E+04  0.46999998093E+01 0. -1.
</event>
<event>
 5   0  0.3557628E-07  0.2800037E+04  0.7818609E-02  0.8303257E-01
        2   -1    0    0  501    0  0.00000000000E+00  0.00000000000E+00  0.27227967244E+04  0.27227967244E+04  0.25500000920E-02 0. -1.
       -2   -1    0    0    0  501  0.00000000000E+00  0.00000000000E+00 -0.71986710521E+03  0.71986710522E+03  0.25500000920E-02 0.  1.
    10030    2    1    2    0    0  0.00000000000E+00  0.00000000000E+00  0.20029296192E+04  0.34426638296E+04  0.28000369970E+04 0.  0.
        5    1    3    3  502    0  0.52678768383E+03  0.98753913218E+03  0.20354870587E+04  0.23229223959E+04  0.46999998093E+01 0. -1.
       -5    1    3    3    0  502 -0.52678768383E+03 -0.98753913218E+03 -0.32557439517E+02  0.11197414337E+04  0.46999998093E+01 0.  1.
</event>
<event>
 5   0  0.3571498E-07  0.2799687E+04  0.7818609E-02  0.8303366E-01
        2   -1    0    0  501    0  0.00000000000E+00  0.00000000000E+00  0.18250815522E+04  0.18250815522E+04  0.25500000920E-02 0.  1.
       -2   -1    0    0    0  501  0.00000000000E+00  0.00000000000E+00 -0.10736843162E+04  0.10736843162E+04  0.25500000920E-02 0. -1.
    10030    2    1    2    0    0  0.00000000000E+00  0.00000000000E+00  0.75139723607E+03  0.28987658684E+04  0.27996867241E+04 0.  0.
        2    1    3    3  502    0  0.10483133057E+04 -0.81841527458E+03 -0.76562835485E+02  0.13321509736E+04  0.25500000920E-02 0. -1.
       -2    1    3    3    0  502 -0.10483133057E+04  0.81841527458E+03  0.82796007156E+03  0.15666148948E+04  0.25500000920E-02 0.  1.
</event>
<event>
 5   0  0.3406920E-07  0.2799909E+04  0.7818609E-02  0.8303297E-01
        2   -1    0    0  501    0  0.00000000000E+00  0.00000000000E+00  0.26632104989E+04  0.26632104989E+04  0.25500000920E-02 0. -1.
       -2   -1    0    0    0  501  0.00000000000E+00  0.00000000000E+00 -0.73590588089E+03  0.73590588089E+03  0.25500000920E-02 0.  1.
    10030    2    1    2    0    0  0.00000000000E+00  0.00000000000E+00  0.19273046180E+04  0.33991163798E+04  0.27999087615E+04 0.  0.
        4    1    3    3  502    0 -0.11858945310E+03  0.85732209361E+03 -0.37220306338E+03  0.94212598089E+03  0.12699999809E+01 0.  1.
       -4    1    3    3    0  502  0.11858945310E+03 -0.85732209361E+03  0.22995076814E+04  0.24569903989E+04  0.12699999809E+01 0. -1.
</event>
<event>
 5   0  0.3502141E-07  0.2797554E+04  0.7818609E-02  0.8304028E-01
        2   -1    0    0  501    0  0.00000000000E+00  0.00000000000E+00  0.18690687480E+04  0.18690687480E+04  0.25500000920E-02 0.  1.
       -2   -1    0    0    0  501  0.00000000000E+00  0.00000000000E+00 -0.10468194634E+04  0.10468194634E+04  0.25500000920E-02 0. -1.
    10030    2    1    2    0    0  0.00000000000E+00  0.00000000000E+00  0.82224928466E+03  0.29158882114E+04  0.27975543203E+04 0.  0.
        3    1    3    3  502    0 -0.65526501451E+03  0.11313862040E+04 -0.10706735969E+03  0.13118195042E+04  0.10100000352E+00 0. -1.
       -3    1    3    3    0  502  0.65526501451E+03 -0.11313862040E+04  0.92931664435E+03  0.16040687072E+04  0.10100000352E+00 0.  1.
</event>
<event>
 5   0  0.3557628E-07  0.2799541E+04  0.7818609E-02  0.8303411E-01
        2   -1    0    0  501    0  0.00000000000E+00  0.00000000000E+00  0.19131730623E+04  0.19131730623E+04  0.25500000920E-02 0. -1.
       -2   -1    0    0    0  501  0.00000000000E+00  0.00000000000E+00 -0.10241401690E+04  0.10241401690E+04  0.25500000920E-02 0.  1.
    10030    2    1    2    0    0  0.00000000000E+00  0.00000000000E+00  0.88903289333E+03  0.29373132313E+04  0.27995409505E+04 0.  0.
        5    1    3    3  502    0 -0.59455164677E+03  0.51279397242E+03 -0.77134197151E+03  0.11006542808E+04  0.46999998093E+01 0.  1.
       -5    1    3    3    0  502  0.59455164677E+03 -0.51279397242E+03  0.16603748648E+04  0.18366589505E+04  0.46999998093E+01 0. -1.
</event>
<event>
 5   0  0.3406920E-07  0.2799459E+04  0.7818609E-02  0.8303436E-01
       -2   -1    0    0    0  501  0.00000000000E+00  0.00000000000E+00  0.15387597402E+04  0.15387597402E+04  0.25500000920E-02 0. -1.
        2   -1    0    0  501    0  0.00000000000E+00  0.00000000000E+00 -0.12732613523E+04  0.12732613524E+04  0.25500000920E-02 0.  1.
    10030    2    1    2    0    0  0.00000000000E+00  0.00000000000E+00  0.26549838788E+03  0.28120210926E+04  0.27994594534E+04 0.  0.
        4    1    3    3  502    0 -0.29457465190E+03  0.70118741348E+03 -0.10475995991E+04  0.12945673205E+04  0.12699999809E+01 0.  1.
       -4    1    3    3    0  502  0.29457465190E+03 -0.70118741348E+03  0.13130979869E+04  0.15174537721E+04  0.12699999809E+01 0. -1.
</event>
<event>
 5   0  0.3522569E-07  0.2799727E+04  0.7818609E-02  0.8303353E-01
       -2   -1    0    0    0  501  0.00000000000E+00  0.00000000000E+00  0.28005933419E+04  0.28005933419E+04  0.25500000920E-02 0. -1.
        2   -1    0    0  501    0  0.00000000000E+00  0.00000000000E+00 -0.69971531863E+03  0.69971531863E+03  0.25500000920E-02 0.  1.
    10030    2    1    2    0    0  0.00000000000E+00  0.00000000000E+00  0.21008780233E+04  0.35003086606E+04  0.27997271743E+04 0.  0.
        1    1    3    3  502    0 -0.15737383490E+03 -0.13909476134E+04  0.10639203957E+04  0.17582458291E+04  0.50400001928E-02 0. -1.
       -1    1    3    3    0  502  0.15737383490E+03  0.13909476134E+04  0.10369576276E+04  0.17420628315E+04  0.50400001928E-02 0.  1.
</event>
<event>
 5   0  0.1366235E-07  0.2797388E+04  0.7818609E-02  0.8304080E-01
        1   -1    0    0  501    0  0.00000000000E+00  0.00000000000E+00  0.18666254728E+04  0.18666254728E+04  0.50400001928E-02 0.  1.
       -1   -1    0    0    0  501  0.00000000000E+00  0.00000000000E+00 -0.10480649041E+04  0.10480649041E+04  0.50400001928E-02 0. -1.
    10030    2    1    2    0    0  0.00000000000E+00  0.00000000000E+00  0.81856056870E+03  0.29146903769E+04  0.27973878152E+04 0.  0.
        2    1    3    3  502    0  0.58950424178E+03  0.10633751664E+04 -0.31113373595E+03  0.12550243811E+04  0.25500000920E-02 0. -1.
       -2    1    3    3    0  502 -0.58950424178E+03 -0.10633751664E+04  0.11296943047E+04  0.16596659958E+04  0.25500000920E-02 0.  1.
</event>
<event>
 5   0  0.3502141E-07  0.2800876E+04  0.7818609E-02  0.8302996E-01
        2   -1    0    0  501    0  0.00000000000E+00  0.00000000000E+00  0.10377928282E+04  0.10377928282E+04  0.25500000920E-02 0.  1.
       -2   -1    0    0    0  501  0.00000000000E+00  0.00000000000E+00 -0.18898055031E+04  0.18898055031E+04  0.25500000920E-02 0. -1.
    10030    2    1    2    0    0  0.00000000000E+00  0.00000000000E+00 -0.85201267492E+03  0.29275983313E+04  0.28008760043E+04 0.  0.
        3    1    3    3  502    0  0.11462173362E+03 -0.12242571134E+04  0.27460568375E+03  0.12599015490E+04  0.10100000352E+00 0.  1.
       -3    1    3    3    0  502 -0.11462173362E+03  0.12242571134E+04 -0.11266183587E+04  0.16676967823E+04  0.10100000352E+00 0. -1.
</event>
<event>
 5   0  0.1357902E-07  0.2798858E+04  0.7818609E-02  0.8303623E-01
        1   -1    0    0  501    0  0.00000000000E+00  0.00000000000E+00  0.20043121492E+04  0.20043121492E+04  0.50400001928E-02 0.  1.
       -1   -1    0    0    0  501  0.00000000000E+00  0.00000000000E+00 -0.97709427110E+03  0.97709427111E+03  0.50400001928E-02 0. -1.
    10030    2    1    2    0    0  0.00000000000E+00  0.00000000000E+00  0.10272178781E+04  0.29814064203E+04  0.27988582805E+04 0.  0.
        4    1    3    3  502    0 -0.58019968861E+03 -0.99269279006E+03 -0.33612184892E+03  0.11979357931E+04  0.12699999809E+01 0. -1.
       -4    1    3    3    0  502  0.58019968861E+03  0.99269279006E+03  0.13633397270E+04  0.17834706273E+04  0.12699999809E+01 0.  1.
</event>
<event>
 5   0  0.1346049E-07  0.2801194E+04  0.7818609E-02  0.8302898E-01
        1   -1    0    0  501    0  0.00000000000E+00  0.00000000000E+00  0.18702951530E+04  0.18702951530E+04  0.50400001928E-02 0.  1.
       -1   -1    0    0    0  501  0.00000000000E+00  0.00000000000E+00 -0.10488572197E+04  0.10488572197E+04  0.50400001928E-02 0. -1.
    10030    2    1    2    0    0  0.00000000000E+00  0.00000000000E+00  0.82143793337E+03  0.29191523727E+04  0.28011944411E+04 0.  0.
        1    1    3    3  502    0  0.69787632370E+03  0.64065328743E+03  0.14857625466E+04  0.17620891983E+04  0.50400001928E-02 0.  1.
       -1    1    3    3    0  502 -0.69787632370E+03 -0.64065328743E+03 -0.66432461320E+03  0.11570631744E+04  0.50400001928E-02 0. -1.
</event>
<event>
 5   0  0.1361741E-07  0.2798596E+04  0.7818609E-02  0.8303704E-01
        1   -1    0    0  501    0  0.00000000000E+00  0.00000000000E+00  0.17983661671E+04  0.17983661672E+04  0.50400001928E-02 0.  1.
       -1   -1    0    0    0  501  0.00000000000E+00  0.00000000000E+00 -0.10887852107E+04  0.10887852107E+04  0.50400001928E-02 0. -1.
    10030    2    1    2    0    0  0.00000000000E+00  0.00000000000E+00  0.70958095643E+03  0.28871513779E+04  0.27985957095E+04 0.  0.
        5    1    3    3  502    0  0.24569598564E+03 -0.95045176111E+03  0.13834824337E+04  0.16963993640E+04  0.46999998093E+01 0.  1.
       -5    1    3    3    0  502 -0.24569598564E+03  0.95045176111E+03 -0.67390147731E+03  0.11907520139E+04  0.46999998093E+01 0. -1.
</event>
<event>
 5   0  0.3406920E-07  0.2800046E+04  0.7818609E-02  0.8303254E-01
        2   -1    0    0  501    0  0.00000000000E+00  0.00000000000E+00  0.13571397783E+04  0.13571397783E+04  0.25500000920E-02 0. -1.
       -2   -1    0    0    0  501  0.00000000000E+00  0.00000000000E+00 -0.14442616518E+04  0.14442616518E+04  0.25500000920E-02 0.  1.
    10030    2    1    2    0    0  0.00000000000E+00  0.00000000000E+00 -0.87121873504E+02  0.28014014300E+04  0.28000463838E+04 0.  0.
        4    1    3    3  502    0  0.11495770162E+04 -0.56679586563E+03 -0.60710828644E+03  0.14182266934E+04  0.12699999809E+01 0. -1.
       -4    1    3    3    0  502 -0.11495770162E+04  0.56679586563E+03  0.51998641293E+03  0.13831747366E+04  0.12699999809E+01 0.  1.
</event>
<event>
 5   0  0.1366235E-07  0.2799217E+04  0.7818609E-02  0.8303512E-01
        1   -1    0    0  501    0  0.00000000000E+00  0.00000000000E+00  0.12500486265E+04  0.12500486265E+04  0.50400001928E-02 0.  1.
       -1   -1    0    0    0  501  0.00000000000E+00  0.00000000000E+00 -0.15670620197E+04  0.15670620197E+04  0.50400001928E-02 0. -1.
    10030    2    1    2    0    0  0.00000000000E+00  0.00000000000E+00 -0.31701339316E+03  0.28171106462E+04  0.27992168372E+04 0.  0.
        2    1    3    3  502    0  0.19392704630E+03 -0.12123871300E+04  0.51766131590E+03  0.13324651929E+04  0.25500000920E-02 0.  1.
       -2    1    3    3    0  502 -0.19392704630E+03  0.12123871300E+04 -0.83467470906E+03  0.14846454533E+04  0.25500000920E-02 0. -1.
</event>
<event>
 5   0  0.3571498E-07  0.2804262E+04  0.7818609E-02  0.8301946E-01
       -2   -1    0    0    0  501  0.00000000000E+00  0.00000000000E+00  0.12651385491E+04  0.12651385491E+04  0.25500000920E-02 0. -1.
        2   -1    0    0  501    0  0.00000000000E+00  0.00000000000E+00 -0.15539578108E+04  0.15539578108E+04  0.25500000920E-02 0.  1.
    10030    2    1    2    0    0  0.00000000000E+00  0.00000000000E+00 -0.28881926170E+03  0.28190963600E+04  0.28042624201E+04 0.  0.
        2    1    3    3  502    0 -0.10637086187E+03  0.34689360085E+03  0.12171261411E+04  0.12700574687E+04  0.25500000920E-02 0. -1.
       -2    1    3    3    0  502  0.10637086187E+03 -0.34689360085E+03 -0.15059454028E+04  0.15490388913E+04  0.25500000920E-02 0.  1.
</event>
<event>
 5   0  0.3522569E-07  0.2800016E+04  0.7818609E-02  0.8303263E-01
        2   -1    0    0  501    0  0.00000000000E+00  0.00000000000E+00  0.26644094188E+04  0.26644094188E+04  0.25500000920E-02 0. -1.
       -2   -1    0    0    0  501  0.00000000000E+00  0.00000000000E+00 -0.73563128434E+03  0.73563128434E+03  0.25500000920E-02 0.  1.
    10030    2    1    2    0    0  0.00000000000E+00  0.00000000000E+00  0.19287781345E+04  0.34000407031E+04  0.28000163733E+04 0.  0.
        1    1    3    3  502    0  0.13984245124E+04 -0.22851066794E+02  0.88846287437E+03  0.16569488729E+04  0.50400001928E-02 0. -1.
       -1    1    3    3    0  502 -0.13984245124E+04  0.22851066794E+02  0.10403152601E+04  0.17430918302E+04  0.50400001928E-02 0.  1.
</event>
<event>
 5   0  0.3557628E-07  0.2800191E+04  0.7818609E-02  0.8303209E-01
        2   -1    0    0  501    0  0.00000000000E+00  0.00000000000E+00  0.23541554825E+04  0.23541554825E+04  0.25500000920E-02 0. -1.
       -2   -1    0    0    0  501  0.00000000000E+00  0.00000000000E+00 -0.83268372527E+03  0.83268372527E+03  0.25500000920E-02 0.  1.
    10030    2    1    2    0    0  0.00000000000E+00  0.00000000000E+00  0.15214717572E+04  0.31868392078E+04  0.28001906771E+04 0.  0.
        5    1    3    3  502    0 -0.10790630631E+03  0.54114317307E+03  0.22251770045E+04  0.22925781330E+04  0.46999998093E+01 0. -1.
       -5    1    3    3    0  502  0.10790630631E+03 -0.54114317307E+03 -0.70370524729E+03  0.89426107472E+03  0.46999998093E+01 0.  1.
</event>
<event>
 5   0  0.1366235E-07  0.2801564E+04  0.7818609E-02  0.8302783E-01
        1   -1    0    0  501    0  0.00000000000E+00  0.00000000000E+00  0.16941086985E+04  0.16941086985E+04  0.50400001928E-02 0. -1.
       -1   -1    0    0    0  501  0.00000000000E+00  0.00000000000E+00 -0.11582430722E+04  0.11582430722E+04  0.50400001928E-02 0.  1.
    10030    2    1    2    0    0  0.00000000000E+00  0.00000000000E+00  0.53586562627E+03  0.28523517707E+04  0.28015636088E+04 0.  0.
        2    1    3    3  502    0  0.40447867226E+02 -0.61706083916E+03 -0.10117496430E+04  0.11857645000E+04  0.25500000920E-02 0.  1.
       -2    1    3    3    0  502 -0.40447867226E+02  0.61706083916E+03  0.15476152693E+04  0.16665872707E+04  0.25500000920E-02 0. -1.
</event>
<event>
 5   0  0.1357902E-07  0.2799877E+04  0.7818609E-02  0.8303307E-01
       -1   -1    0    0    0  501  0.00000000000E+00  0.00000000000E+00  0.10571133891E+04  0.10571133891E+04  0.50400001928E-02 0. -1.
        1   -1    0    0  501    0  0.00000000000E+00  0.00000000000E+00 -0.18539427627E+04  0.18539427627E+04  0.50400001928E-02 0.  1.
    10030    2    1    2    0    0  0.00000000000E+00  0.00000000000E+00 -0.79682937357E+03  0.29110561518E+04  0.27998769380E+04 0.  0.
        4    1    3    3  502    0 -0.29525872310E+03 -0.10136332648E+04  0.55743665591E+03  0.11938874936E+04  0.12699999809E+01 0. -1.
       -4    1    3    3    0  502  0.29525872310E+03  0.10136332648E+04 -0.13542660295E+04  0.17171686582E+04  0.12699999809E+01 0.  1.
</event>
<event>
 5   0  0.3406920E-07  0.2800469E+04  0.7818609E-02  0.8303123E-01
        2   -1    0    0  501    0  0.00000000000E+00  0.00000000000E+00  0.18156142848E+04  0.18156142848E+04  0.25500000920E-02 0. -1.
       -2   -1    0    0    0  501  0.00000000000E+00  0.00000000000E+00 -0.10798861328E+04  0.10798861328E+04  0.25500000920E-02 0.  1.
    10030    2    1    2    0    0  0.00000000000E+00  0.00000000000E+00  0.73572815196E+03  0.28955004176E+04  0.28004690241E+04 0.  0.
        4    1    3    3  502    0  0.36893945182E+02 -0.16842230994E+02 -0.10792781401E+04  0.10800406199E+04  0.12699999809E+01 0.  1.
       -4    1    3    3    0  502 -0.36893945182E+02  0.16842230994E+02  0.18150062921E+04  0.18154597977E+04  0.12699999809E+01 0. -1.
</event>
<event>
 5   0  0.3502141E-07  0.2800389E+04  0.7818609E-02  0.8303148E-01
       -2   -1    0    0    0  501  0.00000000000E+00  0.00000000000E+00  0.18643639140E+04  0.18643639140E+04  0.25500000920E-02 0. -1.
        2   -1    0    0  501    0  0.00000000000E+00  0.00000000000E+00 -0.10515891541E+04  0.10515891541E+04  0.25500000920E-02 0.  1.
    10030    2    1    2    0    0  0.00000000000E+00  0.00000000000E+00  0.81277475991E+03  0.29159530681E+04  0.28003891668E+04 0.  0.
        3    1    3    3  502    0  0.54663757151E+03  0.11538912186E+04 -0.19201721159E+03  0.12911809318E+04  0.10100000352E+00 0.  1.
       -3    1    3    3    0  502 -0.54663757151E+03 -0.11538912186E+04  0.10047919715E+04  0.16247721364E+04  0.10100000352E+00 0. -1.
</event>
<event>
 5   0  0.1346049E-07  0.2799834E+04  0.7818609E-02  0.8303320E-01
        1   -1    0    0  501    0  0.00000000000E+00  0.00000000000E+00  0.14425284826E+04  0.14425284826E+04  0.50400001928E-02 0. -1.
       -1   -1    0    0    0  501  0.00000000000E+00  0.00000000000E+00 -0.13585638498E+04  0.13585638498E+04  0.50400001928E-02 0.  1.
    10030    2    1    2    0    0  0.00000000000E+00  0.00000000000E+00  0.83964632828E+02  0.28010923324E+04  0.27998336013E+04 0.  0.
        1    1    3    3  502    0  0.11339174439E+03 -0.62450946572E+03 -0.12063355448E+04  0.13631269960E+04  0.50400001928E-02 0.  1.
       -1    1    3    3    0  502 -0.11339174439E+03  0.62450946572E+03  0.12903001776E+04  0.14379653365E+04  0.50400001928E-02 0. -1.
</event>
<event>
 5   0  0.1374680E-07  0.2800399E+04  0.7818609E-02  0.8303145E-01
        1   -1    0    0  501    0  0.00000000000E+00  0.00000000000E+00  0.16351663513E+04  0.16351663513E+04  0.50400001928E-02 0. -1.
       -1   -1    0    0    0  501  0.00000000000E+00  0.00000000000E+00 -0.11989961084E+04  0.11989961084E+04  0.50400001928E-02 0.  1.
    10030    2    1    2    0    0  0.00000000000E+00  0.00000000000E+00  0.43617024289E+03  0.28341624596E+04  0.28003986086E+04 0.  0.
        3    1    3    3  502    0 -0.10638768241E+04 -0.31619534384E+03  0.10820430399E+04  0.15500421100E+04  0.10100000352E+00 0. -1.
       -3    1    3    3    0  502  0.10638768241E+04  0.31619534384E+03 -0.64587279697E+03  0.12841203497E+04  0.10100000352E+00 0.  1.
</event>
<event>
 5   0  0.1366235E-07  0.2800545E+04  0.7818609E-02  0.8303099E-01
        1   -1    0    0  501    0  0.00000000000E+00  0.00000000000E+00  0.17066633749E+04  0.17066633749E+04  0.50400001928E-02 0. -1.
       -1   -1    0    0    0  501  0.00000000000E+00  0.00000000000E+00 -0.11488867317E+04  0.11488867317E+04  0.50400001928E-02 0.  1.
    10030    2    1    2    0    0  0.00000000000E+00  0.00000000000E+00  0.55777664318E+03  0.28555501066E+04  0.28005448805E+04 0.  0.
        2    1    3    3  502    0  0.40962791342E+03 -0.99232908856E+03  0.11955737668E+04  0.16068318765E+04  0.25500000920E-02 0. -1.
       -2    1    3    3    0  502 -0.40962791342E+03  0.99232908856E+03 -0.63779712358E+03  0.12487182302E+04  0.25500000920E-02 0.  1.
</event>
<event>
 5   0  0.1366235E-07  0.2800249E+04  0.7818609E-02  0.8303191E-01
        1   -1    0    0  501    0  0.00000000000E+00  0.00000000000E+00  0.20652323302E+04  0.20652323302E+04  0.50400001928E-02 0. -1.
       -1   -1    0    0    0  501  0.00000000000E+00  0.00000000000E+00 -0.94921429493E+03  0.94921429494E+03  0.50400001928E-02 0.  1.
    10030    2    1    2    0    0  0.00000000000E+00  0.00000000000E+00  0.11160180353E+04  0.30144466252E+04  0.28002485963E+04 0.  0.
        2    1    3    3  502    0 -0.80162631018E+03 -0.10677361273E+04  0.10424109435E+03  0.13392279061E+04  0.25500000920E-02 0.  1.
       -2    1    3    3    0  502  0.80162631018E+03  0.10677361273E+04  0.10117769409E+04  0.16752187191E+04  0.25500000920E-02 0. -1.
</event>
<event>
 5   0  0.3557628E-07  0.2800347E+04  0.7818609E-02  0.8303161E-01
       -2   -1    0    0    0  501  0.00000000000E+00  0.00000000000E+00  0.98871365313E+03  0.98871365313E+03  0.25500000920E-02 0. -1.
        2   -1    0    0  501    0  0.00000000000E+00  0.00000000000E+00 -0.19828649774E+04  0.19828649774E+04  0.25500000920E-02 0.  1.
    10030    2    1    2    0    0  0.00000000000E+00  0.00000000000E+00 -0.99415132429E+03  0.29715786306E+04  0.28003468896E+04 0.  0.
        5    1    3    3  502    0  0.31170493973E+02  0.13222249828E+04 -0.93947026147E+01  0.13226340594E+04  0.46999998093E+01 0. -1.
       -5    1    3    3    0  502 -0.31170493973E+02 -0.13222249828E+04 -0.98475662167E+03  0.16489445711E+04  0.46999998093E+01 0.  1.
</event>
<event>
 5   0  0.1361741E-07  0.2815146E+04  0.7818609E-02  0.8298582E-01
        1   -1    0    0  501    0  0.00000000000E+00  0.00000000000E+00  0.21029757289E+04  0.21029757290E+04  0.50400001928E-02 0.  1.
       -1   -1    0    0    0  501  0.00000000000E+00  0.00000000000E+00 -0.94212264189E+03  0.94212264190E+03  0.50400001928E-02 0. -1.
    10030    2    1    2    0    0  0.00000000000E+00  0.00000000000E+00  0.11608530871E+04  0.30450983709E+04  0.28151455022E+04 0.  0.
        5    1    3    3  502    0 -0.65203350829E+02 -0.68210323465E+03  0.19103803044E+04  0.20295544578E+04  0.46999998093E+01 0.  1.
       -5    1    3    3    0  502  0.65203350829E+02  0.68210323465E+03 -0.74952721739E+03  0.10155439130E+04  0.46999998093E+01 0. -1.
</event>
<event>
 5   0  0.1374680E-07  0.2802219E+04  0.7818609E-02  0.8302580E-01
       -1   -1    0    0    0  501  0.00000000000E+00  0.00000000000E+00  0.11410499115E+04  0.11410499115E+04  0.50400001928E-02 0. -1.
        1   -1    0    0  501    0  0.00000000000E+00  0.00000000000E+00 -0.17204401324E+04  0.17204401324E+04  0.50400001928E-02 0.  1.
    10030    2    1    2    0    0  0.00000000000E+00  0.00000000000E+00 -0.57939022096E+03  0.28614900439E+04  0.28022191641E+04 0.  0.
        3    1    3    3  502    0  0.12453198733E+03 -0.80239333765E+03 -0.14556715114E+04  0.16668301784E+04  0.10100000352E+00 0.  1.
       -3    1    3    3    0  502 -0.12453198733E+03  0.80239333765E+03  0.87628129047E+03  0.11946598656E+04  0.10100000352E+00 0. -1.
</event>
<event>
 5   0  0.1361741E-07  0.2800001E+04  0.7818609E-02  0.8303268E-01
       -1   -1    0    0    0  501  0.00000000000E+00  0.00000000000E+00  0.97314335657E+03  0.97314335659E+03  0.50400001928E-02 0. -1.
        1   -1    0    0  501    0  0.00000000000E+00  0.00000000000E+00 -0.20140925901E+04  0.20140925901E+04  0.50400001928E-02 0.  1.
    10030    2    1    2    0    0  0.00000000000E+00  0.00000000000E+00 -0.10409492335E+04  0.29872359467E+04  0.28000005883E+04 0.  0.
        5    1    3    3  502    0  0.50013018582E+02  0.13586321551E+04 -0.87687315189E+03  0.16178106346E+04  0.46999998093E+01 0.  1.
       -5    1    3    3    0  502 -0.50013018582E+02 -0.13586321551E+04 -0.16407608163E+03  0.13694253121E+04  0.46999998093E+01 0. -1.
</event>
<event>
 5   0  0.1346049E-07  0.2799967E+04  0.7818609E-02  0.8303279E-01
        1   -1    0    0  501    0  0.00000000000E+00  0.00000000000E+00  0.17546498747E+04  0.17546498748E+04  0.50400001928E-02 0.  1.
       -1   -1    0    0    0  501  0.00000000000E+00  0.00000000000E+00 -0.11170058193E+04  0.11170058193E+04  0.50400001928E-02 0. -1.
    10030    2    1    2    0    0  0.00000000000E+00  0.00000000000E+00  0.63764405549E+03  0.28716556940E+04  0.27999672290E+04 0.  0.
        1    1    3    3  502    0  0.13421383025E+04 -0.14256743565E+03  0.70022158473E+03  0.15205166768E+04  0.50400001928E-02 0.  1.
       -1    1    3    3    0  502 -0.13421383025E+04  0.14256743565E+03 -0.62577529235E+02  0.13511390172E+04  0.50400001928E-02 0. -1.
</event>
<event>
 5   0  0.3571498E-07  0.2799501E+04  0.7818609E-02  0.8303423E-01
        2   -1    0    0  501    0  0.00000000000E+00  0.00000000000E+00  0.14470951585E+04  0.14470951585E+04  0.25500000920E-02 0.  1.
       -2   -1    0    0    0  501  0.00000000000E+00  0.00000000000E+00 -0.13539543895E+04  0.13539543895E+04  0.25500000920E-02 0. -1.
    10030    2    1    2    0    0  0.00000000000E+00  0.00000000000E+00  0.93140768997E+02  0.28010495480E+04  0.27995005568E+04 0.  0.
        2    1    3    3  502    0  0.14927196881E+03 -0.15373413223E+03  0.14305871881E+04  0.14465462339E+04  0.25500000920E-02 0.  1.
       -2    1    3    3    0  502 -0.14927196881E+03  0.15373413223E+03 -0.13374464191E+04  0.13545033141E+04  0.25500000920E-02 0. -1.
</event>
<event>
 5   0  0.3522569E-07  0.2800472E+04  0.7818609E-02  0.8303122E-01
        2   -1    0    0  501    0  0.00000000000E+00  0.00000000000E+00  0.16585608983E+04  0.16585608983E+04  0.25500000920E-02 0.  1.
       -2   -1    0    0    0  501  0.00000000000E+00  0.00000000000E+00 -0.11821462214E+04  0.11821462214E+04  0.25500000920E-02 0. -1.
    10030    2    1    2    0    0  0.00000000000E+00  0.00000000000E+00  0.47641467690E+03  0.28407071198E+04  0.28004724594E+04 0.  0.
        1    1    3    3  502    0  0.72966473713E+03 -0.40366873292E+03  0.13792248870E+04  0.16117134868E+04  0.50400001928E-02 0.  1.
       -1    1    3    3    0  502 -0.72966473713E+03  0.40366873292E+03 -0.90281021006E+03  0.12289936330E+04  0.50400001928E-02 0. -1.
</event>
<event>
 5   0  0.1173363E-07  0.2798882E+04  0.7818609E-02  0.8303615E-01
       -3   -1    0    0    0  501  0.00000000000E+00  0.00000000000E+00  0.12645328156E+04  0.12645328197E+04  0.10100000352E+00 0.  1.
        3   -1    0    0  501    0  0.00000000000E+00  0.00000000000E+00 -0.15487425044E+04  0.15487425077E+04  0.10100000352E+00 0. -1.
    10030    2    1    2    0    0  0.00000000000E+00  0.00000000000E+00 -0.28420968875E+03  0.28132753274E+04  0.27988824413E+04 0.  0.
        2    1    3    3  502    0  0.10986610778E+04 -0.40684822342E+03  0.62724224066E+03  0.13289147713E+04  0.25500000920E-02 0.  1.
       -2    1    3    3    0  502 -0.10986610778E+04  0.40684822342E+03 -0.91145192941E+03  0.14843605561E+04  0.25500000920E-02 0. -1.
</event>
<event>
 5   0  0.1366235E-07  0.2801235E+04  0.7818609E-02  0.8302885E-01
        1   -1    0    0  501    0  0.00000000000E+00  0.00000000000E+00  0.14770353411E+04  0.14770353411E+04  0.50400001928E-02 0. -1.
       -1   -1    0    0    0  501  0.00000000000E+00  0.00000000000E+00 -0.13281530113E+04  0.13281530113E+04  0.50400001928E-02 0.  1.
    10030    2    1    2    0    0  0.00000000000E+00  0.00000000000E+00  0.14888232980E+03  0.28051883524E+04  0.28012346821E+04 0.  0.
        2    1    3    3  502    0 -0.48042058692E+03  0.10988766361E+04 -0.65004045642E+03  0.13641430998E+04  0.25500000920E-02 0.  1.
       -2    1    3    3    0  502  0.48042058692E+03 -0.10988766361E+04  0.79892278622E+03  0.14410452526E+04  0.25500000920E-02 0. -1.
</event>
<event>
 5   0  0.1374680E-07  0.2800602E+04  0.7818609E-02  0.8303081E-01
        1   -1    0    0  501    0  0.00000000000E+00  0.00000000000E+00  0.14867153829E+04  0.14867153829E+04  0.50400001928E-02 0. -1.
       -1   -1    0    0    0  501  0.00000000000E+00  0.00000000000E+00 -0.13189097368E+04  0.13189097368E+04  0.50400001928E-02 0.  1.
    10030    2    1    2    0    0  0.00000000000E+00  0.00000000000E+00  0.16780564605E+03  0.28056251197E+04  0.28006023597E+04 0.  0.
        3    1    3    3  502    0 -0.17144477481E+03 -0.54701275958E+03  0.13637805604E+04  0.14793625982E+04  0.10100000352E+00 0. -1.
       -3    1    3    3    0  502  0.17144477481E+03  0.54701275958E+03 -0.11959749143E+04  0.13262625215E+04  0.10100000352E+00 0.  1.
</event>
<event>
 5   0  0.3571498E-07  0.2797138E+04  0.7818609E-02  0.8304157E-01
        2   -1    0    0  501    0  0.00000000000E+00  0.00000000000E+00  0.19286719667E+04  0.19286719667E+04  0.25500000920E-02 0.  1.
       -2   -1    0    0    0  501  0.00000000000E+00  0.00000000000E+00 -0.10141671533E+04  0.10141671533E+04  0.25500000920E-02 0. -1.
    10030    2    1    2    0    0  0.00000000000E+00  0.00000000000E+00  0.91450481344E+03  0.29428391200E+04  0.27971383649E+04 0.  0.
        2    1    3    3  502    0  0.39562261992E+03 -0.12725379966E+04  0.90377169951E+03  0.16101780942E+04  0.25500000920E-02 0.  1.
       -2    1    3    3    0  502 -0.39562261992E+03  0.12725379966E+04  0.10733113936E+02  0.13326610259E+04  0.25500000920E-02 0. -1.
</event>
<event>
 5   0  0.3522569E-07  0.2800335E+04  0.7818609E-02  0.8303164E-01
        2   -1    0    0  501    0  0.00000000000E+00  0.00000000000E+00  0.28659713633E+04  0.28659713633E+04  0.25500000920E-02 0. -1.
       -2   -1    0    0    0  501  0.00000000000E+00  0.00000000000E+00 -0.68405044447E+03  0.68405044447E+03  0.25500000920E-02 0.  1.
    10030    2    1    2    0    0  0.00000000000E+00  0.00000000000E+00  0.21819209188E+04  0.35500218077E+04  0.28003349692E+04 0.  0.
        1    1    3    3  502    0 -0.11218234142E+04 -0.82065115397E+03  0.87689741351E+03  0.16434430817E+04  0.50400001928E-02 0.  1.
       -1    1    3    3    0  502  0.11218234142E+04  0.82065115397E+03  0.13050235053E+04  0.19065787260E+04  0.50400001928E-02 0. -1.
</event>
<event>
 5   0  0.1346049E-07  0.2800325E+04  0.7818609E-02  0.8303168E-01
        1   -1    0    0  501    0  0.00000000000E+00  0.00000000000E+00  0.18698804744E+04  0.18698804744E+04  0.50400001928E-02 0.  1.
       -1   -1    0    0    0  501  0.00000000000E+00  0.00000000000E+00 -0.10484383885E+04  0.10484383885E+04  0.50400001928E-02 0. -1.
    10030    2    1    2    0    0  0.00000000000E+00  0.00000000000E+00  0.82144208588E+03  0.29183188629E+04  0.28003246035E+04 0.  0.
        1    1    3    3  502    0  0.11325280685E+04  0.82240699345E+03  0.45083153335E+03  0.14704496456E+04  0.50400001928E-02 0.  1.
       -1    1    3    3    0  502 -0.11325280685E+04 -0.82240699345E+03  0.37061055252E+03  0.14478692173E+04  0.50400001928E-02 0. -1.
</event>
<event>
 5   0  0.3571498E-07  0.2801807E+04  0.7818609E-02  0.8302707E-01
        2   -1    0    0  501    0  0.00000000000E+00  0.00000000000E+00  0.15318554134E+04  0.15318554134E+04  0.25500000920E-02 0.  1.
       -2   -1    0    0    0  501  0.00000000000E+00  0.00000000000E+00 -0.12811463847E+04  0.12811463847E+04  0.25500000920E-02 0. -1.
    10030    2    1    2    0    0  0.00000000000E+00  0.00000000000E+00  0.25070902872E+03  0.28130017981E+04  0.28018072916E+04 0.  0.
        2    1    3    3  502    0 -0.42021194812E+03 -0.57185207200E+03 -0.10873365826E+04  0.12984197001E+04  0.25500000920E-02 0. -1.
       -2    1    3    3    0  502  0.42021194812E+03  0.57185207200E+03  0.13380456113E+04  0.15145820980E+04  0.25500000920E-02 0.  1.
</event>
<event>
 5   0  0.1357902E-07  0.2798094E+04  0.7818609E-02  0.8303860E-01
        1   -1    0    0  501    0  0.00000000000E+00  0.00000000000E+00  0.12198313888E+04  0.12198313888E+04  0.50400001928E-02 0.  1.
       -1   -1    0    0    0  501  0.00000000000E+00  0.00000000000E+00 -0.16045927538E+04  0.16045927538E+04  0.50400001928E-02 0. -1.
    10030    2    1    2    0    0  0.00000000000E+00  0.00000000000E+00 -0.38476136497E+03  0.28244241426E+04  0.27980940709E+04 0.  0.
        4    1    3    3  502    0 -0.13803658013E+04  0.22519050107E+03 -0.22750013363E+03  0.14169962706E+04  0.12699999809E+01 0.  1.
       -4    1    3    3    0  502  0.13803658013E+04 -0.22519050107E+03 -0.15726123134E+03  0.14074278720E+04  0.12699999809E+01 0. -1.
</event>
<event>
 5   0  0.1374680E-07  0.2799122E+04  0.7818609E-02  0.8303541E-01
        1   -1    0    0  501    0  0.00000000000E+00  0.00000000000E+00  0.74524779945E+03  0.74524779946E+03  0.50400001928E-02 0.  1.
       -1   -1    0    0    0  501  0.00000000000E+00  0.00000000000E+00 -0.26283476690E+04  0.26283476690E+04  0.50400001928E-02 0. -1.
    10030    2    1    2    0    0  0.00000000000E+00  0.00000000000E+00 -0.18830998695E+04  0.33735954684E+04  0.27991215168E+04 0.  0.
        3    1    3    3  502    0  0.99984076674E+03 -0.22753635319E+03 -0.20895727683E+04  0.23276100866E+04  0.10100000352E+00 0. -1.
       -3    1    3    3    0  502 -0.99984076674E+03  0.22753635319E+03  0.20647289882E+03  0.10459853818E+04  0.10100000352E+00 0.  1.
</event>
<event>
 5   0  0.3557628E-07  0.2801829E+04  0.7818609E-02  0.8302701E-01
        2   -1    0    0  501    0  0.00000000000E+00  0.00000000000E+00  0.21602488241E+04  0.21602488241E+04  0.25500000920E-02 0. -1.
       -2   -1    0    0    0  501  0.00000000000E+00  0.00000000000E+00 -0.90848872238E+03  0.90848872238E+03  0.25500000920E-02 0.  1.
    10030    2    1    2    0    0  0.00000000000E+00  0.00000000000E+00  0.12517601017E+04  0.30687375465E+04  0.28018291841E+04 0.  0.
        5    1    3    3  502    0  0.55441740398E+03  0.44179155157E+03 -0.69752174567E+03  0.99454366850E+03  0.46999998093E+01 0.  1.
       -5    1    3    3    0  502 -0.55441740398E+03 -0.44179155157E+03  0.19492818474E+04  0.20741938780E+04  0.46999998093E+01 0. -1.
</event>
<event>
 5   0  0.3571498E-07  0.2799986E+04  0.7818609E-02  0.8303273E-01
       -2   -1    0    0    0  501  0.00000000000E+00  0.00000000000E+00  0.12865675367E+04  0.12865675367E+04  0.25500000920E-02 0.  1.
        2   -1    0    0  501    0  0.00000000000E+00  0.00000000000E+00 -0.15234186166E+04  0.15234186166E+04  0.25500000920E-02 0. -1.
    10030    2    1    2    0    0  0.00000000000E+00  0.00000000000E+00 -0.23685107993E+03  0.28099861533E+04  0.27999863835E+04 0.  0.
        2    1    3    3  502    0  0.17285360550E+03 -0.12836111246E+04  0.41492807567E+03  0.13600372039E+04  0.25500000920E-02 0.  1.
       -2    1    3    3    0  502 -0.17285360550E+03  0.12836111246E+04 -0.65177915560E+03  0.14499489494E+04  0.25500000920E-02 0. -1.
</event>
<event>
 5   0  0.1173363E-07  0.2799475E+04  0.7818609E-02  0.8303431E-01
        3   -1    0    0  501    0  0.00000000000E+00  0.00000000000E+00  0.11524779770E+04  0.11524779815E+04  0.10100000352E+00 0. -1.
       -3   -1    0    0    0  501  0.00000000000E+00  0.00000000000E+00 -0.17000454899E+04  0.17000454929E+04  0.10100000352E+00 0.  1.
    10030    2    1    2    0    0  0.00000000000E+00  0.00000000000E+00 -0.54756751287E+03  0.28525234744E+04  0.27994749491E+04 0.  0.
        5    1    3    3  502    0  0.46931826133E+03  0.55498804117E+02  0.10687196252E+04  0.11685561497E+04  0.46999998093E+01 0. -1.
       -5    1    3    3    0  502 -0.46931826133E+03 -0.55498804117E+02 -0.16162871381E+04  0.16839673246E+04  0.46999998093E+01 0.  1.
</event>
<event>
 5   0  0.1361741E-07  0.2802458E+04  0.7818609E-02  0.8302506E-01
        1   -1    0    0  501    0  0.00000000000E+00  0.00000000000E+00  0.14117758848E+04  0.14117758848E+04  0.50400001928E-02 0. -1.
       -1   -1    0    0    0  501  0.00000000000E+00  0.00000000000E+00 -0.13907605659E+04  0.13907605659E+04  0.50400001928E-02 0.  1.
    10030    2    1    2    0    0  0.00000000000E+00  0.00000000000E+00  0.21015318966E+02  0.28025364507E+04  0.28024576561E+04 0.  0.
        5    1    3    3  502    0 -0.10239595068E+04  0.68522623664E+03  0.67790343219E+03  0.14062728115E+04  0.46999998093E+01 0. -1.
       -5    1    3    3    0  502  0.10239595068E+04 -0.68522623664E+03 -0.65688811323E+03  0.13962636392E+04  0.46999998093E+01 0.  1.
</event>
<event>
 5   0  0.1366235E-07  0.2790030E+04  0.7818609E-02  0.8306370E-01
       -1   -1    0    0    0  501  0.00000000000E+00  0.00000000000E+00  0.16970527400E+04  0.16970527400E+04  0.50400001928E-02 0.  1.
        1   -1    0    0  501    0  0.00000000000E+00  0.00000000000E+00 -0.11467335394E+04  0.11467335395E+04  0.50400001928E-02 0. -1.
    10030    2    1    2    0    0  0.00000000000E+00  0.00000000000E+00  0.55031920054E+03  0.28437862795E+04  0.27900303190E+04 0.  0.
        2    1    3    3  502    0 -0.24473455551E+03  0.12670932717E+04  0.81512779818E+03  0.15263858258E+04  0.25500000920E-02 0.  1.
       -2    1    3    3    0  502  0.24473455551E+03 -0.12670932717E+04 -0.26480859765E+03  0.13174004536E+04  0.25500000920E-02 0. -1.
</event>
<event>
 5   0  0.1346049E-07  0.2814581E+04  0.7818609E-02  0.8298756E-01
        1   -1    0    0  501    0  0.00000000000E+00  0.00000000000E+00  0.67659996358E+03  0.67659996360E+03  0.50400001928E-02 0. -1.
       -1   -1    0    0    0  501  0.00000000000E+00  0.00000000000E+00 -0.29270859519E+04  0.29270859519E+04  0.50400001928E-02 0.  1.
    10030    2    1    2    0    0  0.00000000000E+00  0.00000000000E+00 -0.22504859883E+04  0.36036859155E+04  0.28145807848E+04 0.  0.
        1    1    3    3  502    0  0.12289537509E+04  0.17604652129E+03 -0.27677014205E+03  0.12719753972E+04  0.50400001928E-02 0. -1.
       -1    1    3    3    0  502 -0.12289537509E+04 -0.17604652129E+03 -0.19737158462E+04  0.23317105183E+04  0.50400001928E-02 0.  1.
</event>
<event>
 5   0  0.3571498E-07  0.2798812E+04  0.7818609E-02  0.8303637E-01
       -2   -1    0    0    0  501  0.00000000000E+00  0.00000000000E+00  0.84314719522E+03  0.84314719522E+03  0.25500000920E-02 0.  1.
        2   -1    0    0  501    0  0.00000000000E+00  0.00000000000E+00 -0.23226514854E+04  0.23226514854E+04  0.25500000920E-02 0. -1.
    10030    2    1    2    0    0  0.00000000000E+00  0.00000000000E+00 -0.14795042902E+04  0.31657986806E+04  0.27988119518E+04 0.  0.
        2    1    3    3  502    0  0.10402344055E+04  0.90184143694E+03 -0.45599710776E+03  0.14502892670E+04  0.25500000920E-02 0. -1.
       -2    1    3    3    0  502 -0.10402344055E+04 -0.90184143694E+03 -0.10235071824E+04  0.17155094136E+04  0.25500000920E-02 0.  1.
</event>
<event>
 5   0  0.1346049E-07  0.2803075E+04  0.7818609E-02  0.8302314E-01
       -1   -1    0    0    0  501  0.00000000000E+00  0.00000000000E+00  0.12441962914E+04  0.12441962915E+04  0.50400001928E-02 0.  1.
        1   -1    0    0  501    0  0.00000000000E+00  0.00000000000E+00 -0.15787765980E+04  0.15787765980E+04  0.50400001928E-02 0. -1.
    10030    2    1    2    0    0  0.00000000000E+00  0.00000000000E+00 -0.33458030652E+03  0.28229728894E+04  0.28030754455E+04 0.  0.
        1    1    3    3  502    0 -0.34278359645E+03  0.13239048399E+03 -0.15293996839E+04  0.15729244188E+04  0.50400001928E-02 0. -1.
       -1    1    3    3    0  502  0.34278359645E+03 -0.13239048399E+03  0.11948193774E+04  0.12500484706E+04  0.50400001928E-02 0.  1.
</event>
<event>
 5   0  0.3557628E-07  0.2799819E+04  0.7818609E-02  0.8303325E-01
        2   -1    0    0  501    0  0.00000000000E+00  0.00000000000E+00  0.12156329403E+04  0.12156329403E+04  0.25500000920E-02 0. -1.
       -2   -1    0    0    0  501  0.00000000000E+00  0.00000000000E+00 -0.16121202647E+04  0.16121202647E+04  0.25500000920E-02 0.  1.
    10030    2    1    2    0    0  0.00000000000E+00  0.00000000000E+00 -0.39648732433E+03  0.28277532050E+04  0.27998189209E+04 0.  0.
        5    1    3    3  502    0  0.14163472701E+03 -0.13925746425E+04 -0.21844008873E+03  0.14167084009E+04  0.46999998093E+01 0. -1.
       -5    1    3    3    0  502 -0.14163472701E+03  0.13925746425E+04 -0.17804723560E+03  0.14110448041E+04  0.46999998093E+01 0.  1.
</event>
<event>
 5   0  0.1374680E-07  0.2801375E+04  0.7818609E-02  0.8302842E-01
       -1   -1    0    0    0  501  0.00000000000E+00  0.00000000000E+00  0.99540468044E+03  0.99540468045E+03  0.50400001928E-02 0. -1.
        1   -1    0    0  501    0  0.00000000000E+00  0.00000000000E+00 -0.19709826676E+04  0.19709826676E+04  0.50400001928E-02 0.  1.
    10030    2    1    2    0    0  0.00000000000E+00  0.00000000000E+00 -0.97557798713E+03  0.29663873480E+04  0.28013749284E+04 0.  0.
        3    1    3    3  502    0 -0.10389012240E+04 -0.16219507562E+03  0.49208491736E+03  0.11609352143E+04  0.10100000352E+00 0. -1.
       -3    1    3    3    0  502  0.10389012240E+04  0.16219507562E+03 -0.14676629045E+04  0.18054521337E+04  0.10100000352E+00 0.  1.
</event>
<event>
 5   0  0.1173363E-07  0.2798551E+04  0.7818609E-02  0.8303718E-01
        3   -1    0    0  501    0  0.00000000000E+00  0.00000000000E+00  0.20628296314E+04  0.20628296339E+04  0.10100000352E+00 0.  1.
       -3   -1    0    0    0  501  0.00000000000E+00  0.00000000000E+00 -0.94916800827E+03  0.94916801364E+03  0.10100000352E+00 0. -1.
    10030    2    1    2    0    0  0.00000000000E+00  0.00000000000E+00  0.11136616232E+04  0.30119976476E+04  0.27985509854E+04 0.  0.
        3    1    3    3  502    0  0.63443105572E+03 -0.11806779134E+04  0.98931049096E+03  0.16659046664E+04  0.10100000352E+00 0.  1.
       -3    1    3    3    0  502 -0.63443105572E+03  0.11806779134E+04  0.12435113222E+03  0.13460929812E+04  0.10100000352E+00 0. -1.
</event>
<event>
 5   0  0.1361741E-07  0.2799781E+04  0.7818609E-02  0.8303336E-01
       -1   -1    0    0    0  501  0.00000000000E+00  0.00000000000E+00  0.13581706621E+04  0.13581706621E+04  0.50400001928E-02 0. -1.
        1   -1    0    0  501    0  0.00000000000E+00  0.00000000000E+00 -0.14428923814E+04  0.14428923814E+04  0.50400001928E-02 0.  1.
    10030    2    1    2    0    0  0.00000000000E+00  0.00000000000E+00 -0.84721719268E+02  0.28010630435E+04  0.27997814922E+04 0.  0.
        5    1    3    3  502    0 -0.12325783880E+04 -0.66351211710E+03 -0.29156376422E+02  0.14001321353E+04  0.46999998093E+01 0.  1.
       -5    1    3    3    0  502  0.12325783880E+04  0.66351211710E+03 -0.55565342846E+02  0.14009309082E+04  0.46999998093E+01 0. -1.
</event>
<event>
 5   0  0.3571498E-07  0.2807034E+04  0.7818609E-02  0.8301088E-01
       -2   -1    0    0    0  501  0.00000000000E+00  0.00000000000E+00  0.16510924736E+04  0.16510924736E+04  0.25500000920E-02 0. -1.
        2   -1    0    0  501    0  0.00000000000E+00  0.00000000000E+00 -0.11930644919E+04  0.11930644919E+04  0.25500000920E-02 0.  1.
    10030    2    1    2    0    0  0.00000000000E+00  0.00000000000E+00  0.45802798163E+03  0.28441569655E+04  0.28070338816E+04 0.  0.
        2    1    3    3  502    0  0.24511195708E+03 -0.46452706700E+03 -0.10897342968E+04  0.12097049662E+04  0.25500000920E-02 0.  1.
       -2    1    3    3    0  502 -0.24511195708E+03  0.46452706700E+03  0.15477622785E+04  0.16344519993E+04  0.25500000920E-02 0. -1.
</event>
<event>
 5   0  0.1173363E-07  0.2800134E+04  0.7818609E-02  0.8303227E-01
        3   -1    0    0  501    0  0.00000000000E+00  0.00000000000E+00  0.90274570842E+03  0.90274571407E+03  0.10100000352E+00 0. -1.
       -3   -1    0    0    0  501  0.00000000000E+00  0.00000000000E+00 -0.21713612284E+04  0.21713612307E+04  0.10100000352E+00 0.  1.
    10030    2    1    2    0    0  0.00000000000E+00  0.00000000000E+00 -0.12686155200E+04  0.30741069448E+04  0.28001335987E+04 0.  0.
        3    1    3    3  502    0  0.45603312757E+03  0.87829549648E+03 -0.17215702306E+04  0.19857424963E+04  0.10100000352E+00 0.  1.
       -3    1    3    3    0  502 -0.45603312757E+03 -0.87829549648E+03  0.45295471067E+03  0.10883644485E+04  0.10100000352E+00 0. -1.
</event>
<event>
 5   0  0.1346049E-07  0.2795935E+04  0.7818609E-02  0.8304532E-01
        1   -1    0    0  501    0  0.00000000000E+00  0.00000000000E+00  0.16511046139E+04  0.16511046139E+04  0.50400001928E-02 0.  1.
       -1   -1    0    0    0  501  0.00000000000E+00  0.00000000000E+00 -0.11836397181E+04  0.11836397181E+04  0.50400001928E-02 0. -1.
    10030    2    1    2    0    0  0.00000000000E+00  0.00000000000E+00  0.46746489585E+03  0.28347443320E+04  0.27959349061E+04 0.  0.
        1    1    3    3  502    0  0.47095165613E+03  0.66595244349E+03 -0.91737930873E+03  0.12275475207E+04  0.50400001928E-02 0. -1.
       -1    1    3    3    0  502 -0.47095165613E+03 -0.66595244349E+03  0.13848442046E+04  0.16071968113E+04  0.50400001928E-02 0.  1.
</event>
<event>
 5   0  0.3571498E-07  0.2800257E+04  0.7818609E-02  0.8303188E-01
        2   -1    0    0  501    0  0.00000000000E+00  0.00000000000E+00  0.19506427524E+04  0.19506427524E+04  0.25500000920E-02 0.  1.
       -2   -1    0    0    0  501  0.00000000000E+00  0.00000000000E+00 -0.10049816817E+04  0.10049816817E+04  0.25500000920E-02 0. -1.
    10030    2    1    2    0    0  0.00000000000E+00  0.00000000000E+00  0.94566107066E+03  0.29556244342E+04  0.28002572980E+04 0.  0.
        2    1    3    3  502    0  0.15325207405E+03  0.54450239933E+03  0.18246696933E+04  0.19103372871E+04  0.25500000920E-02 0.  1.
       -2    1    3    3    0  502 -0.15325207405E+03 -0.54450239933E+03 -0.87900862261E+03  0.10452871470E+04  0.25500000920E-02 0. -1.
</event>
<event>
 5   0  0.1366235E-07  0.2800487E+04  0.7818609E-02  0.8303117E-01
        1   -1    0    0  501    0  0.00000000000E+00  0.00000000000E+00  0.17180308796E+04  0.17180308796E+04  0.50400001928E-02 0. -1.
       -1   -1    0    0    0  501  0.00000000000E+00  0.00000000000E+00 -0.11412378841E+04  0.11412378841E+04  0.50400001928E-02 0.  1.
    10030    2    1    2    0    0  0.00000000000E+00  0.00000000000E+00  0.57679299553E+03  0.28592687637E+04  0.28004870476E+04 0.  0.
        2    1    3    3  502    0 -0.58049171378E+03  0.12731712117E+04  0.34190222716E+03  0.14404279562E+04  0.25500000920E-02 0. -1.
       -2    1    3    3    0  502  0.58049171378E+03 -0.12731712117E+04  0.23489076836E+03  0.14188408075E+04  0.25500000920E-02 0.  1.
</event>
<event>
 5   0  0.1366235E-07  0.2800190E+04  0.7818609E-02  0.8303209E-01
        1   -1    0    0  501    0  0.00000000000E+00  0.00000000000E+00  0.18249049417E+04  0.18249049417E+04  0.50400001928E-02 0. -1.
       -1   -1    0    0    0  501  0.00000000000E+00  0.00000000000E+00 -0.10741745038E+04  0.10741745038E+04  0.50400001928E-02 0.  1.
    10030    2    1    2    0    0  0.00000000000E+00  0.00000000000E+00  0.75073043788E+03  0.28990794456E+04  0.28001902509E+04 0.  0.
        2    1    3    3  502    0 -0.31417769730E+03  0.20596126243E+03  0.17717512103E+04  0.18111405297E+04  0.25500000920E-02 0. -1.
       -2    1    3    3    0  502  0.31417769730E+03 -0.20596126243E+03 -0.10210207724E+04  0.10879389159E+04  0.25500000920E-02 0.  1.
</event>
<event>
 5   0  0.1357902E-07  0.2798099E+04  0.7818609E-02  0.8303859E-01
        1   -1    0    0  501    0  0.00000000000E+00  0.00000000000E+00  0.17227692886E+04  0.17227692886E+04  0.50400001928E-02 0.  1.
       -1   -1    0    0    0  501  0.00000000000E+00  0.00000000000E+00 -0.11361587116E+04  0.11361587116E+04  0.50400001928E-02 0. -1.
    10030    2    1    2    0    0  0.00000000000E+00  0.00000000000E+00  0.58661057705E+03  0.28589280002E+04  0.27980988798E+04 0.  0.
        4    1    3    3  502    0 -0.12826485682E+04  0.50846236073E+03  0.56719317294E+02  0.13809199888E+04  0.12699999809E+01 0. -1.
       -4    1    3    3    0  502  0.12826485682E+04 -0.50846236073E+03  0.52989125975E+03  0.14780080114E+04  0.12699999809E+01 0.  1.
</event>
<event>
 5   0  0.1357902E-07  0.2798991E+04  0.7818609E-02  0.8303582E-01
       -1   -1    0    0    0  501  0.00000000000E+00  0.00000000000E+00  0.14943954266E+04  0.14943954266E+04  0.50400001928E-02 0.  1.
        1   -1    0    0  501    0  0.00000000000E+00  0.00000000000E+00 -0.13106222547E+04  0.13106222548E+04  0.50400001928E-02 0. -1.
    10030    2    1    2    0    0  0.00000000000E+00  0.00000000000E+00  0.18377317183E+03  0.28050176813E+04  0.27989911779E+04 0.  0.
        4    1    3    3  502    0  0.11431588928E+03  0.12701609719E+04 -0.48573039109E+03  0.13646657623E+04  0.12699999809E+01 0.  1.
       -4    1    3    3    0  502 -0.11431588928E+03 -0.12701609719E+04  0.66950356292E+03  0.14403519191E+04  0.12699999809E+01 0. -1.
</event>
<event>
 5   0  0.1361741E-07  0.2800716E+04  0.7818609E-02  0.8303046E-01
        1   -1    0    0  501    0  0.00000000000E+00  0.00000000000E+00  0.16775063272E+04  0.16775063272E+04  0.50400001928E-02 0. -1.
       -1   -1    0    0    0  501  0.00000000000E+00  0.00000000000E+00 -0.11689983351E+04  0.11689983351E+04  0.50400001928E-02 0.  1.
    10030    2    1    2    0    0  0.00000000000E+00  0.00000000000E+00  0.50850799217E+03  0.28465046623E+04  0.28007156968E+04 0.  0.
        5    1    3    3  502    0  0.58283016907E+03 -0.12625207277E+04  0.86232044212E+02  0.13932363939E+04  0.46999998093E+01 0.  1.
       -5    1    3    3    0  502 -0.58283016907E+03  0.12625207277E+04  0.42227594795E+03  0.14532682684E+04  0.46999998093E+01 0. -1.
</event>
<event>
 5   0  0.1374680E-07  0.2800179E+04  0.7818609E-02  0.8303213E-01
        1   -1    0    0  501    0  0.00000000000E+00  0.00000000000E+00  0.12255916782E+04  0.12255916783E+04  0.50400001928E-02 0.  1.
       -1   -1    0    0    0  501  0.00000000000E+00  0.00000000000E+00 -0.15994319579E+04  0.15994319579E+04  0.50400001928E-02 0. -1.
    10030    2    1    2    0    0  0.00000000000E+00  0.00000000000E+00 -0.37384027960E+03  0.28250236361E+04  0.28001789211E+04 0.  0.
        3    1    3    3  502    0  0.41668492965E+03  0.11000652026E+04 -0.95292000344E+03  0.15138779091E+04  0.10100000352E+00 0. -1.
       -3    1    3    3    0  502 -0.41668492965E+03 -0.11000652026E+04  0.57907972384E+03  0.13111457270E+04  0.10100000352E+00 0.  1.
</event>
<event>
 5   0  0.3557628E-07  0.2808110E+04  0.7818609E-02  0.8300755E-01
        2   -1    0    0  501    0  0.00000000000E+00  0.00000000000E+00  0.14157322123E+04  0.14157322123E+04  0.25500000920E-02 0. -1.
       -2   -1    0    0    0  501  0.00000000000E+00  0.00000000000E+00 -0.13924738627E+04  0.13924738627E+04  0.25500000920E-02 0.  1.
    10030    2    1    2    0    0  0.00000000000E+00  0.00000000000E+00  0.23258349567E+02  0.28082060750E+04  0.28081097572E+04 0.  0.
        5    1    3    3  502    0  0.12042442850E+04  0.60514855843E+03  0.40526551129E+03  0.14073632439E+04  0.46999998093E+01 0. -1.
       -5    1    3    3    0  502 -0.12042442850E+04 -0.60514855843E+03 -0.38200716173E+03  0.14008428311E+04  0.46999998093E+01 0.  1.
</event>
<event>
 5   0  0.1361741E-07  0.2800594E+04  0.7818609E-02  0.8303084E-01
        1   -1    0    0  501    0  0.00000000000E+00  0.00000000000E+00  0.13880292068E+04  0.13880292068E+04  0.50400001928E-02 0.  1.
       -1   -1    0    0    0  501  0.00000000000E+00  0.00000000000E+00 -0.14126728436E+04  0.14126728437E+04  0.50400001928E-02 0. -1.
    10030    2    1    2    0    0  0.00000000000E+00  0.00000000000E+00 -0.24643636823E+02  0.28007020505E+04  0.28005936276E+04 0.  0.
        5    1    3    3  502    0  0.70721723383E+03 -0.78337900381E+03 -0.93266728518E+03  0.14084492303E+04  0.46999998093E+01 0. -1.
       -5    1    3    3    0  502 -0.70721723383E+03  0.78337900381E+03  0.90802364836E+03  0.13922528202E+04  0.46999998093E+01 0.  1.
</event>
<event>
 5   0  0.3522569E-07  0.2799331E+04  0.7818609E-02  0.8303476E-01
       -2   -1    0    0    0  501  0.00000000000E+00  0.00000000000E+00  0.16561584314E+04  0.16561584314E+04  0.25500000920E-02 0.  1.
        2   -1    0    0  501    0  0.00000000000E+00  0.00000000000E+00 -0.11828960032E+04  0.11828960032E+04  0.25500000920E-02 0. -1.
    10030    2    1    2    0    0  0.00000000000E+00  0.00000000000E+00  0.47326242825E+03  0.28390544346E+04  0.27993307694E+04 0.  0.
        1    1    3    3  502    0  0.61932553887E+03  0.55186849601E+03  0.13799887672E+04  0.16101217213E+04  0.50400001928E-02 0.  1.
       -1    1    3    3    0  502 -0.61932553887E+03 -0.55186849601E+03 -0.90672633892E+03  0.12289327133E+04  0.50400001928E-02 0. -1.
</event>
<event>
 5   0  0.1374680E-07  0.2801634E+04  0.7818609E-02  0.8302761E-01
       -1   -1    0    0    0  501  0.00000000000E+00  0.00000000000E+00  0.12832565922E+04  0.12832565922E+04  0.50400001928E-02 0. -1.
        1   -1    0    0  501    0  0.00000000000E+00  0.00000000000E+00 -0.15291468711E+04  0.15291468711E+04  0.50400001928E-02 0.  1.
    10030    2    1    2    0    0  0.00000000000E+00  0.00000000000E+00 -0.24589027890E+03  0.28124034633E+04  0.28016336682E+04 0.  0.
        3    1    3    3  502    0 -0.56473023838E+03 -0.14007426508E+03 -0.14021067694E+04  0.15180396717E+04  0.10100000352E+00 0.  1.
       -3    1    3    3    0  502  0.56473023838E+03  0.14007426508E+03  0.11562164905E+04  0.12943637916E+04  0.10100000352E+00 0. -1.
</event>
<event>
 5   0  0.1357902E-07  0.2797460E+04  0.7818609E-02  0.8304057E-01
        1   -1    0    0  501    0  0.00000000000E+00  0.00000000000E+00  0.19881618263E+04  0.19881618263E+04  0.50400001928E-02 0. -1.
       -1   -1    0    0    0  501  0.00000000000E+00  0.00000000000E+00 -0.98404747583E+03  0.98404747584E+03  0.50400001928E-02 0.  1.
    10030    2    1    2    0    0  0.00000000000E+00  0.00000000000E+00  0.10041143505E+04  0.29722093022E+04  0.27974600099E+04 0.  0.
        4    1    3    3  502    0  0.40471640448E+03 -0.39320064124E+03  0.18618664706E+04  0.19454949189E+04  0.12699999809E+01 0. -1.
       -4    1    3    3    0  502 -0.40471640448E+03  0.39320064124E+03 -0.85775212010E+03  0.10267143832E+04  0.12699999809E+01 0.  1.
</event>
<event>
 5   0  0.3522569E-07  0.2799123E+04  0.7818609E-02  0.8303541E-01
        2   -1    0    0  501    0  0.00000000000E+00  0.00000000000E+00  0.68400272297E+03  0.68400272297E+03  0.25500000920E-02 0. -1.
       -2   -1    0    0    0  501  0.00000000000E+00  0.00000000000E+00 -0.28636906172E+04  0.28636906172E+04  0.25500000920E-02 0.  1.
    10030    2    1    2    0    0  0.00000000000E+00  0.00000000000E+00 -0.21796878943E+04  0.35476933402E+04  0.27991228483E+04 0.  0.
        1    1    3    3  502    0  0.49426124861E+02  0.24875028792E+03  0.65463598344E+03  0.70204552445E+03  0.50400001928E-02 0. -1.
       -1    1    3    3    0  502 -0.49426124861E+02 -0.24875028792E+03 -0.28343238777E+04  0.28456478157E+04  0.50400001928E-02 0.  1.
</event>
<event>
 5   0  0.3502141E-07  0.2800019E+04  0.7818609E-02  0.8303262E-01
       -2   -1    0    0    0  501  0.00000000000E+00  0.00000000000E+00  0.92964325796E+03  0.92964325796E+03  0.25500000920E-02 0. -1.
        2   -1    0    0  501    0  0.00000000000E+00  0.00000000000E+00 -0.21083641768E+04  0.21083641768E+04  0.25500000920E-02 0.  1.
    10030    2    1    2    0    0  0.00000000000E+00  0.00000000000E+00 -0.11787209188E+04  0.30380074348E+04  0.28000189587E+04 0.  0.
        3    1    3    3  502    0  0.85277781563E+01 -0.48281124197E+03 -0.20151479661E+04  0.20721970838E+04  0.10100000352E+00 0.  1.
       -3    1    3    3    0  502 -0.85277781563E+01  0.48281124197E+03  0.83642704731E+03  0.96581035098E+03  0.10100000352E+00 0. -1.
</event>
<event>
 5   0  0.3522569E-07  0.2800557E+04  0.7818609E-02  0.8303096E-01
        2   -1    0    0  501    0  0.00000000000E+00  0.00000000000E+00  0.13747504635E+04  0.13747504635E+04  0.25500000920E-02 0. -1.
       -2   -1    0    0    0  501  0.00000000000E+00  0.00000000000E+00 -0.14262802482E+04  0.14262802482E+04  0.25500000920E-02 0.  1.
    10030    2    1    2    0    0  0.00000000000E+00  0.00000000000E+00 -0.51529784703E+02  0.28010307117E+04  0.28005566821E+04 0.  0.
        1    1    3    3  502    0 -0.27116377327E+03 -0.13579597177E+04 -0.23363424863E+03  0.14043394707E+04  0.50400001928E-02 0. -1.
       -1    1    3    3    0  502  0.27116377327E+03  0.13579597177E+04  0.18210446393E+03  0.13966912410E+04  0.50400001928E-02 0.  1.
</event>
<event>
 5   0  0.3502141E-07  0.2800126E+04  0.7818609E-02  0.8303229E-01
       -2   -1    0    0    0  501  0.00000000000E+00  0.00000000000E+00  0.11325866495E+04  0.11325866495E+04  0.25500000920E-02 0.  1.
        2   -1    0    0  501    0  0.00000000000E+00  0.00000000000E+00 -0.17307079459E+04  0.17307079459E+04  0.25500000920E-02 0. -1.
    10030    2    1    2    0    0  0.00000000000E+00  0.00000000000E+00 -0.59812129639E+03  0.28632945955E+04  0.28001262213E+04 0.  0.
        3    1    3    3  502    0  0.11238756742E+03  0.11624752606E+04  0.49049604733E+03  0.12667146795E+04  0.10100000352E+00 0.  1.
       -3    1    3    3    0  502 -0.11238756742E+03 -0.11624752606E+04 -0.10886173437E+04  0.15965799159E+04  0.10100000352E+00 0. -1.
</event>
<event>
 5   0  0.3571498E-07  0.2799963E+04  0.7818609E-02  0.8303280E-01
       -2   -1    0    0    0  501  0.00000000000E+00  0.00000000000E+00  0.13010297389E+04  0.13010297389E+04  0.25500000920E-02 0. -1.
        2   -1    0    0  501    0  0.00000000000E+00  0.00000000000E+00 -0.15064593292E+04  0.15064593293E+04  0.25500000920E-02 0.  1.
    10030    2    1    2    0    0  0.00000000000E+00  0.00000000000E+00 -0.20542959036E+03  0.28074890681E+04  0.27999631339E+04 0.  0.
        2    1    3    3  502    0 -0.44688363667E+03  0.10816517950E+04 -0.87307199406E+03  0.14601131111E+04  0.25500000920E-02 0.  1.
       -2    1    3    3    0  502  0.44688363667E+03 -0.10816517950E+04  0.66764240370E+03  0.13473759570E+04  0.25500000920E-02 0. -1.
</event>
<event>
 5   0  0.3522569E-07  0.2800536E+04  0.7818609E-02  0.8303102E-01
        2   -1    0    0  501    0  0.00000000000E+00  0.00000000000E+00  0.12649068765E+04  0.12649068765E+04  0.25500000920E-02 0. -1.
       -2   -1    0    0    0  501  0.00000000000E+00  0.00000000000E+00 -0.15501144476E+04  0.15501144476E+04  0.25500000920E-02 0.  1.
    10030    2    1    2    0    0  0.00000000000E+00  0.00000000000E+00 -0.28520757114E+03  0.28150213241E+04  0.28005359659E+04 0.  0.
        1    1    3    3  502    0  0.11616922675E+04  0.77664829340E+03 -0.23272760874E+03  0.14166416752E+04  0.50400001928E-02 0.  1.
       -1    1    3    3    0  502 -0.11616922675E+04 -0.77664829340E+03 -0.52479962397E+02  0.13983796489E+04  0.50400001928E-02 0. -1.
</event>
<event>
 5   0  0.1361741E-07  0.2801449E+04  0.7818609E-02  0.8302819E-01
        1   -1    0    0  501    0  0.00000000000E+00  0.00000000000E+00  0.24426995666E+04  0.24426995666E+04  0.50400001928E-02 0.  1.
       -1   -1    0    0    0  501  0.00000000000E+00  0.00000000000E+00 -0.80322141844E+03  0.80322141846E+03  0.50400001928E-02 0. -1.
    10030    2    1    2    0    0  0.00000000000E+00  0.00000000000E+00  0.16394781482E+04  0.32459209851E+04  0.28014486330E+04 0.  0.
        5    1    3    3  502    0 -0.18932708261E+03 -0.10601258864E+04 -0.21808153510E+03  0.10987689862E+04  0.46999998093E+01 0. -1.
       -5    1    3    3    0  502  0.18932708261E+03  0.10601258864E+04  0.18575596833E+04  0.21471519989E+04  0.46999998093E+01 0.  1.
</event>
<event>
 5   0  0.1361741E-07  0.2801009E+04  0.7818609E-02  0.8302955E-01
        1   -1    0    0  501    0  0.00000000000E+00  0.00000000000E+00  0.16156296361E+04  0.16156296361E+04  0.50400001928E-02 0. -1.
       -1   -1    0    0    0  501  0.00000000000E+00  0.00000000000E+00 -0.12140238423E+04  0.12140238424E+04  0.50400001928E-02 0.  1.
    10030    2    1    2    0    0  0.00000000000E+00  0.00000000000E+00  0.40160579374E+03  0.28296534784E+04  0.28010090315E+04 0.  0.
        5    1    3    3  502    0 -0.13392693108E+04 -0.25348983332E+03 -0.12418780160E+03  0.13687016047E+04  0.46999998093E+01 0.  1.
       -5    1    3    3    0  502  0.13392693108E+04  0.25348983332E+03  0.52579359534E+03  0.14609518738E+04  0.46999998093E+01 0. -1.
</event>
<event>
 5   0  0.3571498E-07  0.2802513E+04  0.7818609E-02  0.8302489E-01
        2   -1    0    0  501    0  0.00000000000E+00  0.00000000000E+00  0.13721642142E+04  0.13721642142E+04  0.25500000920E-02 0.  1.
       -2   -1    0    0    0  501  0.00000000000E+00  0.00000000000E+00 -0.14309653387E+04  0.14309653388E+04  0.25500000920E-02 0. -1.
    10030    2    1    2    0    0  0.00000000000E+00  0.00000000000E+00 -0.58801124559E+02  0.28031295529E+04  0.28025127508E+04 0.  0.
        2    1    3    3  502    0  0.41995107446E+03 -0.63080958342E+03  0.11495190169E+04  0.13768346326E+04  0.25500000920E-02 0.  1.
       -2    1    3    3    0  502 -0.41995107446E+03  0.63080958342E+03 -0.12083201414E+04  0.14262949203E+04  0.25500000920E-02 0. -1.
</event>
<event>
 5   0  0.1374680E-07  0.2798368E+04  0.7818609E-02  0.8303775E-01
       -1   -1    0    0    0  501  0.00000000000E+00  0.00000000000E+00  0.70491263502E+03  0.70491263504E+03  0.50400001928E-02 0. -1.
        1   -1    0    0  501    0  0.00000000000E+00  0.00000000000E+00 -0.27772458135E+04  0.27772458135E+04  0.50400001928E-02 0.  1.
    10030    2    1    2    0    0  0.00000000000E+00  0.00000000000E+00 -0.20723331785E+04  0.34821584486E+04  0.27983678561E+04 0.  0.
        3    1    3    3  502    0  0.10266362534E+03 -0.12150642614E+04 -0.18899731671E+04  0.22492042064E+04  0.10100000352E+00 0.  1.
       -3    1    3    3    0  502 -0.10266362534E+03  0.12150642614E+04 -0.18236001138E+03  0.12329542422E+04  0.10100000352E+00 0. -1.
</event>
<event>
 5   0  0.1361741E-07  0.2799977E+04  0.7818609E-02  0.8303275E-01
       -1   -1    0    0    0  501  0.00000000000E+00  0.00000000000E+00  0.84020381308E+03  0.84020381309E+03  0.50400001928E-02 0. -1.
        1   -1    0    0  501    0  0.00000000000E+00  0.00000000000E+00 -0.23327294238E+04  0.23327294239E+04  0.50400001928E-02 0.  1.
    10030    2    1    2    0    0  0.00000000000E+00  0.00000000000E+00 -0.14925256108E+04  0.31729332369E+04  0.27999772548E+04 0.  0.
        5    1    3    3  502    0  0.23454682328E+03  0.12656822300E+04 -0.13700193185E+04  0.18798773212E+04  0.46999998093E+01 0. -1.
       -5    1    3    3    0  502 -0.23454682328E+03 -0.12656822300E+04 -0.12250629229E+03  0.12930559158E+04  0.46999998093E+01 0.  1.
</event>
<event>
 5   0  0.3557628E-07  0.2802049E+04  0.7818609E-02  0.8302633E-01
        2   -1    0    0  501    0  0.00000000000E+00  0.00000000000E+00  0.16145567683E+04  0.16145567683E+04  0.25500000920E-02 0.  1.
       -2   -1    0    0    0  501  0.00000000000E+00  0.00000000000E+00 -0.12157324172E+04  0.12157324172E+04  0.25500000920E-02 0. -1.
    10030    2    1    2    0    0  0.00000000000E+00  0.00000000000E+00  0.39882435104E+03  0.28302891855E+04  0.28020485383E+04 0.  0.
        5    1    3    3  502    0 -0.10854649253E+04  0.32718111783E+03  0.10308518496E+04  0.15323051961E+04  0.46999998093E+01 0.  1.
       -5    1    3    3    0  502  0.10854649253E+04 -0.32718111783E+03 -0.63202749860E+03  0.12979839895E+04  0.46999998093E+01 0. -1.
</event>
<event>
 5   0  0.3502141E-07  0.2799883E+04  0.7818609E-02  0.8303305E-01
       -2   -1    0    0    0  501  0.00000000000E+00  0.00000000000E+00  0.12558548568E+04  0.12558548568E+04  0.25500000920E-02 0.  1.
        2   -1    0    0  501    0  0.00000000000E+00  0.00000000000E+00 -0.15605594752E+04  0.15605594752E+04  0.25500000920E-02 0. -1.
    10030    2    1    2    0    0  0.00000000000E+00  0.00000000000E+00 -0.30470461832E+03  0.28164143320E+04  0.27998829949E+04 0.  0.
        3    1    3    3  502    0 -0.17277298578E+02 -0.17683541729E+02  0.12556352478E+04  0.12558786161E+04  0.10100000352E+00 0.  1.
       -3    1    3    3    0  502  0.17277298578E+02  0.17683541729E+02 -0.15603398661E+04  0.15605357159E+04  0.10100000352E+00 0. -1.
</event>
<event>
 5   0  0.1361741E-07  0.2799683E+04  0.7818609E-02  0.8303367E-01
        1   -1    0    0  501    0  0.00000000000E+00  0.00000000000E+00  0.21296149361E+04  0.21296149361E+04  0.50400001928E-02 0. -1.
       -1   -1    0    0    0  501  0.00000000000E+00  0.00000000000E+00 -0.92014566089E+03  0.92014566091E+03  0.50400001928E-02 0.  1.
    10030    2    1    2    0    0  0.00000000000E+00  0.00000000000E+00  0.12094692752E+04  0.30497605970E+04  0.27996827984E+04 0.  0.
        5    1    3    3  502    0 -0.30214728352E+03 -0.10033949776E+04  0.16157768387E+04  0.19258378292E+04  0.46999998093E+01 0. -1.
       -5    1    3    3    0  502  0.30214728352E+03  0.10033949776E+04 -0.40630756346E+03  0.11239227678E+04  0.46999998093E+01 0.  1.
</event>
<event>
 5   0  0.3571498E-07  0.2799920E+04  0.7818609E-02  0.8303293E-01
       -2   -1    0    0    0  501  0.00000000000E+00  0.00000000000E+00  0.13293183499E+04  0.13293183499E+04  0.25500000920E-02 0. -1.
        2   -1    0    0  501    0  0.00000000000E+00  0.00000000000E+00 -0.14743554389E+04  0.14743554389E+04  0.25500000920E-02 0.  1.
    10030    2    1    2    0    0  0.00000000000E+00  0.00000000000E+00 -0.14503708896E+03  0.28036737888E+04  0.27999198126E+04 0.  0.
        2    1    3    3  502    0  0.27610562205E+03  0.56673366795E+03  0.11791439174E+04  0.13370870364E+04  0.25500000920E-02 0. -1.
       -2    1    3    3    0  502 -0.27610562205E+03 -0.56673366795E+03 -0.13241810064E+04  0.14665867525E+04  0.25500000920E-02 0.  1.
</event>
<event>
 5   0  0.1346049E-07  0.2801530E+04  0.7818609E-02  0.8302794E-01
       -1   -1    0    0    0  501  0.00000000000E+00  0.00000000000E+00  0.10001528520E+04  0.10001528520E+04  0.50400001928E-02 0. -1.
        1   -1    0    0  501    0  0.00000000000E+00  0.00000000000E+00 -0.19618421879E+04  0.19618421879E+04  0.50400001928E-02 0.  1.
    10030    2    1    2    0    0  0.00000000000E+00  0.00000000000E+00 -0.96168933586E+03  0.29619950399E+04  0.28015296247E+04 0.  0.
        1    1    3    3  502    0  0.30943943301E+03  0.89443708941E+03  0.61095608817E+03  0.11265157839E+04  0.50400001928E-02 0. -1.
       -1    1    3    3    0  502 -0.30943943301E+03 -0.89443708941E+03 -0.15726454240E+04  0.18354792560E+04  0.50400001928E-02 0.  1.
</event>
<event>
 5   0  0.3522569E-07  0.2801440E+04  0.7818609E-02  0.8302822E-01
       -2   -1    0    0    0  501  0.00000000000E+00  0.00000000000E+00  0.23318112618E+04  0.23318112618E+04  0.25500000920E-02 0.  1.
        2   -1    0    0  501    0  0.00000000000E+00  0.00000000000E+00 -0.84141288058E+03  0.84141288059E+03  0.25500000920E-02 0. -1.
    10030    2    1    2    0    0  0.00000000000E+00  0.00000000000E+00  0.14903983813E+04  0.31732241424E+04  0.28014396519E+04 0.  0.
        1    1    3    3  502    0 -0.13924735091E+04 -0.18470525742E+02  0.91583086930E+03  0.16667542756E+04  0.50400001928E-02 0.  1.
       -1    1    3    3    0  502  0.13924735091E+04  0.18470525742E+02  0.57456751196E+03  0.15064698669E+04  0.50400001928E-02 0. -1.
</event>
<event>
 5   0  0.1366235E-07  0.2800994E+04  0.7818609E-02  0.8302960E-01
       -1   -1    0    0    0  501  0.00000000000E+00  0.00000000000E+00  0.16545564739E+04  0.16545564739E+04  0.50400001928E-02 0. -1.
        1   -1    0    0  501    0  0.00000000000E+00  0.00000000000E+00 -0.11854487407E+04  0.11854487407E+04  0.50400001928E-02 0.  1.
    10030    2    1    2    0    0  0.00000000000E+00  0.00000000000E+00  0.46910773321E+03  0.28400052146E+04  0.28009940296E+04 0.  0.
        2    1    3    3  502    0  0.10144460722E+04  0.72422903971E+03 -0.41291918988E+03  0.13130539946E+04  0.25500000920E-02 0.  1.
       -2    1    3    3    0  502 -0.10144460722E+04 -0.72422903971E+03  0.88202692309E+03  0.15269512200E+04  0.25500000920E-02 0. -1.
</event>
<event>
 5   0  0.1374680E-07  0.2799827E+04  0.7818609E-02  0.8303322E-01
        1   -1    0    0  501    0  0.00000000000E+00  0.00000000000E+00  0.13087022143E+04  0.13087022143E+04  0.50400001928E-02 0.  1.
       -1   -1    0    0    0  501  0.00000000000E+00  0.00000000000E+00 -0.14974815238E+04  0.14974815238E+04  0.50400001928E-02 0. -1.
    10030    2    1    2    0    0  0.00000000000E+00  0.00000000000E+00 -0.18877930948E+03  0.28061837381E+04  0.27998266990E+04 0.  0.
        3    1    3    3  502    0 -0.14998946135E+03  0.31186264886E+03  0.12651570360E+04  0.13116316122E+04  0.10100000352E+00 0.  1.
       -3    1    3    3    0  502  0.14998946135E+03 -0.31186264886E+03 -0.14539363454E+04  0.14945521259E+04  0.10100000352E+00 0. -1.
</event>
<event>
 5   0  0.1361741E-07  0.2801979E+04  0.7818609E-02  0.8302654E-01
       -1   -1    0    0    0  501  0.00000000000E+00  0.00000000000E+00  0.18436765825E+04  0.18436765825E+04  0.50400001928E-02 0. -1.
        1   -1    0    0  501    0  0.00000000000E+00  0.00000000000E+00 -0.10645967168E+04  0.10645967168E+04  0.50400001928E-02 0.  1.
    10030    2    1    2    0    0  0.00000000000E+00  0.00000000000E+00  0.77907986569E+03  0.29082732993E+04  0.28019793265E+04 0.  0.
        5    1    3    3  502    0 -0.13173926236E+04 -0.34609997426E+03  0.49322801161E+02  0.13629979258E+04  0.46999998093E+01 0.  1.
       -5    1    3    3    0  502  0.13173926236E+04  0.34609997426E+03  0.72975706453E+03  0.15452753736E+04  0.46999998093E+01 0. -1.
</event>
<event>
 5   0  0.1366235E-07  0.2800227E+04  0.7818609E-02  0.8303198E-01
        1   -1    0    0  501    0  0.00000000000E+00  0.00000000000E+00  0.12643246423E+04  0.12643246423E+04  0.50400001928E-02 0. -1.
       -1   -1    0    0    0  501  0.00000000000E+00  0.00000000000E+00 -0.15504862837E+04  0.15504862837E+04  0.50400001928E-02 0.  1.
    10030    2    1    2    0    0  0.00000000000E+00  0.00000000000E+00 -0.28616164141E+03  0.28148109260E+04  0.28002271451E+04 0.  0.
        2    1    3    3  502    0  0.30170861567E+03  0.98367000418E+03 -0.10975962829E+04  0.15044442051E+04  0.25500000920E-02 0.  1.
       -2    1    3    3    0  502 -0.30170861567E+03 -0.98367000418E+03  0.81143464153E+03  0.13103667209E+04  0.25500000920E-02 0. -1.
</event>
<event>
 5   0  0.3406920E-07  0.2796615E+04  0.7818609E-02  0.8304320E-01
        2   -1    0    0  501    0  0.00000000000E+00  0.00000000000E+00  0.19841859767E+04  0.19841859767E+04  0.25500000920E-02 0.  1.
       -2   -1    0    0    0  501  0.00000000000E+00  0.00000000000E+00 -0.98542391179E+03  0.98542391179E+03  0.25500000920E-02 0. -1.
    10030    2    1    2    0    0  0.00000000000E+00  0.00000000000E+00  0.99876206487E+03  0.29696098885E+04  0.27966153163E+04 0.  0.
        4    1    3    3  502    0 -0.13478304138E+04 -0.27350014818E+03  0.23114131504E+03  0.13945884969E+04  0.12699999809E+01 0. -1.
       -4    1    3    3    0  502  0.13478304138E+04  0.27350014818E+03  0.76762074983E+03  0.15750213915E+04  0.12699999809E+01 0.  1.
</event>
<event>
 5   0  0.1357902E-07  0.2802424E+04  0.7818609E-02  0.8302516E-01
       -1   -1    0    0    0  501  0.00000000000E+00  0.00000000000E+00  0.19105625667E+04  0.19105625667E+04  0.50400001928E-02 0.  1.
        1   -1    0    0  501    0  0.00000000000E+00  0.00000000000E+00 -0.10276528513E+04  0.10276528513E+04  0.50400001928E-02 0. -1.
    10030    2    1    2    0    0  0.00000000000E+00  0.00000000000E+00  0.88290971541E+03  0.29382154181E+04  0.28024240003E+04 0.  0.
        4    1    3    3  502    0 -0.28488861148E+03 -0.13706320161E+04  0.37854920182E+03  0.14502050736E+04  0.12699999809E+01 0.  1.
       -4    1    3    3    0  502  0.28488861148E+03  0.13706320161E+04  0.50436051360E+03  0.14880103444E+04  0.12699999809E+01 0. -1.
</event>
<event>
 5   0  0.1361741E-07  0.2807645E+04  0.7818609E-02  0.8300899E-01
       -1   -1    0    0    0  501  0.00000000000E+00  0.00000000000E+00  0.11213779503E+04  0.11213779504E+04  0.50400001928E-02 0. -1.
        1   -1    0    0  501    0  0.00000000000E+00  0.00000000000E+00 -0.17574072374E+04  0.17574072374E+04  0.50400001928E-02 0.  1.
    10030    2    1    2    0    0  0.00000000000E+00  0.00000000000E+00 -0.63602928708E+03  0.28787851878E+04  0.28076450815E+04 0.  0.
        5    1    3    3  502    0  0.38445639261E+03 -0.83107138559E+02 -0.16997435285E+04  0.17446672081E+04  0.46999998093E+01 0.  1.
       -5    1    3    3    0  502 -0.38445639261E+03  0.83107138559E+02  0.10637142415E+04  0.11341179797E+04  0.46999998093E+01 0. -1.
</event>
<event>
 5   0  0.1366235E-07  0.2800362E+04  0.7818609E-02  0.8303156E-01
       -1   -1    0    0    0  501  0.00000000000E+00  0.00000000000E+00  0.98406224395E+03  0.98406224397E+03  0.50400001928E-02 0.  1.
        1   -1    0    0  501    0  0.00000000000E+00  0.00000000000E+00 -0.19922582694E+04  0.19922582695E+04  0.50400001928E-02 0. -1.
    10030    2    1    2    0    0  0.00000000000E+00  0.00000000000E+00 -0.10081960255E+04  0.29763205134E+04  0.28003615075E+04 0.  0.
        2    1    3    3  502    0  0.58405691864E+03  0.11727897397E+04 -0.10290434040E+04  0.16659797673E+04  0.25500000920E-02 0. -1.
       -2    1    3    3    0  502 -0.58405691864E+03 -0.11727897397E+04  0.20847378491E+02  0.13103407461E+04  0.25500000920E-02 0.  1.
</event>
<event>
 5   0  0.3522569E-07  0.2800379E+04  0.7818609E-02  0.8303151E-01
        2   -1    0    0  501    0  0.00000000000E+00  0.00000000000E+00  0.13459992700E+04  0.13459992700E+04  0.25500000920E-02 0. -1.
       -2   -1    0    0    0  501  0.00000000000E+00  0.00000000000E+00 -0.14565614820E+04  0.14565614820E+04  0.25500000920E-02 0.  1.
    10030    2    1    2    0    0  0.00000000000E+00  0.00000000000E+00 -0.11056221197E+03  0.28025607520E+04  0.28003790397E+04 0.  0.
        1    1    3    3  502    0  0.11450029196E+04  0.48463117854E+02  0.74980217238E+03  0.13695194988E+04  0.50400001928E-02 0. -1.
       -1    1    3    3    0  502 -0.11450029196E+04 -0.48463117854E+02 -0.86036438435E+03  0.14330412533E+04  0.50400001928E-02 0.  1.
</event>
<event>
 5   0  0.3502141E-07  0.2798200E+04  0.7818609E-02  0.8303827E-01
        2   -1    0    0  501    0  0.00000000000E+00  0.00000000000E+00  0.18187279936E+04  0.18187279936E+04  0.25500000920E-02 0. -1.
       -2   -1    0    0    0  501  0.00000000000E+00  0.00000000000E+00 -0.10762911279E+04  0.10762911279E+04  0.25500000920E-02 0.  1.
    10030    2    1    2    0    0  0.00000000000E+00  0.00000000000E+00  0.74243686574E+03  0.28950191215E+04  0.27981999954E+04 0.  0.
        3    1    3    3  502    0 -0.70837178262E+03 -0.39909341531E+03  0.15492166990E+04  0.17496109645E+04  0.10100000352E+00 0. -1.
       -3    1    3    3    0  502  0.70837178262E+03  0.39909341531E+03 -0.80677983324E+03  0.11454081570E+04  0.10100000352E+00 0.  1.
</event>
<event>
 5   0  0.3502141E-07  0.2798505E+04  0.7818609E-02  0.8303733E-01
       -2   -1    0    0    0  501  0.00000000000E+00  0.00000000000E+00  0.99264760668E+03  0.99264760668E+03  0.25500000920E-02 0.  1.
        2   -1    0    0  501    0  0.00000000000E+00  0.00000000000E+00 -0.19724090716E+04  0.19724090716E+04  0.25500000920E-02 0. -1.
    10030    2    1    2    0    0  0.00000000000E+00  0.00000000000E+00 -0.97976146494E+03  0.29650566783E+04  0.27985047038E+04 0.  0.
        3    1    3    3  502    0  0.86422213888E+03 -0.70382377032E+03 -0.13861946227E+04  0.17787027147E+04  0.10100000352E+00 0. -1.
       -3    1    3    3    0  502 -0.86422213888E+03  0.70382377032E+03  0.40643315780E+03  0.11863539636E+04  0.10100000352E+00 0.  1.
</event>
<event>
 5   0  0.1357902E-07  0.2797415E+04  0.7818609E-02  0.8304071E-01
       -1   -1    0    0    0  501  0.00000000000E+00  0.00000000000E+00  0.14293221099E+04  0.14293221099E+04  0.50400001928E-02 0.  1.
        1   -1    0    0  501    0  0.00000000000E+00  0.00000000000E+00 -0.13687485631E+04  0.13687485631E+04  0.50400001928E-02 0. -1.
    10030    2    1    2    0    0  0.00000000000E+00  0.00000000000E+00  0.60573546813E+02  0.27980706730E+04  0.27974149382E+04 0.  0.
        4    1    3    3  502    0 -0.12600585437E+04  0.36923357739E+03 -0.45180131140E+03  0.13885989364E+04  0.12699999809E+01 0.  1.
       -4    1    3    3    0  502  0.12600585437E+04 -0.36923357739E+03  0.51237485821E+03  0.14094717366E+04  0.12699999809E+01 0. -1.
</event>
<event>
 5   0  0.3522569E-07  0.2799202E+04  0.7818609E-02  0.8303516E-01
       -2   -1    0    0    0  501  0.00000000000E+00  0.00000000000E+00  0.97854448704E+03  0.97854448704E+03  0.25500000920E-02 0. -1.
        2   -1    0    0  501    0  0.00000000000E+00  0.00000000000E+00 -0.20018326373E+04  0.20018326373E+04  0.25500000920E-02 0.  1.
    10030    2    1    2    0    0  0.00000000000E+00  0.00000000000E+00 -0.10232881502E+04  0.29803771243E+04  0.27992015227E+04 0.  0.
        1    1    3    3  502    0  0.79926277109E+03 -0.92504012653E+03 -0.12371908713E+04  0.17392991304E+04  0.50400001928E-02 0.  1.
       -1    1    3    3    0  502 -0.79926277109E+03  0.92504012653E+03  0.21390272104E+03  0.12410779939E+04  0.50400001928E-02 0. -1.
</event>
<event>
 5   0  0.1366235E-07  0.2799961E+04  0.7818609E-02  0.8303281E-01
       -1   -1    0    0    0  501  0.00000000000E+00  0.00000000000E+00  0.12770191901E+04  0.12770191901E+04  0.50400001928E-02 0. -1.
        1   -1    0    0  501    0  0.00000000000E+00  0.00000000000E+00 -0.15347810386E+04  0.15347810386E+04  0.50400001928E-02 0.  1.
    10030    2    1    2    0    0  0.00000000000E+00  0.00000000000E+00 -0.25776184843E+03  0.28118002287E+04  0.27999605989E+04 0.  0.
        2    1    3    3  502    0 -0.73391392130E+03  0.31873681575E+03  0.10247682946E+04  0.13001433995E+04  0.25500000920E-02 0. -1.
       -2    1    3    3    0  502  0.73391392130E+03 -0.31873681575E+03 -0.12825301430E+04  0.15116568292E+04  0.25500000920E-02 0.  1.
</event>
<event>
 5   0  0.1346049E-07  0.2800447E+04  0.7818609E-02  0.8303130E-01
        1   -1    0    0  501    0  0.00000000000E+00  0.00000000000E+00  0.20451035453E+04  0.20451035453E+04  0.50400001928E-02 0.  1.
       -1   -1    0    0    0  501  0.00000000000E+00  0.00000000000E+00 -0.95869274086E+03  0.95869274088E+03  0.50400001928E-02 0. -1.
    10030    2    1    2    0    0  0.00000000000E+00  0.00000000000E+00  0.10864108044E+04  0.30037962861E+04  0.28004470523E+04 0.  0.
        1    1    3    3  502    0 -0.41872039475E+03 -0.12419709952E+04  0.14670232133E+02  0.13107379363E+04  0.50400001928E-02 0. -1.
       -1    1    3    3    0  502  0.41872039475E+03  0.12419709952E+04  0.10717405723E+04  0.16930583499E+04  0.50400001928E-02 0.  1.
</event>
<event>
 5   0  0.1361741E-07  0.2799625E+04  0.7818609E-02  0.8303385E-01
       -1   -1    0    0    0  501  0.00000000000E+00  0.00000000000E+00  0.11877931713E+04  0.11877931713E+04  0.50400001928E-02 0. -1.
        1   -1    0    0  501    0  0.00000000000E+00  0.00000000000E+00 -0.16496767433E+04  0.16496767434E+04  0.50400001928E-02 0.  1.
    10030    2    1    2    0    0  0.00000000000E+00  0.00000000000E+00 -0.46188357209E+03  0.28374699146E+04  0.27996248110E+04 0.  0.
        5    1    3    3  502    0 -0.11837245310E+04  0.68344172380E+03 -0.53694418880E+03  0.14685460521E+04  0.46999998093E+01 0. -1.
       -5    1    3    3    0  502  0.11837245310E+04 -0.68344172380E+03  0.75060616714E+02  0.13689238625E+04  0.46999998093E+01 0.  1.
</event>
<event>
 5   0  0.3571498E-07  0.2803002E+04  0.7818609E-02  0.8302337E-01
       -2   -1    0    0    0  501  0.00000000000E+00  0.00000000000E+00  0.12105123536E+04  0.12105123536E+04  0.25500000920E-02 0.  1.
        2   -1    0    0  501    0  0.00000000000E+00  0.00000000000E+00 -0.16226224131E+04  0.16226224131E+04  0.25500000920E-02 0. -1.
    10030    2    1    2    0    0  0.00000000000E+00  0.00000000000E+00 -0.41211005952E+03  0.28331347666E+04  0.28030015884E+04 0.  0.
        2    1    3    3  502    0  0.37154404000E+03  0.18575769431E+03 -0.15589712721E+04  0.16133636670E+04  0.25500000920E-02 0. -1.
       -2    1    3    3    0  502 -0.37154404000E+03 -0.18575769431E+03  0.11468612126E+04  0.12197710997E+04  0.25500000920E-02 0.  1.
</event>
<event>
 5   0  0.3522569E-07  0.2800325E+04  0.7818609E-02  0.8303167E-01
       -2   -1    0    0    0  501  0.00000000000E+00  0.00000000000E+00  0.12128633998E+04  0.12128633998E+04  0.25500000920E-02 0.  1.
        2   -1    0    0  501    0  0.00000000000E+00  0.00000000000E+00 -0.16163862451E+04  0.16163862451E+04  0.25500000920E-02 0. -1.
    10030    2    1    2    0    0  0.00000000000E+00  0.00000000000E+00 -0.40352284525E+03  0.28292496449E+04  0.28003254930E+04 0.  0.
        1    1    3    3  502    0  0.12068410615E+04  0.49292626865E+03  0.31441089447E+03  0.13410055424E+04  0.50400001928E-02 0.  1.
       -1    1    3    3    0  502 -0.12068410615E+04 -0.49292626865E+03 -0.71793373972E+03  0.14882441026E+04  0.50400001928E-02 0. -1.
</event>
<event>
 5   0  0.3502141E-07  0.2798620E+04  0.7818609E-02  0.8303697E-01
        2   -1    0    0  501    0  0.00000000000E+00  0.00000000000E+00  0.16366457141E+04  0.16366457141E+04  0.25500000920E-02 0. -1.
       -2   -1    0    0    0  501  0.00000000000E+00  0.00000000000E+00 -0.11963907886E+04  0.11963907886E+04  0.25500000920E-02 0.  1.
    10030    2    1    2    0    0  0.00000000000E+00  0.00000000000E+00  0.44025492547E+03  0.28330365026E+04  0.27986195572E+04 0.  0.
        3    1    3    3  502    0 -0.72611950671E+03  0.26560817874E+03 -0.96052196769E+03  0.12330448910E+04  0.10100000352E+00 0.  1.
       -3    1    3    3    0  502  0.72611950671E+03 -0.26560817874E+03  0.14007768932E+04  0.15999916116E+04  0.10100000352E+00 0. -1.
</event>
<event>
 5   0  0.1173363E-07  0.2798785E+04  0.7818609E-02  0.8303646E-01
       -4   -1    0    0    0  501  0.00000000000E+00  0.00000000000E+00  0.15027444862E+04  0.15027450228E+04  0.12699999809E+01 0. -1.
        4   -1    0    0  501    0  0.00000000000E+00  0.00000000000E+00 -0.13031472571E+04  0.13031478760E+04  0.12699999809E+01 0.  1.
    10030    2    1    2    0    0  0.00000000000E+00  0.00000000000E+00  0.19959722905E+03  0.28058928988E+04  0.27987847194E+04 0.  0.
        5    1    3    3  502    0  0.12004643034E+04  0.53317685615E+03 -0.38400838991E+03  0.13685308316E+04  0.46999998093E+01 0. -1.
       -5    1    3    3    0  502 -0.12004643034E+04 -0.53317685615E+03  0.58360561895E+03  0.14373620671E+04  0.46999998093E+01 0.  1.
</event>
<event>
 5   0  0.3406920E-07  0.2790444E+04  0.7818609E-02  0.8306241E-01
       -2   -1    0    0    0  501  0.00000000000E+00  0.00000000000E+00  0.10272738006E+04  0.10272738006E+04  0.25500000920E-02 0. -1.
        2   -1    0    0  501    0  0.00000000000E+00  0.00000000000E+00 -0.18949611885E+04  0.18949611885E+04  0.25500000920E-02 0.  1.
    10030    2    1    2    0    0  0.00000000000E+00  0.00000000000E+00 -0.86768738792E+03  0.29222349891E+04  0.27904436795E+04 0.  0.
        4    1    3    3  502    0 -0.12156317199E+04 -0.63585095330E+03 -0.69996253033E+03  0.15401350817E+04  0.12699999809E+01 0.  1.
       -4    1    3    3    0  502  0.12156317199E+04  0.63585095330E+03 -0.16772485759E+03  0.13820999074E+04  0.12699999809E+01 0. -1.
</event>
<event>
 5   0  0.3522569E-07  0.2800429E+04  0.7818609E-02  0.8303135E-01
       -2   -1    0    0    0  501  0.00000000000E+00  0.00000000000E+00  0.12978932263E+04  0.12978932263E+04  0.25500000920E-02 0. -1.
        2   -1    0    0  501    0  0.00000000000E+00  0.00000000000E+00 -0.15106022281E+04  0.15106022281E+04  0.25500000920E-02 0.  1.
    10030    2    1    2    0    0  0.00000000000E+00  0.00000000000E+00 -0.21270900184E+03  0.28084954544E+04  0.28004288239E+04 0.  0.
        1    1    3    3  502    0 -0.83915940727E+03 -0.85434814852E+03  0.62133957592E+03  0.13491338474E+04  0.50400001928E-02 0. -1.
       -1    1    3    3    0  502  0.83915940727E+03  0.85434814852E+03 -0.83404857776E+03  0.14593616069E+04  0.50400001928E-02 0.  1.
</event>
<event>
 5   0  0.1346049E-07  0.2799819E+04  0.7818609E-02  0.8303325E-01
       -1   -1    0    0    0  501  0.00000000000E+00  0.00000000000E+00  0.17326478605E+04  0.17326478605E+04  0.50400001928E-02 0. -1.
        1   -1    0    0  501    0  0.00000000000E+00  0.00000000000E+00 -0.11310701670E+04  0.11310701670E+04  0.50400001928E-02 0.  1.
    10030    2    1    2    0    0  0.00000000000E+00  0.00000000000E+00  0.60157769351E+03  0.28637180276E+04  0.27998187835E+04 0.  0.
        1    1    3    3  502    0  0.43954052418E+03 -0.34438634280E+03  0.16138112786E+04  0.17076840072E+04  0.50400001928E-02 0. -1.
       -1    1    3    3    0  502 -0.43954052418E+03  0.34438634280E+03 -0.10122335851E+04  0.11560340204E+04  0.50400001928E-02 0.  1.
</event>
<event>
 5   0  0.1361741E-07  0.2801350E+04  0.7818609E-02  0.8302849E-01
        1   -1    0    0  501    0  0.00000000000E+00  0.00000000000E+00  0.17534046511E+04  0.17534046511E+04  0.50400001928E-02 0.  1.
       -1   -1    0    0    0  501  0.00000000000E+00  0.00000000000E+00 -0.11189034760E+04  0.11189034760E+04  0.50400001928E-02 0. -1.
    10030    2    1    2    0    0  0.00000000000E+00  0.00000000000E+00  0.63450117516E+03  0.28723081271E+04  0.28013500738E+04 0.  0.
        5    1    3    3  502    0  0.13863214202E+03  0.13597484621E+04  0.63116522339E+03  0.15054987148E+04  0.46999998093E+01 0.  1.
       -5    1    3    3    0  502 -0.13863214202E+03 -0.13597484621E+04  0.33359517671E+01  0.13668094123E+04  0.46999998093E+01 0. -1.
</event>
<event>
 5   0  0.3557628E-07  0.2800426E+04  0.7818609E-02  0.8303136E-01
        2   -1    0    0  501    0  0.00000000000E+00  0.00000000000E+00  0.13446656350E+04  0.13446656350E+04  0.25500000920E-02 0. -1.
       -2   -1    0    0    0  501  0.00000000000E+00  0.00000000000E+00 -0.14580546175E+04  0.14580546175E+04  0.25500000920E-02 0.  1.
    10030    2    1    2    0    0  0.00000000000E+00  0.00000000000E+00 -0.11338898252E+03  0.28027202525E+04  0.28004256377E+04 0.  0.
        5    1    3    3  502    0 -0.41887962221E+03 -0.74023617376E+03  0.10564956833E+04  0.13563240577E+04  0.46999998093E+01 0. -1.
       -5    1    3    3    0  502  0.41887962221E+03  0.74023617376E+03 -0.11698846658E+04  0.14463961947E+04  0.46999998093E+01 0.  1.
</event>
<event>
 5   0  0.3557628E-07  0.2801035E+04  0.7818609E-02  0.8302947E-01
        2   -1    0    0  501    0  0.00000000000E+00  0.00000000000E+00  0.14180315341E+04  0.14180315341E+04  0.25500000920E-02 0. -1.
       -2   -1    0    0    0  501  0.00000000000E+00  0.00000000000E+00 -0.13832202211E+04  0.13832202211E+04  0.25500000920E-02 0.  1.
    10030    2    1    2    0    0  0.00000000000E+00  0.00000000000E+00  0.34811313006E+02  0.28012517552E+04  0.28010354457E+04 0.  0.
        5    1    3    3  502    0 -0.31157372472E+03 -0.11057513187E+04  0.81850661505E+03  0.14105812042E+04  0.46999998093E+01 0. -1.
       -5    1    3    3    0  502  0.31157372472E+03  0.11057513187E+04 -0.78369530205E+03  0.13906705509E+04  0.46999998093E+01 0.  1.
</event>
<event>
 5   0  0.3557628E-07  0.2797959E+04  0.7818609E-02  0.8303902E-01
       -2   -1    0    0    0  501  0.00000000000E+00  0.00000000000E+00  0.11781894250E+04  0.11781894250E+04  0.25500000920E-02 0. -1.
        2   -1    0    0  501    0  0.00000000000E+00  0.00000000000E+00 -0.16611452661E+04  0.16611452661E+04  0.25500000920E-02 0.  1.
    10030    2    1    2    0    0  0.00000000000E+00  0.00000000000E+00 -0.48295584105E+03  0.28393346911E+04  0.27979591032E+04 0.  0.
        5    1    3    3  502    0  0.61026051200E+03  0.71970091984E+03  0.80662365652E+03  0.12413908006E+04  0.46999998093E+01 0. -1.
       -5    1    3    3    0  502 -0.61026051200E+03 -0.71970091984E+03 -0.12895794976E+04  0.15979438905E+04  0.46999998093E+01 0.  1.
</event>
<event>
 5   0  0.3406920E-07  0.2800391E+04  0.7818609E-02  0.8303147E-01
       -2   -1    0    0    0  501  0.00000000000E+00  0.00000000000E+00  0.11545843139E+04  0.11545843139E+04  0.25500000920E-02 0.  1.
        2   -1    0    0  501    0  0.00000000000E+00  0.00000000000E+00 -0.16980544424E+04  0.16980544424E+04  0.25500000920E-02 0. -1.
    10030    2    1    2    0    0  0.00000000000E+00  0.00000000000E+00 -0.54347012852E+03  0.28526387563E+04  0.28003907037E+04 0.  0.
        4    1    3    3  502    0  0.44487985151E+02  0.96070003626E+03  0.76490673324E+03  0.12288236912E+04  0.12699999809E+01 0.  1.
       -4    1    3    3    0  502 -0.44487985151E+02 -0.96070003626E+03 -0.13083768618E+04  0.16238150651E+04  0.12699999809E+01 0. -1.
</event>
<event>
 5   0  0.3406920E-07  0.2797579E+04  0.7818609E-02  0.8304020E-01
       -2   -1    0    0    0  501  0.00000000000E+00  0.00000000000E+00  0.99530942270E+03  0.99530942271E+03  0.25500000920E-02 0. -1.
        2   -1    0    0  501    0  0.00000000000E+00  0.00000000000E+00 -0.19658336288E+04  0.19658336288E+04  0.25500000920E-02 0.  1.
    10030    2    1    2    0    0  0.00000000000E+00  0.00000000000E+00 -0.97052420612E+03  0.29611430515E+04  0.27975794782E+04 0.  0.
        4    1    3    3  502    0  0.10297975358E+03 -0.94580017561E+02  0.98789340441E+03  0.99774004667E+03  0.12699999809E+01 0. -1.
       -4    1    3    3    0  502 -0.10297975358E+03  0.94580017561E+02 -0.19584176105E+04  0.19634030049E+04  0.12699999809E+01 0.  1.
</event>
<event>
 5   0  0.1361741E-07  0.2799762E+04  0.7818609E-02  0.8303342E-01
       -1   -1    0    0    0  501  0.00000000000E+00  0.00000000000E+00  0.14594214910E+04  0.14594214911E+04  0.50400001928E-02 0.  1.
        1   -1    0    0  501    0  0.00000000000E+00  0.00000000000E+00 -0.13427697747E+04  0.13427697747E+04  0.50400001928E-02 0. -1.
    10030    2    1    2    0    0  0.00000000000E+00  0.00000000000E+00  0.11665171635E+03  0.28021912658E+04  0.27997621804E+04 0.  0.
        5    1    3    3  502    0  0.47372324163E+03 -0.13155015190E+04 -0.10195357858E+02  0.13982431804E+04  0.46999998093E+01 0. -1.
       -5    1    3    3    0  502 -0.47372324163E+03  0.13155015190E+04  0.12684707421E+03  0.14039480854E+04  0.46999998093E+01 0.  1.
</event>
<event>
 5   0  0.3502141E-07  0.2800088E+04  0.7818609E-02  0.8303241E-01
        2   -1    0    0  501    0  0.00000000000E+00  0.00000000000E+00  0.14216939095E+04  0.14216939095E+04  0.25500000920E-02 0.  1.
       -2   -1    0    0    0  501  0.00000000000E+00  0.00000000000E+00 -0.13787239684E+04  0.13787239684E+04  0.25500000920E-02 0. -1.
    10030    2    1    2    0    0  0.00000000000E+00  0.00000000000E+00  0.42969941176E+02  0.28004178779E+04  0.28000881906E+04 0.  0.
        3    1    3    3  502    0  0.59777073395E+03  0.12390803254E+04  0.28127227855E+03  0.14041951460E+04  0.10100000352E+00 0.  1.
       -3    1    3    3    0  502 -0.59777073395E+03 -0.12390803254E+04 -0.23830233737E+03  0.13962227320E+04  0.10100000352E+00 0. -1.
</event>
<event>
 5   0  0.3571498E-07  0.2799868E+04  0.7818609E-02  0.8303309E-01
       -2   -1    0    0    0  501  0.00000000000E+00  0.00000000000E+00  0.90371769388E+03  0.90371769388E+03  0.25500000920E-02 0.  1.
        2   -1    0    0  501    0  0.00000000000E+00  0.00000000000E+00 -0.21686151308E+04  0.21686151308E+04  0.25500000920E-02 0. -1.
    10030    2    1    2    0    0  0.00000000000E+00  0.00000000000E+00 -0.12648974369E+04  0.30723328247E+04  0.27998684719E+04 0.  0.
        2    1    3    3  502    0 -0.66089472027E+03  0.10113279945E+04 -0.14085601107E+04  0.18556960229E+04  0.25500000920E-02 0. -1.
       -2    1    3    3    0  502  0.66089472027E+03 -0.10113279945E+04  0.14366267382E+03  0.12166368018E+04  0.25500000920E-02 0.  1.
</event>
<event>
 5   0  0.1374680E-07  0.2799804E+04  0.7818609E-02  0.8303329E-01
        1   -1    0    0  501    0  0.00000000000E+00  0.00000000000E+00  0.14923481747E+04  0.14923481747E+04  0.50400001928E-02 0. -1.
       -1   -1    0    0    0  501  0.00000000000E+00  0.00000000000E+00 -0.13131824049E+04  0.13131824049E+04  0.50400001928E-02 0.  1.
    10030    2    1    2    0    0  0.00000000000E+00  0.00000000000E+00  0.17916576981E+03  0.28055305795E+04  0.27998038252E+04 0.  0.
        3    1    3    3  502    0  0.12769901049E+04  0.15907175000E+03 -0.46265033771E+03  0.13674987733E+04  0.10100000352E+00 0.  1.
       -3    1    3    3    0  502 -0.12769901049E+04 -0.15907175000E+03  0.64181610751E+03  0.14380318063E+04  0.10100000352E+00 0. -1.
</event>
<event>
 5   0  0.3557628E-07  0.2801923E+04  0.7818609E-02  0.8302672E-01
       -2   -1    0    0    0  501  0.00000000000E+00  0.00000000000E+00  0.13794340752E+04  0.13794340752E+04  0.25500000920E-02 0. -1.
        2   -1    0    0  501    0  0.00000000000E+00  0.00000000000E+00 -0.14228251419E+04  0.14228251419E+04  0.25500000920E-02 0.  1.
    10030    2    1    2    0    0  0.00000000000E+00  0.00000000000E+00 -0.43391066639E+02  0.28022592171E+04  0.28019232564E+04 0.  0.
        5    1    3    3  502    0 -0.99001745575E+03  0.74118565798E+03  0.63654799116E+03  0.13909371579E+04  0.46999998093E+01 0. -1.
       -5    1    3    3    0  502  0.99001745575E+03 -0.74118565798E+03 -0.67993905780E+03  0.14113220591E+04  0.46999998093E+01 0.  1.
</event>
<event>
 5   0  0.3571498E-07  0.2799741E+04  0.7818609E-02  0.8303349E-01
       -2   -1    0    0    0  501  0.00000000000E+00  0.00000000000E+00  0.84044851661E+03  0.84044851661E+03  0.25500000920E-02 0.  1.
        2   -1    0    0  501    0  0.00000000000E+00  0.00000000000E+00 -0.23316570301E+04  0.23316570302E+04  0.25500000920E-02 0. -1.
    10030    2    1    2    0    0  0.00000000000E+00  0.00000000000E+00 -0.14912085135E+04  0.31721055468E+04  0.27997411968E+04 0.  0.
        2    1    3    3  502    0  0.93177056168E+03 -0.27209585127E+03 -0.18884213028E+04  0.21232916777E+04  0.25500000920E-02 0. -1.
       -2    1    3    3    0  502 -0.93177056168E+03  0.27209585127E+03  0.39721278925E+03  0.10488138690E+04  0.25500000920E-02 0.  1.
</event>
<event>
 5   0  0.1346049E-07  0.2800293E+04  0.7818609E-02  0.8303177E-01
       -1   -1    0    0    0  501  0.00000000000E+00  0.00000000000E+00  0.90279814958E+03  0.90279814959E+03  0.50400001928E-02 0. -1.
        1   -1    0    0  501    0  0.00000000000E+00  0.00000000000E+00 -0.21714823410E+04  0.21714823410E+04  0.50400001928E-02 0.  1.
    10030    2    1    2    0    0  0.00000000000E+00  0.00000000000E+00 -0.12686841914E+04  0.30742804906E+04  0.28002930128E+04 0.  0.
        1    1    3    3  502    0 -0.49920649442E+03  0.13041984188E+04 -0.52308780559E+03  0.14912281824E+04  0.50400001928E-02 0. -1.
       -1    1    3    3    0  502  0.49920649442E+03 -0.13041984188E+04 -0.74559638584E+03  0.15830523082E+04  0.50400001928E-02 0.  1.
</event>
<event>
 5   0  0.3557628E-07  0.2798109E+04  0.7818609E-02  0.8303856E-01
       -2   -1    0    0    0  501  0.00000000000E+00  0.00000000000E+00  0.10979885288E+04  0.10979885288E+04  0.25500000920E-02 0.  1.
        2   -1    0    0  501    0  0.00000000000E+00  0.00000000000E+00 -0.17826725782E+04  0.17826725782E+04  0.25500000920E-02 0. -1.
    10030    2    1    2    0    0  0.00000000000E+00  0.00000000000E+00 -0.68468404947E+03  0.28806611070E+04  0.27981093913E+04 0.  0.
        5    1    3    3  502    0  0.10913830075E+04  0.45847858877E+03 -0.11100034965E+04  0.16227906019E+04  0.46999998093E+01 0. -1.
       -5    1    3    3    0  502 -0.10913830075E+04 -0.45847858877E+03  0.42531944701E+03  0.12578705051E+04  0.46999998093E+01 0.  1.
</event>
<event>
 5   0  0.3557628E-07  0.2799229E+04  0.7818609E-02  0.8303508E-01
       -2   -1    0    0    0  501  0.00000000000E+00  0.00000000000E+00  0.75295190327E+03  0.75295190327E+03  0.25500000920E-02 0. -1.
        2   -1    0    0  501    0  0.00000000000E+00  0.00000000000E+00 -0.26016553185E+04  0.26016553185E+04  0.25500000920E-02 0.  1.
    10030    2    1    2    0    0  0.00000000000E+00  0.00000000000E+00 -0.18487034153E+04  0.33546072218E+04  0.27992294109E+04 0.  0.
        5    1    3    3  502    0 -0.10315133102E+04 -0.89825451861E+03 -0.12798927838E+04  0.18732401121E+04  0.46999998093E+01 0.  1.
       -5    1    3    3    0  502  0.10315133102E+04  0.89825451861E+03 -0.56881063145E+03  0.14813671097E+04  0.46999998093E+01 0. -1.
</event>
<event>
 5   0  0.3502141E-07  0.2800109E+04  0.7818609E-02  0.8303235E-01
       -2   -1    0    0    0  501  0.00000000000E+00  0.00000000000E+00  0.85374368805E+03  0.85374368805E+03  0.25500000920E-02 0. -1.
        2   -1    0    0  501    0  0.00000000000E+00  0.00000000000E+00 -0.22959493453E+04  0.22959493453E+04  0.25500000920E-02 0.  1.
    10030    2    1    2    0    0  0.00000000000E+00  0.00000000000E+00 -0.14422056572E+04  0.31496930333E+04  0.28001087562E+04 0.  0.
        3    1    3    3  502    0 -0.81980048596E+03 -0.67335047414E+03  0.30656546507E+03  0.11042898589E+04  0.10100000352E+00 0. -1.
       -3    1    3    3    0  502  0.81980048596E+03  0.67335047414E+03 -0.17487711223E+04  0.20454031745E+04  0.10100000352E+00 0.  1.
</event>
<event>
 5   0  0.1366235E-07  0.2801574E+04  0.7818609E-02  0.8302780E-01
        1   -1    0    0  501    0  0.00000000000E+00  0.00000000000E+00  0.13147460693E+04  0.13147460693E+04  0.50400001928E-02 0. -1.
       -1   -1    0    0    0  501  0.00000000000E+00  0.00000000000E+00 -0.14924584152E+04  0.14924584152E+04  0.50400001928E-02 0.  1.
    10030    2    1    2    0    0  0.00000000000E+00  0.00000000000E+00 -0.17771234587E+03  0.28072044845E+04  0.28015737256E+04 0.  0.
        2    1    3    3  502    0 -0.81525552822E+03  0.23690906431E+03 -0.12052931772E+04  0.14742791880E+04  0.25500000920E-02 0.  1.
       -2    1    3    3    0  502  0.81525552822E+03 -0.23690906431E+03  0.10275808314E+04  0.13329252965E+04  0.25500000920E-02 0. -1.
</event>
<event>
 5   0  0.1361741E-07  0.2801060E+04  0.7818609E-02  0.8302939E-01
       -1   -1    0    0    0  501  0.00000000000E+00  0.00000000000E+00  0.24023494115E+04  0.24023494115E+04  0.50400001928E-02 0.  1.
        1   -1    0    0  501    0  0.00000000000E+00  0.00000000000E+00 -0.81648589152E+03  0.81648589153E+03  0.50400001928E-02 0. -1.
    10030    2    1    2    0    0  0.00000000000E+00  0.00000000000E+00  0.15858635199E+04  0.32188353030E+04  0.28010600857E+04 0.  0.
        5    1    3    3  502    0 -0.12850582543E+04 -0.65656009213E+02  0.14283777672E+04  0.19224907189E+04  0.46999998093E+01 0.  1.
       -5    1    3    3    0  502  0.12850582543E+04  0.65656009213E+02  0.15748575274E+03  0.12963445841E+04  0.46999998093E+01 0. -1.
</event>
<event>
 5   0  0.3571498E-07  0.2797496E+04  0.7818609E-02  0.8304046E-01
        2   -1    0    0  501    0  0.00000000000E+00  0.00000000000E+00  0.10242137975E+04  0.10242137975E+04  0.25500000920E-02 0.  1.
       -2   -1    0    0    0  501  0.00000000000E+00  0.00000000000E+00 -0.19102413163E+04  0.19102413163E+04  0.25500000920E-02 0. -1.
    10030    2    1    2    0    0  0.00000000000E+00  0.00000000000E+00 -0.88602751888E+03  0.29344551138E+04  0.27974956748E+04 0.  0.
        2    1    3    3  502    0 -0.73941088468E+03 -0.10667445763E+04  0.10387777384E+03  0.13020994736E+04  0.25500000920E-02 0.  1.
       -2    1    3    3    0  502  0.73941088468E+03  0.10667445763E+04 -0.98990529272E+03  0.16323556401E+04  0.25500000920E-02 0. -1.
</event>
<event>
 5   0  0.3522569E-07  0.2801212E+04  0.7818609E-02  0.8302892E-01
        2   -1    0    0  501    0  0.00000000000E+00  0.00000000000E+00  0.13608931818E+04  0.13608931818E+04  0.25500000920E-02 0. -1.
       -2   -1    0    0    0  501  0.00000000000E+00  0.00000000000E+00 -0.14414778051E+04  0.14414778051E+04  0.25500000920E-02 0.  1.
    10030    2    1    2    0    0  0.00000000000E+00  0.00000000000E+00 -0.80584623240E+02  0.28023709869E+04  0.28012121067E+04 0.  0.
        1    1    3    3  502    0  0.99100446573E+02 -0.67083519035E+03  0.11857172637E+04  0.13659305182E+04  0.50400001928E-02 0. -1.
       -1    1    3    3    0  502 -0.99100446573E+02  0.67083519035E+03 -0.12663018870E+04  0.14364404687E+04  0.50400001928E-02 0.  1.
</event>
<event>
 5   0  0.1357902E-07  0.2799633E+04  0.7818609E-02  0.8303382E-01
        1   -1    0    0  501    0  0.00000000000E+00  0.00000000000E+00  0.15090243695E+04  0.15090243695E+04  0.50400001928E-02 0.  1.
       -1   -1    0    0    0  501  0.00000000000E+00  0.00000000000E+00 -0.12985122360E+04  0.12985122361E+04  0.50400001928E-02 0. -1.
    10030    2    1    2    0    0  0.00000000000E+00  0.00000000000E+00  0.21051213346E+03  0.28075366056E+04  0.27996332676E+04 0.  0.
        4    1    3    3  502    0  0.70749730464E+03  0.50676513093E+03 -0.99425218579E+03  0.13213259839E+04  0.12699999809E+01 0. -1.
       -4    1    3    3    0  502 -0.70749730464E+03 -0.50676513093E+03  0.12047643193E+04  0.14862106216E+04  0.12699999809E+01 0.  1.
</event>
<event>
 5   0  0.1374680E-07  0.2800603E+04  0.7818609E-02  0.8303081E-01
       -1   -1    0    0    0  501  0.00000000000E+00  0.00000000000E+00  0.17417069750E+04  0.17417069750E+04  0.50400001928E-02 0. -1.
        1   -1    0    0  501    0  0.00000000000E+00  0.00000000000E+00 -0.11258176331E+04  0.11258176331E+04  0.50400001928E-02 0.  1.
    10030    2    1    2    0    0  0.00000000000E+00  0.00000000000E+00  0.61588934191E+03  0.28675246080E+04  0.28006030951E+04 0.  0.
        3    1    3    3  502    0 -0.99402902643E+03  0.21059598677E+03 -0.67861455905E+03  0.12218682846E+04  0.10100000352E+00 0.  1.
       -3    1    3    3    0  502  0.99402902643E+03 -0.21059598677E+03  0.12945039010E+04  0.16456563234E+04  0.10100000352E+00 0. -1.
</event>
<event>
 5   0  0.3571498E-07  0.2800942E+04  0.7818609E-02  0.8302976E-01
        2   -1    0    0  501    0  0.00000000000E+00  0.00000000000E+00  0.93170299450E+03  0.93170299450E+03  0.25500000920E-02 0.  1.
       -2   -1    0    0    0  501  0.00000000000E+00  0.00000000000E+00 -0.21050899600E+04  0.21050899600E+04  0.25500000920E-02 0. -1.
    10030    2    1    2    0    0  0.00000000000E+00  0.00000000000E+00 -0.11733869655E+04  0.30367929545E+04  0.28009417126E+04 0.  0.
        2    1    3    3  502    0  0.81175210230E+03  0.75373320656E+03 -0.15157391270E+04  0.18773705876E+04  0.25500000920E-02 0. -1.
       -2    1    3    3    0  502 -0.81175210230E+03 -0.75373320656E+03  0.34235216150E+03  0.11594223668E+04  0.25500000920E-02 0.  1.
</event>
<event>
 5   0  0.1346049E-07  0.2798006E+04  0.7818609E-02  0.8303888E-01
       -1   -1    0    0    0  501  0.00000000000E+00  0.00000000000E+00  0.12315478503E+04  0.12315478503E+04  0.50400001928E-02 0.  1.
        1   -1    0    0  501    0  0.00000000000E+00  0.00000000000E+00 -0.15892276113E+04  0.15892276113E+04  0.50400001928E-02 0. -1.
    10030    2    1    2    0    0  0.00000000000E+00  0.00000000000E+00 -0.35767976093E+03  0.28207754616E+04  0.27980063248E+04 0.  0.
        1    1    3    3  502    0 -0.56979915006E+03  0.12041147622E+03 -0.14612130777E+04  0.15729951219E+04  0.50400001928E-02 0. -1.
       -1    1    3    3    0  502  0.56979915006E+03 -0.12041147622E+03  0.11035333168E+04  0.12477803397E+04  0.50400001928E-02 0.  1.
</event>
<event>
 5   0  0.1346049E-07  0.2799422E+04  0.7818609E-02  0.8303448E-01
       -1   -1    0    0    0  501  0.00000000000E+00  0.00000000000E+00  0.68525729579E+03  0.68525729581E+03  0.50400001928E-02 0.  1.
        1   -1    0    0  501    0  0.00000000000E+00  0.00000000000E+00 -0.28590586618E+04  0.28590586618E+04  0.50400001928E-02 0. -1.
    10030    2    1    2    0    0  0.00000000000E+00  0.00000000000E+00 -0.21738013660E+04  0.35443159576E+04  0.27994219454E+04 0.  0.
        1    1    3    3  502    0  0.44703570563E+03 -0.12765951720E+04 -0.63101272679E+03  0.14925525842E+04  0.50400001928E-02 0.  1.
       -1    1    3    3    0  502 -0.44703570563E+03  0.12765951720E+04 -0.15427886392E+04  0.20517633734E+04  0.50400001928E-02 0. -1.
</event>
<event>
 5   0  0.1366235E-07  0.2799415E+04  0.7818609E-02  0.8303450E-01
       -1   -1    0    0    0  501  0.00000000000E+00  0.00000000000E+00  0.10231393286E+04  0.10231393286E+04  0.50400001928E-02 0.  1.
        1   -1    0    0  501    0  0.00000000000E+00  0.00000000000E+00 -0.19148724164E+04  0.19148724164E+04  0.50400001928E-02 0. -1.
    10030    2    1    2    0    0  0.00000000000E+00  0.00000000000E+00 -0.89173308778E+03  0.29380117450E+04  0.27994151378E+04 0.  0.
        2    1    3    3  502    0 -0.10711617098E+04  0.23671809846E+03 -0.13582506595E+04  0.17459288991E+04  0.25500000920E-02 0. -1.
       -2    1    3    3    0  502  0.10711617098E+04 -0.23671809846E+03  0.46651757170E+03  0.11920828459E+04  0.25500000920E-02 0.  1.
</event>
<event>
 5   0  0.3406920E-07  0.2800422E+04  0.7818609E-02  0.8303137E-01
       -2   -1    0    0    0  501  0.00000000000E+00  0.00000000000E+00  0.10154306206E+04  0.10154306206E+04  0.25500000920E-02 0.  1.
        2   -1    0    0  501    0  0.00000000000E+00  0.00000000000E+00 -0.19307973584E+04  0.19307973584E+04  0.25500000920E-02 0. -1.
    10030    2    1    2    0    0  0.00000000000E+00  0.00000000000E+00 -0.91536673780E+03  0.29462279791E+04  0.28004219396E+04 0.  0.
        4    1    3    3  502    0 -0.89785308057E+03  0.96894339643E+03 -0.94618377272E+03  0.16248867051E+04  0.12699999809E+01 0. -1.
       -4    1    3    3    0  502  0.89785308057E+03 -0.96894339643E+03  0.30817034923E+02  0.13213412740E+04  0.12699999809E+01 0.  1.
</event>
<event>
 5   0  0.3557628E-07  0.2799828E+04  0.7818609E-02  0.8303322E-01
        2   -1    0    0  501    0  0.00000000000E+00  0.00000000000E+00  0.21763383281E+04  0.21763383281E+04  0.25500000920E-02 0.  1.
       -2   -1    0    0    0  501  0.00000000000E+00  0.00000000000E+00 -0.90048441867E+03  0.90048441868E+03  0.25500000920E-02 0. -1.
    10030    2    1    2    0    0  0.00000000000E+00  0.00000000000E+00  0.12758539094E+04  0.30768227468E+04  0.27998276763E+04 0.  0.
        5    1    3    3  502    0 -0.22729010091E+03 -0.10864905522E+04  0.15753200383E+04  0.19271164529E+04  0.46999998093E+01 0.  1.
       -5    1    3    3    0  502  0.22729010091E+03  0.10864905522E+04 -0.29946612886E+03  0.11497062939E+04  0.46999998093E+01 0. -1.
</event>
<event>
 5   0  0.3406920E-07  0.2800669E+04  0.7818609E-02  0.8303061E-01
       -2   -1    0    0    0  501  0.00000000000E+00  0.00000000000E+00  0.98354413788E+03  0.98354413788E+03  0.25500000920E-02 0.  1.
        2   -1    0    0  501    0  0.00000000000E+00  0.00000000000E+00 -0.19937450090E+04  0.19937450090E+04  0.25500000920E-02 0. -1.
    10030    2    1    2    0    0  0.00000000000E+00  0.00000000000E+00 -0.10102008711E+04  0.29772891469E+04  0.28006686459E+04 0.  0.
        4    1    3    3  502    0  0.13930840351E+04  0.14222382280E+03 -0.51029297673E+03  0.14904064143E+04  0.12699999809E+01 0.  1.
       -4    1    3    3    0  502 -0.13930840351E+04 -0.14222382280E+03 -0.49990789436E+03  0.14868827326E+04  0.12699999809E+01 0. -1.
</event>
<event>
 5   0  0.3522569E-07  0.2807038E+04  0.7818609E-02  0.8301087E-01
       -2   -1    0    0    0  501  0.00000000000E+00  0.00000000000E+00  0.10474030559E+04  0.10474030559E+04  0.25500000920E-02 0. -1.
        2   -1    0    0  501    0  0.00000000000E+00  0.00000000000E+00 -0.18807135931E+04  0.18807135931E+04  0.25500000920E-02 0.  1.
    10030    2    1    2    0    0  0.00000000000E+00  0.00000000000E+00 -0.83331053726E+03  0.29281166490E+04  0.28070377017E+04 0.  0.
        1    1    3    3  502    0 -0.60686462049E+03  0.55532455651E+03  0.76958362449E+03  0.11264674810E+04  0.50400001928E-02 0. -1.
       -1    1    3    3    0  502  0.60686462049E+03 -0.55532455651E+03 -0.16028941617E+04  0.18016491680E+04  0.50400001928E-02 0.  1.
</event>
<event>
 5   0  0.3557628E-07  0.2800594E+04  0.7818609E-02  0.8303084E-01
        2   -1    0    0  501    0  0.00000000000E+00  0.00000000000E+00  0.12010681690E+04  0.12010681690E+04  0.25500000920E-02 0. -1.
       -2   -1    0    0    0  501  0.00000000000E+00  0.00000000000E+00 -0.16325732439E+04  0.16325732439E+04  0.25500000920E-02 0.  1.
    10030    2    1    2    0    0  0.00000000000E+00  0.00000000000E+00 -0.43150507492E+03  0.28336414129E+04  0.28005940490E+04 0.  0.
        5    1    3    3  502    0 -0.49263519042E+01 -0.13437540714E+04  0.18273539962E+03  0.13561392221E+04  0.46999998093E+01 0. -1.
       -5    1    3    3    0  502  0.49263519042E+01  0.13437540714E+04 -0.61424047454E+03  0.14775021908E+04  0.46999998093E+01 0.  1.
</event>
<event>
 5   0  0.3502141E-07  0.2812210E+04  0.7818609E-02  0.8299488E-01
       -2   -1    0    0    0  501  0.00000000000E+00  0.00000000000E+00  0.11548724007E+04  0.11548724007E+04  0.25500000920E-02 0. -1.
        2   -1    0    0  501    0  0.00000000000E+00  0.00000000000E+00 -0.17119905665E+04  0.17119905665E+04  0.25500000920E-02 0.  1.
    10030    2    1    2    0    0  0.00000000000E+00  0.00000000000E+00 -0.55711816576E+03  0.28668629672E+04  0.28122095623E+04 0.  0.
        3    1    3    3  502    0  0.13611029273E+04 -0.30169499586E+02 -0.63698742042E+03  0.15030849481E+04  0.10100000352E+00 0.  1.
       -3    1    3    3    0  502 -0.13611029273E+04  0.30169499586E+02  0.79869254659E+02  0.13637780191E+04  0.10100000352E+00 0. -1.
</event>
<event>
 5   0  0.3406920E-07  0.2808435E+04  0.7818609E-02  0.8300654E-01
       -2   -1    0    0    0  501  0.00000000000E+00  0.00000000000E+00  0.16462786984E+04  0.16462786984E+04  0.25500000920E-02 0.  1.
        2   -1    0    0  501    0  0.00000000000E+00  0.00000000000E+00 -0.11977479074E+04  0.11977479074E+04  0.25500000920E-02 0. -1.
    10030    2    1    2    0    0  0.00000000000E+00  0.00000000000E+00  0.44853079102E+03  0.28440266058E+04  0.28084350560E+04 0.  0.
        4    1    3    3  502    0  0.54756925335E+03 -0.80918333379E+03  0.12456181245E+04  0.15830906102E+04  0.12699999809E+01 0. -1.
       -4    1    3    3    0  502 -0.54756925335E+03  0.80918333379E+03 -0.79708733351E+03  0.12609359956E+04  0.12699999809E+01 0.  1.
</event>
<event>
 5   0  0.1374680E-07  0.2801443E+04  0.7818609E-02  0.8302820E-01
       -1   -1    0    0    0  501  0.00000000000E+00  0.00000000000E+00  0.17725304718E+04  0.17725304718E+04  0.50400001928E-02 0. -1.
        1   -1    0    0  501    0  0.00000000000E+00  0.00000000000E+00 -0.11069041367E+04  0.11069041367E+04  0.50400001928E-02 0.  1.
    10030    2    1    2    0    0  0.00000000000E+00  0.00000000000E+00  0.66562633514E+03  0.28794346085E+04  0.28014434220E+04 0.  0.
        3    1    3    3  502    0  0.34281888546E+03  0.91486638558E+03 -0.69888187171E+03  0.12012248634E+04  0.10100000352E+00 0.  1.
       -3    1    3    3    0  502 -0.34281888546E+03 -0.91486638558E+03  0.13645082068E+04  0.16782097451E+04  0.10100000352E+00 0. -1.
</event>
<event>
 5   0  0.1366235E-07  0.2798903E+04  0.7818609E-02  0.8303609E-01
        1   -1    0    0  501    0  0.00000000000E+00  0.00000000000E+00  0.22325030034E+04  0.22325030034E+04  0.50400001928E-02 0. -1.
       -1   -1    0    0    0  501  0.00000000000E+00  0.00000000000E+00 -0.87725082303E+03  0.87725082305E+03  0.50400001928E-02 0.  1.
    10030    2    1    2    0    0  0.00000000000E+00  0.00000000000E+00  0.13552521803E+04  0.31097538264E+04  0.27989034261E+04 0.  0.
        2    1    3    3  502    0 -0.27059426385E+03 -0.90391405424E+03  0.18259409203E+04  0.20553204416E+04  0.25500000920E-02 0. -1.
       -2    1    3    3    0  502  0.27059426385E+03  0.90391405424E+03 -0.47068874000E+03  0.10544333848E+04  0.25500000920E-02 0.  1.
</event>
<event>
 5   0  0.1361741E-07  0.2802486E+04  0.7818609E-02  0.8302497E-01
        1   -1    0    0  501    0  0.00000000000E+00  0.00000000000E+00  0.12471477255E+04  0.12471477255E+04  0.50400001928E-02 0. -1.
       -1   -1    0    0    0  501  0.00000000000E+00  0.00000000000E+00 -0.15743775973E+04  0.15743775973E+04  0.50400001928E-02 0.  1.
    10030    2    1    2    0    0  0.00000000000E+00  0.00000000000E+00 -0.32722987179E+03  0.28215253228E+04  0.28024856393E+04 0.  0.
        5    1    3    3  502    0 -0.98273564874E+03 -0.99145131590E+03 -0.28574148930E+03  0.14249264387E+04  0.46999998093E+01 0.  1.
       -5    1    3    3    0  502  0.98273564874E+03  0.99145131590E+03 -0.41488382488E+02  0.13965988841E+04  0.46999998093E+01 0. -1.
</event>
<event>
 5   0  0.3406920E-07  0.2799645E+04  0.7818609E-02  0.8303379E-01
       -2   -1    0    0    0  501  0.00000000000E+00  0.00000000000E+00  0.90247099088E+03  0.90247099089E+03  0.25500000920E-02 0. -1.
        2   -1    0    0  501    0  0.00000000000E+00  0.00000000000E+00 -0.21712645511E+04  0.21712645511E+04  0.25500000920E-02 0.  1.
    10030    2    1    2    0    0  0.00000000000E+00  0.00000000000E+00 -0.12687935602E+04  0.30737355420E+04  0.27996451710E+04 0.  0.
        4    1    3    3  502    0 -0.84296784553E+03  0.76222783958E+03  0.26287559525E+03  0.11664867164E+04  0.12699999809E+01 0. -1.
       -4    1    3    3    0  502  0.84296784553E+03 -0.76222783958E+03 -0.15316691555E+04  0.19072488256E+04  0.12699999809E+01 0.  1.
</event>
<event>
 5   0  0.1346049E-07  0.2800214E+04  0.7818609E-02  0.8303202E-01
       -1   -1    0    0    0  501  0.00000000000E+00  0.00000000000E+00  0.74798724012E+03  0.74798724014E+03  0.50400001928E-02 0.  1.
        1   -1    0    0  501    0  0.00000000000E+00  0.00000000000E+00 -0.26207660852E+04  0.26207660852E+04  0.50400001928E-02 0. -1.
    10030    2    1    2    0    0  0.00000000000E+00  0.00000000000E+00 -0.18727788451E+04  0.33687533253E+04  0.28002139855E+04 0.  0.
        1    1    3    3  502    0 -0.38818129660E+03 -0.91557465592E+03  0.24927875250E+03  0.10252324449E+04  0.50400001928E-02 0.  1.
       -1    1    3    3    0  502  0.38818129660E+03  0.91557465592E+03 -0.21220575976E+04  0.23435208804E+04  0.50400001928E-02 0. -1.
</event>
<event>
 5   0  0.1361741E-07  0.2798649E+04  0.7818609E-02  0.8303688E-01
        1   -1    0    0  501    0  0.00000000000E+00  0.00000000000E+00  0.13876753607E+04  0.13876753607E+04  0.50400001928E-02 0. -1.
       -1   -1    0    0    0  501  0.00000000000E+00  0.00000000000E+00 -0.14110716670E+04  0.14110716670E+04  0.50400001928E-02 0.  1.
    10030    2    1    2    0    0  0.00000000000E+00  0.00000000000E+00 -0.23396306313E+02  0.27987470277E+04  0.27986492345E+04 0.  0.
        5    1    3    3  502    0  0.96487326134E+02 -0.74374197818E+03  0.11697090148E+04  0.13894974644E+04  0.46999998093E+01 0. -1.
       -5    1    3    3    0  502 -0.96487326134E+02  0.74374197818E+03 -0.11931053212E+04  0.14092495633E+04  0.46999998093E+01 0.  1.
</event>
<event>
 5   0  0.1346049E-07  0.2799761E+04  0.7818609E-02  0.8303343E-01
       -1   -1    0    0    0  501  0.00000000000E+00  0.00000000000E+00  0.21666973244E+04  0.21666973244E+04  0.50400001928E-02 0. -1.
        1   -1    0    0  501    0  0.00000000000E+00  0.00000000000E+00 -0.90444818425E+03  0.90444818426E+03  0.50400001928E-02 0.  1.
    10030    2    1    2    0    0  0.00000000000E+00  0.00000000000E+00  0.12622491402E+04  0.30711455087E+04  0.27997610333E+04 0.  0.
        1    1    3    3  502    0 -0.13266628576E+04  0.48549013203E+02  0.14391648990E+03  0.13353289109E+04  0.50400001928E-02 0.  1.
       -1    1    3    3    0  502  0.13266628576E+04 -0.48549013203E+02  0.11183326503E+04  0.17358165977E+04  0.50400001928E-02 0. -1.
</event>
<event>
 5   0  0.1366235E-07  0.2800702E+04  0.7818609E-02  0.8303050E-01
        1   -1    0    0  501    0  0.00000000000E+00  0.00000000000E+00  0.26714836958E+04  0.26714836958E+04  0.50400001928E-02 0. -1.
       -1   -1    0    0    0  501  0.00000000000E+00  0.00000000000E+00 -0.73404268325E+03  0.73404268327E+03  0.50400001928E-02 0.  1.
    10030    2    1    2    0    0  0.00000000000E+00  0.00000000000E+00  0.19374410125E+04  0.34055263790E+04  0.28007020979E+04 0.  0.
        2    1    3    3  502    0  0.15823835359E+03 -0.11062987581E+04 -0.57336720699E+02  0.11190280686E+04  0.25500000920E-02 0.  1.
       -2    1    3    3    0  502 -0.15823835359E+03  0.11062987581E+04  0.19947777332E+04  0.22864983104E+04  0.25500000920E-02 0. -1.
</event>
<event>
 5   0  0.3557628E-07  0.2796157E+04  0.7818609E-02  0.8304462E-01
       -2   -1    0    0    0  501  0.00000000000E+00  0.00000000000E+00  0.13574139834E+04  0.13574139834E+04  0.25500000920E-02 0.  1.
        2   -1    0    0  501    0  0.00000000000E+00  0.00000000000E+00 -0.14399615023E+04  0.14399615023E+04  0.25500000920E-02 0. -1.
    10030    2    1    2    0    0  0.00000000000E+00  0.00000000000E+00 -0.82547518876E+02  0.27973754857E+04  0.27961572766E+04 0.  0.
        5    1    3    3  502    0  0.49785542381E+03 -0.13008503894E+04 -0.16186685066E+03  0.14022463143E+04  0.46999998093E+01 0.  1.
       -5    1    3    3    0  502 -0.49785542381E+03  0.13008503894E+04  0.79319331782E+02  0.13951291714E+04  0.46999998093E+01 0. -1.
</event>
<event>
 5   0  0.3406920E-07  0.2799557E+04  0.7818609E-02  0.8303406E-01
        2   -1    0    0  501    0  0.00000000000E+00  0.00000000000E+00  0.17317329716E+04  0.17317329716E+04  0.25500000920E-02 0.  1.
       -2   -1    0    0    0  501  0.00000000000E+00  0.00000000000E+00 -0.11314558474E+04  0.11314558474E+04  0.25500000920E-02 0. -1.
    10030    2    1    2    0    0  0.00000000000E+00  0.00000000000E+00  0.60027712420E+03  0.28631888190E+04  0.27995566770E+04 0.  0.
        4    1    3    3  502    0  0.61285050122E+03  0.22011964713E+03  0.15673903745E+04  0.16972779958E+04  0.12699999809E+01 0.  1.
       -4    1    3    3    0  502 -0.61285050122E+03 -0.22011964713E+03 -0.96711325032E+03  0.11659108232E+04  0.12699999809E+01 0. -1.
</event>
<event>
 5   0  0.1374680E-07  0.2799733E+04  0.7818609E-02  0.8303351E-01
        1   -1    0    0  501    0  0.00000000000E+00  0.00000000000E+00  0.62792463133E+03  0.62792463135E+03  0.50400001928E-02 0.  1.
       -1   -1    0    0    0  501  0.00000000000E+00  0.00000000000E+00 -0.31207989007E+04  0.31207989007E+04  0.50400001928E-02 0. -1.
    10030    2    1    2    0    0  0.00000000000E+00  0.00000000000E+00 -0.24928742694E+04  0.37487235321E+04  0.27997332010E+04 0.  0.
        3    1    3    3  502    0 -0.49346943156E+03  0.13036528895E+04 -0.14189681904E+04  0.19890936810E+04  0.10100000352E+00 0.  1.
       -3    1    3    3    0  502  0.49346943156E+03 -0.13036528895E+04 -0.10739060790E+04  0.17596298511E+04  0.10100000352E+00 0. -1.
</event>
<event>
 5   0  0.1366235E-07  0.2796709E+04  0.7818609E-02  0.8304291E-01
        1   -1    0    0  501    0  0.00000000000E+00  0.00000000000E+00  0.25912186544E+04  0.25912186544E+04  0.50400001928E-02 0. -1.
       -1   -1    0    0    0  501  0.00000000000E+00  0.00000000000E+00 -0.75462389438E+03  0.75462389440E+03  0.50400001928E-02 0.  1.
    10030    2    1    2    0    0  0.00000000000E+00  0.00000000000E+00  0.18365947600E+04  0.33458425488E+04  0.27967091463E+04 0.  0.
        2    1    3    3  502    0  0.70311434382E+03  0.12019837871E+04  0.76574186527E+03  0.15891807352E+04  0.25500000920E-02 0. -1.
       -2    1    3    3    0  502 -0.70311434382E+03 -0.12019837871E+04  0.10708528947E+04  0.17566618135E+04  0.25500000920E-02 0.  1.
</event>
<event>
 5   0  0.3406920E-07  0.2797583E+04  0.7818609E-02  0.8304019E-01
        2   -1    0    0  501    0  0.00000000000E+00  0.00000000000E+00  0.12610116212E+04  0.12610116212E+04  0.25500000920E-02 0.  1.
       -2   -1    0    0    0  501  0.00000000000E+00  0.00000000000E+00 -0.15516255754E+04  0.15516255754E+04  0.25500000920E-02 0. -1.
    10030    2    1    2    0    0  0.00000000000E+00  0.00000000000E+00 -0.29061395421E+03  0.28126371967E+04  0.27975831587E+04 0.  0.
        4    1    3    3  502    0 -0.59229753313E+03 -0.11684111995E+04  0.34785798533E+03  0.13553626414E+04  0.12699999809E+01 0.  1.
       -4    1    3    3    0  502  0.59229753313E+03  0.11684111995E+04 -0.63847193954E+03  0.14572745552E+04  0.12699999809E+01 0. -1.
</event>
<event>
 5   0  0.1346049E-07  0.2799299E+04  0.7818609E-02  0.8303486E-01
       -1   -1    0    0    0  501  0.00000000000E+00  0.00000000000E+00  0.21605493508E+04  0.21605493508E+04  0.50400001928E-02 0. -1.
        1   -1    0    0  501    0  0.00000000000E+00  0.00000000000E+00 -0.90672218389E+03  0.90672218391E+03  0.50400001928E-02 0.  1.
    10030    2    1    2    0    0  0.00000000000E+00  0.00000000000E+00  0.12538271669E+04  0.30672715347E+04  0.27992985019E+04 0.  0.
        1    1    3    3  502    0 -0.78859222931E+03  0.62313392479E+03  0.16942480145E+04  0.19699365287E+04  0.50400001928E-02 0. -1.
       -1    1    3    3    0  502  0.78859222931E+03 -0.62313392479E+03 -0.44042084762E+03  0.10973350060E+04  0.50400001928E-02 0.  1.
</event>
<event>
 5   0  0.3522569E-07  0.2797786E+04  0.7818609E-02  0.8303956E-01
       -2   -1    0    0    0  501  0.00000000000E+00  0.00000000000E+00  0.11346937927E+04  0.11346937927E+04  0.25500000920E-02 0.  1.
        2   -1    0    0  501    0  0.00000000000E+00  0.00000000000E+00 -0.17246079898E+04  0.17246079898E+04  0.25500000920E-02 0. -1.
    10030    2    1    2    0    0  0.00000000000E+00  0.00000000000E+00 -0.58991419708E+03  0.28593017825E+04  0.27977862541E+04 0.  0.
        1    1    3    3  502    0  0.73215330049E+03  0.77882357140E+03 -0.12171766226E+04  0.16199177576E+04  0.50400001928E-02 0. -1.
       -1    1    3    3    0  502 -0.73215330049E+03 -0.77882357140E+03  0.62726242552E+03  0.12393840249E+04  0.50400001928E-02 0.  1.
</event>
<event>
 5   0  0.1346049E-07  0.2800462E+04  0.7818609E-02  0.8303125E-01
       -1   -1    0    0    0  501  0.00000000000E+00  0.00000000000E+00  0.15593347522E+04  0.15593347522E+04  0.50400001928E-02 0.  1.
        1   -1    0    0  501    0  0.00000000000E+00  0.00000000000E+00 -0.12573614953E+04  0.12573614953E+04  0.50400001928E-02 0. -1.
    10030    2    1    2    0    0  0.00000000000E+00  0.00000000000E+00  0.30197325688E+03  0.28166962474E+04  0.28004624444E+04 0.  0.
        1    1    3    3  502    0 -0.80276603598E+02  0.12575994457E+04  0.76497330443E+03  0.14741726003E+04  0.50400001928E-02 0.  1.
       -1    1    3    3    0  502  0.80276603598E+02 -0.12575994457E+04 -0.46300004755E+03  0.13425236471E+04  0.50400001928E-02 0. -1.
</event>
<event>
 5   0  0.1346049E-07  0.2799397E+04  0.7818609E-02  0.8303456E-01
        1   -1    0    0  501    0  0.00000000000E+00  0.00000000000E+00  0.12119093900E+04  0.12119093900E+04  0.50400001928E-02 0.  1.
       -1   -1    0    0    0  501  0.00000000000E+00  0.00000000000E+00 -0.16165860153E+04  0.16165860153E+04  0.50400001928E-02 0. -1.
    10030    2    1    2    0    0  0.00000000000E+00  0.00000000000E+00 -0.40467662529E+03  0.28284954053E+04  0.27993969148E+04 0.  0.
        1    1    3    3  502    0  0.11529589423E+04  0.77440643777E+03 -0.26936267256E+02  0.13891526971E+04  0.50400001928E-02 0. -1.
       -1    1    3    3    0  502 -0.11529589423E+04 -0.77440643777E+03 -0.37774035803E+03  0.14393427082E+04  0.50400001928E-02 0.  1.
</event>
<event>
 5   0  0.3502141E-07  0.2798219E+04  0.7818609E-02  0.8303822E-01
        2   -1    0    0  501    0  0.00000000000E+00  0.00000000000E+00  0.14328291976E+04  0.14328291976E+04  0.25500000920E-02 0.  1.
       -2   -1    0    0    0  501  0.00000000000E+00  0.00000000000E+00 -0.13661830633E+04  0.13661830633E+04  0.25500000920E-02 0. -1.
    10030    2    1    2    0    0  0.00000000000E+00  0.00000000000E+00  0.66646134270E+02  0.27990122609E+04  0.27982187065E+04 0.  0.
        3    1    3    3  502    0 -0.11716863732E+04 -0.44959848724E+03  0.65197984231E+03  0.14142367135E+04  0.10100000352E+00 0.  1.
       -3    1    3    3    0  502  0.11716863732E+04  0.44959848724E+03 -0.58533370804E+03  0.13847755474E+04  0.10100000352E+00 0. -1.
</event>
<event>
 5   0  0.1173363E-07  0.2800010E+04  0.7818609E-02  0.8303265E-01
       -3   -1    0    0    0  501  0.00000000000E+00  0.00000000000E+00  0.16540452073E+04  0.16540452104E+04  0.10100000352E+00 0.  1.
        3   -1    0    0  501    0  0.00000000000E+00  0.00000000000E+00 -0.11849821954E+04  0.11849821997E+04  0.10100000352E+00 0. -1.
    10030    2    1    2    0    0  0.00000000000E+00  0.00000000000E+00  0.46906301191E+03  0.28390274100E+04  0.28000100939E+04 0.  0.
        2    1    3    3  502    0 -0.64801338378E+02  0.10113300052E+04 -0.74486147449E+03  0.12576987752E+04  0.25500000920E-02 0. -1.
       -2    1    3    3    0  502  0.64801338378E+02 -0.10113300052E+04  0.12139244864E+04  0.15813286349E+04  0.25500000920E-02 0.  1.
</event>
<event>
 5   0  0.3502141E-07  0.2799820E+04  0.7818609E-02  0.8303324E-01
       -2   -1    0    0    0  501  0.00000000000E+00  0.00000000000E+00  0.84203795946E+03  0.84203795946E+03  0.25500000920E-02 0.  1.
        2   -1    0    0  501    0  0.00000000000E+00  0.00000000000E+00 -0.23273868597E+04  0.23273868597E+04  0.25500000920E-02 0. -1.
    10030    2    1    2    0    0  0.00000000000E+00  0.00000000000E+00 -0.14853489003E+04  0.31694248192E+04  0.27998200530E+04 0.  0.
        3    1    3    3  502    0  0.41835031447E+03 -0.16287977489E+02  0.76950888549E+03  0.87602866327E+03  0.10100000352E+00 0.  1.
       -3    1    3    3    0  502 -0.41835031447E+03  0.16287977489E+02 -0.22548577858E+04  0.22933961559E+04  0.10100000352E+00 0. -1.
</event>
<event>
 5   0  0.3406920E-07  0.2801867E+04  0.7818609E-02  0.8302689E-01
        2   -1    0    0  501    0  0.00000000000E+00  0.00000000000E+00  0.11958696935E+04  0.11958696935E+04  0.25500000920E-02 0. -1.
       -2   -1    0    0    0  501  0.00000000000E+00  0.00000000000E+00 -0.16411610748E+04  0.16411610748E+04  0.25500000920E-02 0.  1.
    10030    2    1    2    0    0  0.00000000000E+00  0.00000000000E+00 -0.44529138133E+03  0.28370307683E+04  0.28018670857E+04 0.  0.
        4    1    3    3  502    0  0.29786817889E+03  0.81200310047E+03  0.89324638544E+03  0.12433684913E+04  0.12699999809E+01 0. -1.
       -4    1    3    3    0  502 -0.29786817889E+03 -0.81200310047E+03 -0.13385377668E+04  0.15936622770E+04  0.12699999809E+01 0.  1.
</event>
<event>
 5   0  0.3502141E-07  0.2800725E+04  0.7818609E-02  0.8303043E-01
        2   -1    0    0  501    0  0.00000000000E+00  0.00000000000E+00  0.13589010782E+04  0.13589010782E+04  0.25500000920E-02 0.  1.
       -2   -1    0    0    0  501  0.00000000000E+00  0.00000000000E+00 -0.14430890569E+04  0.14430890569E+04  0.25500000920E-02 0. -1.
    10030    2    1    2    0    0  0.00000000000E+00  0.00000000000E+00 -0.84187978777E+02  0.28019901351E+04  0.28007251028E+04 0.  0.
        3    1    3    3  502    0  0.30407284466E+03 -0.13289957727E+04 -0.36212158818E+03  0.14106105463E+04  0.10100000352E+00 0. -1.
       -3    1    3    3    0  502 -0.30407284466E+03  0.13289957727E+04  0.27793360940E+03  0.13913795888E+04  0.10100000352E+00 0.  1.
</event>
<event>
 5   0  0.3522569E-07  0.2802832E+04  0.7818609E-02  0.8302390E-01
       -2   -1    0    0    0  501  0.00000000000E+00  0.00000000000E+00  0.88718214081E+03  0.88718214082E+03  0.25500000920E-02 0.  1.
        2   -1    0    0  501    0  0.00000000000E+00  0.00000000000E+00 -0.22137133002E+04  0.22137133002E+04  0.25500000920E-02 0. -1.
    10030    2    1    2    0    0  0.00000000000E+00  0.00000000000E+00 -0.13265311594E+04  0.31008954410E+04  0.28028320712E+04 0.  0.
        1    1    3    3  502    0 -0.11163833317E+04 -0.32567366595E+03 -0.15284742843E+04  0.19205751007E+04  0.50400001928E-02 0. -1.
       -1    1    3    3    0  502  0.11163833317E+04  0.32567366595E+03  0.20194312488E+03  0.11803203403E+04  0.50400001928E-02 0.  1.
</event>
<event>
 5   0  0.1366235E-07  0.2801136E+04  0.7818609E-02  0.8302916E-01
        1   -1    0    0  501    0  0.00000000000E+00  0.00000000000E+00  0.11077354720E+04  0.11077354720E+04  0.50400001928E-02 0.  1.
       -1   -1    0    0    0  501  0.00000000000E+00  0.00000000000E+00 -0.17708112871E+04  0.17708112871E+04  0.50400001928E-02 0. -1.
    10030    2    1    2    0    0  0.00000000000E+00  0.00000000000E+00 -0.66307581512E+03  0.28785467591E+04  0.28011358246E+04 0.  0.
        2    1    3    3  502    0  0.83239803329E+03 -0.10181872453E+04  0.16343555953E+03  0.13252557996E+04  0.25500000920E-02 0.  1.
       -2    1    3    3    0  502 -0.83239803329E+03  0.10181872453E+04 -0.82651137465E+03  0.15532909595E+04  0.25500000920E-02 0. -1.
</event>
<event>
 5   0  0.1357902E-07  0.2800133E+04  0.7818609E-02  0.8303227E-01
        1   -1    0    0  501    0  0.00000000000E+00  0.00000000000E+00  0.14872267119E+04  0.14872267119E+04  0.50400001928E-02 0. -1.
       -1   -1    0    0    0  501  0.00000000000E+00  0.00000000000E+00 -0.13180145072E+04  0.13180145072E+04  0.50400001928E-02 0.  1.
    10030    2    1    2    0    0  0.00000000000E+00  0.00000000000E+00  0.16921220468E+03  0.28052412192E+04  0.28001331267E+04 0.  0.
        4    1    3    3  502    0 -0.42113226480E+03 -0.10437665907E+04 -0.74960956609E+03  0.13523007043E+04  0.12699999809E+01 0.  1.
       -4    1    3    3    0  502  0.42113226480E+03  0.10437665907E+04  0.91882177077E+03  0.14529405149E+04  0.12699999809E+01 0. -1.
</event>
<event>
 5   0  0.3557628E-07  0.2800477E+04  0.7818609E-02  0.8303120E-01
        2   -1    0    0  501    0  0.00000000000E+00  0.00000000000E+00  0.16897925238E+04  0.16897925238E+04  0.25500000920E-02 0.  1.
       -2   -1    0    0    0  501  0.00000000000E+00  0.00000000000E+00 -0.11603008999E+04  0.11603008999E+04  0.25500000920E-02 0. -1.
    10030    2    1    2    0    0  0.00000000000E+00  0.00000000000E+00  0.52949162396E+03  0.28500934237E+04  0.28004769494E+04 0.  0.
        5    1    3    3  502    0  0.82457795096E+03  0.18586235584E+02 -0.88683676249E+03  0.12111051889E+04  0.46999998093E+01 0. -1.
       -5    1    3    3    0  502 -0.82457795096E+03 -0.18586235584E+02  0.14163283865E+04  0.16389882347E+04  0.46999998093E+01 0.  1.
</event>
<event>
 5   0  0.1346049E-07  0.2799532E+04  0.7818609E-02  0.8303414E-01
       -1   -1    0    0    0  501  0.00000000000E+00  0.00000000000E+00  0.11405106652E+04  0.11405106652E+04  0.50400001928E-02 0. -1.
        1   -1    0    0  501    0  0.00000000000E+00  0.00000000000E+00 -0.17179539890E+04  0.17179539890E+04  0.50400001928E-02 0.  1.
    10030    2    1    2    0    0  0.00000000000E+00  0.00000000000E+00 -0.57744332378E+03  0.28584646541E+04  0.27995319943E+04 0.  0.
        1    1    3    3  502    0 -0.34875630329E+03  0.62781003083E+03  0.93805663022E+03  0.11814087504E+04  0.50400001928E-02 0. -1.
       -1    1    3    3    0  502  0.34875630329E+03 -0.62781003083E+03 -0.15154999540E+04  0.16770559038E+04  0.50400001928E-02 0.  1.
</event>
<event>
 5   0  0.1357902E-07  0.2795855E+04  0.7818609E-02  0.8304556E-01
        1   -1    0    0  501    0  0.00000000000E+00  0.00000000000E+00  0.22591592168E+04  0.22591592168E+04  0.50400001928E-02 0.  1.
       -1   -1    0    0    0  501  0.00000000000E+00  0.00000000000E+00 -0.86501253109E+03  0.86501253110E+03  0.50400001928E-02 0. -1.
    10030    2    1    2    0    0  0.00000000000E+00  0.00000000000E+00  0.13941466857E+04  0.31241717479E+04  0.27958548119E+04 0.  0.
        4    1    3    3  502    0 -0.64419954053E+03 -0.12073635016E+04  0.37810680834E+03  0.14197485850E+04  0.12699999809E+01 0. -1.
       -4    1    3    3    0  502  0.64419954053E+03  0.12073635016E+04  0.10160398774E+04  0.17044231629E+04  0.12699999809E+01 0.  1.
</event>
<event>
 5   0  0.1361741E-07  0.2800547E+04  0.7818609E-02  0.8303099E-01
        1   -1    0    0  501    0  0.00000000000E+00  0.00000000000E+00  0.13017772888E+04  0.13017772888E+04  0.50400001928E-02 0.  1.
       -1   -1    0    0    0  501  0.00000000000E+00  0.00000000000E+00 -0.15062223631E+04  0.15062223631E+04  0.50400001928E-02 0. -1.
    10030    2    1    2    0    0  0.00000000000E+00  0.00000000000E+00 -0.20444507434E+03  0.28079996519E+04  0.28005471353E+04 0.  0.
        5    1    3    3  502    0  0.11986695914E+04  0.48090107118E+03  0.44020631339E+03  0.13645066207E+04  0.46999998093E+01 0.  1.
       -5    1    3    3    0  502 -0.11986695914E+04 -0.48090107118E+03 -0.64465138773E+03  0.14434930312E+04  0.46999998093E+01 0. -1.
</event>
<event>
 5   0  0.3406920E-07  0.2799524E+04  0.7818609E-02  0.8303416E-01
       -2   -1    0    0    0  501  0.00000000000E+00  0.00000000000E+00  0.90412490451E+03  0.90412490451E+03  0.25500000920E-02 0.  1.
        2   -1    0    0  501    0  0.00000000000E+00  0.00000000000E+00 -0.21671044361E+04  0.21671044361E+04  0.25500000920E-02 0. -1.
    10030    2    1    2    0    0  0.00000000000E+00  0.00000000000E+00 -0.12629795315E+04  0.30712293406E+04  0.27995235961E+04 0.  0.
        4    1    3    3  502    0  0.85254661904E+03 -0.90796224977E+02 -0.18453354790E+04  0.20347836089E+04  0.12699999809E+01 0. -1.
       -4    1    3    3    0  502 -0.85254661904E+03  0.90796224977E+02  0.58235594750E+03  0.10364457316E+04  0.12699999809E+01 0.  1.
</event>
<event>
 5   0  0.1346049E-07  0.2800592E+04  0.7818609E-02  0.8303085E-01
        1   -1    0    0  501    0  0.00000000000E+00  0.00000000000E+00  0.17898472275E+04  0.17898472275E+04  0.50400001928E-02 0. -1.
       -1   -1    0    0    0  501  0.00000000000E+00  0.00000000000E+00 -0.10955285011E+04  0.10955285011E+04  0.50400001928E-02 0.  1.
    10030    2    1    2    0    0  0.00000000000E+00  0.00000000000E+00  0.69431872642E+03  0.28853757286E+04  0.28005918305E+04 0.  0.
        1    1    3    3  502    0 -0.62100032040E+03  0.67535838516E+03 -0.74273095491E+03  0.11804234908E+04  0.50400001928E-02 0.  1.
       -1    1    3    3    0  502  0.62100032040E+03 -0.67535838516E+03  0.14370496813E+04  0.17049522377E+04  0.50400001928E-02 0. -1.
</event>
<event>
 5   0  0.3571498E-07  0.2811087E+04  0.7818609E-02  0.8299834E-01
       -2   -1    0    0    0  501  0.00000000000E+00  0.00000000000E+00  0.86234992081E+03  0.86234992081E+03  0.25500000920E-02 0. -1.
        2   -1    0    0  501    0  0.00000000000E+00  0.00000000000E+00 -0.22908946352E+04  0.22908946352E+04  0.25500000920E-02 0.  1.
    10030    2    1    2    0    0  0.00000000000E+00  0.00000000000E+00 -0.14285447144E+04  0.31532445560E+04  0.28110871970E+04 0.  0.
        2    1    3    3  502    0 -0.52172714012E+03  0.67937650588E+03  0.53572578729E+03  0.10103235940E+04  0.25500000920E-02 0. -1.
       -2    1    3    3    0  502  0.52172714012E+03 -0.67937650588E+03 -0.19642705017E+04  0.21429209620E+04  0.25500000920E-02 0.  1.
</event>
<event>
 5   0  0.3557628E-07  0.2786582E+04  0.7818609E-02  0.8307446E-01
        2   -1    0    0  501    0  0.00000000000E+00  0.00000000000E+00  0.17605560130E+04  0.17605560130E+04  0.25500000920E-02 0. -1.
       -2   -1    0    0    0  501  0.00000000000E+00  0.00000000000E+00 -0.11026401710E+04  0.11026401710E+04  0.25500000920E-02 0.  1.
    10030    2    1    2    0    0  0.00000000000E+00  0.00000000000E+00  0.65791584196E+03  0.28631961840E+04  0.27865819803E+04 0.  0.
        5    1    3    3  502    0 -0.21603232603E+03  0.12413466077E+04 -0.28205666438E+03  0.12911968936E+04  0.46999998093E+01 0.  1.
       -5    1    3    3    0  502  0.21603232603E+03 -0.12413466077E+04  0.93997250634E+03  0.15719992904E+04  0.46999998093E+01 0. -1.
</event>
<event>
 5   0  0.1374680E-07  0.2800109E+04  0.7818609E-02  0.8303234E-01
       -1   -1    0    0    0  501  0.00000000000E+00  0.00000000000E+00  0.10347150367E+04  0.10347150367E+04  0.50400001928E-02 0. -1.
        1   -1    0    0  501    0  0.00000000000E+00  0.00000000000E+00 -0.18943891723E+04  0.18943891723E+04  0.50400001928E-02 0.  1.
    10030    2    1    2    0    0  0.00000000000E+00  0.00000000000E+00 -0.85967413557E+03  0.29291042090E+04  0.28001092564E+04 0.  0.
        3    1    3    3  502    0  0.46251617658E+03 -0.97665546333E+03 -0.13609995285E+04  0.17378425805E+04  0.10100000352E+00 0.  1.
       -3    1    3    3    0  502 -0.46251617658E+03  0.97665546333E+03  0.50132539297E+03  0.11912616285E+04  0.10100000352E+00 0. -1.
</event>
<event>
 5   0  0.1361741E-07  0.2796180E+04  0.7818609E-02  0.8304455E-01
        1   -1    0    0  501    0  0.00000000000E+00  0.00000000000E+00  0.15836660120E+04  0.15836660120E+04  0.50400001928E-02 0. -1.
       -1   -1    0    0    0  501  0.00000000000E+00  0.00000000000E+00 -0.12342596924E+04  0.12342596924E+04  0.50400001928E-02 0.  1.
    10030    2    1    2    0    0  0.00000000000E+00  0.00000000000E+00  0.34940631963E+03  0.28179257044E+04  0.27961796257E+04 0.  0.
        5    1    3    3  502    0 -0.55756403950E+02  0.10210579944E+04 -0.78610793992E+03  0.12898278907E+04  0.46999998093E+01 0.  1.
       -5    1    3    3    0  502  0.55756403950E+02 -0.10210579944E+04  0.11355142596E+04  0.15280978137E+04  0.46999998093E+01 0. -1.
</event>
<event>
 5   0  0.3571498E-07  0.2800739E+04  0.7818609E-02  0.8303039E-01
       -2   -1    0    0    0  501  0.00000000000E+00  0.00000000000E+00  0.11716794834E+04  0.11716794834E+04  0.25500000920E-02 0. -1.
        2   -1    0    0  501    0  0.00000000000E+00  0.00000000000E+00 -0.16736956833E+04  0.16736956833E+04  0.25500000920E-02 0.  1.
    10030    2    1    2    0    0  0.00000000000E+00  0.00000000000E+00 -0.50201619984E+03  0.28453751667E+04  0.28007391121E+04 0.  0.
        2    1    3    3  502    0 -0.60326209245E+03 -0.66435192096E+03 -0.13431979345E+04  0.16153851920E+04  0.25500000920E-02 0.  1.
       -2    1    3    3    0  502  0.60326209245E+03  0.66435192096E+03  0.84118173471E+03  0.12299899747E+04  0.25500000920E-02 0. -1.
</event>
<event>
 5   0  0.1357902E-07  0.2800979E+04  0.7818609E-02  0.8302964E-01
       -1   -1    0    0    0  501  0.00000000000E+00  0.00000000000E+00  0.80680415352E+03  0.80680415354E+03  0.50400001928E-02 0. -1.
        1   -1    0    0  501    0  0.00000000000E+00  0.00000000000E+00 -0.24310372379E+04  0.24310372379E+04  0.50400001928E-02 0.  1.
    10030    2    1    2    0    0  0.00000000000E+00  0.00000000000E+00 -0.16242330844E+04  0.32378413914E+04  0.28009790724E+04 0.  0.
        4    1    3    3  502    0 -0.53913187164E+03 -0.56366452690E+03  0.53248235868E+03  0.94441513600E+03  0.12699999809E+01 0. -1.
       -4    1    3    3    0  502  0.53913187164E+03  0.56366452690E+03 -0.21567154431E+04  0.22934262554E+04  0.12699999809E+01 0.  1.
</event>
<event>
 5   0  0.3502141E-07  0.2800107E+04  0.7818609E-02  0.8303235E-01
       -2   -1    0    0    0  501  0.00000000000E+00  0.00000000000E+00  0.80072057022E+03  0.80072057022E+03  0.25500000920E-02 0.  1.
        2   -1    0    0  501    0  0.00000000000E+00  0.00000000000E+00 -0.24479826734E+04  0.24479826734E+04  0.25500000920E-02 0. -1.
    10030    2    1    2    0    0  0.00000000000E+00  0.00000000000E+00 -0.16472621032E+04  0.32487032436E+04  0.28001071995E+04 0.  0.
        3    1    3    3  502    0  0.13324136726E+04 -0.20324056275E+03 -0.38410230418E+03  0.14014876067E+04  0.10100000352E+00 0.  1.
       -3    1    3    3    0  502 -0.13324136726E+04  0.20324056275E+03 -0.12631597990E+04  0.18472156369E+04  0.10100000352E+00 0. -1.
</event>
<event>
 5   0  0.3557628E-07  0.2800126E+04  0.7818609E-02  0.8303229E-01
        2   -1    0    0  501    0  0.00000000000E+00  0.00000000000E+00  0.15156753251E+04  0.15156753251E+04  0.25500000920E-02 0.  1.
       -2   -1    0    0    0  501  0.00000000000E+00  0.00000000000E+00 -0.12932696729E+04  0.12932696729E+04  0.25500000920E-02 0. -1.
    10030    2    1    2    0    0  0.00000000000E+00  0.00000000000E+00  0.22240565219E+03  0.28089449981E+04  0.28001263771E+04 0.  0.
        5    1    3    3  502    0  0.42113511637E+03 -0.13301553736E+04  0.22770098427E+03  0.14136965489E+04  0.46999998093E+01 0. -1.
       -5    1    3    3    0  502 -0.42113511637E+03  0.13301553736E+04 -0.52953320831E+01  0.13952484491E+04  0.46999998093E+01 0.  1.
</event>
<event>
 5   0  0.3522569E-07  0.2800829E+04  0.7818609E-02  0.8303011E-01
       -2   -1    0    0    0  501  0.00000000000E+00  0.00000000000E+00  0.89545572418E+03  0.89545572419E+03  0.25500000920E-02 0. -1.
        2   -1    0    0  501    0  0.00000000000E+00  0.00000000000E+00 -0.21901252262E+04  0.21901252262E+04  0.25500000920E-02 0.  1.
    10030    2    1    2    0    0  0.00000000000E+00  0.00000000000E+00 -0.12946695020E+04  0.30855809504E+04  0.28008285706E+04 0.  0.
        1    1    3    3  502    0  0.57170399630E+03 -0.68588547765E+03  0.54117771154E+03  0.10441061552E+04  0.50400001928E-02 0. -1.
       -1    1    3    3    0  502 -0.57170399630E+03  0.68588547765E+03 -0.18358472135E+04  0.20414747952E+04  0.50400001928E-02 0.  1.
</event>
<event>
 5   0  0.1357902E-07  0.2800024E+04  0.7818609E-02  0.8303261E-01
       -1   -1    0    0    0  501  0.00000000000E+00  0.00000000000E+00  0.19340952843E+04  0.19340952843E+04  0.50400001928E-02 0.  1.
        1   -1    0    0  501    0  0.00000000000E+00  0.00000000000E+00 -0.10134113640E+04  0.10134113641E+04  0.50400001928E-02 0. -1.
    10030    2    1    2    0    0  0.00000000000E+00  0.00000000000E+00  0.92068392026E+03  0.29475066484E+04  0.28000243858E+04 0.  0.
        4    1    3    3  502    0 -0.12145167463E+04 -0.58303093782E+03  0.86126555499E+03  0.15989859194E+04  0.12699999809E+01 0. -1.
       -4    1    3    3    0  502  0.12145167463E+04  0.58303093782E+03  0.59418365266E+02  0.13485207290E+04  0.12699999809E+01 0.  1.
</event>
<event>
 5   0  0.3522569E-07  0.2800099E+04  0.7818609E-02  0.8303238E-01
       -2   -1    0    0    0  501  0.00000000000E+00  0.00000000000E+00  0.90718978981E+03  0.90718978982E+03  0.25500000920E-02 0. -1.
        2   -1    0    0  501    0  0.00000000000E+00  0.00000000000E+00 -0.21606708567E+04  0.21606708567E+04  0.25500000920E-02 0.  1.
    10030    2    1    2    0    0  0.00000000000E+00  0.00000000000E+00 -0.12534810669E+04  0.30678606465E+04  0.28000989557E+04 0.  0.
        1    1    3    3  502    0  0.76741855852E+03 -0.99735295063E+03  0.45526016462E+02  0.12592524649E+04  0.50400001928E-02 0. -1.
       -1    1    3    3    0  502 -0.76741855852E+03  0.99735295063E+03 -0.12990070834E+04  0.18086081817E+04  0.50400001928E-02 0.  1.
</event>
<event>
 5   0  0.1346049E-07  0.2801177E+04  0.7818609E-02  0.8302903E-01
        1   -1    0    0  501    0  0.00000000000E+00  0.00000000000E+00  0.14749785031E+04  0.14749785032E+04  0.50400001928E-02 0. -1.
       -1   -1    0    0    0  501  0.00000000000E+00  0.00000000000E+00 -0.13299505724E+04  0.13299505724E+04  0.50400001928E-02 0.  1.
    10030    2    1    2    0    0  0.00000000000E+00  0.00000000000E+00  0.14502793075E+03  0.28049290756E+04  0.28011772558E+04 0.  0.
        1    1    3    3  502    0 -0.27191491044E+03  0.42787158256E+03  0.13798800349E+04  0.14700614683E+04  0.50400001928E-02 0. -1.
       -1    1    3    3    0  502  0.27191491044E+03 -0.42787158256E+03 -0.12348521042E+04  0.13348676073E+04  0.50400001928E-02 0.  1.
</event>
<event>
 5   0  0.3406920E-07  0.2799251E+04  0.7818609E-02  0.8303501E-01
       -2   -1    0    0    0  501  0.00000000000E+00  0.00000000000E+00  0.10715372610E+04  0.10715372610E+04  0.25500000920E-02 0.  1.
        2   -1    0    0  501    0  0.00000000000E+00  0.00000000000E+00 -0.18281691010E+04  0.18281691010E+04  0.25500000920E-02 0. -1.
    10030    2    1    2    0    0  0.00000000000E+00  0.00000000000E+00 -0.75663183998E+03  0.28997063620E+04  0.27992508363E+04 0.  0.
        4    1    3    3  502    0 -0.96530812829E+03 -0.11892844740E+02  0.67145609219E+03  0.11759320214E+04  0.12699999809E+01 0.  1.
       -4    1    3    3    0  502  0.96530812829E+03  0.11892844740E+02 -0.14280879322E+04  0.17237743406E+04  0.12699999809E+01 0. -1.
</event>
<event>
 5   0  0.1346049E-07  0.2800589E+04  0.7818609E-02  0.8303085E-01
        1   -1    0    0  501    0  0.00000000000E+00  0.00000000000E+00  0.11340689318E+04  0.11340689318E+04  0.50400001928E-02 0. -1.
       -1   -1    0    0    0  501  0.00000000000E+00  0.00000000000E+00 -0.17290176125E+04  0.17290176125E+04  0.50400001928E-02 0.  1.
    10030    2    1    2    0    0  0.00000000000E+00  0.00000000000E+00 -0.59494868075E+03  0.28630865443E+04  0.28005893358E+04 0.  0.
        1    1    3    3  502    0 -0.76971013677E+02  0.65476304666E+03  0.96548326919E+03  0.11691009911E+04  0.50400001928E-02 0. -1.
       -1    1    3    3    0  502  0.76971013677E+02 -0.65476304666E+03 -0.15604319499E+04  0.16939855533E+04  0.50400001928E-02 0.  1.
</event>
<event>
 5   0  0.3557628E-07  0.2796708E+04  0.7818609E-02  0.8304291E-01
        2   -1    0    0  501    0  0.00000000000E+00  0.00000000000E+00  0.14021713917E+04  0.14021713917E+04  0.25500000920E-02 0.  1.
       -2   -1    0    0    0  501  0.00000000000E+00  0.00000000000E+00 -0.13945474449E+04  0.13945474449E+04  0.25500000920E-02 0. -1.
    10030    2    1    2    0    0  0.00000000000E+00  0.00000000000E+00  0.76239468064E+01  0.27967188366E+04  0.27967084450E+04 0.  0.
        5    1    3    3  502    0 -0.21667181748E+03  0.52063038584E+03 -0.12757902829E+04  0.13948711808E+04  0.46999998093E+01 0. -1.
       -5    1    3    3    0  502  0.21667181748E+03 -0.52063038584E+03  0.12834142297E+04  0.14018476558E+04  0.46999998093E+01 0.  1.
</event>
<event>
 5   0  0.3557628E-07  0.2796180E+04  0.7818609E-02  0.8304455E-01
       -2   -1    0    0    0  501  0.00000000000E+00  0.00000000000E+00  0.23910155087E+04  0.23910155087E+04  0.25500000920E-02 0. -1.
        2   -1    0    0  501    0  0.00000000000E+00  0.00000000000E+00 -0.81750047924E+03  0.81750047924E+03  0.25500000920E-02 0.  1.
    10030    2    1    2    0    0  0.00000000000E+00  0.00000000000E+00  0.15735150294E+04  0.32085159879E+04  0.27961804836E+04 0.  0.
        5    1    3    3  502    0  0.86397841600E+03 -0.41201396337E+03 -0.38254136821E+03  0.10308123970E+04  0.46999998093E+01 0.  1.
       -5    1    3    3    0  502 -0.86397841600E+03  0.41201396337E+03  0.19560563976E+04  0.21777035910E+04  0.46999998093E+01 0. -1.
</event>
<event>
 5   0  0.3571498E-07  0.2800313E+04  0.7818609E-02  0.8303171E-01
       -2   -1    0    0    0  501  0.00000000000E+00  0.00000000000E+00  0.87951803325E+03  0.87951803326E+03  0.25500000920E-02 0.  1.
        2   -1    0    0  501    0  0.00000000000E+00  0.00000000000E+00 -0.22289913317E+04  0.22289913317E+04  0.25500000920E-02 0. -1.
    10030    2    1    2    0    0  0.00000000000E+00  0.00000000000E+00 -0.13494732984E+04  0.31085093649E+04  0.28003128912E+04 0.  0.
        2    1    3    3  502    0  0.60706321056E+03 -0.10908320652E+04  0.29076577213E+02  0.12487136515E+04  0.25500000920E-02 0.  1.
       -2    1    3    3    0  502 -0.60706321056E+03  0.10908320652E+04 -0.13785498756E+04  0.18597957134E+04  0.25500000920E-02 0. -1.
</event>
<event>
 5   0  0.3571498E-07  0.2800006E+04  0.7818609E-02  0.8303267E-01
       -2   -1    0    0    0  501  0.00000000000E+00  0.00000000000E+00  0.88897878924E+03  0.88897878924E+03  0.25500000920E-02 0.  1.
        2   -1    0    0  501    0  0.00000000000E+00  0.00000000000E+00 -0.22047858009E+04  0.22047858009E+04  0.25500000920E-02 0. -1.
    10030    2    1    2    0    0  0.00000000000E+00  0.00000000000E+00 -0.13158070117E+04  0.30937645902E+04  0.28000055799E+04 0.  0.
        2    1    3    3  502    0 -0.10496950844E+04 -0.31406877464E+03 -0.16208336580E+04  0.19564254937E+04  0.25500000920E-02 0. -1.
       -2    1    3    3    0  502  0.10496950844E+04  0.31406877464E+03  0.30502664633E+03  0.11373390965E+04  0.25500000920E-02 0.  1.
</event>
<event>
 5   0  0.3522569E-07  0.2800990E+04  0.7818609E-02  0.8302961E-01
        2   -1    0    0  501    0  0.00000000000E+00  0.00000000000E+00  0.22208767757E+04  0.22208767757E+04  0.25500000920E-02 0.  1.
       -2   -1    0    0    0  501  0.00000000000E+00  0.00000000000E+00 -0.88315860406E+03  0.88315860407E+03  0.25500000920E-02 0. -1.
    10030    2    1    2    0    0  0.00000000000E+00  0.00000000000E+00  0.13377181716E+04  0.31040353797E+04  0.28009901342E+04 0.  0.
        1    1    3    3  502    0 -0.65491288890E+03 -0.12365820634E+04  0.60481035786E+03  0.15244151864E+04  0.50400001928E-02 0. -1.
       -1    1    3    3    0  502  0.65491288890E+03  0.12365820634E+04  0.73290781375E+03  0.15796201933E+04  0.50400001928E-02 0.  1.
</event>
<event>
 5   0  0.1361741E-07  0.2799017E+04  0.7818609E-02  0.8303574E-01
        1   -1    0    0  501    0  0.00000000000E+00  0.00000000000E+00  0.15942193000E+04  0.15942193000E+04  0.50400001928E-02 0.  1.
       -1   -1    0    0    0  501  0.00000000000E+00  0.00000000000E+00 -0.12285785010E+04  0.12285785011E+04  0.50400001928E-02 0. -1.
    10030    2    1    2    0    0  0.00000000000E+00  0.00000000000E+00  0.36564079894E+03  0.28227978011E+04  0.27990166544E+04 0.  0.
        5    1    3    3  502    0  0.97497652425E+03  0.60865336735E+03 -0.62243927433E+03  0.13070925310E+04  0.46999998093E+01 0. -1.
       -5    1    3    3    0  502 -0.97497652425E+03 -0.60865336735E+03  0.98808007327E+03  0.15157052700E+04  0.46999998093E+01 0.  1.
</event>
<event>
 5   0  0.1374680E-07  0.2797157E+04  0.7818609E-02  0.8304151E-01
       -1   -1    0    0    0  501  0.00000000000E+00  0.00000000000E+00  0.10906569051E+04  0.10906569051E+04  0.50400001928E-02 0.  1.
        1   -1    0    0  501    0  0.00000000000E+00  0.00000000000E+00 -0.17934351889E+04  0.17934351889E+04  0.50400001928E-02 0. -1.
    10030    2    1    2    0    0  0.00000000000E+00  0.00000000000E+00 -0.70277828377E+03  0.28840920941E+04  0.27971574662E+04 0.  0.
        3    1    3    3  502    0 -0.74038493713E+03 -0.48291687472E+03  0.76610517225E+03  0.11697417271E+04  0.10100000352E+00 0.  1.
       -3    1    3    3    0  502  0.74038493713E+03  0.48291687472E+03 -0.14688834560E+04  0.17143503669E+04  0.10100000352E+00 0. -1.
</event>
<event>
 5   0  0.3502141E-07  0.2800577E+04  0.7818609E-02  0.8303089E-01
        2   -1    0    0  501    0  0.00000000000E+00  0.00000000000E+00  0.11111554477E+04  0.11111554477E+04  0.25500000920E-02 0. -1.
       -2   -1    0    0    0  501  0.00000000000E+00  0.00000000000E+00 -0.17646571354E+04  0.17646571354E+04  0.25500000920E-02 0.  1.
    10030    2    1    2    0    0  0.00000000000E+00  0.00000000000E+00 -0.65350168769E+03  0.28758125831E+04  0.28005773614E+04 0.  0.
        3    1    3    3  502    0 -0.30395061467E+02 -0.12530192091E+02 -0.17642607652E+04  0.17645670639E+04  0.10100000352E+00 0.  1.
       -3    1    3    3    0  502  0.30395061467E+02  0.12530192091E+02  0.11107590775E+04  0.11112455192E+04  0.10100000352E+00 0. -1.
</event>
<event>
 5   0  0.1346049E-07  0.2799117E+04  0.7818609E-02  0.8303543E-01
        1   -1    0    0  501    0  0.00000000000E+00  0.00000000000E+00  0.17108397910E+04  0.17108397910E+04  0.50400001928E-02 0.  1.
       -1   -1    0    0    0  501  0.00000000000E+00  0.00000000000E+00 -0.11449137718E+04  0.11449137718E+04  0.50400001928E-02 0. -1.
    10030    2    1    2    0    0  0.00000000000E+00  0.00000000000E+00  0.56592601920E+03  0.28557535628E+04  0.27991170309E+04 0.  0.
        1    1    3    3  502    0 -0.73546881632E+03  0.11764833604E+04  0.95571428629E+02  0.13907413042E+04  0.50400001928E-02 0.  1.
       -1    1    3    3    0  502  0.73546881632E+03 -0.11764833604E+04  0.47035459057E+03  0.14650122587E+04  0.50400001928E-02 0. -1.
</event>
<event>
 5   0  0.3571498E-07  0.2795588E+04  0.7818609E-02  0.8304639E-01
       -2   -1    0    0    0  501  0.00000000000E+00  0.00000000000E+00  0.91452893424E+03  0.91452893424E+03  0.25500000920E-02 0. -1.
        2   -1    0    0  501    0  0.00000000000E+00  0.00000000000E+00 -0.21364314869E+04  0.21364314869E+04  0.25500000920E-02 0.  1.
    10030    2    1    2    0    0  0.00000000000E+00  0.00000000000E+00 -0.12219025527E+04  0.30509604211E+04  0.27955882463E+04 0.  0.
        2    1    3    3  502    0 -0.30438895271E+03 -0.14322010160E+03 -0.20915951055E+04  0.21184746204E+04  0.25500000920E-02 0.  1.
       -2    1    3    3    0  502  0.30438895271E+03  0.14322010160E+03  0.86969255285E+03  0.93248580070E+03  0.25500000920E-02 0. -1.
</event>
<event>
 5   0  0.1357902E-07  0.2799687E+04  0.7818609E-02  0.8303365E-01
       -1   -1    0    0    0  501  0.00000000000E+00  0.00000000000E+00  0.84940603650E+03  0.84940603652E+03  0.50400001928E-02 0.  1.
        1   -1    0    0  501    0  0.00000000000E+00  0.00000000000E+00 -0.23069792393E+04  0.23069792393E+04  0.50400001928E-02 0. -1.
    10030    2    1    2    0    0  0.00000000000E+00  0.00000000000E+00 -0.14575732028E+04  0.31563852758E+04  0.27996871911E+04 0.  0.
        4    1    3    3  502    0 -0.42281443343E+03  0.44494925683E+02 -0.22324309038E+04  0.22725538930E+04  0.12699999809E+01 0. -1.
       -4    1    3    3    0  502  0.42281443343E+03 -0.44494925683E+02  0.77485770100E+03  0.88383138280E+03  0.12699999809E+01 0.  1.
</event>
<event>
 5   0  0.1346049E-07  0.2799861E+04  0.7818609E-02  0.8303312E-01
       -1   -1    0    0    0  501  0.00000000000E+00  0.00000000000E+00  0.10708486222E+04  0.10708486222E+04  0.50400001928E-02 0.  1.
        1   -1    0    0  501    0  0.00000000000E+00  0.00000000000E+00 -0.18301420819E+04  0.18301420819E+04  0.50400001928E-02 0. -1.
    10030    2    1    2    0    0  0.00000000000E+00  0.00000000000E+00 -0.75929345964E+03  0.29009907041E+04  0.27998608014E+04 0.  0.
        1    1    3    3  502    0 -0.27209128865E+03  0.35928921039E+03  0.99362525848E+03  0.10910607501E+04  0.50400001928E-02 0.  1.
       -1    1    3    3    0  502  0.27209128865E+03 -0.35928921039E+03 -0.17529187181E+04  0.18099299540E+04  0.50400001928E-02 0. -1.
</event>
<event>
 5   0  0.1366235E-07  0.2800502E+04  0.7818609E-02  0.8303112E-01
        1   -1    0    0  501    0  0.00000000000E+00  0.00000000000E+00  0.25599640534E+04  0.25599640534E+04  0.50400001928E-02 0. -1.
       -1   -1    0    0    0  501  0.00000000000E+00  0.00000000000E+00 -0.76591053655E+03  0.76591053656E+03  0.50400001928E-02 0.  1.
    10030    2    1    2    0    0  0.00000000000E+00  0.00000000000E+00  0.17940535168E+04  0.33258745899E+04  0.28005024133E+04 0.  0.
        2    1    3    3  502    0  0.24208791429E+03 -0.36883344828E+02  0.25343366116E+04  0.25461400198E+04  0.25500000920E-02 0. -1.
       -2    1    3    3    0  502 -0.24208791429E+03  0.36883344828E+02 -0.74028309482E+03  0.77973457013E+03  0.25500000920E-02 0.  1.
</event>
<event>
 5   0  0.1374680E-07  0.2800249E+04  0.7818609E-02  0.8303191E-01
       -1   -1    0    0    0  501  0.00000000000E+00  0.00000000000E+00  0.11247106935E+04  0.11247106935E+04  0.50400001928E-02 0.  1.
        1   -1    0    0  501    0  0.00000000000E+00  0.00000000000E+00 -0.17429805294E+04  0.17429805294E+04  0.50400001928E-02 0. -1.
    10030    2    1    2    0    0  0.00000000000E+00  0.00000000000E+00 -0.61826983592E+03  0.28676912228E+04  0.28002491603E+04 0.  0.
        3    1    3    3  502    0  0.33721113255E+03  0.64201353832E+03 -0.15356682133E+04  0.16982843115E+04  0.10100000352E+00 0. -1.
       -3    1    3    3    0  502 -0.33721113255E+03 -0.64201353832E+03  0.91739837735E+03  0.11694069113E+04  0.10100000352E+00 0.  1.
</event>
<event>
 5   0  0.3406920E-07  0.2799686E+04  0.7818609E-02  0.8303366E-01
        2   -1    0    0  501    0  0.00000000000E+00  0.00000000000E+00  0.14847420014E+04  0.14847420014E+04  0.25500000920E-02 0.  1.
       -2   -1    0    0    0  501  0.00000000000E+00  0.00000000000E+00 -0.13197982999E+04  0.13197982999E+04  0.25500000920E-02 0. -1.
    10030    2    1    2    0    0  0.00000000000E+00  0.00000000000E+00  0.16494370157E+03  0.28045403013E+04  0.27996856747E+04 0.  0.
        4    1    3    3  502    0 -0.12520919950E+04 -0.41241063552E+03 -0.38923899474E+03  0.13745273748E+04  0.12699999809E+01 0. -1.
       -4    1    3    3    0  502  0.12520919950E+04  0.41241063552E+03  0.55418269631E+03  0.14300129265E+04  0.12699999809E+01 0.  1.
</event>
<event>
 5   0  0.3406920E-07  0.2799763E+04  0.7818609E-02  0.8303342E-01
       -2   -1    0    0    0  501  0.00000000000E+00  0.00000000000E+00  0.13250447438E+04  0.13250447438E+04  0.25500000920E-02 0.  1.
        2   -1    0    0  501    0  0.00000000000E+00  0.00000000000E+00 -0.14789448152E+04  0.14789448152E+04  0.25500000920E-02 0. -1.
    10030    2    1    2    0    0  0.00000000000E+00  0.00000000000E+00 -0.15390007140E+03  0.28039895590E+04  0.27997628855E+04 0.  0.
        4    1    3    3  502    0  0.53064236322E+03  0.52173684770E+03  0.11105362848E+04  0.13368182781E+04  0.12699999809E+01 0.  1.
       -4    1    3    3    0  502 -0.53064236322E+03 -0.52173684770E+03 -0.12644363562E+04  0.14671712809E+04  0.12699999809E+01 0. -1.
</event>
<event>
 5   0  0.1366235E-07  0.2799402E+04  0.7818609E-02  0.8303454E-01
       -1   -1    0    0    0  501  0.00000000000E+00  0.00000000000E+00  0.96442542913E+03  0.96442542914E+03  0.50400001928E-02 0.  1.
        1   -1    0    0  501    0  0.00000000000E+00  0.00000000000E+00 -0.20314307593E+04  0.20314307593E+04  0.50400001928E-02 0. -1.
    10030    2    1    2    0    0  0.00000000000E+00  0.00000000000E+00 -0.10670053302E+04  0.29958561885E+04  0.27994024233E+04 0.  0.
        2    1    3    3  502    0  0.11007919776E+04 -0.41991002822E+02  0.39061070332E+03  0.11687955098E+04  0.25500000920E-02 0.  1.
       -2    1    3    3    0  502 -0.11007919776E+04  0.41991002822E+02 -0.14576160335E+04  0.18270606786E+04  0.25500000920E-02 0. -1.
</event>
<event>
 5   0  0.3406920E-07  0.2796956E+04  0.7818609E-02  0.8304214E-01
       -2   -1    0    0    0  501  0.00000000000E+00  0.00000000000E+00  0.94646091414E+03  0.94646091415E+03  0.25500000920E-02 0. -1.
        2   -1    0    0  501    0  0.00000000000E+00  0.00000000000E+00 -0.20663718473E+04  0.20663718473E+04  0.25500000920E-02 0.  1.
    10030    2    1    2    0    0  0.00000000000E+00  0.00000000000E+00 -0.11199109331E+04  0.30128327614E+04  0.27969556218E+04 0.  0.
        4    1    3    3  502    0 -0.89388629004E+03  0.44099831673E+03 -0.16165979661E+04  0.18991847755E+04  0.12699999809E+01 0.  1.
       -4    1    3    3    0  502  0.89388629004E+03 -0.44099831673E+03  0.49668703293E+03  0.11136479859E+04  0.12699999809E+01 0. -1.
</event>
<event>
 5   0  0.3522569E-07  0.2796086E+04  0.7818609E-02  0.8304485E-01
        2   -1    0    0  501    0  0.00000000000E+00  0.00000000000E+00  0.14606512202E+04  0.14606512202E+04  0.25500000920E-02 0. -1.
       -2   -1    0    0    0  501  0.00000000000E+00  0.00000000000E+00 -0.13381178924E+04  0.13381178924E+04  0.25500000920E-02 0.  1.
    10030    2    1    2    0    0  0.00000000000E+00  0.00000000000E+00  0.12253332783E+03  0.27987691126E+04  0.27960855011E+04 0.  0.
        1    1    3    3  502    0  0.10654519457E+04  0.88374209873E+03 -0.13471601112E+03  0.13908042096E+04  0.50400001928E-02 0. -1.
       -1    1    3    3    0  502 -0.10654519457E+04 -0.88374209873E+03  0.25724933895E+03  0.14079649030E+04  0.50400001928E-02 0.  1.
</event>
<event>
 5   0  0.3406920E-07  0.2798805E+04  0.7818609E-02  0.8303640E-01
       -2   -1    0    0    0  501  0.00000000000E+00  0.00000000000E+00  0.92912771694E+03  0.92912771694E+03  0.25500000920E-02 0. -1.
        2   -1    0    0  501    0  0.00000000000E+00  0.00000000000E+00 -0.21077047276E+04  0.21077047276E+04  0.25500000920E-02 0.  1.
    10030    2    1    2    0    0  0.00000000000E+00  0.00000000000E+00 -0.11785770107E+04  0.30368324446E+04  0.27988046603E+04 0.  0.
        4    1    3    3  502    0 -0.21392408500E+03  0.47674289252E+03 -0.19978766018E+04  0.20650810707E+04  0.12699999809E+01 0.  1.
       -4    1    3    3    0  502  0.21392408500E+03 -0.47674289252E+03  0.81929959111E+03  0.97175137386E+03  0.12699999809E+01 0. -1.
</event>
<event>
 5   0  0.1361741E-07  0.2799668E+04  0.7818609E-02  0.8303372E-01
        1   -1    0    0  501    0  0.00000000000E+00  0.00000000000E+00  0.14021994764E+04  0.14021994764E+04  0.50400001928E-02 0.  1.
       -1   -1    0    0    0  501  0.00000000000E+00  0.00000000000E+00 -0.13974722957E+04  0.13974722957E+04  0.50400001928E-02 0. -1.
    10030    2    1    2    0    0  0.00000000000E+00  0.00000000000E+00  0.47271807057E+01  0.27996717721E+04  0.27996677813E+04 0.  0.
        5    1    3    3  502    0 -0.80893723369E+03 -0.47101317750E+03 -0.10384452578E+04  0.13980785045E+04  0.46999998093E+01 0. -1.
       -5    1    3    3    0  502  0.80893723369E+03  0.47101317750E+03  0.10431724385E+04  0.14015932676E+04  0.46999998093E+01 0.  1.
</event>
<event>
 5   0  0.3557628E-07  0.2799883E+04  0.7818609E-02  0.8303305E-01
       -2   -1    0    0    0  501  0.00000000000E+00  0.00000000000E+00  0.10090838313E+04  0.10090838313E+04  0.25500000920E-02 0. -1.
        2   -1    0    0  501    0  0.00000000000E+00  0.00000000000E+00 -0.19421939842E+04  0.19421939842E+04  0.25500000920E-02 0.  1.
    10030    2    1    2    0    0  0.00000000000E+00  0.00000000000E+00 -0.93311015294E+03  0.29512778155E+04  0.27998832452E+04 0.  0.
        5    1    3    3  502    0 -0.13846382180E+04  0.77673838941E+02 -0.26501436270E+03  0.14119174630E+04  0.46999998093E+01 0.  1.
       -5    1    3    3    0  502  0.13846382180E+04 -0.77673838941E+02 -0.66809579025E+03  0.15393603525E+04  0.46999998093E+01 0. -1.
</event>
<event>
 5   0  0.1361741E-07  0.2800316E+04  0.7818609E-02  0.8303170E-01
       -1   -1    0    0    0  501  0.00000000000E+00  0.00000000000E+00  0.88817350827E+03  0.88817350828E+03  0.50400001928E-02 0. -1.
        1   -1    0    0  501    0  0.00000000000E+00  0.00000000000E+00 -0.22072741465E+04  0.22072741465E+04  0.50400001928E-02 0.  1.
    10030    2    1    2    0    0  0.00000000000E+00  0.00000000000E+00 -0.13191006382E+04  0.30954476547E+04  0.28003159982E+04 0.  0.
        5    1    3    3  502    0  0.58838717768E+03  0.53490837339E+03  0.61433640831E+03  0.10048670317E+04  0.46999998093E+01 0. -1.
       -5    1    3    3    0  502 -0.58838717768E+03 -0.53490837339E+03 -0.19334370465E+04  0.20905806231E+04  0.46999998093E+01 0.  1.
</event>
<event>
 5   0  0.1374680E-07  0.2796424E+04  0.7818609E-02  0.8304379E-01
        1   -1    0    0  501    0  0.00000000000E+00  0.00000000000E+00  0.17759548495E+04  0.17759548495E+04  0.50400001928E-02 0.  1.
       -1   -1    0    0    0  501  0.00000000000E+00  0.00000000000E+00 -0.11008146392E+04  0.11008146393E+04  0.50400001928E-02 0. -1.
    10030    2    1    2    0    0  0.00000000000E+00  0.00000000000E+00  0.67514021026E+03  0.28767694888E+04  0.27964242146E+04 0.  0.
        3    1    3    3  502    0  0.32134143805E+03  0.22118115477E+02  0.17372678372E+04  0.17668755132E+04  0.10100000352E+00 0.  1.
       -3    1    3    3    0  502 -0.32134143805E+03 -0.22118115477E+02 -0.10621276269E+04  0.11098939755E+04  0.10100000352E+00 0. -1.
</event>
<event>
 5   0  0.3502141E-07  0.2800254E+04  0.7818609E-02  0.8303190E-01
        2   -1    0    0  501    0  0.00000000000E+00  0.00000000000E+00  0.20687054580E+04  0.20687054580E+04  0.25500000920E-02 0.  1.
       -2   -1    0    0    0  501  0.00000000000E+00  0.00000000000E+00 -0.94762412659E+03  0.94762412659E+03  0.25500000920E-02 0. -1.
    10030    2    1    2    0    0  0.00000000000E+00  0.00000000000E+00  0.11210813314E+04  0.30163295845E+04  0.28002537048E+04 0.  0.
        3    1    3    3  502    0 -0.12558388827E+04 -0.41539555988E+03  0.66135276691E+02  0.13244087947E+04  0.10100000352E+00 0.  1.
       -3    1    3    3    0  502  0.12558388827E+04  0.41539555988E+03  0.10549460547E+04  0.16919207898E+04  0.10100000352E+00 0. -1.
</event>
<event>
 5   0  0.1346049E-07  0.2800275E+04  0.7818609E-02  0.8303183E-01
       -1   -1    0    0    0  501  0.00000000000E+00  0.00000000000E+00  0.12568345858E+04  0.12568345858E+04  0.50400001928E-02 0.  1.
        1   -1    0    0  501    0  0.00000000000E+00  0.00000000000E+00 -0.15597794449E+04  0.15597794449E+04  0.50400001928E-02 0. -1.
    10030    2    1    2    0    0  0.00000000000E+00  0.00000000000E+00 -0.30294485910E+03  0.28166140308E+04  0.28002748099E+04 0.  0.
        1    1    3    3  502    0 -0.34608096291E+03  0.12923845792E+04 -0.56662133450E+03  0.14529589361E+04  0.50400001928E-02 0. -1.
       -1    1    3    3    0  502  0.34608096291E+03 -0.12923845792E+04  0.26367647540E+03  0.13636550946E+04  0.50400001928E-02 0.  1.
</event>
<event>
 5   0  0.1357902E-07  0.2799233E+04  0.7818609E-02  0.8303507E-01
       -1   -1    0    0    0  501  0.00000000000E+00  0.00000000000E+00  0.13380233983E+04  0.13380233983E+04  0.50400001928E-02 0.  1.
        1   -1    0    0  501    0  0.00000000000E+00  0.00000000000E+00 -0.14640448655E+04  0.14640448655E+04  0.50400001928E-02 0. -1.
    10030    2    1    2    0    0  0.00000000000E+00  0.00000000000E+00 -0.12602146715E+03  0.28020682638E+04  0.27992329565E+04 0.  0.
        4    1    3    3  502    0  0.12549685839E+03 -0.72805250214E+03  0.11269383693E+04  0.13475168305E+04  0.12699999809E+01 0.  1.
       -4    1    3    3    0  502 -0.12549685839E+03  0.72805250214E+03 -0.12529598365E+04  0.14545514333E+04  0.12699999809E+01 0. -1.
</event>
<event>
 5   0  0.1361741E-07  0.2798678E+04  0.7818609E-02  0.8303679E-01
       -1   -1    0    0    0  501  0.00000000000E+00  0.00000000000E+00  0.23730272383E+04  0.23730272383E+04  0.50400001928E-02 0.  1.
        1   -1    0    0  501    0  0.00000000000E+00  0.00000000000E+00 -0.82516950539E+03  0.82516950541E+03  0.50400001928E-02 0. -1.
    10030    2    1    2    0    0  0.00000000000E+00  0.00000000000E+00  0.15478577329E+04  0.31981967437E+04  0.27986780541E+04 0.  0.
        5    1    3    3  502    0  0.15282256282E+03 -0.15805305235E+03 -0.80530076061E+03  0.83478554617E+03  0.46999998093E+01 0. -1.
       -5    1    3    3    0  502 -0.15282256282E+03  0.15805305235E+03  0.23531584936E+04  0.23634111976E+04  0.46999998093E+01 0.  1.
</event>
<event>
 5   0  0.1346049E-07  0.2798927E+04  0.7818609E-02  0.8303601E-01
       -1   -1    0    0    0  501  0.00000000000E+00  0.00000000000E+00  0.12843212328E+04  0.12843212328E+04  0.50400001928E-02 0. -1.
        1   -1    0    0  501    0  0.00000000000E+00  0.00000000000E+00 -0.15249289140E+04  0.15249289141E+04  0.50400001928E-02 0.  1.
    10030    2    1    2    0    0  0.00000000000E+00  0.00000000000E+00 -0.24060768124E+03  0.28092501469E+04  0.27989273537E+04 0.  0.
        1    1    3    3  502    0  0.10337405537E+04  0.35793339274E+03  0.75570532051E+03  0.13295963213E+04  0.50400001928E-02 0. -1.
       -1    1    3    3    0  502 -0.10337405537E+04 -0.35793339274E+03 -0.99631300175E+03  0.14796538256E+04  0.50400001928E-02 0.  1.
</event>
<event>
 5   0  0.1346049E-07  0.2799786E+04  0.7818609E-02  0.8303335E-01
       -1   -1    0    0    0  501  0.00000000000E+00  0.00000000000E+00  0.13039975320E+04  0.13039975320E+04  0.50400001928E-02 0.  1.
        1   -1    0    0  501    0  0.00000000000E+00  0.00000000000E+00 -0.15028404604E+04  0.15028404605E+04  0.50400001928E-02 0. -1.
    10030    2    1    2    0    0  0.00000000000E+00  0.00000000000E+00 -0.19884292844E+03  0.28068379925E+04  0.27997858857E+04 0.  0.
        1    1    3    3  502    0 -0.86946719212E+03  0.72582175536E+03 -0.92423909932E+03  0.14618509950E+04  0.50400001928E-02 0. -1.
       -1    1    3    3    0  502  0.86946719212E+03 -0.72582175536E+03  0.72539617089E+03  0.13449869975E+04  0.50400001928E-02 0.  1.
</event>
<event>
 5   0  0.3406920E-07  0.2795416E+04  0.7818609E-02  0.8304693E-01
        2   -1    0    0  501    0  0.00000000000E+00  0.00000000000E+00  0.18959379264E+04  0.18959379264E+04  0.25500000920E-02 0. -1.
       -2   -1    0    0    0  501  0.00000000000E+00  0.00000000000E+00 -0.10304068058E+04  0.10304068058E+04  0.25500000920E-02 0.  1.
    10030    2    1    2    0    0  0.00000000000E+00  0.00000000000E+00  0.86553112057E+03  0.29263447323E+04  0.27954157779E+04 0.  0.
        4    1    3    3  502    0 -0.13060372581E+04 -0.37462355706E+03  0.77600935833E+03  0.15646943044E+04  0.12699999809E+01 0. -1.
       -4    1    3    3    0  502  0.13060372581E+04  0.37462355706E+03  0.89521762237E+02  0.13616504279E+04  0.12699999809E+01 0.  1.
</event>
<event>
 5   0  0.1357902E-07  0.2800164E+04  0.7818609E-02  0.8303217E-01
       -1   -1    0    0    0  501  0.00000000000E+00  0.00000000000E+00  0.81978662338E+03  0.81978662340E+03  0.50400001928E-02 0.  1.
        1   -1    0    0  501    0  0.00000000000E+00  0.00000000000E+00 -0.23911469512E+04  0.23911469512E+04  0.50400001928E-02 0. -1.
    10030    2    1    2    0    0  0.00000000000E+00  0.00000000000E+00 -0.15713603278E+04  0.32109335746E+04  0.28001644846E+04 0.  0.
        4    1    3    3  502    0 -0.79807273083E+03  0.55155528702E+03  0.37191096279E+03  0.10389671292E+04  0.12699999809E+01 0.  1.
       -4    1    3    3    0  502  0.79807273083E+03 -0.55155528702E+03 -0.19432712906E+04  0.21719664454E+04  0.12699999809E+01 0. -1.
</event>
<event>
 5   0  0.1346049E-07  0.2800813E+04  0.7818609E-02  0.8303016E-01
        1   -1    0    0  501    0  0.00000000000E+00  0.00000000000E+00  0.19657533439E+04  0.19657533439E+04  0.50400001928E-02 0. -1.
       -1   -1    0    0    0  501  0.00000000000E+00  0.00000000000E+00 -0.99765199298E+03  0.99765199300E+03  0.50400001928E-02 0.  1.
    10030    2    1    2    0    0  0.00000000000E+00  0.00000000000E+00  0.96810135095E+03  0.29634053369E+04  0.28008125545E+04 0.  0.
        1    1    3    3  502    0  0.37917976118E+03 -0.73568220831E+03  0.16792899006E+04  0.18721699104E+04  0.50400001928E-02 0. -1.
       -1    1    3    3    0  502 -0.37917976118E+03  0.73568220831E+03 -0.71118854969E+03  0.10912354266E+04  0.50400001928E-02 0.  1.
</event>
<event>
 5   0  0.1374680E-07  0.2800008E+04  0.7818609E-02  0.8303266E-01
        1   -1    0    0  501    0  0.00000000000E+00  0.00000000000E+00  0.17301314403E+04  0.17301314403E+04  0.50400001928E-02 0.  1.
       -1   -1    0    0    0  501  0.00000000000E+00  0.00000000000E+00 -0.11328684333E+04  0.11328684333E+04  0.50400001928E-02 0. -1.
    10030    2    1    2    0    0  0.00000000000E+00  0.00000000000E+00  0.59726300701E+03  0.28629998735E+04  0.28000080672E+04 0.  0.
        3    1    3    3  502    0  0.39772250457E+03  0.10245922255E+04  0.11853426927E+04  0.16164806614E+04  0.10100000352E+00 0.  1.
       -3    1    3    3    0  502 -0.39772250457E+03 -0.10245922255E+04 -0.58807968573E+03  0.12465192121E+04  0.10100000352E+00 0. -1.
</event>
<event>
 5   0  0.1374680E-07  0.2792279E+04  0.7818609E-02  0.8305669E-01
       -1   -1    0    0    0  501  0.00000000000E+00  0.00000000000E+00  0.19310981190E+04  0.19310981190E+04  0.50400001928E-02 0. -1.
        1   -1    0    0  501    0  0.00000000000E+00  0.00000000000E+00 -0.10093767958E+04  0.10093767958E+04  0.50400001928E-02 0.  1.
    10030    2    1    2    0    0  0.00000000000E+00  0.00000000000E+00  0.92172132314E+03  0.29404749148E+04  0.27922790919E+04 0.  0.
        3    1    3    3  502    0 -0.59510673256E+03  0.10968777740E+04 -0.19839421211E+03  0.12635874121E+04  0.10100000352E+00 0.  1.
       -3    1    3    3    0  502  0.59510673256E+03 -0.10968777740E+04  0.11201155353E+04  0.16768875027E+04  0.10100000352E+00 0. -1.
</event>
<event>
 5   0  0.3406920E-07  0.2799765E+04  0.7818609E-02  0.8303341E-01
        2   -1    0    0  501    0  0.00000000000E+00  0.00000000000E+00  0.13364981818E+04  0.13364981818E+04  0.25500000920E-02 0. -1.
       -2   -1    0    0    0  501  0.00000000000E+00  0.00000000000E+00 -0.14662728110E+04  0.14662728110E+04  0.25500000920E-02 0.  1.
    10030    2    1    2    0    0  0.00000000000E+00  0.00000000000E+00 -0.12977462917E+03  0.28027709928E+04  0.27997649515E+04 0.  0.
        4    1    3    3  502    0 -0.46428908092E+03 -0.12790627379E+04  0.26425665948E+03  0.13861453868E+04  0.12699999809E+01 0. -1.
       -4    1    3    3    0  502  0.46428908092E+03  0.12790627379E+04 -0.39403128865E+03  0.14166256060E+04  0.12699999809E+01 0.  1.
</event>
<event>
 5   0  0.1366235E-07  0.2799458E+04  0.7818609E-02  0.8303437E-01
        1   -1    0    0  501    0  0.00000000000E+00  0.00000000000E+00  0.72959185222E+03  0.72959185223E+03  0.50400001928E-02 0.  1.
       -1   -1    0    0    0  501  0.00000000000E+00  0.00000000000E+00 -0.26853932684E+04  0.26853932684E+04  0.50400001928E-02 0. -1.
    10030    2    1    2    0    0  0.00000000000E+00  0.00000000000E+00 -0.19558014162E+04  0.34149851207E+04  0.27994578394E+04 0.  0.
        2    1    3    3  502    0 -0.54029094006E+03 -0.74588833160E+03 -0.22636831355E+04  0.24438750053E+04  0.25500000920E-02 0. -1.
       -2    1    3    3    0  502  0.54029094006E+03  0.74588833160E+03  0.30788171934E+03  0.97111011541E+03  0.25500000920E-02 0.  1.
</event>
<event>
 5   0  0.1357902E-07  0.2799918E+04  0.7818609E-02  0.8303294E-01
       -1   -1    0    0    0  501  0.00000000000E+00  0.00000000000E+00  0.95442557037E+03  0.95442557039E+03  0.50400001928E-02 0. -1.
        1   -1    0    0  501    0  0.00000000000E+00  0.00000000000E+00 -0.20534710763E+04  0.20534710763E+04  0.50400001928E-02 0.  1.
    10030    2    1    2    0    0  0.00000000000E+00  0.00000000000E+00 -0.10990455059E+04  0.30078966467E+04  0.27999180726E+04 0.  0.
        4    1    3    3  502    0 -0.26404552142E+03  0.13748321951E+04 -0.54984216460E+03  0.15040650321E+04  0.12699999809E+01 0. -1.
       -4    1    3    3    0  502  0.26404552142E+03 -0.13748321951E+04 -0.54920334131E+03  0.15038316146E+04  0.12699999809E+01 0.  1.
</event>
<event>
 5   0  0.3406920E-07  0.2798453E+04  0.7818609E-02  0.8303749E-01
       -2   -1    0    0    0  501  0.00000000000E+00  0.00000000000E+00  0.20408675219E+04  0.20408675219E+04  0.25500000920E-02 0.  1.
        2   -1    0    0  501    0  0.00000000000E+00  0.00000000000E+00 -0.95931509233E+03  0.95931509233E+03  0.25500000920E-02 0. -1.
    10030    2    1    2    0    0  0.00000000000E+00  0.00000000000E+00  0.10815524295E+04  0.30001826142E+04  0.27984531550E+04 0.  0.
        4    1    3    3  502    0  0.68392638986E+02 -0.80415268495E+03 -0.68463939920E+03  0.10583344526E+04  0.12699999809E+01 0. -1.
       -4    1    3    3    0  502 -0.68392638986E+02  0.80415268495E+03  0.17661918287E+04  0.19418481616E+04  0.12699999809E+01 0.  1.
</event>
<event>
 5   0  0.3557628E-07  0.2807232E+04  0.7818609E-02  0.8301027E-01
        2   -1    0    0  501    0  0.00000000000E+00  0.00000000000E+00  0.18691418122E+04  0.18691418122E+04  0.25500000920E-02 0.  1.
       -2   -1    0    0    0  501  0.00000000000E+00  0.00000000000E+00 -0.10540332385E+04  0.10540332385E+04  0.25500000920E-02 0. -1.
    10030    2    1    2    0    0  0.00000000000E+00  0.00000000000E+00  0.81510857369E+03  0.29231750507E+04  0.28072318020E+04 0.  0.
        5    1    3    3  502    0 -0.67710224940E+03 -0.30338242994E+03  0.16482367328E+04  0.18075438507E+04  0.46999998093E+01 0.  1.
       -5    1    3    3    0  502  0.67710224940E+03  0.30338242994E+03 -0.83312815908E+03  0.11156312000E+04  0.46999998093E+01 0. -1.
</event>
<event>
 5   0  0.1357902E-07  0.2799839E+04  0.7818609E-02  0.8303318E-01
        1   -1    0    0  501    0  0.00000000000E+00  0.00000000000E+00  0.21386065627E+04  0.21386065627E+04  0.50400001928E-02 0.  1.
       -1   -1    0    0    0  501  0.00000000000E+00  0.00000000000E+00 -0.91637932846E+03  0.91637932847E+03  0.50400001928E-02 0. -1.
    10030    2    1    2    0    0  0.00000000000E+00  0.00000000000E+00  0.12222272342E+04  0.30549858912E+04  0.27998391709E+04 0.  0.
        4    1    3    3  502    0  0.76326951177E+03  0.70591311301E+03 -0.41180434875E+03  0.11182477835E+04  0.12699999809E+01 0. -1.
       -4    1    3    3    0  502 -0.76326951177E+03 -0.70591311301E+03  0.16340315830E+04  0.19367381077E+04  0.12699999809E+01 0.  1.
</event>
<event>
 5   0  0.3406920E-07  0.2799023E+04  0.7818609E-02  0.8303572E-01
       -2   -1    0    0    0  501  0.00000000000E+00  0.00000000000E+00  0.14484764401E+04  0.14484764401E+04  0.25500000920E-02 0. -1.
        2   -1    0    0  501    0  0.00000000000E+00  0.00000000000E+00 -0.13522022300E+04  0.13522022300E+04  0.25500000920E-02 0.  1.
    10030    2    1    2    0    0  0.00000000000E+00  0.00000000000E+00  0.96274210027E+02  0.28006786701E+04  0.27990234529E+04 0.  0.
        4    1    3    3  502    0  0.42237438837E+03 -0.70120999456E+03  0.11839453171E+04  0.14393830995E+04  0.12699999809E+01 0. -1.
       -4    1    3    3    0  502 -0.42237438837E+03  0.70120999456E+03 -0.10876711071E+04  0.13612955706E+04  0.12699999809E+01 0.  1.
</event>
<event>
 5   0  0.3502141E-07  0.2800116E+04  0.7818609E-02  0.8303232E-01
        2   -1    0    0  501    0  0.00000000000E+00  0.00000000000E+00  0.17101814219E+04  0.17101814219E+04  0.25500000920E-02 0. -1.
       -2   -1    0    0    0  501  0.00000000000E+00  0.00000000000E+00 -0.11461724214E+04  0.11461724214E+04  0.25500000920E-02 0.  1.
    10030    2    1    2    0    0  0.00000000000E+00  0.00000000000E+00  0.56400900055E+03  0.28563538433E+04  0.28001162700E+04 0.  0.
        3    1    3    3  502    0  0.12959918409E+04 -0.51215662580E+03  0.41986126053E+03  0.14553977976E+04  0.10100000352E+00 0.  1.
       -3    1    3    3    0  502 -0.12959918409E+04  0.51215662580E+03  0.14414774002E+03  0.14009560457E+04  0.10100000352E+00 0. -1.
</event>
<event>
 5   0  0.1361741E-07  0.2801419E+04  0.7818609E-02  0.8302828E-01
       -1   -1    0    0    0  501  0.00000000000E+00  0.00000000000E+00  0.13993429150E+04  0.13993429151E+04  0.50400001928E-02 0. -1.
        1   -1    0    0  501    0  0.00000000000E+00  0.00000000000E+00 -0.14020776215E+04  0.14020776215E+04  0.50400001928E-02 0.  1.
    10030    2    1    2    0    0  0.00000000000E+00  0.00000000000E+00 -0.27347064524E+01  0.28014205366E+04  0.28014192018E+04 0.  0.
        5    1    3    3  502    0 -0.12473526840E+04  0.61249208544E+03 -0.17723677169E+03  0.14008819495E+04  0.46999998093E+01 0.  1.
       -5    1    3    3    0  502  0.12473526840E+04 -0.61249208544E+03  0.17450206524E+03  0.14005385871E+04  0.46999998093E+01 0. -1.
</event>
<event>
 5   0  0.3571498E-07  0.2800028E+04  0.7818609E-02  0.8303260E-01
       -2   -1    0    0    0  501  0.00000000000E+00  0.00000000000E+00  0.20276201662E+04  0.20276201662E+04  0.25500000920E-02 0.  1.
        2   -1    0    0  501    0  0.00000000000E+00  0.00000000000E+00 -0.96666975975E+03  0.96666975975E+03  0.25500000920E-02 0. -1.
    10030    2    1    2    0    0  0.00000000000E+00  0.00000000000E+00  0.10609504065E+04  0.29942899260E+04  0.28000279277E+04 0.  0.
        2    1    3    3  502    0 -0.47232860853E+03 -0.94535772391E+03  0.15124673219E+04  0.18450888706E+04  0.25500000920E-02 0.  1.
       -2    1    3    3    0  502  0.47232860853E+03  0.94535772391E+03 -0.45151691549E+03  0.11492010553E+04  0.25500000920E-02 0. -1.
</event>
<event>
 5   0  0.1173363E-07  0.2799568E+04  0.7818609E-02  0.8303403E-01
       -3   -1    0    0    0  501  0.00000000000E+00  0.00000000000E+00  0.12058657322E+04  0.12058657364E+04  0.10100000352E+00 0. -1.
        3   -1    0    0  501    0  0.00000000000E+00  0.00000000000E+00 -0.16248865595E+04  0.16248865626E+04  0.10100000352E+00 0.  1.
    10030    2    1    2    0    0  0.00000000000E+00  0.00000000000E+00 -0.41902082728E+03  0.28307522990E+04  0.27995678460E+04 0.  0.
        4    1    3    3  502    0  0.19518687375E+03  0.41992107667E+03  0.11261739222E+04  0.12176620805E+04  0.12699999809E+01 0. -1.
       -4    1    3    3    0  502 -0.19518687375E+03 -0.41992107667E+03 -0.15451947495E+04  0.16130902185E+04  0.12699999809E+01 0.  1.
</event>
<event>
 5   0  0.3571498E-07  0.2801636E+04  0.7818609E-02  0.8302761E-01
       -2   -1    0    0    0  501  0.00000000000E+00  0.00000000000E+00  0.61689221925E+03  0.61689221925E+03  0.25500000920E-02 0. -1.
        2   -1    0    0  501    0  0.00000000000E+00  0.00000000000E+00 -0.31809309228E+04  0.31809309228E+04  0.25500000920E-02 0.  1.
    10030    2    1    2    0    0  0.00000000000E+00  0.00000000000E+00 -0.25640387035E+04  0.37978231420E+04  0.28016363335E+04 0.  0.
        2    1    3    3  502    0 -0.31862400724E+03  0.13193772804E+04 -0.81240788135E+03  0.15818610026E+04  0.25500000920E-02 0. -1.
       -2    1    3    3    0  502  0.31862400724E+03 -0.13193772804E+04 -0.17516308222E+04  0.22159621394E+04  0.25500000920E-02 0.  1.
</event>
<event>
 5   0  0.1374680E-07  0.2800332E+04  0.7818609E-02  0.8303165E-01
       -1   -1    0    0    0  501  0.00000000000E+00  0.00000000000E+00  0.12105046805E+04  0.12105046805E+04  0.50400001928E-02 0. -1.
        1   -1    0    0  501    0  0.00000000000E+00  0.00000000000E+00 -0.16195435252E+04  0.16195435252E+04  0.50400001928E-02 0.  1.
    10030    2    1    2    0    0  0.00000000000E+00  0.00000000000E+00 -0.40903884474E+03  0.28300482057E+04  0.28003321356E+04 0.  0.
        3    1    3    3  502    0  0.93179114483E+03 -0.72731368367E+03 -0.96297996160E+03  0.15246476146E+04  0.10100000352E+00 0. -1.
       -3    1    3    3    0  502 -0.93179114483E+03  0.72731368367E+03  0.55394111686E+03  0.13054005911E+04  0.10100000352E+00 0.  1.
</event>
<event>
 5   0  0.3502141E-07  0.2799548E+04  0.7818609E-02  0.8303409E-01
       -2   -1    0    0    0  501  0.00000000000E+00  0.00000000000E+00  0.21168638669E+04  0.21168638669E+04  0.25500000920E-02 0.  1.
        2   -1    0    0  501    0  0.00000000000E+00  0.00000000000E+00 -0.92559881477E+03  0.92559881478E+03  0.25500000920E-02 0. -1.
    10030    2    1    2    0    0  0.00000000000E+00  0.00000000000E+00  0.11912650522E+04  0.30424626817E+04  0.27995475965E+04 0.  0.
        3    1    3    3  502    0 -0.10216461035E+04  0.14693820600E+03  0.16231987636E+04  0.19235711148E+04  0.10100000352E+00 0.  1.
       -3    1    3    3    0  502  0.10216461035E+04 -0.14693820600E+03 -0.43193371147E+03  0.11188915669E+04  0.10100000352E+00 0. -1.
</event>
<event>
 5   0  0.1357902E-07  0.2800114E+04  0.7818609E-02  0.8303233E-01
        1   -1    0    0  501    0  0.00000000000E+00  0.00000000000E+00  0.14069211442E+04  0.14069211442E+04  0.50400001928E-02 0.  1.
       -1   -1    0    0    0  501  0.00000000000E+00  0.00000000000E+00 -0.13932258975E+04  0.13932258975E+04  0.50400001928E-02 0. -1.
    10030    2    1    2    0    0  0.00000000000E+00  0.00000000000E+00  0.13695246663E+02  0.28001470418E+04  0.28001135505E+04 0.  0.
        4    1    3    3  502    0 -0.11500973731E+04  0.52092815938E+03 -0.59819452654E+03  0.13971143186E+04  0.12699999809E+01 0. -1.
       -4    1    3    3    0  502  0.11500973731E+04 -0.52092815938E+03  0.61188977320E+03  0.14030327231E+04  0.12699999809E+01 0.  1.
</event>
<event>
 5   0  0.1346049E-07  0.2800327E+04  0.7818609E-02  0.8303167E-01
        1   -1    0    0  501    0  0.00000000000E+00  0.00000000000E+00  0.15566643204E+04  0.15566643204E+04  0.50400001928E-02 0. -1.
       -1   -1    0    0    0  501  0.00000000000E+00  0.00000000000E+00 -0.12593965669E+04  0.12593965669E+04  0.50400001928E-02 0.  1.
    10030    2    1    2    0    0  0.00000000000E+00  0.00000000000E+00  0.29726775353E+03  0.28160608874E+04  0.28003269102E+04 0.  0.
        1    1    3    3  502    0 -0.43078474288E+03  0.23083754685E+02 -0.11908974427E+04  0.12666274407E+04  0.50400001928E-02 0.  1.
       -1    1    3    3    0  502  0.43078474288E+03 -0.23083754685E+02  0.14881651962E+04  0.15494334467E+04  0.50400001928E-02 0. -1.
</event>
<event>
 5   0  0.3571498E-07  0.2803635E+04  0.7818609E-02  0.8302141E-01
        2   -1    0    0  501    0  0.00000000000E+00  0.00000000000E+00  0.13405535302E+04  0.13405535302E+04  0.25500000920E-02 0.  1.
       -2   -1    0    0    0  501  0.00000000000E+00  0.00000000000E+00 -0.14658813714E+04  0.14658813714E+04  0.25500000920E-02 0. -1.
    10030    2    1    2    0    0  0.00000000000E+00  0.00000000000E+00 -0.12532784128E+03  0.28064349016E+04  0.28036351027E+04 0.  0.
        2    1    3    3  502    0 -0.13732050025E+04 -0.27394557959E+03 -0.12871684494E+03  0.14061671969E+04  0.25500000920E-02 0. -1.
       -2    1    3    3    0  502  0.13732050025E+04  0.27394557959E+03  0.33890036589E+01  0.14002677047E+04  0.25500000920E-02 0.  1.
</event>
<event>
 5   0  0.1374680E-07  0.2797545E+04  0.7818609E-02  0.8304031E-01
       -1   -1    0    0    0  501  0.00000000000E+00  0.00000000000E+00  0.12598881055E+04  0.12598881055E+04  0.50400001928E-02 0. -1.
        1   -1    0    0  501    0  0.00000000000E+00  0.00000000000E+00 -0.15529664690E+04  0.15529664690E+04  0.50400001928E-02 0.  1.
    10030    2    1    2    0    0  0.00000000000E+00  0.00000000000E+00 -0.29307836342E+03  0.28128545745E+04  0.27975446252E+04 0.  0.
        3    1    3    3  502    0 -0.58128600306E+03 -0.84291594655E+03  0.81165211393E+03  0.13065909362E+04  0.10100000352E+00 0. -1.
       -3    1    3    3    0  502  0.58128600306E+03  0.84291594655E+03 -0.11047304773E+04  0.15062636383E+04  0.10100000352E+00 0.  1.
</event>
<event>
 5   0  0.3406920E-07  0.2800015E+04  0.7818609E-02  0.8303264E-01
       -2   -1    0    0    0  501  0.00000000000E+00  0.00000000000E+00  0.14575668581E+04  0.14575668581E+04  0.25500000920E-02 0.  1.
        2   -1    0    0  501    0  0.00000000000E+00  0.00000000000E+00 -0.13447208721E+04  0.13447208721E+04  0.25500000920E-02 0. -1.
    10030    2    1    2    0    0  0.00000000000E+00  0.00000000000E+00  0.11284598604E+03  0.28022877302E+04  0.28000146976E+04 0.  0.
        4    1    3    3  502    0  0.10121250655E+04  0.93756573713E+03 -0.18166149592E+03  0.13915563846E+04  0.12699999809E+01 0.  1.
       -4    1    3    3    0  502 -0.10121250655E+04 -0.93756573713E+03  0.29450748196E+03  0.14107313456E+04  0.12699999809E+01 0. -1.
</event>
<event>
 5   0  0.3502141E-07  0.2799791E+04  0.7818609E-02  0.8303333E-01
       -2   -1    0    0    0  501  0.00000000000E+00  0.00000000000E+00  0.11237458466E+04  0.11237458466E+04  0.25500000920E-02 0.  1.
        2   -1    0    0  501    0  0.00000000000E+00  0.00000000000E+00 -0.17439061045E+04  0.17439061045E+04  0.25500000920E-02 0. -1.
    10030    2    1    2    0    0  0.00000000000E+00  0.00000000000E+00 -0.62016025790E+03  0.28676519511E+04  0.27997908792E+04 0.  0.
        3    1    3    3  502    0 -0.11501680079E+04 -0.74507455753E+03 -0.60281278621E+03  0.14971325286E+04  0.10100000352E+00 0.  1.
       -3    1    3    3    0  502  0.11501680079E+04  0.74507455753E+03 -0.17347471686E+02  0.13705194226E+04  0.10100000352E+00 0. -1.
</event>
<event>
 5   0  0.3557628E-07  0.2799253E+04  0.7818609E-02  0.8303500E-01
       -2   -1    0    0    0  501  0.00000000000E+00  0.00000000000E+00  0.93613374625E+03  0.93613374625E+03  0.25500000920E-02 0.  1.
        2   -1    0    0  501    0  0.00000000000E+00  0.00000000000E+00 -0.20926005616E+04  0.20926005616E+04  0.25500000920E-02 0. -1.
    10030    2    1    2    0    0  0.00000000000E+00  0.00000000000E+00 -0.11564668154E+04  0.30287343079E+04  0.27992527597E+04 0.  0.
        5    1    3    3  502    0  0.16411998635E+03  0.84700214937E+03 -0.17706632117E+04  0.19696746712E+04  0.46999998093E+01 0. -1.
       -5    1    3    3    0  502 -0.16411998635E+03 -0.84700214937E+03  0.61419639630E+03  0.10590596367E+04  0.46999998093E+01 0.  1.
</event>
<event>
 5   0  0.1357902E-07  0.2791069E+04  0.7818609E-02  0.8306047E-01
       -1   -1    0    0    0  501  0.00000000000E+00  0.00000000000E+00  0.15536708013E+04  0.15536708013E+04  0.50400001928E-02 0. -1.
        1   -1    0    0  501    0  0.00000000000E+00  0.00000000000E+00 -0.12534933768E+04  0.12534933768E+04  0.50400001928E-02 0.  1.
    10030    2    1    2    0    0  0.00000000000E+00  0.00000000000E+00  0.30017742445E+03  0.28071641781E+04  0.27910686550E+04 0.  0.
        4    1    3    3  502    0 -0.10932260262E+03  0.77309478997E+03 -0.10132524248E+04  0.12791829716E+04  0.12699999809E+01 0.  1.
       -4    1    3    3    0  502  0.10932260262E+03 -0.77309478997E+03  0.13134298492E+04  0.15279812065E+04  0.12699999809E+01 0. -1.
</event>
<event>
 5   0  0.1374680E-07  0.2798995E+04  0.7818609E-02  0.8303580E-01
        1   -1    0    0  501    0  0.00000000000E+00  0.00000000000E+00  0.21627384166E+04  0.21627384166E+04  0.50400001928E-02 0.  1.
       -1   -1    0    0    0  501  0.00000000000E+00  0.00000000000E+00 -0.90560805201E+03  0.90560805203E+03  0.50400001928E-02 0. -1.
    10030    2    1    2    0    0  0.00000000000E+00  0.00000000000E+00  0.12571303645E+04  0.30683464686E+04  0.27989950514E+04 0.  0.
        3    1    3    3  502    0  0.82712608842E+03 -0.32677166376E+03 -0.55601223447E+03  0.10488407417E+04  0.10100000352E+00 0. -1.
       -3    1    3    3    0  502 -0.82712608842E+03  0.32677166376E+03  0.18131425990E+04  0.20195057269E+04  0.10100000352E+00 0.  1.
</event>
<event>
 5   0  0.1361741E-07  0.2800702E+04  0.7818609E-02  0.8303050E-01
       -1   -1    0    0    0  501  0.00000000000E+00  0.00000000000E+00  0.97995561109E+03  0.97995561110E+03  0.50400001928E-02 0.  1.
        1   -1    0    0  501    0  0.00000000000E+00  0.00000000000E+00 -0.20010937829E+04  0.20010937829E+04  0.50400001928E-02 0. -1.
    10030    2    1    2    0    0  0.00000000000E+00  0.00000000000E+00 -0.10211381718E+04  0.29810493940E+04  0.28007021126E+04 0.  0.
        5    1    3    3  502    0  0.84777565565E+03  0.94116314696E+03 -0.11460480404E+04  0.17082036859E+04  0.46999998093E+01 0. -1.
       -5    1    3    3    0  502 -0.84777565565E+03 -0.94116314696E+03  0.12490986858E+03  0.12728457082E+04  0.46999998093E+01 0.  1.
</event>
<event>
 5   0  0.3406920E-07  0.2796626E+04  0.7818609E-02  0.8304317E-01
        2   -1    0    0  501    0  0.00000000000E+00  0.00000000000E+00  0.17868399001E+04  0.17868399001E+04  0.25500000920E-02 0.  1.
       -2   -1    0    0    0  501  0.00000000000E+00  0.00000000000E+00 -0.10942668807E+04  0.10942668807E+04  0.25500000920E-02 0. -1.
    10030    2    1    2    0    0  0.00000000000E+00  0.00000000000E+00  0.69257301943E+03  0.28811067808E+04  0.27966263418E+04 0.  0.
        4    1    3    3  502    0 -0.13391570921E+04 -0.22699941414E+03  0.39726271544E+01  0.13582664857E+04  0.12699999809E+01 0. -1.
       -4    1    3    3    0  502  0.13391570921E+04  0.22699941414E+03  0.68860039227E+03  0.15228402952E+04  0.12699999809E+01 0.  1.
</event>
<event>
 5   0  0.3522569E-07  0.2799465E+04  0.7818609E-02  0.8303434E-01
       -2   -1    0    0    0  501  0.00000000000E+00  0.00000000000E+00  0.11011502546E+04  0.11011502546E+04  0.25500000920E-02 0. -1.
        2   -1    0    0  501    0  0.00000000000E+00  0.00000000000E+00 -0.17792768126E+04  0.17792768126E+04  0.25500000920E-02 0.  1.
    10030    2    1    2    0    0  0.00000000000E+00  0.00000000000E+00 -0.67812655798E+03  0.28804270673E+04  0.27994650312E+04 0.  0.
        1    1    3    3  502    0  0.11080537858E+04  0.56609705003E+03  0.32057193491E+03  0.12849184518E+04  0.50400001928E-02 0. -1.
       -1    1    3    3    0  502 -0.11080537858E+04 -0.56609705003E+03 -0.99869849290E+03  0.15955086155E+04  0.50400001928E-02 0.  1.
</event>
<event>
 5   0  0.3557628E-07  0.2798545E+04  0.7818609E-02  0.8303720E-01
        2   -1    0    0  501    0  0.00000000000E+00  0.00000000000E+00  0.73385168984E+03  0.73385168984E+03  0.25500000920E-02 0. -1.
       -2   -1    0    0    0  501  0.00000000000E+00  0.00000000000E+00 -0.26680634334E+04  0.26680634334E+04  0.25500000920E-02 0.  1.
    10030    2    1    2    0    0  0.00000000000E+00  0.00000000000E+00 -0.19342117436E+04  0.34019151232E+04  0.27985445211E+04 0.  0.
        5    1    3    3  502    0  0.96540870100E+03 -0.35930691842E+03  0.18407931039E+03  0.10464333252E+04  0.46999998093E+01 0. -1.
       -5    1    3    3    0  502 -0.96540870100E+03  0.35930691842E+03 -0.21182910540E+04  0.23554817980E+04  0.46999998093E+01 0.  1.
</event>
<event>
 5   0  0.3406920E-07  0.2797925E+04  0.7818609E-02  0.8303913E-01
       -2   -1    0    0    0  501  0.00000000000E+00  0.00000000000E+00  0.15813731256E+04  0.15813731256E+04  0.25500000920E-02 0. -1.
        2   -1    0    0  501    0  0.00000000000E+00  0.00000000000E+00 -0.12375924285E+04  0.12375924285E+04  0.25500000920E-02 0.  1.
    10030    2    1    2    0    0  0.00000000000E+00  0.00000000000E+00  0.34378069703E+03  0.28189655541E+04  0.27979245214E+04 0.  0.
        4    1    3    3  502    0  0.10913718730E+04 -0.18025649910E+03  0.10347823548E+04  0.15147148594E+04  0.12699999809E+01 0. -1.
       -4    1    3    3    0  502 -0.10913718730E+04  0.18025649910E+03 -0.69100165774E+03  0.13042506947E+04  0.12699999809E+01 0.  1.
</event>
<event>
 5   0  0.3571498E-07  0.2798147E+04  0.7818609E-02  0.8303844E-01
       -2   -1    0    0    0  501  0.00000000000E+00  0.00000000000E+00  0.10953269426E+04  0.10953269426E+04  0.25500000920E-02 0.  1.
        2   -1    0    0  501    0  0.00000000000E+00  0.00000000000E+00 -0.17870526159E+04  0.17870526159E+04  0.25500000920E-02 0. -1.
    10030    2    1    2    0    0  0.00000000000E+00  0.00000000000E+00 -0.69172567338E+03  0.28823795585E+04  0.27981471570E+04 0.  0.
        2    1    3    3  502    0 -0.19541941421E+03 -0.13740121031E+04 -0.16359320178E+03  0.13974479391E+04  0.25500000920E-02 0. -1.
       -2    1    3    3    0  502  0.19541941421E+03  0.13740121031E+04 -0.52813247160E+03  0.14849316194E+04  0.25500000920E-02 0.  1.
</event>
<event>
 5   0  0.3557628E-07  0.2801367E+04  0.7818609E-02  0.8302844E-01
       -2   -1    0    0    0  501  0.00000000000E+00  0.00000000000E+00  0.10385788283E+04  0.10385788283E+04  0.25500000920E-02 0.  1.
        2   -1    0    0  501    0  0.00000000000E+00  0.00000000000E+00 -0.18890376789E+04  0.18890376789E+04  0.25500000920E-02 0. -1.
    10030    2    1    2    0    0  0.00000000000E+00  0.00000000000E+00 -0.85045885069E+03  0.29276165072E+04  0.28013671942E+04 0.  0.
        5    1    3    3  502    0  0.83607420453E+03 -0.10877036346E+04 -0.72039968195E+03  0.15495538274E+04  0.46999998093E+01 0.  1.
       -5    1    3    3    0  502 -0.83607420453E+03  0.10877036346E+04 -0.13005916874E+03  0.13780626798E+04  0.46999998093E+01 0. -1.
</event>
<event>
 5   0  0.3557628E-07  0.2800311E+04  0.7818609E-02  0.8303172E-01
       -2   -1    0    0    0  501  0.00000000000E+00  0.00000000000E+00  0.11838597542E+04  0.11838597542E+04  0.25500000920E-02 0.  1.
        2   -1    0    0  501    0  0.00000000000E+00  0.00000000000E+00 -0.16559693374E+04  0.16559693374E+04  0.25500000920E-02 0. -1.
    10030    2    1    2    0    0  0.00000000000E+00  0.00000000000E+00 -0.47210958317E+03  0.28398290916E+04  0.28003110204E+04 0.  0.
        5    1    3    3  502    0  0.98452442584E+03 -0.99244669606E+03 -0.31574214549E+03  0.14331622316E+04  0.46999998093E+01 0.  1.
       -5    1    3    3    0  502 -0.98452442584E+03  0.99244669606E+03 -0.15636743768E+03  0.14066668600E+04  0.46999998093E+01 0. -1.
</event>
<event>
 5   0  0.1366235E-07  0.2800513E+04  0.7818609E-02  0.8303109E-01
        1   -1    0    0  501    0  0.00000000000E+00  0.00000000000E+00  0.22225389376E+04  0.22225389376E+04  0.50400001928E-02 0. -1.
       -1   -1    0    0    0  501  0.00000000000E+00  0.00000000000E+00 -0.88219759052E+03  0.88219759053E+03  0.50400001928E-02 0.  1.
    10030    2    1    2    0    0  0.00000000000E+00  0.00000000000E+00  0.13403413471E+04  0.31047365282E+04  0.28005131641E+04 0.  0.
        2    1    3    3  502    0 -0.97937255926E+03 -0.57291684747E+02 -0.43749876794E+03  0.10741778805E+04  0.25500000920E-02 0.  1.
       -2    1    3    3    0  502  0.97937255926E+03  0.57291684747E+02  0.17778401151E+04  0.20305586477E+04  0.25500000920E-02 0. -1.
</event>
<event>
 5   0  0.1366235E-07  0.2802637E+04  0.7818609E-02  0.8302450E-01
        1   -1    0    0  501    0  0.00000000000E+00  0.00000000000E+00  0.17746922873E+04  0.17746922873E+04  0.50400001928E-02 0.  1.
       -1   -1    0    0    0  501  0.00000000000E+00  0.00000000000E+00 -0.11064977829E+04  0.11064977829E+04  0.50400001928E-02 0. -1.
    10030    2    1    2    0    0  0.00000000000E+00  0.00000000000E+00  0.66819450435E+03  0.28811900702E+04  0.28026366737E+04 0.  0.
        2    1    3    3  502    0  0.10543382590E+04 -0.12639777670E+03 -0.60590951228E+03  0.12225922867E+04  0.25500000920E-02 0. -1.
       -2    1    3    3    0  502 -0.10543382590E+04  0.12639777670E+03  0.12741040166E+04  0.16585977835E+04  0.25500000920E-02 0.  1.
</event>
<event>
 5   0  0.1366235E-07  0.2800651E+04  0.7818609E-02  0.8303066E-01
       -1   -1    0    0    0  501  0.00000000000E+00  0.00000000000E+00  0.11378466689E+04  0.11378466689E+04  0.50400001928E-02 0.  1.
        1   -1    0    0  501    0  0.00000000000E+00  0.00000000000E+00 -0.17233532732E+04  0.17233532732E+04  0.50400001928E-02 0. -1.
    10030    2    1    2    0    0  0.00000000000E+00  0.00000000000E+00 -0.58550660429E+03  0.28611999422E+04  0.28006511967E+04 0.  0.
        2    1    3    3  502    0 -0.97222886767E+03  0.65013419536E+03 -0.10794722027E+04  0.15915915555E+04  0.25500000920E-02 0. -1.
       -2    1    3    3    0  502  0.97222886767E+03 -0.65013419536E+03  0.49396559840E+03  0.12696083867E+04  0.25500000920E-02 0.  1.
</event>
<event>
 5   0  0.1361741E-07  0.2798357E+04  0.7818609E-02  0.8303779E-01
        1   -1    0    0  501    0  0.00000000000E+00  0.00000000000E+00  0.20532890334E+04  0.20532890334E+04  0.50400001928E-02 0. -1.
       -1   -1    0    0    0  501  0.00000000000E+00  0.00000000000E+00 -0.95344617841E+03  0.95344617842E+03  0.50400001928E-02 0.  1.
    10030    2    1    2    0    0  0.00000000000E+00  0.00000000000E+00  0.10998428550E+04  0.30067352118E+04  0.27983570766E+04 0.  0.
        5    1    3    3  502    0 -0.45101315699E+03 -0.58547317609E+03 -0.72660691300E+03  0.10364224060E+04  0.46999998093E+01 0.  1.
       -5    1    3    3    0  502  0.45101315699E+03  0.58547317609E+03  0.18264497680E+04  0.19703128058E+04  0.46999998093E+01 0. -1.
</event>
<event>
 5   0  0.3502141E-07  0.2799985E+04  0.7818609E-02  0.8303273E-01
        2   -1    0    0  501    0  0.00000000000E+00  0.00000000000E+00  0.20473610587E+04  0.20473610587E+04  0.25500000920E-02 0. -1.
       -2   -1    0    0    0  501  0.00000000000E+00  0.00000000000E+00 -0.95731999195E+03  0.95731999195E+03  0.25500000920E-02 0.  1.
    10030    2    1    2    0    0  0.00000000000E+00  0.00000000000E+00  0.10900410668E+04  0.30046810507E+04  0.27999854802E+04 0.  0.
        3    1    3    3  502    0 -0.98403628198E+03 -0.11596267009E+03 -0.51632676698E+03  0.11173039361E+04  0.10100000352E+00 0.  1.
       -3    1    3    3    0  502  0.98403628198E+03  0.11596267009E+03  0.16063678338E+04  0.18873771146E+04  0.10100000352E+00 0. -1.
</event>
<event>
 5   0  0.1346049E-07  0.2799533E+04  0.7818609E-02  0.8303413E-01
        1   -1    0    0  501    0  0.00000000000E+00  0.00000000000E+00  0.16243219878E+04  0.16243219878E+04  0.50400001928E-02 0. -1.
       -1   -1    0    0    0  501  0.00000000000E+00  0.00000000000E+00 -0.12062551212E+04  0.12062551212E+04  0.50400001928E-02 0.  1.
    10030    2    1    2    0    0  0.00000000000E+00  0.00000000000E+00  0.41806686660E+03  0.28305771089E+04  0.27995333298E+04 0.  0.
        1    1    3    3  502    0  0.96986185709E+03 -0.16041933501E+03 -0.79850047450E+03  0.12664791324E+04  0.50400001928E-02 0.  1.
       -1    1    3    3    0  502 -0.96986185709E+03  0.16041933501E+03  0.12165673411E+04  0.15640979766E+04  0.50400001928E-02 0. -1.
</event>
<event>
 5   0  0.1366235E-07  0.2799301E+04  0.7818609E-02  0.8303485E-01
        1   -1    0    0  501    0  0.00000000000E+00  0.00000000000E+00  0.73202432688E+03  0.73202432690E+03  0.50400001928E-02 0.  1.
       -1   -1    0    0    0  501  0.00000000000E+00  0.00000000000E+00 -0.26761702029E+04  0.26761702029E+04  0.50400001928E-02 0. -1.
    10030    2    1    2    0    0  0.00000000000E+00  0.00000000000E+00 -0.19441458760E+04  0.34081945298E+04  0.27993011209E+04 0.  0.
        2    1    3    3  502    0 -0.78160280771E+03 -0.11199992855E+04 -0.13448006567E+04  0.19167133732E+04  0.25500000920E-02 0. -1.
       -2    1    3    3    0  502  0.78160280771E+03  0.11199992855E+04 -0.59934521929E+03  0.14914811566E+04  0.25500000920E-02 0.  1.
</event>
<event>
 5   0  0.1361741E-07  0.2799754E+04  0.7818609E-02  0.8303345E-01
       -1   -1    0    0    0  501  0.00000000000E+00  0.00000000000E+00  0.14038041469E+04  0.14038041469E+04  0.50400001928E-02 0.  1.
        1   -1    0    0  501    0  0.00000000000E+00  0.00000000000E+00 -0.13959604573E+04  0.13959604573E+04  0.50400001928E-02 0. -1.
    10030    2    1    2    0    0  0.00000000000E+00  0.00000000000E+00  0.78436895893E+01  0.27997646042E+04  0.27997536169E+04 0.  0.
        5    1    3    3  502    0 -0.84615783976E+03  0.29155091469E+03 -0.10724874905E+04  0.13968666840E+04  0.46999998093E+01 0. -1.
       -5    1    3    3    0  502  0.84615783976E+03 -0.29155091469E+03  0.10803311801E+04  0.14028979201E+04  0.46999998093E+01 0.  1.
</event>
<event>
 5   0  0.3571498E-07  0.2808280E+04  0.7818609E-02  0.8300702E-01
        2   -1    0    0  501    0  0.00000000000E+00  0.00000000000E+00  0.18200033218E+04  0.18200033218E+04  0.25500000920E-02 0. -1.
       -2   -1    0    0    0  501  0.00000000000E+00  0.00000000000E+00 -0.10832995379E+04  0.10832995379E+04  0.25500000920E-02 0.  1.
    10030    2    1    2    0    0  0.00000000000E+00  0.00000000000E+00  0.73670378390E+03  0.29033028598E+04  0.28082797280E+04 0.  0.
        2    1    3    3  502    0 -0.69476973066E+03  0.12030172303E+04  0.15735463876E+03  0.13981115540E+04  0.25500000920E-02 0. -1.
       -2    1    3    3    0  502  0.69476973066E+03 -0.12030172303E+04  0.57934914514E+03  0.15051913058E+04  0.25500000920E-02 0.  1.
</event>
<event>
 5   0  0.3406920E-07  0.2800044E+04  0.7818609E-02  0.8303255E-01
       -2   -1    0    0    0  501  0.00000000000E+00  0.00000000000E+00  0.79825564893E+03  0.79825564893E+03  0.25500000920E-02 0.  1.
        2   -1    0    0  501    0  0.00000000000E+00  0.00000000000E+00 -0.24554302560E+04  0.24554302560E+04  0.25500000920E-02 0. -1.
    10030    2    1    2    0    0  0.00000000000E+00  0.00000000000E+00 -0.16571746070E+04  0.32536859049E+04  0.28000436228E+04 0.  0.
        4    1    3    3  502    0 -0.59096191012E+03 -0.84597321123E+03  0.27082202399E+03  0.10668893265E+04  0.12699999809E+01 0.  1.
       -4    1    3    3    0  502  0.59096191012E+03  0.84597321123E+03 -0.19279966310E+04  0.21867965784E+04  0.12699999809E+01 0. -1.
</event>
<event>
 5   0  0.1374680E-07  0.2799230E+04  0.7818609E-02  0.8303507E-01
        1   -1    0    0  501    0  0.00000000000E+00  0.00000000000E+00  0.15518483218E+04  0.15518483218E+04  0.50400001928E-02 0. -1.
       -1   -1    0    0    0  501  0.00000000000E+00  0.00000000000E+00 -0.12623156422E+04  0.12623156422E+04  0.50400001928E-02 0.  1.
    10030    2    1    2    0    0  0.00000000000E+00  0.00000000000E+00  0.28953267959E+03  0.28141639641E+04  0.27992301878E+04 0.  0.
        3    1    3    3  502    0 -0.13200775789E+04 -0.20974037387E+03 -0.27257066643E+03  0.13641446467E+04  0.10100000352E+00 0.  1.
       -3    1    3    3    0  502  0.13200775789E+04  0.20974037387E+03  0.56210334602E+03  0.14500193173E+04  0.10100000352E+00 0. -1.
</event>
<event>
 5   0  0.3571498E-07  0.2798961E+04  0.7818609E-02  0.8303591E-01
        2   -1    0    0  501    0  0.00000000000E+00  0.00000000000E+00  0.15032949121E+04  0.15032949121E+04  0.25500000920E-02 0.  1.
       -2   -1    0    0    0  501  0.00000000000E+00  0.00000000000E+00 -0.13028352597E+04  0.13028352597E+04  0.25500000920E-02 0. -1.
    10030    2    1    2    0    0  0.00000000000E+00  0.00000000000E+00  0.20045965234E+03  0.28061301718E+04  0.27989609623E+04 0.  0.
        2    1    3    3  502    0  0.54346185333E+03  0.38431353328E+03  0.13344386503E+04  0.14912324397E+04  0.25500000920E-02 0.  1.
       -2    1    3    3    0  502 -0.54346185333E+03 -0.38431353328E+03 -0.11339789980E+04  0.13148977320E+04  0.25500000920E-02 0. -1.
</event>
<event>
 5   0  0.1361741E-07  0.2800902E+04  0.7818609E-02  0.8302988E-01
       -1   -1    0    0    0  501  0.00000000000E+00  0.00000000000E+00  0.12981615948E+04  0.12981615948E+04  0.50400001928E-02 0. -1.
        1   -1    0    0  501    0  0.00000000000E+00  0.00000000000E+00 -0.15108000021E+04  0.15108000021E+04  0.50400001928E-02 0.  1.
    10030    2    1    2    0    0  0.00000000000E+00  0.00000000000E+00 -0.21263840732E+03  0.28089615970E+04  0.28009016693E+04 0.  0.
        5    1    3    3  502    0 -0.89656219893E+03 -0.56018626597E-01  0.97260964618E+03  0.13228058790E+04  0.46999998093E+01 0. -1.
       -5    1    3    3    0  502  0.89656219893E+03  0.56018626597E-01 -0.11852480535E+04  0.14861557180E+04  0.46999998093E+01 0.  1.
</event>
<event>
 5   0  0.1357902E-07  0.2800580E+04  0.7818609E-02  0.8303088E-01
        1   -1    0    0  501    0  0.00000000000E+00  0.00000000000E+00  0.17582997251E+04  0.17582997251E+04  0.50400001928E-02 0. -1.
       -1   -1    0    0    0  501  0.00000000000E+00  0.00000000000E+00 -0.11151752318E+04  0.11151752318E+04  0.50400001928E-02 0.  1.
    10030    2    1    2    0    0  0.00000000000E+00  0.00000000000E+00  0.64312449330E+03  0.28734749569E+04  0.28005801567E+04 0.  0.
        4    1    3    3  502    0  0.93397218874E+03  0.60080027327E+03 -0.55360194601E+03  0.12408633064E+04  0.12699999809E+01 0.  1.
       -4    1    3    3    0  502 -0.93397218874E+03 -0.60080027327E+03  0.11967264393E+04  0.16326116504E+04  0.12699999809E+01 0. -1.
</event>
<event>
 5   0  0.1366235E-07  0.2798530E+04  0.7818609E-02  0.8303725E-01
       -1   -1    0    0    0  501  0.00000000000E+00  0.00000000000E+00  0.90828880207E+03  0.90828880209E+03  0.50400001928E-02 0. -1.
        1   -1    0    0  501    0  0.00000000000E+00  0.00000000000E+00 -0.21556389347E+04  0.21556389347E+04  0.50400001928E-02 0.  1.
    10030    2    1    2    0    0  0.00000000000E+00  0.00000000000E+00 -0.12473501326E+04  0.30639277368E+04  0.27985301183E+04 0.  0.
        2    1    3    3  502    0  0.79778214229E+02 -0.39643054761E+03 -0.20902717549E+04  0.21290274192E+04  0.25500000920E-02 0.  1.
       -2    1    3    3    0  502 -0.79778214229E+02  0.39643054761E+03  0.84292162225E+03  0.93490031757E+03  0.25500000920E-02 0. -1.
</event>
<event>
 5   0  0.1361741E-07  0.2797720E+04  0.7818609E-02  0.8303977E-01
       -1   -1    0    0    0  501  0.00000000000E+00  0.00000000000E+00  0.98307810752E+03  0.98307810753E+03  0.50400001928E-02 0.  1.
        1   -1    0    0  501    0  0.00000000000E+00  0.00000000000E+00 -0.19904921510E+04  0.19904921510E+04  0.50400001928E-02 0. -1.
    10030    2    1    2    0    0  0.00000000000E+00  0.00000000000E+00 -0.10074140435E+04  0.29735702586E+04  0.27977199695E+04 0.  0.
        5    1    3    3  502    0 -0.11151565243E+04 -0.37655292078E+03 -0.13071444446E+04  0.17589812008E+04  0.46999998093E+01 0. -1.
       -5    1    3    3    0  502  0.11151565243E+04  0.37655292078E+03  0.29973040110E+03  0.12145890577E+04  0.46999998093E+01 0.  1.
</event>
<event>
 5   0  0.1346049E-07  0.2801589E+04  0.7818609E-02  0.8302775E-01
       -1   -1    0    0    0  501  0.00000000000E+00  0.00000000000E+00  0.76664111405E+03  0.76664111407E+03  0.50400001928E-02 0.  1.
        1   -1    0    0  501    0  0.00000000000E+00  0.00000000000E+00 -0.25595099020E+04  0.25595099020E+04  0.50400001928E-02 0. -1.
    10030    2    1    2    0    0  0.00000000000E+00  0.00000000000E+00 -0.17928687879E+04  0.33261510160E+04  0.28015892081E+04 0.  0.
        1    1    3    3  502    0  0.34163526270E+03 -0.13333432002E+04 -0.12053597738E+04  0.18295931041E+04  0.50400001928E-02 0. -1.
       -1    1    3    3    0  502 -0.34163526270E+03  0.13333432002E+04 -0.58750901408E+03  0.14965579119E+04  0.50400001928E-02 0.  1.
</event>
<event>
 5   0  0.3502141E-07  0.2800135E+04  0.7818609E-02  0.8303227E-01
        2   -1    0    0  501    0  0.00000000000E+00  0.00000000000E+00  0.21590387073E+04  0.21590387073E+04  0.25500000920E-02 0.  1.
       -2   -1    0    0    0  501  0.00000000000E+00  0.00000000000E+00 -0.90789879219E+03  0.90789879219E+03  0.25500000920E-02 0. -1.
    10030    2    1    2    0    0  0.00000000000E+00  0.00000000000E+00  0.12511399151E+04  0.30669374995E+04  0.28001347358E+04 0.  0.
        3    1    3    3  502    0  0.42457211957E+03 -0.13340879445E+04  0.63836630082E+03  0.15386889460E+04  0.10100000352E+00 0.  1.
       -3    1    3    3    0  502 -0.42457211957E+03  0.13340879445E+04  0.61277361425E+03  0.15282485534E+04  0.10100000352E+00 0. -1.
</event>
<event>
 5   0  0.3502141E-07  0.2803520E+04  0.7818609E-02  0.8302176E-01
       -2   -1    0    0    0  501  0.00000000000E+00  0.00000000000E+00  0.17104060197E+04  0.17104060197E+04  0.25500000920E-02 0.  1.
        2   -1    0    0  501    0  0.00000000000E+00  0.00000000000E+00 -0.11488094223E+04  0.11488094223E+04  0.25500000920E-02 0. -1.
    10030    2    1    2    0    0  0.00000000000E+00  0.00000000000E+00  0.56159659747E+03  0.28592154420E+04  0.28035196103E+04 0.  0.
        3    1    3    3  502    0  0.71050766379E+03 -0.10992071115E+04  0.79261794942E+03  0.15301374573E+04  0.10100000352E+00 0.  1.
       -3    1    3    3    0  502 -0.71050766379E+03  0.10992071115E+04 -0.23102135195E+03  0.13290779847E+04  0.10100000352E+00 0. -1.
</event>
<event>
 5   0  0.1361741E-07  0.2800332E+04  0.7818609E-02  0.8303165E-01
        1   -1    0    0  501    0  0.00000000000E+00  0.00000000000E+00  0.20453377499E+04  0.20453377499E+04  0.50400001928E-02 0.  1.
       -1   -1    0    0    0  501  0.00000000000E+00  0.00000000000E+00 -0.95850451568E+03  0.95850451569E+03  0.50400001928E-02 0. -1.
    10030    2    1    2    0    0  0.00000000000E+00  0.00000000000E+00  0.10868332342E+04  0.30038422656E+04  0.28003324584E+04 0.  0.
        5    1    3    3  502    0 -0.79680809958E+03 -0.98620469624E+03 -0.93845783964E+02  0.12713504519E+04  0.46999998093E+01 0.  1.
       -5    1    3    3    0  502  0.79680809958E+03  0.98620469624E+03  0.11806790182E+04  0.17324918137E+04  0.46999998093E+01 0. -1.
</event>
<event>
 5   0  0.1374680E-07  0.2798572E+04  0.7818609E-02  0.8303712E-01
        1   -1    0    0  501    0  0.00000000000E+00  0.00000000000E+00  0.14045831229E+04  0.14045831229E+04  0.50400001928E-02 0.  1.
       -1   -1    0    0    0  501  0.00000000000E+00  0.00000000000E+00 -0.13940093447E+04  0.13940093447E+04  0.50400001928E-02 0. -1.
    10030    2    1    2    0    0  0.00000000000E+00  0.00000000000E+00  0.10573778193E+02  0.27985924676E+04  0.27985724923E+04 0.  0.
        3    1    3    3  502    0 -0.88547955471E+03  0.85593010008E+03  0.66960451672E+03  0.14018061910E+04  0.10100000352E+00 0.  1.
       -3    1    3    3    0  502  0.88547955471E+03 -0.85593010008E+03 -0.65903073852E+03  0.13967862766E+04  0.10100000352E+00 0. -1.
</event>
<event>
 5   0  0.1374680E-07  0.2796922E+04  0.7818609E-02  0.8304224E-01
        1   -1    0    0  501    0  0.00000000000E+00  0.00000000000E+00  0.23567111150E+04  0.23567111150E+04  0.50400001928E-02 0. -1.
       -1   -1    0    0    0  501  0.00000000000E+00  0.00000000000E+00 -0.82984023702E+03  0.82984023704E+03  0.50400001928E-02 0.  1.
    10030    2    1    2    0    0  0.00000000000E+00  0.00000000000E+00  0.15268708780E+04  0.31865513520E+04  0.27969223874E+04 0.  0.
        3    1    3    3  502    0 -0.12614768327E+04 -0.59021018450E+03  0.90764587349E+03  0.16623756805E+04  0.10100000352E+00 0.  1.
       -3    1    3    3    0  502  0.12614768327E+04  0.59021018450E+03  0.61922500449E+03  0.15241756715E+04  0.10100000352E+00 0. -1.
</event>
<event>
 5   0  0.3571498E-07  0.2797914E+04  0.7818609E-02  0.8303916E-01
       -2   -1    0    0    0  501  0.00000000000E+00  0.00000000000E+00  0.67609237458E+03  0.67609237459E+03  0.25500000920E-02 0. -1.
        2   -1    0    0  501    0  0.00000000000E+00  0.00000000000E+00 -0.28946951390E+04  0.28946951390E+04  0.25500000920E-02 0.  1.
    10030    2    1    2    0    0  0.00000000000E+00  0.00000000000E+00 -0.22186027645E+04  0.35707875136E+04  0.27979144449E+04 0.  0.
        2    1    3    3  502    0  0.26613675833E+03 -0.47493425251E+03  0.53535002599E+03  0.76353845265E+03  0.25500000920E-02 0. -1.
       -2    1    3    3    0  502 -0.26613675833E+03  0.47493425251E+03 -0.27539527904E+04  0.28072490610E+04  0.25500000920E-02 0.  1.
</event>
<event>
 5   0  0.3571498E-07  0.2798562E+04  0.7818609E-02  0.8303715E-01
        2   -1    0    0  501    0  0.00000000000E+00  0.00000000000E+00  0.16609598713E+04  0.16609598713E+04  0.25500000920E-02 0. -1.
       -2   -1    0    0    0  501  0.00000000000E+00  0.00000000000E+00 -0.11788286959E+04  0.11788286959E+04  0.25500000920E-02 0.  1.
    10030    2    1    2    0    0  0.00000000000E+00  0.00000000000E+00  0.48213117542E+03  0.28397885672E+04  0.27985618871E+04 0.  0.
        2    1    3    3  502    0 -0.44728897663E+02  0.65592000836E+03  0.14944767352E+04  0.16326948409E+04  0.25500000920E-02 0. -1.
       -2    1    3    3    0  502  0.44728897663E+02 -0.65592000836E+03 -0.10123455597E+04  0.12070937263E+04  0.25500000920E-02 0.  1.
</event>
<event>
 5   0  0.1357902E-07  0.2792192E+04  0.7818609E-02  0.8305696E-01
        1   -1    0    0  501    0  0.00000000000E+00  0.00000000000E+00  0.19065113242E+04  0.19065113242E+04  0.50400001928E-02 0. -1.
       -1   -1    0    0    0  501  0.00000000000E+00  0.00000000000E+00 -0.10223303323E+04  0.10223303323E+04  0.50400001928E-02 0.  1.
    10030    2    1    2    0    0  0.00000000000E+00  0.00000000000E+00  0.88418099195E+03  0.29288416565E+04  0.27921922252E+04 0.  0.
        4    1    3    3  502    0  0.12093577094E+04  0.33091539799E+02  0.11729250708E+04  0.16850507274E+04  0.12699999809E+01 0. -1.
       -4    1    3    3    0  502 -0.12093577094E+04 -0.33091539799E+02 -0.28874407886E+03  0.12437909291E+04  0.12699999809E+01 0.  1.
</event>
<event>
 5   0  0.3522569E-07  0.2796532E+04  0.7818609E-02  0.8304346E-01
       -2   -1    0    0    0  501  0.00000000000E+00  0.00000000000E+00  0.11263796056E+04  0.11263796056E+04  0.25500000920E-02 0.  1.
        2   -1    0    0  501    0  0.00000000000E+00  0.00000000000E+00 -0.17357806440E+04  0.17357806440E+04  0.25500000920E-02 0. -1.
    10030    2    1    2    0    0  0.00000000000E+00  0.00000000000E+00 -0.60940103844E+03  0.28621602496E+04  0.27965320790E+04 0.  0.
        1    1    3    3  502    0 -0.37895413322E+03  0.13227738462E+04 -0.55915326655E+03  0.14852573039E+04  0.50400001928E-02 0.  1.
       -1    1    3    3    0  502  0.37895413322E+03 -0.13227738462E+04 -0.50247771889E+02  0.13769029457E+04  0.50400001928E-02 0. -1.
</event>
<event>
 5   0  0.3557628E-07  0.2799481E+04  0.7818609E-02  0.8303430E-01
       -2   -1    0    0    0  501  0.00000000000E+00  0.00000000000E+00  0.12718818949E+04  0.12718818949E+04  0.25500000920E-02 0. -1.
        2   -1    0    0  501    0  0.00000000000E+00  0.00000000000E+00 -0.15404522035E+04  0.15404522035E+04  0.25500000920E-02 0.  1.
    10030    2    1    2    0    0  0.00000000000E+00  0.00000000000E+00 -0.26857030859E+03  0.28123340985E+04  0.27994808574E+04 0.  0.
        5    1    3    3  502    0  0.45059596800E+03 -0.61277696971E+03 -0.13147200385E+04  0.15188953916E+04  0.46999998093E+01 0.  1.
       -5    1    3    3    0  502 -0.45059596800E+03  0.61277696971E+03  0.10461497299E+04  0.12934387069E+04  0.46999998093E+01 0. -1.
</event>
<event>
 5   0  0.3557628E-07  0.2800800E+04  0.7818609E-02  0.8303020E-01
        2   -1    0    0  501    0  0.00000000000E+00  0.00000000000E+00  0.16503467438E+04  0.16503467438E+04  0.25500000920E-02 0. -1.
       -2   -1    0    0    0  501  0.00000000000E+00  0.00000000000E+00 -0.11883075646E+04  0.11883075646E+04  0.25500000920E-02 0.  1.
    10030    2    1    2    0    0  0.00000000000E+00  0.00000000000E+00  0.46203917918E+03  0.28386543084E+04  0.28007995429E+04 0.  0.
        5    1    3    3  502    0 -0.10896961581E+04  0.76256493824E+03  0.67529848024E+03  0.14916410860E+04  0.46999998093E+01 0. -1.
       -5    1    3    3    0  502  0.10896961581E+04 -0.76256493824E+03 -0.21325930106E+03  0.13470132224E+04  0.46999998093E+01 0.  1.
</event>
<event>
 5   0  0.3571498E-07  0.2799575E+04  0.7818609E-02  0.8303400E-01
       -2   -1    0    0    0  501  0.00000000000E+00  0.00000000000E+00  0.16939972094E+04  0.16939972094E+04  0.25500000920E-02 0. -1.
        2   -1    0    0  501    0  0.00000000000E+00  0.00000000000E+00 -0.11566751156E+04  0.11566751156E+04  0.25500000920E-02 0.  1.
    10030    2    1    2    0    0  0.00000000000E+00  0.00000000000E+00  0.53732209372E+03  0.28506723250E+04  0.27995745520E+04 0.  0.
        2    1    3    3  502    0  0.43545017793E+03  0.10504747809E+04 -0.56250349242E+03  0.12686702888E+04  0.25500000920E-02 0. -1.
       -2    1    3    3    0  502 -0.43545017793E+03 -0.10504747809E+04  0.10998255861E+04  0.15820020362E+04  0.25500000920E-02 0.  1.
</event>
<event>
 5   0  0.1361741E-07  0.2799601E+04  0.7818609E-02  0.8303392E-01
        1   -1    0    0  501    0  0.00000000000E+00  0.00000000000E+00  0.23442042941E+04  0.23442042941E+04  0.50400001928E-02 0.  1.
       -1   -1    0    0    0  501  0.00000000000E+00  0.00000000000E+00 -0.83586644112E+03  0.83586644114E+03  0.50400001928E-02 0. -1.
    10030    2    1    2    0    0  0.00000000000E+00  0.00000000000E+00  0.15083378530E+04  0.31800707353E+04  0.27996011863E+04 0.  0.
        5    1    3    3  502    0 -0.12151364255E+04  0.55930503318E+03  0.12225694618E+04  0.18122022050E+04  0.46999998093E+01 0.  1.
       -5    1    3    3    0  502  0.12151364255E+04 -0.55930503318E+03  0.28576839116E+03  0.13678685303E+04  0.46999998093E+01 0. -1.
</event>
<event>
 5   0  0.3502141E-07  0.2804677E+04  0.7818609E-02  0.8301818E-01
        2   -1    0    0  501    0  0.00000000000E+00  0.00000000000E+00  0.15339037077E+04  0.15339037077E+04  0.25500000920E-02 0. -1.
       -2   -1    0    0    0  501  0.00000000000E+00  0.00000000000E+00 -0.12820581893E+04  0.12820581893E+04  0.25500000920E-02 0.  1.
    10030    2    1    2    0    0  0.00000000000E+00  0.00000000000E+00  0.25184551837E+03  0.28159618970E+04  0.28046773861E+04 0.  0.
        3    1    3    3  502    0  0.53361261793E+03  0.12777314852E+04  0.34865677207E+03  0.14279011623E+04  0.10100000352E+00 0.  1.
       -3    1    3    3    0  502 -0.53361261793E+03 -0.12777314852E+04 -0.96811253698E+02  0.13880607347E+04  0.10100000352E+00 0. -1.
</event>
<event>
 5   0  0.1374680E-07  0.2801519E+04  0.7818609E-02  0.8302797E-01
       -1   -1    0    0    0  501  0.00000000000E+00  0.00000000000E+00  0.14432765147E+04  0.14432765147E+04  0.50400001928E-02 0. -1.
        1   -1    0    0  501    0  0.00000000000E+00  0.00000000000E+00 -0.13594953170E+04  0.13594953170E+04  0.50400001928E-02 0.  1.
    10030    2    1    2    0    0  0.00000000000E+00  0.00000000000E+00  0.83781197712E+02  0.28027718318E+04  0.28015193471E+04 0.  0.
        3    1    3    3  502    0  0.21484807823E+03  0.72944776085E+03  0.12187982347E+04  0.14365663506E+04  0.10100000352E+00 0. -1.
       -3    1    3    3    0  502 -0.21484807823E+03 -0.72944776085E+03 -0.11350170370E+04  0.13662054812E+04  0.10100000352E+00 0.  1.
</event>
<event>
 5   0  0.3406920E-07  0.2800879E+04  0.7818609E-02  0.8302996E-01
       -2   -1    0    0    0  501  0.00000000000E+00  0.00000000000E+00  0.12664361676E+04  0.12664361676E+04  0.25500000920E-02 0.  1.
        2   -1    0    0  501    0  0.00000000000E+00  0.00000000000E+00 -0.15486216054E+04  0.15486216054E+04  0.25500000920E-02 0. -1.
    10030    2    1    2    0    0  0.00000000000E+00  0.00000000000E+00 -0.28218543780E+03  0.28150577731E+04  0.28008787272E+04 0.  0.
        4    1    3    3  502    0 -0.52495263656E+03 -0.76035584658E+03 -0.11988044673E+04  0.15135554327E+04  0.12699999809E+01 0. -1.
       -4    1    3    3    0  502  0.52495263656E+03  0.76035584658E+03  0.91661902947E+03  0.13015023404E+04  0.12699999809E+01 0.  1.
</event>
<event>
 5   0  0.1366235E-07  0.2799756E+04  0.7818609E-02  0.8303344E-01
       -1   -1    0    0    0  501  0.00000000000E+00  0.00000000000E+00  0.16929716732E+04  0.16929716732E+04  0.50400001928E-02 0. -1.
        1   -1    0    0  501    0  0.00000000000E+00  0.00000000000E+00 -0.11575262055E+04  0.11575262055E+04  0.50400001928E-02 0.  1.
    10030    2    1    2    0    0  0.00000000000E+00  0.00000000000E+00  0.53544546771E+03  0.28504978788E+04  0.27997564730E+04 0.  0.
        2    1    3    3  502    0 -0.30722173322E+03 -0.12779434938E+04  0.75825788349E+03  0.15173924293E+04  0.25500000920E-02 0.  1.
       -2    1    3    3    0  502  0.30722173322E+03  0.12779434938E+04 -0.22281241578E+03  0.13331054494E+04  0.25500000920E-02 0. -1.
</event>
<event>
 5   0  0.1346049E-07  0.2799530E+04  0.7818609E-02  0.8303414E-01
        1   -1    0    0  501    0  0.00000000000E+00  0.00000000000E+00  0.18593134098E+04  0.18593134098E+04  0.50400001928E-02 0. -1.
       -1   -1    0    0    0  501  0.00000000000E+00  0.00000000000E+00 -0.10537989132E+04  0.10537989132E+04  0.50400001928E-02 0.  1.
    10030    2    1    2    0    0  0.00000000000E+00  0.00000000000E+00  0.80551449655E+03  0.29131123230E+04  0.27995302825E+04 0.  0.
        1    1    3    3  502    0  0.13468467994E+03  0.21872283703E+03  0.18345790855E+04  0.18524740385E+04  0.50400001928E-02 0. -1.
       -1    1    3    3    0  502 -0.13468467994E+03 -0.21872283703E+03 -0.10290645889E+04  0.10606382845E+04  0.50400001928E-02 0.  1.
</event>
<event>
 5   0  0.3557628E-07  0.2800507E+04  0.7818609E-02  0.8303111E-01
        2   -1    0    0  501    0  0.00000000000E+00  0.00000000000E+00  0.15443269475E+04  0.15443269475E+04  0.25500000920E-02 0.  1.
       -2   -1    0    0    0  501  0.00000000000E+00  0.00000000000E+00 -0.12696212800E+04  0.12696212800E+04  0.25500000920E-02 0. -1.
    10030    2    1    2    0    0  0.00000000000E+00  0.00000000000E+00  0.27470566756E+03  0.28139482275E+04  0.28005073511E+04 0.  0.
        5    1    3    3  502    0 -0.12420608372E+04 -0.32773133444E+03 -0.42260569154E+03  0.13523093623E+04  0.46999998093E+01 0. -1.
       -5    1    3    3    0  502  0.12420608372E+04  0.32773133444E+03  0.69731135910E+03  0.14616388652E+04  0.46999998093E+01 0.  1.
</event>
<event>
 5   0  0.1361741E-07  0.2799599E+04  0.7818609E-02  0.8303393E-01
        1   -1    0    0  501    0  0.00000000000E+00  0.00000000000E+00  0.89924283962E+03  0.89924283964E+03  0.50400001928E-02 0. -1.
       -1   -1    0    0    0  501  0.00000000000E+00  0.00000000000E+00 -0.21789877296E+04  0.21789877296E+04  0.50400001928E-02 0.  1.
    10030    2    1    2    0    0  0.00000000000E+00  0.00000000000E+00 -0.12797448900E+04  0.30782305692E+04  0.27995993381E+04 0.  0.
        5    1    3    3  502    0  0.16790017697E+03 -0.19304786472E+03 -0.21530523315E+04  0.21682053361E+04  0.46999998093E+01 0.  1.
       -5    1    3    3    0  502 -0.16790017697E+03  0.19304786472E+03  0.87330744151E+03  0.91002523311E+03  0.46999998093E+01 0. -1.
</event>
<event>
 5   0  0.3502141E-07  0.2799033E+04  0.7818609E-02  0.8303569E-01
       -2   -1    0    0    0  501  0.00000000000E+00  0.00000000000E+00  0.10757184063E+04  0.10757184063E+04  0.25500000920E-02 0. -1.
        2   -1    0    0  501    0  0.00000000000E+00  0.00000000000E+00 -0.18207800482E+04  0.18207800483E+04  0.25500000920E-02 0.  1.
    10030    2    1    2    0    0  0.00000000000E+00  0.00000000000E+00 -0.74506164198E+03  0.28964984545E+04  0.27990331271E+04 0.  0.
        3    1    3    3  502    0 -0.54064077580E+03  0.44727007046E+02 -0.17075517334E+04  0.17916545108E+04  0.10100000352E+00 0.  1.
       -3    1    3    3    0  502  0.54064077580E+03 -0.44727007046E+02  0.96249009145E+03  0.11048439437E+04  0.10100000352E+00 0. -1.
</event>
<event>
 5   0  0.3522569E-07  0.2799554E+04  0.7818609E-02  0.8303407E-01
        2   -1    0    0  501    0  0.00000000000E+00  0.00000000000E+00  0.15722730938E+04  0.15722730938E+04  0.25500000920E-02 0.  1.
       -2   -1    0    0    0  501  0.00000000000E+00  0.00000000000E+00 -0.12462057578E+04  0.12462057579E+04  0.25500000920E-02 0. -1.
    10030    2    1    2    0    0  0.00000000000E+00  0.00000000000E+00  0.32606733591E+03  0.28184788516E+04  0.27995540948E+04 0.  0.
        1    1    3    3  502    0  0.38214263656E+03  0.12569055235E+04  0.64955115915E+03  0.14655242059E+04  0.50400001928E-02 0. -1.
       -1    1    3    3    0  502 -0.38214263656E+03 -0.12569055235E+04 -0.32348382324E+03  0.13529546458E+04  0.50400001928E-02 0.  1.
</event>
<event>
 5   0  0.1366235E-07  0.2815749E+04  0.7818609E-02  0.8298396E-01
       -1   -1    0    0    0  501  0.00000000000E+00  0.00000000000E+00  0.12521603397E+04  0.12521603397E+04  0.50400001928E-02 0. -1.
        1   -1    0    0  501    0  0.00000000000E+00  0.00000000000E+00 -0.15829524311E+04  0.15829524311E+04  0.50400001928E-02 0.  1.
    10030    2    1    2    0    0  0.00000000000E+00  0.00000000000E+00 -0.33079209147E+03  0.28351127708E+04  0.28157487486E+04 0.  0.
        2    1    3    3  502    0  0.11925231158E+04 -0.59254227805E+03  0.29479470331E+03  0.13638627680E+04  0.25500000920E-02 0. -1.
       -2    1    3    3    0  502 -0.11925231158E+04  0.59254227805E+03 -0.62558679478E+03  0.14712500028E+04  0.25500000920E-02 0.  1.
</event>
<event>
 5   0  0.1366235E-07  0.2800190E+04  0.7818609E-02  0.8303209E-01
       -1   -1    0    0    0  501  0.00000000000E+00  0.00000000000E+00  0.12744296517E+04  0.12744296517E+04  0.50400001928E-02 0.  1.
        1   -1    0    0  501    0  0.00000000000E+00  0.00000000000E+00 -0.15381521215E+04  0.15381521215E+04  0.50400001928E-02 0. -1.
    10030    2    1    2    0    0  0.00000000000E+00  0.00000000000E+00 -0.26372246977E+03  0.28125817732E+04  0.28001904738E+04 0.  0.
        2    1    3    3  502    0 -0.68234142584E+03  0.10918862096E+04  0.42053731766E+03  0.13544950910E+04  0.25500000920E-02 0. -1.
       -2    1    3    3    0  502  0.68234142584E+03 -0.10918862096E+04 -0.68425978743E+03  0.14580866822E+04  0.25500000920E-02 0.  1.
</event>
<event>
 5   0  0.3502141E-07  0.2790723E+04  0.7818609E-02  0.8306154E-01
        2   -1    0    0  501    0  0.00000000000E+00  0.00000000000E+00  0.15802013241E+04  0.15802013241E+04  0.25500000920E-02 0.  1.
       -2   -1    0    0    0  501  0.00000000000E+00  0.00000000000E+00 -0.12321432583E+04  0.12321432583E+04  0.25500000920E-02 0. -1.
    10030    2    1    2    0    0  0.00000000000E+00  0.00000000000E+00  0.34805806581E+03  0.28123445823E+04  0.27907234963E+04 0.  0.
        3    1    3    3  502    0  0.17675900502E+03 -0.10614888083E+04  0.10691857514E+04  0.15169576188E+04  0.10100000352E+00 0.  1.
       -3    1    3    3    0  502 -0.17675900502E+03  0.10614888083E+04 -0.72112768559E+03  0.12953869635E+04  0.10100000352E+00 0. -1.
</event>
<event>
 5   0  0.3502141E-07  0.2800327E+04  0.7818609E-02  0.8303167E-01
       -2   -1    0    0    0  501  0.00000000000E+00  0.00000000000E+00  0.87302325308E+03  0.87302325308E+03  0.25500000920E-02 0. -1.
        2   -1    0    0  501    0  0.00000000000E+00  0.00000000000E+00 -0.22455957574E+04  0.22455957574E+04  0.25500000920E-02 0.  1.
    10030    2    1    2    0    0  0.00000000000E+00  0.00000000000E+00 -0.13725725043E+04  0.31186190105E+04  0.28003266332E+04 0.  0.
        3    1    3    3  502    0 -0.40628949803E+03  0.28393050349E+03 -0.21446186393E+04  0.22011535169E+04  0.10100000352E+00 0.  1.
       -3    1    3    3    0  502  0.40628949803E+03 -0.28393050349E+03  0.77204613499E+03  0.91746549351E+03  0.10100000352E+00 0. -1.
</event>
<event>
 5   0  0.1357902E-07  0.2797719E+04  0.7818609E-02  0.8303977E-01
       -1   -1    0    0    0  501  0.00000000000E+00  0.00000000000E+00  0.10528804001E+04  0.10528804001E+04  0.50400001928E-02 0.  1.
        1   -1    0    0  501    0  0.00000000000E+00  0.00000000000E+00 -0.18585280035E+04  0.18585280035E+04  0.50400001928E-02 0. -1.
    10030    2    1    2    0    0  0.00000000000E+00  0.00000000000E+00 -0.80564760342E+03  0.29114084036E+04  0.27977188621E+04 0.  0.
        4    1    3    3  502    0 -0.13853321993E+03  0.21067821574E+03 -0.18346841827E+04  0.18519299196E+04  0.12699999809E+01 0. -1.
       -4    1    3    3    0  502  0.13853321993E+03 -0.21067821574E+03  0.10290365793E+04  0.10594784840E+04  0.12699999809E+01 0.  1.
</event>
<event>
 5   0  0.1357902E-07  0.2801076E+04  0.7818609E-02  0.8302934E-01
       -1   -1    0    0    0  501  0.00000000000E+00  0.00000000000E+00  0.11231692037E+04  0.11231692037E+04  0.50400001928E-02 0. -1.
        1   -1    0    0  501    0  0.00000000000E+00  0.00000000000E+00 -0.17464031934E+04  0.17464031934E+04  0.50400001928E-02 0.  1.
    10030    2    1    2    0    0  0.00000000000E+00  0.00000000000E+00 -0.62323398971E+03  0.28695723971E+04  0.28010757106E+04 0.  0.
        4    1    3    3  502    0  0.12167511840E+04 -0.53000607537E+03 -0.76989807668E+03  0.15343189189E+04  0.12699999809E+01 0.  1.
       -4    1    3    3    0  502 -0.12167511840E+04  0.53000607537E+03  0.14666408697E+03  0.13352534782E+04  0.12699999809E+01 0. -1.
</event>
<event>
 5   0  0.1346049E-07  0.2798861E+04  0.7818609E-02  0.8303622E-01
       -1   -1    0    0    0  501  0.00000000000E+00  0.00000000000E+00  0.10305296221E+04  0.10305296221E+04  0.50400001928E-02 0. -1.
        1   -1    0    0  501    0  0.00000000000E+00  0.00000000000E+00 -0.19003875148E+04  0.19003875149E+04  0.50400001928E-02 0.  1.
    10030    2    1    2    0    0  0.00000000000E+00  0.00000000000E+00 -0.86985789274E+03  0.29309171370E+04  0.27988609309E+04 0.  0.
        1    1    3    3  502    0  0.66545142761E+03  0.11588841642E+04  0.83565079436E-01  0.13363525417E+04  0.50400001928E-02 0.  1.
       -1    1    3    3    0  502 -0.66545142761E+03 -0.11588841642E+04 -0.86994145782E+03  0.15945645953E+04  0.50400001928E-02 0. -1.
</event>
<event>
 5   0  0.1346049E-07  0.2800567E+04  0.7818609E-02  0.8303092E-01
       -1   -1    0    0    0  501  0.00000000000E+00  0.00000000000E+00  0.94523597664E+03  0.94523597665E+03  0.50400001928E-02 0. -1.
        1   -1    0    0  501    0  0.00000000000E+00  0.00000000000E+00 -0.20743958058E+04  0.20743958058E+04  0.50400001928E-02 0.  1.
    10030    2    1    2    0    0  0.00000000000E+00  0.00000000000E+00 -0.11291598291E+04  0.30196317824E+04  0.28005667608E+04 0.  0.
        1    1    3    3  502    0 -0.87857413369E+03 -0.10902909459E+04 -0.55065914924E+03  0.15046103661E+04  0.50400001928E-02 0. -1.
       -1    1    3    3    0  502  0.87857413369E+03  0.10902909459E+04 -0.57850067990E+03  0.15150214163E+04  0.50400001928E-02 0.  1.
</event>
<event>
 5   0  0.1366235E-07  0.2800164E+04  0.7818609E-02  0.8303217E-01
       -1   -1    0    0    0  501  0.00000000000E+00  0.00000000000E+00  0.17722148735E+04  0.17722148735E+04  0.50400001928E-02 0.  1.
        1   -1    0    0  501    0  0.00000000000E+00  0.00000000000E+00 -0.11060905018E+04  0.11060905018E+04  0.50400001928E-02 0. -1.
    10030    2    1    2    0    0  0.00000000000E+00  0.00000000000E+00  0.66612437173E+03  0.28783053753E+04  0.28001643086E+04 0.  0.
        2    1    3    3  502    0 -0.57864818123E+02 -0.93919669524E+03 -0.73258984757E+03  0.11925295193E+04  0.25500000920E-02 0.  1.
       -2    1    3    3    0  502  0.57864818123E+02  0.93919669524E+03  0.13987142193E+04  0.16857758560E+04  0.25500000920E-02 0. -1.
</event>
<event>
 5   0  0.1361741E-07  0.2800368E+04  0.7818609E-02  0.8303154E-01
       -1   -1    0    0    0  501  0.00000000000E+00  0.00000000000E+00  0.23266043610E+04  0.23266043610E+04  0.50400001928E-02 0.  1.
        1   -1    0    0  501    0  0.00000000000E+00  0.00000000000E+00 -0.84265059711E+03  0.84265059713E+03  0.50400001928E-02 0. -1.
    10030    2    1    2    0    0  0.00000000000E+00  0.00000000000E+00  0.14839537639E+04  0.31692549581E+04  0.28003675145E+04 0.  0.
        5    1    3    3  502    0  0.10989766661E+04 -0.50240081832E+03  0.15424985598E+04  0.19594591580E+04  0.46999998093E+01 0.  1.
       -5    1    3    3    0  502 -0.10989766661E+04  0.50240081832E+03 -0.58544795900E+02  0.12097958001E+04  0.46999998093E+01 0. -1.
</event>
<event>
 5   0  0.1366235E-07  0.2800506E+04  0.7818609E-02  0.8303111E-01
        1   -1    0    0  501    0  0.00000000000E+00  0.00000000000E+00  0.13580197299E+04  0.13580197299E+04  0.50400001928E-02 0. -1.
       -1   -1    0    0    0  501  0.00000000000E+00  0.00000000000E+00 -0.14437992116E+04  0.14437992116E+04  0.50400001928E-02 0.  1.
    10030    2    1    2    0    0  0.00000000000E+00  0.00000000000E+00 -0.85779481700E+02  0.28018189414E+04  0.28005055367E+04 0.  0.
        2    1    3    3  502    0 -0.66355590898E+03  0.10730876157E+04  0.56475359703E+03  0.13823060807E+04  0.25500000920E-02 0. -1.
       -2    1    3    3    0  502  0.66355590898E+03 -0.10730876157E+04 -0.65053307873E+03  0.14195128608E+04  0.25500000920E-02 0.  1.
</event>
<event>
 5   0  0.3522569E-07  0.2799766E+04  0.7818609E-02  0.8303341E-01
       -2   -1    0    0    0  501  0.00000000000E+00  0.00000000000E+00  0.69282484375E+03  0.69282484376E+03  0.25500000920E-02 0. -1.
        2   -1    0    0  501    0  0.00000000000E+00  0.00000000000E+00 -0.28285249558E+04  0.28285249559E+04  0.25500000920E-02 0.  1.
    10030    2    1    2    0    0  0.00000000000E+00  0.00000000000E+00 -0.21357001121E+04  0.35213497996E+04  0.27997659621E+04 0.  0.
        1    1    3    3  502    0  0.40700111303E+03 -0.13300655980E+03  0.60844117661E+03  0.74400357283E+03  0.50400001928E-02 0. -1.
       -1    1    3    3    0  502 -0.40700111303E+03  0.13300655980E+03 -0.27441412887E+04  0.27773462268E+04  0.50400001928E-02 0.  1.
</event>
<event>
 5   0  0.3522569E-07  0.2801038E+04  0.7818609E-02  0.8302946E-01
        2   -1    0    0  501    0  0.00000000000E+00  0.00000000000E+00  0.27558742811E+04  0.27558742811E+04  0.25500000920E-02 0.  1.
       -2   -1    0    0    0  501  0.00000000000E+00  0.00000000000E+00 -0.71173570383E+03  0.71173570383E+03  0.25500000920E-02 0. -1.
    10030    2    1    2    0    0  0.00000000000E+00  0.00000000000E+00  0.20441385773E+04  0.34676099849E+04  0.28010384654E+04 0.  0.
        1    1    3    3  502    0 -0.13225242295E+04 -0.45920788306E+03  0.10702056458E+04  0.17621811320E+04  0.50400001928E-02 0. -1.
       -1    1    3    3    0  502  0.13225242295E+04  0.45920788306E+03  0.97393293150E+03  0.17054288530E+04  0.50400001928E-02 0.  1.
</event>
<event>
 5   0  0.3571498E-07  0.2799512E+04  0.7818609E-02  0.8303420E-01
       -2   -1    0    0    0  501  0.00000000000E+00  0.00000000000E+00  0.12396181845E+04  0.12396181845E+04  0.25500000920E-02 0. -1.
        2   -1    0    0  501    0  0.00000000000E+00  0.00000000000E+00 -0.15805813304E+04  0.15805813304E+04  0.25500000920E-02 0.  1.
    10030    2    1    2    0    0  0.00000000000E+00  0.00000000000E+00 -0.34096314586E+03  0.28201995149E+04  0.27995123570E+04 0.  0.
        2    1    3    3  502    0 -0.13645490016E+04 -0.61154778191E+02  0.13769315951E+03  0.13728413203E+04  0.25500000920E-02 0.  1.
       -2    1    3    3    0  502  0.13645490016E+04  0.61154778191E+02 -0.47865630537E+03  0.14473581945E+04  0.25500000920E-02 0. -1.
</event>
<event>
 5   0  0.1357902E-07  0.2796461E+04  0.7818609E-02  0.8304368E-01
       -1   -1    0    0    0  501  0.00000000000E+00  0.00000000000E+00  0.26680838416E+04  0.26680838416E+04  0.50400001928E-02 0. -1.
        1   -1    0    0  501    0  0.00000000000E+00  0.00000000000E+00 -0.73275402562E+03  0.73275402563E+03  0.50400001928E-02 0.  1.
    10030    2    1    2    0    0  0.00000000000E+00  0.00000000000E+00  0.19353298160E+04  0.34008378672E+04  0.27964614609E+04 0.  0.
        4    1    3    3  502    0 -0.84580780176E+03  0.17750564200E+03 -0.36904523565E+03  0.93973139211E+03  0.12699999809E+01 0.  1.
       -4    1    3    3    0  502  0.84580780176E+03 -0.17750564200E+03  0.23043750516E+04  0.24611064751E+04  0.12699999809E+01 0. -1.
</event>
<event>
 5   0  0.1357902E-07  0.2800457E+04  0.7818609E-02  0.8303127E-01
        1   -1    0    0  501    0  0.00000000000E+00  0.00000000000E+00  0.18425962232E+04  0.18425962232E+04  0.50400001928E-02 0. -1.
       -1   -1    0    0    0  501  0.00000000000E+00  0.00000000000E+00 -0.10640635094E+04  0.10640635095E+04  0.50400001928E-02 0.  1.
    10030    2    1    2    0    0  0.00000000000E+00  0.00000000000E+00  0.77853271378E+03  0.29066597327E+04  0.28004566798E+04 0.  0.
        4    1    3    3  502    0 -0.10962344912E+04 -0.34454353567E+03  0.12197332359E+04  0.16757658212E+04  0.12699999809E+01 0. -1.
       -4    1    3    3    0  502  0.10962344912E+04  0.34454353567E+03 -0.44120052212E+03  0.12308939115E+04  0.12699999809E+01 0.  1.
</event>
<event>
 5   0  0.1346049E-07  0.2795006E+04  0.7818609E-02  0.8304820E-01
        1   -1    0    0  501    0  0.00000000000E+00  0.00000000000E+00  0.26606339356E+04  0.26606339356E+04  0.50400001928E-02 0.  1.
       -1   -1    0    0    0  501  0.00000000000E+00  0.00000000000E+00 -0.73404116793E+03  0.73404116795E+03  0.50400001928E-02 0. -1.
    10030    2    1    2    0    0  0.00000000000E+00  0.00000000000E+00  0.19265927677E+04  0.33946751036E+04  0.27950061478E+04 0.  0.
        1    1    3    3  502    0  0.13098629958E+04 -0.23090077036E+03  0.14842217495E+04  0.19929802897E+04  0.50400001928E-02 0.  1.
       -1    1    3    3    0  502 -0.13098629958E+04  0.23090077036E+03  0.44237101819E+03  0.14016948139E+04  0.50400001928E-02 0. -1.
</event>
<event>
 5   0  0.1366235E-07  0.2801018E+04  0.7818609E-02  0.8302952E-01
        1   -1    0    0  501    0  0.00000000000E+00  0.00000000000E+00  0.14002467522E+04  0.14002467522E+04  0.50400001928E-02 0.  1.
       -1   -1    0    0    0  501  0.00000000000E+00  0.00000000000E+00 -0.14007715654E+04  0.14007715654E+04  0.50400001928E-02 0. -1.
    10030    2    1    2    0    0  0.00000000000E+00  0.00000000000E+00 -0.52481323729E+00  0.28010183176E+04  0.28010182684E+04 0.  0.
        2    1    3    3  502    0  0.73621865766E+03  0.33358770924E+03 -0.11439962958E+04  0.14007234547E+04  0.25500000920E-02 0. -1.
       -2    1    3    3    0  502 -0.73621865766E+03 -0.33358770924E+03  0.11434714826E+04  0.14002948629E+04  0.25500000920E-02 0.  1.
</event>
<event>
 5   0  0.1366235E-07  0.2799026E+04  0.7818609E-02  0.8303571E-01
        1   -1    0    0  501    0  0.00000000000E+00  0.00000000000E+00  0.16158792404E+04  0.16158792404E+04  0.50400001928E-02 0.  1.
       -1   -1    0    0    0  501  0.00000000000E+00  0.00000000000E+00 -0.12121181473E+04  0.12121181473E+04  0.50400001928E-02 0. -1.
    10030    2    1    2    0    0  0.00000000000E+00  0.00000000000E+00  0.40376109308E+03  0.28279973877E+04  0.27990259385E+04 0.  0.
        2    1    3    3  502    0 -0.94848708111E+03 -0.72942604544E+03 -0.53154380130E+03  0.13092856493E+04  0.25500000920E-02 0. -1.
       -2    1    3    3    0  502  0.94848708111E+03  0.72942604544E+03  0.93530489437E+03  0.15187117384E+04  0.25500000920E-02 0.  1.
</event>
<event>
 5   0  0.3502141E-07  0.2801698E+04  0.7818609E-02  0.8302742E-01
        2   -1    0    0  501    0  0.00000000000E+00  0.00000000000E+00  0.17913574399E+04  0.17913574399E+04  0.25500000920E-02 0. -1.
       -2   -1    0    0    0  501  0.00000000000E+00  0.00000000000E+00 -0.10954694432E+04  0.10954694432E+04  0.25500000920E-02 0.  1.
    10030    2    1    2    0    0  0.00000000000E+00  0.00000000000E+00  0.69588799673E+03  0.28868268831E+04  0.28016975834E+04 0.  0.
        3    1    3    3  502    0 -0.89166228821E+02 -0.61423214188E+03  0.16419472805E+04  0.17553411699E+04  0.10100000352E+00 0. -1.
       -3    1    3    3    0  502  0.89166228821E+02  0.61423214188E+03 -0.94605928380E+03  0.11314857132E+04  0.10100000352E+00 0.  1.
</event>
<event>
 5   0  0.3522569E-07  0.2797447E+04  0.7818609E-02  0.8304061E-01
        2   -1    0    0  501    0  0.00000000000E+00  0.00000000000E+00  0.18667311543E+04  0.18667311543E+04  0.25500000920E-02 0.  1.
       -2   -1    0    0    0  501  0.00000000000E+00  0.00000000000E+00 -0.10480497758E+04  0.10480497758E+04  0.25500000920E-02 0. -1.
    10030    2    1    2    0    0  0.00000000000E+00  0.00000000000E+00  0.81868137846E+03  0.29147809301E+04  0.27974468129E+04 0.  0.
        1    1    3    3  502    0  0.68806690601E+03  0.58450959027E+03 -0.70380377731E+03  0.11447389594E+04  0.50400001928E-02 0. -1.
       -1    1    3    3    0  502 -0.68806690601E+03 -0.58450959027E+03  0.15224851558E+04  0.17700419706E+04  0.50400001928E-02 0.  1.
</event>
<event>
 5   0  0.3502141E-07  0.2801940E+04  0.7818609E-02  0.8302666E-01
        2   -1    0    0  501    0  0.00000000000E+00  0.00000000000E+00  0.20994782254E+04  0.20994782254E+04  0.25500000920E-02 0.  1.
       -2   -1    0    0    0  501  0.00000000000E+00  0.00000000000E+00 -0.93485966203E+03  0.93485966203E+03  0.25500000920E-02 0. -1.
    10030    2    1    2    0    0  0.00000000000E+00  0.00000000000E+00  0.11646185633E+04  0.30343378874E+04  0.28019404021E+04 0.  0.
        3    1    3    3  502    0 -0.83985856752E+03  0.73447691714E+03  0.14998738637E+04  0.18693422299E+04  0.10100000352E+00 0.  1.
       -3    1    3    3    0  502  0.83985856752E+03 -0.73447691714E+03 -0.33525530042E+03  0.11649956575E+04  0.10100000352E+00 0. -1.
</event>
<event>
 5   0  0.1346049E-07  0.2799997E+04  0.7818609E-02  0.8303269E-01
        1   -1    0    0  501    0  0.00000000000E+00  0.00000000000E+00  0.16328537725E+04  0.16328537725E+04  0.50400001928E-02 0. -1.
       -1   -1    0    0    0  501  0.00000000000E+00  0.00000000000E+00 -0.12003500263E+04  0.12003500263E+04  0.50400001928E-02 0.  1.
    10030    2    1    2    0    0  0.00000000000E+00  0.00000000000E+00  0.43250374619E+03  0.28332037988E+04  0.27999971920E+04 0.  0.
        1    1    3    3  502    0  0.14161378828E+03 -0.13698374171E+04 -0.38702701585E+02  0.13776817170E+04  0.50400001928E-02 0. -1.
       -1    1    3    3    0  502 -0.14161378828E+03  0.13698374171E+04  0.47120644777E+03  0.14555220818E+04  0.50400001928E-02 0.  1.
</event>
<event>
 5   0  0.3571498E-07  0.2797741E+04  0.7818609E-02  0.8303970E-01
       -2   -1    0    0    0  501  0.00000000000E+00  0.00000000000E+00  0.10067377383E+04  0.10067377384E+04  0.25500000920E-02 0.  1.
        2   -1    0    0  501    0  0.00000000000E+00  0.00000000000E+00 -0.19437428049E+04  0.19437428049E+04  0.25500000920E-02 0. -1.
    10030    2    1    2    0    0  0.00000000000E+00  0.00000000000E+00 -0.93700506652E+03  0.29504805432E+04  0.27977414000E+04 0.  0.
        2    1    3    3  502    0  0.91117399341E+02  0.51681087256E+03  0.89899423628E+03  0.10409546077E+04  0.25500000920E-02 0.  1.
       -2    1    3    3    0  502 -0.91117399341E+02 -0.51681087256E+03 -0.18359993028E+04  0.19095259355E+04  0.25500000920E-02 0. -1.
</event>
<event>
 5   0  0.3571498E-07  0.2800334E+04  0.7818609E-02  0.8303165E-01
        2   -1    0    0  501    0  0.00000000000E+00  0.00000000000E+00  0.17107473544E+04  0.17107473544E+04  0.25500000920E-02 0.  1.
       -2   -1    0    0    0  501  0.00000000000E+00  0.00000000000E+00 -0.11459717333E+04  0.11459717333E+04  0.25500000920E-02 0. -1.
    10030    2    1    2    0    0  0.00000000000E+00  0.00000000000E+00  0.56477562111E+03  0.28567190877E+04  0.28003343450E+04 0.  0.
        2    1    3    3  502    0 -0.10776249234E+04 -0.13495282921E+03  0.11839126736E+04  0.16065917217E+04  0.25500000920E-02 0.  1.
       -2    1    3    3    0  502  0.10776249234E+04  0.13495282921E+03 -0.61913705244E+03  0.12501273660E+04  0.25500000920E-02 0. -1.
</event>
<event>
 5   0  0.1346049E-07  0.2801321E+04  0.7818609E-02  0.8302858E-01
       -1   -1    0    0    0  501  0.00000000000E+00  0.00000000000E+00  0.14504837299E+04  0.14504837300E+04  0.50400001928E-02 0. -1.
        1   -1    0    0  501    0  0.00000000000E+00  0.00000000000E+00 -0.13525485567E+04  0.13525485567E+04  0.50400001928E-02 0.  1.
    10030    2    1    2    0    0  0.00000000000E+00  0.00000000000E+00  0.97935173271E+02  0.28030322866E+04  0.28013208852E+04 0.  0.
        1    1    3    3  502    0 -0.90239222880E+03 -0.34155193499E+02 -0.10223738571E+04  0.13640845338E+04  0.50400001928E-02 0.  1.
       -1    1    3    3    0  502  0.90239222880E+03  0.34155193499E+02  0.11203090303E+04  0.14389477528E+04  0.50400001928E-02 0. -1.
</event>
<event>
 5   0  0.1357902E-07  0.2801265E+04  0.7818609E-02  0.8302876E-01
        1   -1    0    0  501    0  0.00000000000E+00  0.00000000000E+00  0.20842545847E+04  0.20842545847E+04  0.50400001928E-02 0. -1.
       -1   -1    0    0    0  501  0.00000000000E+00  0.00000000000E+00 -0.94123407199E+03  0.94123407200E+03  0.50400001928E-02 0.  1.
    10030    2    1    2    0    0  0.00000000000E+00  0.00000000000E+00  0.11430205127E+04  0.30254886567E+04  0.28012650212E+04 0.  0.
        4    1    3    3  502    0 -0.26434872850E+03  0.10481746950E+04  0.15334281145E+04  0.18761540013E+04  0.12699999809E+01 0. -1.
       -4    1    3    3    0  502  0.26434872850E+03 -0.10481746950E+04 -0.39040760184E+03  0.11493346553E+04  0.12699999809E+01 0.  1.
</event>
<event>
 5   0  0.1361741E-07  0.2799544E+04  0.7818609E-02  0.8303410E-01
        1   -1    0    0  501    0  0.00000000000E+00  0.00000000000E+00  0.69358283869E+03  0.69358283871E+03  0.50400001928E-02 0.  1.
       -1   -1    0    0    0  501  0.00000000000E+00  0.00000000000E+00 -0.28249857166E+04  0.28249857166E+04  0.50400001928E-02 0. -1.
    10030    2    1    2    0    0  0.00000000000E+00  0.00000000000E+00 -0.21314028779E+04  0.35185685553E+04  0.27995439719E+04 0.  0.
        5    1    3    3  502    0 -0.96688076664E+03  0.74099651420E+03 -0.19322855472E+04  0.22842249839E+04  0.46999998093E+01 0. -1.
       -5    1    3    3    0  502  0.96688076664E+03 -0.74099651420E+03 -0.19911733068E+03  0.12343435714E+04  0.46999998093E+01 0.  1.
</event>
<event>
 5   0  0.3406920E-07  0.2799307E+04  0.7818609E-02  0.8303484E-01
       -2   -1    0    0    0  501  0.00000000000E+00  0.00000000000E+00  0.11927962145E+04  0.11927962145E+04  0.25500000920E-02 0. -1.
        2   -1    0    0  501    0  0.00000000000E+00  0.00000000000E+00 -0.16423841854E+04  0.16423841854E+04  0.25500000920E-02 0.  1.
    10030    2    1    2    0    0  0.00000000000E+00  0.00000000000E+00 -0.44958797090E+03  0.28351803999E+04  0.27993067992E+04 0.  0.
        4    1    3    3  502    0 -0.12176932136E+04  0.63658909905E+03  0.45089584880E+02  0.13747934852E+04  0.12699999809E+01 0. -1.
       -4    1    3    3    0  502  0.12176932136E+04 -0.63658909905E+03 -0.49467755578E+03  0.14603869147E+04  0.12699999809E+01 0.  1.
</event>
<event>
 5   0  0.1361741E-07  0.2800170E+04  0.7818609E-02  0.8303216E-01
        1   -1    0    0  501    0  0.00000000000E+00  0.00000000000E+00  0.16436396908E+04  0.16436396908E+04  0.50400001928E-02 0. -1.
       -1   -1    0    0    0  501  0.00000000000E+00  0.00000000000E+00 -0.11926204352E+04  0.11926204352E+04  0.50400001928E-02 0.  1.
    10030    2    1    2    0    0  0.00000000000E+00  0.00000000000E+00  0.45101925563E+03  0.28362601260E+04  0.28001701972E+04 0.  0.
        5    1    3    3  502    0 -0.20541411208E+03 -0.12937137240E+04  0.72617378940E+03  0.14977451785E+04  0.46999998093E+01 0. -1.
       -5    1    3    3    0  502  0.20541411208E+03  0.12937137240E+04 -0.27515453377E+03  0.13385149475E+04  0.46999998093E+01 0.  1.
</event>
<event>
 5   0  0.3522569E-07  0.2799960E+04  0.7818609E-02  0.8303281E-01
        2   -1    0    0  501    0  0.00000000000E+00  0.00000000000E+00  0.15102369058E+04  0.15102369058E+04  0.25500000920E-02 0. -1.
       -2   -1    0    0    0  501  0.00000000000E+00  0.00000000000E+00 -0.12977729322E+04  0.12977729322E+04  0.25500000920E-02 0.  1.
    10030    2    1    2    0    0  0.00000000000E+00  0.00000000000E+00  0.21246397356E+03  0.28080098380E+04  0.27999604123E+04 0.  0.
        1    1    3    3  502    0 -0.13070098273E+04 -0.48520904255E+03  0.23404276424E+03  0.14136755353E+04  0.50400001928E-02 0.  1.
       -1    1    3    3    0  502  0.13070098273E+04  0.48520904255E+03 -0.21578790679E+02  0.13943343027E+04  0.50400001928E-02 0. -1.
</event>
<event>
 5   0  0.1361741E-07  0.2799883E+04  0.7818609E-02  0.8303305E-01
        1   -1    0    0  501    0  0.00000000000E+00  0.00000000000E+00  0.18646024536E+04  0.18646024536E+04  0.50400001928E-02 0. -1.
       -1   -1    0    0    0  501  0.00000000000E+00  0.00000000000E+00 -0.10510743888E+04  0.10510743889E+04  0.50400001928E-02 0.  1.
    10030    2    1    2    0    0  0.00000000000E+00  0.00000000000E+00  0.81352806475E+03  0.29156768425E+04  0.27998827721E+04 0.  0.
        5    1    3    3  502    0 -0.17519218773E+03 -0.67448078697E+03  0.16711431786E+04  0.18106237179E+04  0.46999998093E+01 0. -1.
       -5    1    3    3    0  502  0.17519218773E+03  0.67448078697E+03 -0.85761511381E+03  0.11050531245E+04  0.46999998093E+01 0.  1.
</event>
<event>
 5   0  0.1374680E-07  0.2800147E+04  0.7818609E-02  0.8303223E-01
        1   -1    0    0  501    0  0.00000000000E+00  0.00000000000E+00  0.12351960663E+04  0.12351960663E+04  0.50400001928E-02 0.  1.
       -1   -1    0    0    0  501  0.00000000000E+00  0.00000000000E+00 -0.15869596712E+04  0.15869596712E+04  0.50400001928E-02 0. -1.
    10030    2    1    2    0    0  0.00000000000E+00  0.00000000000E+00 -0.35176360490E+03  0.28221557375E+04  0.28001473842E+04 0.  0.
        3    1    3    3  502    0 -0.42820218873E+03  0.36347893226E+03 -0.14684328203E+04  0.15721860597E+04  0.10100000352E+00 0. -1.
       -3    1    3    3    0  502  0.42820218873E+03 -0.36347893226E+03  0.11166692154E+04  0.12499696778E+04  0.10100000352E+00 0.  1.
</event>
<event>
 5   0  0.1374680E-07  0.2798901E+04  0.7818609E-02  0.8303610E-01
        1   -1    0    0  501    0  0.00000000000E+00  0.00000000000E+00  0.14874373144E+04  0.14874373144E+04  0.50400001928E-02 0.  1.
       -1   -1    0    0    0  501  0.00000000000E+00  0.00000000000E+00 -0.13166684243E+04  0.13166684243E+04  0.50400001928E-02 0. -1.
    10030    2    1    2    0    0  0.00000000000E+00  0.00000000000E+00  0.17076889005E+03  0.28041057387E+04  0.27989010308E+04 0.  0.
        3    1    3    3  502    0 -0.22098428638E+03  0.68734922395E+03  0.12864376151E+04  0.14751965151E+04  0.10100000352E+00 0.  1.
       -3    1    3    3    0  502  0.22098428638E+03 -0.68734922395E+03 -0.11156687250E+04  0.13289092236E+04  0.10100000352E+00 0. -1.
</event>
<event>
 5   0  0.1361741E-07  0.2801179E+04  0.7818609E-02  0.8302902E-01
       -1   -1    0    0    0  501  0.00000000000E+00  0.00000000000E+00  0.12683552261E+04  0.12683552261E+04  0.50400001928E-02 0.  1.
        1   -1    0    0  501    0  0.00000000000E+00  0.00000000000E+00 -0.15466098598E+04  0.15466098599E+04  0.50400001928E-02 0. -1.
    10030    2    1    2    0    0  0.00000000000E+00  0.00000000000E+00 -0.27825463379E+03  0.28149650859E+04  0.28011788222E+04 0.  0.
        5    1    3    3  502    0  0.29388180410E+03 -0.66826242521E+03 -0.13402871182E+04  0.15262151988E+04  0.46999998093E+01 0. -1.
       -5    1    3    3    0  502 -0.29388180410E+03  0.66826242521E+03  0.10620324844E+04  0.12887498872E+04  0.46999998093E+01 0.  1.
</event>
<event>
 5   0  0.3406920E-07  0.2801078E+04  0.7818609E-02  0.8302934E-01
        2   -1    0    0  501    0  0.00000000000E+00  0.00000000000E+00  0.28385670015E+04  0.28385670015E+04  0.25500000920E-02 0.  1.
       -2   -1    0    0    0  501  0.00000000000E+00  0.00000000000E+00 -0.69102108530E+03  0.69102108531E+03  0.25500000920E-02 0. -1.
    10030    2    1    2    0    0  0.00000000000E+00  0.00000000000E+00  0.21475459162E+04  0.35295880868E+04  0.28010781139E+04 0.  0.
        4    1    3    3  502    0 -0.13399644316E+04 -0.37744300948E+02  0.15849668477E+04  0.20758253374E+04  0.12699999809E+01 0.  1.
       -4    1    3    3    0  502  0.13399644316E+04  0.37744300948E+02  0.56257906848E+03  0.14537627494E+04  0.12699999809E+01 0. -1.
</event>
<event>
 5   0  0.3502141E-07  0.2802325E+04  0.7818609E-02  0.8302547E-01
       -2   -1    0    0    0  501  0.00000000000E+00  0.00000000000E+00  0.98764493019E+03  0.98764493019E+03  0.25500000920E-02 0. -1.
        2   -1    0    0  501    0  0.00000000000E+00  0.00000000000E+00 -0.19878164263E+04  0.19878164263E+04  0.25500000920E-02 0.  1.
    10030    2    1    2    0    0  0.00000000000E+00  0.00000000000E+00 -0.10001714961E+04  0.29754613565E+04  0.28023253313E+04 0.  0.
        3    1    3    3  502    0  0.17333828075E+03  0.13903225689E+04 -0.51561104569E+03  0.14929493514E+04  0.10100000352E+00 0.  1.
       -3    1    3    3    0  502 -0.17333828075E+03 -0.13903225689E+04 -0.48456045042E+03  0.14825120051E+04  0.10100000352E+00 0. -1.
</event>
<event>
 5   0  0.3571498E-07  0.2799674E+04  0.7818609E-02  0.8303370E-01
        2   -1    0    0  501    0  0.00000000000E+00  0.00000000000E+00  0.20605443461E+04  0.20605443461E+04  0.25500000920E-02 0. -1.
       -2   -1    0    0    0  501  0.00000000000E+00  0.00000000000E+00 -0.95098349475E+03  0.95098349475E+03  0.25500000920E-02 0.  1.
    10030    2    1    2    0    0  0.00000000000E+00  0.00000000000E+00  0.11095608514E+04  0.30115278409E+04  0.27996740263E+04 0.  0.
        2    1    3    3  502    0 -0.13117629921E+04 -0.17462011379E+03  0.10457500513E+04  0.16866557151E+04  0.25500000920E-02 0.  1.
       -2    1    3    3    0  502  0.13117629921E+04  0.17462011379E+03  0.63810800066E+02  0.13248721258E+04  0.25500000920E-02 0. -1.
</event>
<event>
 5   0  0.3522569E-07  0.2800230E+04  0.7818609E-02  0.8303197E-01
       -2   -1    0    0    0  501  0.00000000000E+00  0.00000000000E+00  0.13888835245E+04  0.13888835245E+04  0.25500000920E-02 0. -1.
        2   -1    0    0  501    0  0.00000000000E+00  0.00000000000E+00 -0.14114370489E+04  0.14114370489E+04  0.25500000920E-02 0.  1.
    10030    2    1    2    0    0  0.00000000000E+00  0.00000000000E+00 -0.22553524370E+02  0.28003205734E+04  0.28002297499E+04 0.  0.
        1    1    3    3  502    0 -0.13000506813E+04 -0.38487549730E+03 -0.36066001681E+03  0.14029741873E+04  0.50400001928E-02 0.  1.
       -1    1    3    3    0  502  0.13000506813E+04  0.38487549730E+03  0.33810649244E+03  0.13973463861E+04  0.50400001928E-02 0. -1.
</event>
<event>
 5   0  0.3557628E-07  0.2799524E+04  0.7818609E-02  0.8303416E-01
        2   -1    0    0  501    0  0.00000000000E+00  0.00000000000E+00  0.23592214433E+04  0.23592214433E+04  0.25500000920E-02 0. -1.
       -2   -1    0    0    0  501  0.00000000000E+00  0.00000000000E+00 -0.83050012175E+03  0.83050012175E+03  0.25500000920E-02 0.  1.
    10030    2    1    2    0    0  0.00000000000E+00  0.00000000000E+00  0.15287213216E+04  0.31897215651E+04  0.27995240281E+04 0.  0.
        5    1    3    3  502    0  0.42897398880E+03  0.99968512159E+03  0.17680002189E+04  0.20758699115E+04  0.46999998093E+01 0. -1.
       -5    1    3    3    0  502 -0.42897398880E+03 -0.99968512159E+03 -0.23927889737E+03  0.11138516535E+04  0.46999998093E+01 0.  1.
</event>
<event>
 5   0  0.3502141E-07  0.2799225E+04  0.7818609E-02  0.8303509E-01
        2   -1    0    0  501    0  0.00000000000E+00  0.00000000000E+00  0.16736348339E+04  0.16736348339E+04  0.25500000920E-02 0. -1.
       -2   -1    0    0    0  501  0.00000000000E+00  0.00000000000E+00 -0.11704554431E+04  0.11704554431E+04  0.25500000920E-02 0.  1.
    10030    2    1    2    0    0  0.00000000000E+00  0.00000000000E+00  0.50317939082E+03  0.28440902769E+04  0.27992248934E+04 0.  0.
        3    1    3    3  502    0 -0.94576774957E+03 -0.99271798219E+03  0.53707246393E+03  0.14725530449E+04  0.10100000352E+00 0.  1.
       -3    1    3    3    0  502  0.94576774957E+03  0.99271798219E+03 -0.33893073104E+02  0.13715372321E+04  0.10100000352E+00 0. -1.
</event>
<event>
 5   0  0.1346049E-07  0.2790944E+04  0.7818609E-02  0.8306085E-01
        1   -1    0    0  501    0  0.00000000000E+00  0.00000000000E+00  0.15034563911E+04  0.15034563911E+04  0.50400001928E-02 0. -1.
       -1   -1    0    0    0  501  0.00000000000E+00  0.00000000000E+00 -0.12952435319E+04  0.12952435319E+04  0.50400001928E-02 0.  1.
    10030    2    1    2    0    0  0.00000000000E+00  0.00000000000E+00  0.20821285923E+03  0.27986999230E+04  0.27909440454E+04 0.  0.
        1    1    3    3  502    0  0.11212690677E+04  0.69734694130E+03 -0.34859588673E+03  0.13656705939E+04  0.50400001928E-02 0.  1.
       -1    1    3    3    0  502 -0.11212690677E+04 -0.69734694130E+03  0.55680874596E+03  0.14330293292E+04  0.50400001928E-02 0. -1.
</event>
<event>
 5   0  0.1374680E-07  0.2800483E+04  0.7818609E-02  0.8303118E-01
        1   -1    0    0  501    0  0.00000000000E+00  0.00000000000E+00  0.19203843415E+04  0.19203843415E+04  0.50400001928E-02 0. -1.
       -1   -1    0    0    0  501  0.00000000000E+00  0.00000000000E+00 -0.10209814922E+04  0.10209814922E+04  0.50400001928E-02 0.  1.
    10030    2    1    2    0    0  0.00000000000E+00  0.00000000000E+00  0.89940284931E+03  0.29413658338E+04  0.28004834373E+04 0.  0.
        3    1    3    3  502    0  0.81856835779E+03  0.55740290487E+02  0.16414710320E+04  0.18350989879E+04  0.10100000352E+00 0. -1.
       -3    1    3    3    0  502 -0.81856835779E+03 -0.55740290487E+02 -0.74206818267E+03  0.11062668459E+04  0.10100000352E+00 0.  1.
</event>
<event>
 5   0  0.1361741E-07  0.2800088E+04  0.7818609E-02  0.8303241E-01
        1   -1    0    0  501    0  0.00000000000E+00  0.00000000000E+00  0.22713693843E+04  0.22713693843E+04  0.50400001928E-02 0. -1.
       -1   -1    0    0    0  501  0.00000000000E+00  0.00000000000E+00 -0.86296974516E+03  0.86296974518E+03  0.50400001928E-02 0.  1.
    10030    2    1    2    0    0  0.00000000000E+00  0.00000000000E+00  0.14083996392E+04  0.31343391295E+04  0.28000878978E+04 0.  0.
        5    1    3    3  502    0  0.71658632892E+03  0.11961047822E+04  0.56288229326E+03  0.15036692398E+04  0.46999998093E+01 0. -1.
       -5    1    3    3    0  502 -0.71658632892E+03 -0.11961047822E+04  0.84551734589E+03  0.16306698896E+04  0.46999998093E+01 0.  1.
</event>
<event>
 5   0  0.1374680E-07  0.2799626E+04  0.7818609E-02  0.8303384E-01
       -1   -1    0    0    0  501  0.00000000000E+00  0.00000000000E+00  0.13379445705E+04  0.13379445705E+04  0.50400001928E-02 0.  1.
        1   -1    0    0  501    0  0.00000000000E+00  0.00000000000E+00 -0.14645422999E+04  0.14645422999E+04  0.50400001928E-02 0. -1.
    10030    2    1    2    0    0  0.00000000000E+00  0.00000000000E+00 -0.12659772938E+03  0.28024868705E+04  0.27996259882E+04 0.  0.
        3    1    3    3  502    0 -0.29322118153E+03  0.13331187709E+04 -0.37392563156E+03  0.14152754879E+04  0.10100000352E+00 0.  1.
       -3    1    3    3    0  502  0.29322118153E+03 -0.13331187709E+04  0.24732790218E+03  0.13872113826E+04  0.10100000352E+00 0. -1.
</event>
<event>
 5   0  0.3571498E-07  0.2800472E+04  0.7818609E-02  0.8303122E-01
       -2   -1    0    0    0  501  0.00000000000E+00  0.00000000000E+00  0.13497076248E+04  0.13497076248E+04  0.25500000920E-02 0.  1.
        2   -1    0    0  501    0  0.00000000000E+00  0.00000000000E+00 -0.14526561071E+04  0.14526561071E+04  0.25500000920E-02 0. -1.
    10030    2    1    2    0    0  0.00000000000E+00  0.00000000000E+00 -0.10294848223E+03  0.28023637319E+04  0.28004721202E+04 0.  0.
        2    1    3    3  502    0  0.86328171306E+03  0.82999603997E+03 -0.77757602430E+03  0.14278561608E+04  0.25500000920E-02 0. -1.
       -2    1    3    3    0  502 -0.86328171306E+03 -0.82999603997E+03  0.67462754207E+03  0.13745075711E+04  0.25500000920E-02 0.  1.
</event>
<event>
 5   0  0.3502141E-07  0.2800246E+04  0.7818609E-02  0.8303192E-01
       -2   -1    0    0    0  501  0.00000000000E+00  0.00000000000E+00  0.27615118829E+04  0.27615118829E+04  0.25500000920E-02 0. -1.
        2   -1    0    0  501    0  0.00000000000E+00  0.00000000000E+00 -0.70988104897E+03  0.70988104897E+03  0.25500000920E-02 0.  1.
    10030    2    1    2    0    0  0.00000000000E+00  0.00000000000E+00  0.20516308339E+04  0.34713929319E+04  0.28002463836E+04 0.  0.
        3    1    3    3  502    0  0.12690936563E+04 -0.79285944272E+02  0.29929872764E+03  0.13063172310E+04  0.10100000352E+00 0.  1.
       -3    1    3    3    0  502 -0.12690936563E+04  0.79285944272E+02  0.17523321063E+04  0.21650757008E+04  0.10100000352E+00 0. -1.
</event>
<event>
 5   0  0.1374680E-07  0.2799549E+04  0.7818609E-02  0.8303408E-01
        1   -1    0    0  501    0  0.00000000000E+00  0.00000000000E+00  0.14772127552E+04  0.14772127552E+04  0.50400001928E-02 0. -1.
       -1   -1    0    0    0  501  0.00000000000E+00  0.00000000000E+00 -0.13263958173E+04  0.13263958173E+04  0.50400001928E-02 0.  1.
    10030    2    1    2    0    0  0.00000000000E+00  0.00000000000E+00  0.15081693787E+03  0.28036085725E+04  0.27995491206E+04 0.  0.
        3    1    3    3  502    0  0.97807078642E+02 -0.11515184778E+04 -0.71555182169E+03  0.13592554760E+04  0.10100000352E+00 0. -1.
       -3    1    3    3    0  502 -0.97807078642E+02  0.11515184778E+04  0.86636875956E+03  0.14443530964E+04  0.10100000352E+00 0.  1.
</event>
<event>
 5   0  0.1366235E-07  0.2792070E+04  0.7818609E-02  0.8305735E-01
        1   -1    0    0  501    0  0.00000000000E+00  0.00000000000E+00  0.76545484478E+03  0.76545484479E+03  0.50400001928E-02 0.  1.
       -1   -1    0    0    0  501  0.00000000000E+00  0.00000000000E+00 -0.25460859779E+04  0.25460859779E+04  0.50400001928E-02 0. -1.
    10030    2    1    2    0    0  0.00000000000E+00  0.00000000000E+00 -0.17806311331E+04  0.33115408227E+04  0.27920700901E+04 0.  0.
        2    1    3    3  502    0 -0.97438837192E+02 -0.38242392986E+03 -0.24785503590E+04  0.25097717568E+04  0.25500000920E-02 0. -1.
       -2    1    3    3    0  502  0.97438837192E+02  0.38242392986E+03  0.69791922590E+03  0.80176906588E+03  0.25500000920E-02 0.  1.
</event>
<event>
 5   0  0.3571498E-07  0.2799667E+04  0.7818609E-02  0.8303372E-01
       -2   -1    0    0    0  501  0.00000000000E+00  0.00000000000E+00  0.13182572223E+04  0.13182572223E+04  0.25500000920E-02 0. -1.
        2   -1    0    0  501    0  0.00000000000E+00  0.00000000000E+00 -0.14864581568E+04  0.14864581568E+04  0.25500000920E-02 0.  1.
    10030    2    1    2    0    0  0.00000000000E+00  0.00000000000E+00 -0.16820093445E+03  0.28047153791E+04  0.27996672665E+04 0.  0.
        2    1    3    3  502    0 -0.39066051308E+03  0.11813031284E+04 -0.72669409522E+03  0.14408945227E+04  0.25500000920E-02 0.  1.
       -2    1    3    3    0  502  0.39066051308E+03 -0.11813031284E+04  0.55849316078E+03  0.13638208563E+04  0.25500000920E-02 0. -1.
</event>
<event>
 5   0  0.1357902E-07  0.2799857E+04  0.7818609E-02  0.8303313E-01
        1   -1    0    0  501    0  0.00000000000E+00  0.00000000000E+00  0.26424449588E+04  0.26424449588E+04  0.50400001928E-02 0.  1.
       -1   -1    0    0    0  501  0.00000000000E+00  0.00000000000E+00 -0.74166144155E+03  0.74166144157E+03  0.50400001928E-02 0. -1.
    10030    2    1    2    0    0  0.00000000000E+00  0.00000000000E+00  0.19007835172E+04  0.33841064004E+04  0.27998568088E+04 0.  0.
        4    1    3    3  502    0  0.10131427891E+04  0.41835692001E+03 -0.10213613270E+03  0.11008697590E+04  0.12699999809E+01 0. -1.
       -4    1    3    3    0  502 -0.10131427891E+04 -0.41835692001E+03  0.20029196499E+04  0.22832366414E+04  0.12699999809E+01 0.  1.
</event>
<event>
 5   0  0.3522569E-07  0.2800075E+04  0.7818609E-02  0.8303245E-01
       -2   -1    0    0    0  501  0.00000000000E+00  0.00000000000E+00  0.10456286901E+04  0.10456286901E+04  0.25500000920E-02 0.  1.
        2   -1    0    0  501    0  0.00000000000E+00  0.00000000000E+00 -0.18745713975E+04  0.18745713975E+04  0.25500000920E-02 0. -1.
    10030    2    1    2    0    0  0.00000000000E+00  0.00000000000E+00 -0.82894270738E+03  0.29202000876E+04  0.28000754524E+04 0.  0.
        1    1    3    3  502    0 -0.21076427047E+03 -0.11730230385E+04  0.35168867395E+03  0.12426139988E+04  0.50400001928E-02 0.  1.
       -1    1    3    3    0  502  0.21076427047E+03  0.11730230385E+04 -0.11806313813E+04  0.16775860888E+04  0.50400001928E-02 0. -1.
</event>
<event>
 5   0  0.1357902E-07  0.2799055E+04  0.7818609E-02  0.8303562E-01
        1   -1    0    0  501    0  0.00000000000E+00  0.00000000000E+00  0.12732123629E+04  0.12732123629E+04  0.50400001928E-02 0.  1.
       -1   -1    0    0    0  501  0.00000000000E+00  0.00000000000E+00 -0.15383742552E+04  0.15383742552E+04  0.50400001928E-02 0. -1.
    10030    2    1    2    0    0  0.00000000000E+00  0.00000000000E+00 -0.26516189232E+03  0.28115866181E+04  0.27990549265E+04 0.  0.
        4    1    3    3  502    0  0.48812782800E+03  0.40195130849E+03 -0.13867066785E+04  0.15240704235E+04  0.12699999809E+01 0. -1.
       -4    1    3    3    0  502 -0.48812782800E+03 -0.40195130849E+03  0.11215447862E+04  0.12875161945E+04  0.12699999809E+01 0.  1.
</event>
<event>
 5   0  0.1374680E-07  0.2798161E+04  0.7818609E-02  0.8303839E-01
        1   -1    0    0  501    0  0.00000000000E+00  0.00000000000E+00  0.30054288515E+04  0.30054288515E+04  0.50400001928E-02 0.  1.
       -1   -1    0    0    0  501  0.00000000000E+00  0.00000000000E+00 -0.65129686919E+03  0.65129686921E+03  0.50400001928E-02 0. -1.
    10030    2    1    2    0    0  0.00000000000E+00  0.00000000000E+00  0.23541319823E+04  0.36567257207E+04  0.27981611116E+04 0.  0.
        3    1    3    3  502    0  0.50640205212E+03  0.37039476164E+03  0.28112803982E+04  0.28804396896E+04  0.10100000352E+00 0.  1.
       -3    1    3    3    0  502 -0.50640205212E+03 -0.37039476164E+03 -0.45714841586E+03  0.77628603116E+03  0.10100000352E+00 0. -1.
</event>
<event>
 5   0  0.1366235E-07  0.2799927E+04  0.7818609E-02  0.8303291E-01
        1   -1    0    0  501    0  0.00000000000E+00  0.00000000000E+00  0.22642513495E+04  0.22642513495E+04  0.50400001928E-02 0.  1.
       -1   -1    0    0    0  501  0.00000000000E+00  0.00000000000E+00 -0.86558327481E+03  0.86558327483E+03  0.50400001928E-02 0. -1.
    10030    2    1    2    0    0  0.00000000000E+00  0.00000000000E+00  0.13986680747E+04  0.31298346243E+04  0.27999272120E+04 0.  0.
        2    1    3    3  502    0 -0.32695437862E+03  0.73407720943E+03  0.19807606681E+04  0.21375643474E+04  0.25500000920E-02 0.  1.
       -2    1    3    3    0  502  0.32695437862E+03 -0.73407720943E+03 -0.58209259342E+03  0.99227027690E+03  0.25500000920E-02 0. -1.
</event>
<event>
 5   0  0.3522569E-07  0.2799468E+04  0.7818609E-02  0.8303434E-01
       -2   -1    0    0    0  501  0.00000000000E+00  0.00000000000E+00  0.10325183239E+04  0.10325183239E+04  0.25500000920E-02 0. -1.
        2   -1    0    0  501    0  0.00000000000E+00  0.00000000000E+00 -0.18975497132E+04  0.18975497132E+04  0.25500000920E-02 0.  1.
    10030    2    1    2    0    0  0.00000000000E+00  0.00000000000E+00 -0.86503138929E+03  0.29300680371E+04  0.27994676990E+04 0.  0.
        1    1    3    3  502    0 -0.70832923217E+02 -0.13515067373E+04 -0.80648995869E+03  0.15754408327E+04  0.50400001928E-02 0. -1.
       -1    1    3    3    0  502  0.70832923217E+02  0.13515067373E+04 -0.58541430600E+02  0.13546272044E+04  0.50400001928E-02 0.  1.
</event>
<event>
 5   0  0.3557628E-07  0.2800814E+04  0.7818609E-02  0.8303016E-01
       -2   -1    0    0    0  501  0.00000000000E+00  0.00000000000E+00  0.12035846608E+04  0.12035846608E+04  0.25500000920E-02 0. -1.
        2   -1    0    0  501    0  0.00000000000E+00  0.00000000000E+00 -0.16294158741E+04  0.16294158741E+04  0.25500000920E-02 0.  1.
    10030    2    1    2    0    0  0.00000000000E+00  0.00000000000E+00 -0.42583121336E+03  0.28330005349E+04  0.28008141332E+04 0.  0.
        5    1    3    3  502    0 -0.61933412474E+03  0.59194062217E+03 -0.13334136117E+04  0.15849234708E+04  0.46999998093E+01 0.  1.
       -5    1    3    3    0  502  0.61933412474E+03 -0.59194062217E+03  0.90758239835E+03  0.12480770641E+04  0.46999998093E+01 0. -1.
</event>
<event>
 5   0  0.1361741E-07  0.2799833E+04  0.7818609E-02  0.8303320E-01
       -1   -1    0    0    0  501  0.00000000000E+00  0.00000000000E+00  0.77768372599E+03  0.77768372601E+03  0.50400001928E-02 0. -1.
        1   -1    0    0  501    0  0.00000000000E+00  0.00000000000E+00 -0.25200048239E+04  0.25200048239E+04  0.50400001928E-02 0.  1.
    10030    2    1    2    0    0  0.00000000000E+00  0.00000000000E+00 -0.17423210979E+04  0.32976885499E+04  0.27998333815E+04 0.  0.
        5    1    3    3  502    0 -0.69485965308E+03 -0.18609465844E+03 -0.22856599420E+04  0.23961896044E+04  0.46999998093E+01 0.  1.
       -5    1    3    3    0  502  0.69485965308E+03  0.18609465844E+03  0.54333884411E+03  0.90149894558E+03  0.46999998093E+01 0. -1.
</event>
<event>
 5   0  0.3406920E-07  0.2791266E+04  0.7818609E-02  0.8305985E-01
        2   -1    0    0  501    0  0.00000000000E+00  0.00000000000E+00  0.16355323185E+04  0.16355323185E+04  0.25500000920E-02 0. -1.
       -2   -1    0    0    0  501  0.00000000000E+00  0.00000000000E+00 -0.11909220324E+04  0.11909220324E+04  0.25500000920E-02 0.  1.
    10030    2    1    2    0    0  0.00000000000E+00  0.00000000000E+00  0.44461028611E+03  0.28264543510E+04  0.27912660016E+04 0.  0.
        4    1    3    3  502    0 -0.77166293628E+02  0.13554282739E+04  0.54987894222E+03  0.14647555791E+04  0.12699999809E+01 0. -1.
       -4    1    3    3    0  502  0.77166293628E+02 -0.13554282739E+04 -0.10526865611E+03  0.13616987719E+04  0.12699999809E+01 0.  1.
</event>
<event>
 5   0  0.1346049E-07  0.2787566E+04  0.7818609E-02  0.8307139E-01
       -1   -1    0    0    0  501  0.00000000000E+00  0.00000000000E+00  0.11518338106E+04  0.11518338106E+04  0.50400001928E-02 0.  1.
        1   -1    0    0  501    0  0.00000000000E+00  0.00000000000E+00 -0.16865554754E+04  0.16865554754E+04  0.50400001928E-02 0. -1.
    10030    2    1    2    0    0  0.00000000000E+00  0.00000000000E+00 -0.53472166480E+03  0.28383892860E+04  0.27875664082E+04 0.  0.
        1    1    3    3  502    0 -0.41676355864E+03 -0.44424032577E+02  0.10861472860E+04  0.11642084373E+04  0.50400001928E-02 0.  1.
       -1    1    3    3    0  502  0.41676355864E+03  0.44424032577E+02 -0.16208689508E+04  0.16741808487E+04  0.50400001928E-02 0. -1.
</event>
<event>
 5   0  0.1361741E-07  0.2800290E+04  0.7818609E-02  0.8303178E-01
       -1   -1    0    0    0  501  0.00000000000E+00  0.00000000000E+00  0.12578473782E+04  0.12578473782E+04  0.50400001928E-02 0.  1.
        1   -1    0    0  501    0  0.00000000000E+00  0.00000000000E+00 -0.15585399914E+04  0.15585399914E+04  0.50400001928E-02 0. -1.
    10030    2    1    2    0    0  0.00000000000E+00  0.00000000000E+00 -0.30069261319E+03  0.28163873696E+04  0.28002895865E+04 0.  0.
        5    1    3    3  502    0 -0.21081164954E+03  0.74183415955E+03 -0.13256632416E+04  0.15336768212E+04  0.46999998093E+01 0. -1.
       -5    1    3    3    0  502  0.21081164954E+03 -0.74183415955E+03  0.10249706284E+04  0.12827105484E+04  0.46999998093E+01 0.  1.
</event>
<event>
 5   0  0.1366235E-07  0.2799887E+04  0.7818609E-02  0.8303303E-01
        1   -1    0    0  501    0  0.00000000000E+00  0.00000000000E+00  0.13297397347E+04  0.13297397347E+04  0.50400001928E-02 0. -1.
       -1   -1    0    0    0  501  0.00000000000E+00  0.00000000000E+00 -0.14738536220E+04  0.14738536221E+04  0.50400001928E-02 0.  1.
    10030    2    1    2    0    0  0.00000000000E+00  0.00000000000E+00 -0.14411388733E+03  0.28035933568E+04  0.27998869437E+04 0.  0.
        2    1    3    3  502    0 -0.32506321825E+03  0.12990325749E+04 -0.48087427350E+03  0.14228112290E+04  0.25500000920E-02 0.  1.
       -2    1    3    3    0  502  0.32506321825E+03 -0.12990325749E+04  0.33676038617E+03  0.13807821277E+04  0.25500000920E-02 0. -1.
</event>
<event>
 5   0  0.1366235E-07  0.2800187E+04  0.7818609E-02  0.8303210E-01
       -1   -1    0    0    0  501  0.00000000000E+00  0.00000000000E+00  0.75474308067E+03  0.75474308069E+03  0.50400001928E-02 0.  1.
        1   -1    0    0  501    0  0.00000000000E+00  0.00000000000E+00 -0.25972567791E+04  0.25972567791E+04  0.50400001928E-02 0. -1.
    10030    2    1    2    0    0  0.00000000000E+00  0.00000000000E+00 -0.18425136984E+04  0.33519998598E+04  0.28001868386E+04 0.  0.
        2    1    3    3  502    0 -0.11924930653E+04  0.79384371082E+02 -0.17943089047E+04  0.21558956456E+04  0.25500000920E-02 0. -1.
       -2    1    3    3    0  502  0.11924930653E+04 -0.79384371082E+02 -0.48204793721E+02  0.11961042142E+04  0.25500000920E-02 0.  1.
</event>
<event>
 5   0  0.1361741E-07  0.2799632E+04  0.7818609E-02  0.8303383E-01
        1   -1    0    0  501    0  0.00000000000E+00  0.00000000000E+00  0.20060840149E+04  0.20060840149E+04  0.50400001928E-02 0.  1.
       -1   -1    0    0    0  501  0.00000000000E+00  0.00000000000E+00 -0.97677096680E+03  0.97677096681E+03  0.50400001928E-02 0. -1.
    10030    2    1    2    0    0  0.00000000000E+00  0.00000000000E+00  0.10293130481E+04  0.29828549817E+04  0.27996318492E+04 0.  0.
        5    1    3    3  502    0  0.45891107499E+02 -0.41717181021E+03 -0.90815170424E+03  0.10004498593E+04  0.46999998093E+01 0. -1.
       -5    1    3    3    0  502 -0.45891107499E+02  0.41717181021E+03  0.19374647523E+04  0.19824051224E+04  0.46999998093E+01 0.  1.
</event>
<event>
 5   0  0.1361741E-07  0.2800607E+04  0.7818609E-02  0.8303080E-01
       -1   -1    0    0    0  501  0.00000000000E+00  0.00000000000E+00  0.99766109586E+03  0.99766109587E+03  0.50400001928E-02 0.  1.
        1   -1    0    0  501    0  0.00000000000E+00  0.00000000000E+00 -0.19654468558E+04  0.19654468558E+04  0.50400001928E-02 0. -1.
    10030    2    1    2    0    0  0.00000000000E+00  0.00000000000E+00 -0.96778575998E+03  0.29631079517E+04  0.28006069800E+04 0.  0.
        5    1    3    3  502    0  0.11976866172E+04 -0.26154428062E+03  0.23210775867E+03  0.12476997817E+04  0.46999998093E+01 0.  1.
       -5    1    3    3    0  502 -0.11976866172E+04  0.26154428062E+03 -0.11998935186E+04  0.17154081700E+04  0.46999998093E+01 0. -1.
</event>
<event>
 5   0  0.1366235E-07  0.2801426E+04  0.7818609E-02  0.8302826E-01
       -1   -1    0    0    0  501  0.00000000000E+00  0.00000000000E+00  0.13313009844E+04  0.13313009844E+04  0.50400001928E-02 0.  1.
        1   -1    0    0  501    0  0.00000000000E+00  0.00000000000E+00 -0.14737441205E+04  0.14737441205E+04  0.50400001928E-02 0. -1.
    10030    2    1    2    0    0  0.00000000000E+00  0.00000000000E+00 -0.14244313609E+03  0.28050451049E+04  0.28014260642E+04 0.  0.
        2    1    3    3  502    0  0.47372825823E+03  0.12624183092E+04  0.30858170896E+03  0.13832357432E+04  0.25500000920E-02 0. -1.
       -2    1    3    3    0  502 -0.47372825823E+03 -0.12624183092E+04 -0.45102484505E+03  0.14218093617E+04  0.25500000920E-02 0.  1.
</event>
<event>
 5   0  0.1366235E-07  0.2800441E+04  0.7818609E-02  0.8303132E-01
        1   -1    0    0  501    0  0.00000000000E+00  0.00000000000E+00  0.18941646296E+04  0.18941646296E+04  0.50400001928E-02 0.  1.
       -1   -1    0    0    0  501  0.00000000000E+00  0.00000000000E+00 -0.10350827326E+04  0.10350827327E+04  0.50400001928E-02 0. -1.
    10030    2    1    2    0    0  0.00000000000E+00  0.00000000000E+00  0.85908189691E+03  0.29292473622E+04  0.28004407516E+04 0.  0.
        2    1    3    3  502    0  0.12071485235E+04 -0.45486105918E+03  0.99911478819E+03  0.16316667861E+04  0.25500000920E-02 0.  1.
       -2    1    3    3    0  502 -0.12071485235E+04  0.45486105918E+03 -0.14003289128E+03  0.12975805761E+04  0.25500000920E-02 0. -1.
</event>
<event>
 5   0  0.1366235E-07  0.2793598E+04  0.7818609E-02  0.8305259E-01
       -1   -1    0    0    0  501  0.00000000000E+00  0.00000000000E+00  0.15735590953E+04  0.15735590953E+04  0.50400001928E-02 0.  1.
        1   -1    0    0  501    0  0.00000000000E+00  0.00000000000E+00 -0.12398941816E+04  0.12398941816E+04  0.50400001928E-02 0. -1.
    10030    2    1    2    0    0  0.00000000000E+00  0.00000000000E+00  0.33366491364E+03  0.28134532769E+04  0.27935975134E+04 0.  0.
        2    1    3    3  502    0 -0.69724531864E+03 -0.79404307132E+03  0.10867751282E+04  0.15158283586E+04  0.25500000920E-02 0.  1.
       -2    1    3    3    0  502  0.69724531864E+03  0.79404307132E+03 -0.75311021453E+03  0.12976249183E+04  0.25500000920E-02 0. -1.
</event>
<event>
 5   0  0.3522569E-07  0.2798998E+04  0.7818609E-02  0.8303580E-01
       -2   -1    0    0    0  501  0.00000000000E+00  0.00000000000E+00  0.13570499500E+04  0.13570499500E+04  0.25500000920E-02 0.  1.
        2   -1    0    0  501    0  0.00000000000E+00  0.00000000000E+00 -0.14432755270E+04  0.14432755270E+04  0.25500000920E-02 0. -1.
    10030    2    1    2    0    0  0.00000000000E+00  0.00000000000E+00 -0.86225576998E+02  0.28003254769E+04  0.27989976646E+04 0.  0.
        1    1    3    3  502    0  0.56893080880E+03 -0.12329428073E+04  0.29582033797E+03  0.13897265572E+04  0.50400001928E-02 0. -1.
       -1    1    3    3    0  502 -0.56893080880E+03  0.12329428073E+04 -0.38204591496E+03  0.14105989198E+04  0.50400001928E-02 0.  1.
</event>
<event>
 5   0  0.1361741E-07  0.2799735E+04  0.7818609E-02  0.8303351E-01
        1   -1    0    0  501    0  0.00000000000E+00  0.00000000000E+00  0.83196575086E+03  0.83196575087E+03  0.50400001928E-02 0.  1.
       -1   -1    0    0    0  501  0.00000000000E+00  0.00000000000E+00 -0.23554203157E+04  0.23554203157E+04  0.50400001928E-02 0. -1.
    10030    2    1    2    0    0  0.00000000000E+00  0.00000000000E+00 -0.15234545649E+04  0.31873860666E+04  0.27997350100E+04 0.  0.
        5    1    3    3  502    0 -0.63491921914E+03  0.11037076900E+04 -0.14239096893E+04  0.19101921299E+04  0.46999998093E+01 0. -1.
       -5    1    3    3    0  502  0.63491921914E+03 -0.11037076900E+04 -0.99544875581E+02  0.12771939367E+04  0.46999998093E+01 0.  1.
</event>
<event>
 5   0  0.1366235E-07  0.2797478E+04  0.7818609E-02  0.8304052E-01
       -1   -1    0    0    0  501  0.00000000000E+00  0.00000000000E+00  0.19643355434E+04  0.19643355434E+04  0.50400001928E-02 0.  1.
        1   -1    0    0  501    0  0.00000000000E+00  0.00000000000E+00 -0.99599614438E+03  0.99599614440E+03  0.50400001928E-02 0. -1.
    10030    2    1    2    0    0  0.00000000000E+00  0.00000000000E+00  0.96833939905E+03  0.29603316878E+04  0.27974778838E+04 0.  0.
        2    1    3    3  502    0 -0.10262321275E+04  0.77373266562E+03  0.10682581077E+04  0.16712241029E+04  0.25500000920E-02 0.  1.
       -2    1    3    3    0  502  0.10262321275E+04 -0.77373266562E+03 -0.99918708660E+02  0.12891075850E+04  0.25500000920E-02 0. -1.
</event>
<event>
 5   0  0.1346049E-07  0.2801387E+04  0.7818609E-02  0.8302838E-01
       -1   -1    0    0    0  501  0.00000000000E+00  0.00000000000E+00  0.80255162315E+03  0.80255162317E+03  0.50400001928E-02 0.  1.
        1   -1    0    0  501    0  0.00000000000E+00  0.00000000000E+00 -0.24446306996E+04  0.24446306996E+04  0.50400001928E-02 0. -1.
    10030    2    1    2    0    0  0.00000000000E+00  0.00000000000E+00 -0.16420790764E+04  0.32471823228E+04  0.28013870393E+04 0.  0.
        1    1    3    3  502    0  0.12481286057E+04 -0.87739599360E+02 -0.91227815680E+02  0.12545300985E+04  0.50400001928E-02 0.  1.
       -1    1    3    3    0  502 -0.12481286057E+04  0.87739599360E+02 -0.15508512607E+04  0.19926522242E+04  0.50400001928E-02 0. -1.
</event>
<event>
 5   0  0.3557628E-07  0.2802898E+04  0.7818609E-02  0.8302369E-01
       -2   -1    0    0    0  501  0.00000000000E+00  0.00000000000E+00  0.17148092892E+04  0.17148092892E+04  0.25500000920E-02 0. -1.
        2   -1    0    0  501    0  0.00000000000E+00  0.00000000000E+00 -0.11453511406E+04  0.11453511406E+04  0.25500000920E-02 0.  1.
    10030    2    1    2    0    0  0.00000000000E+00  0.00000000000E+00  0.56945814853E+03  0.28601604298E+04  0.28028976259E+04 0.  0.
        5    1    3    3  502    0  0.11896267136E+04  0.22696178927E+03  0.10043407501E+04  0.15733549516E+04  0.46999998093E+01 0. -1.
       -5    1    3    3    0  502 -0.11896267136E+04 -0.22696178927E+03 -0.43488260157E+03  0.12868054782E+04  0.46999998093E+01 0.  1.
</event>
<event>
 5   0  0.3557628E-07  0.2801871E+04  0.7818609E-02  0.8302688E-01
       -2   -1    0    0    0  501  0.00000000000E+00  0.00000000000E+00  0.12723104694E+04  0.12723104694E+04  0.25500000920E-02 0. -1.
        2   -1    0    0  501    0  0.00000000000E+00  0.00000000000E+00 -0.15425634657E+04  0.15425634657E+04  0.25500000920E-02 0.  1.
    10030    2    1    2    0    0  0.00000000000E+00  0.00000000000E+00 -0.27025299622E+03  0.28148739351E+04  0.28018705517E+04 0.  0.
        5    1    3    3  502    0  0.41429548991E+03 -0.12638664397E+04  0.30691373054E+03  0.13649971642E+04  0.46999998093E+01 0. -1.
       -5    1    3    3    0  502 -0.41429548991E+03  0.12638664397E+04 -0.57716672675E+03  0.14498767709E+04  0.46999998093E+01 0.  1.
</event>
<event>
 5   0  0.3406920E-07  0.2799578E+04  0.7818609E-02  0.8303399E-01
       -2   -1    0    0    0  501  0.00000000000E+00  0.00000000000E+00  0.12425474889E+04  0.12425474889E+04  0.25500000920E-02 0.  1.
        2   -1    0    0  501    0  0.00000000000E+00  0.00000000000E+00 -0.15769288832E+04  0.15769288832E+04  0.25500000920E-02 0. -1.
    10030    2    1    2    0    0  0.00000000000E+00  0.00000000000E+00 -0.33438139433E+03  0.28194763721E+04  0.27995778424E+04 0.  0.
        4    1    3    3  502    0 -0.48891914962E+03 -0.99466813593E+02  0.11499551740E+04  0.12535286582E+04  0.12699999809E+01 0.  1.
       -4    1    3    3    0  502  0.48891914962E+03  0.99466813593E+02 -0.14843365683E+04  0.15659477139E+04  0.12699999809E+01 0. -1.
</event>
<event>
 5   0  0.1361741E-07  0.2799599E+04  0.7818609E-02  0.8303393E-01
       -1   -1    0    0    0  501  0.00000000000E+00  0.00000000000E+00  0.15998743680E+04  0.15998743680E+04  0.50400001928E-02 0. -1.
        1   -1    0    0  501    0  0.00000000000E+00  0.00000000000E+00 -0.12247449787E+04  0.12247449787E+04  0.50400001928E-02 0.  1.
    10030    2    1    2    0    0  0.00000000000E+00  0.00000000000E+00  0.37512938927E+03  0.28246193467E+04  0.27995986132E+04 0.  0.
        5    1    3    3  502    0  0.83064975753E+03 -0.17003532452E+03  0.13113074793E+04  0.15615506481E+04  0.46999998093E+01 0. -1.
       -5    1    3    3    0  502 -0.83064975753E+03  0.17003532452E+03 -0.93617808999E+03  0.12630686986E+04  0.46999998093E+01 0.  1.
</event>
<event>
 5   0  0.3571498E-07  0.2799710E+04  0.7818609E-02  0.8303359E-01
       -2   -1    0    0    0  501  0.00000000000E+00  0.00000000000E+00  0.12174589657E+04  0.12174589657E+04  0.25500000920E-02 0.  1.
        2   -1    0    0  501    0  0.00000000000E+00  0.00000000000E+00 -0.16095765729E+04  0.16095765729E+04  0.25500000920E-02 0. -1.
    10030    2    1    2    0    0  0.00000000000E+00  0.00000000000E+00 -0.39211760716E+03  0.28270355386E+04  0.27997095775E+04 0.  0.
        2    1    3    3  502    0  0.86090201170E+03  0.71695289563E+03 -0.10435477295E+04  0.15310668150E+04  0.25500000920E-02 0. -1.
       -2    1    3    3    0  502 -0.86090201170E+03 -0.71695289563E+03  0.65143012229E+03  0.12959687236E+04  0.25500000920E-02 0.  1.
</event>
<event>
 5   0  0.1366235E-07  0.2799372E+04  0.7818609E-02  0.8303463E-01
       -1   -1    0    0    0  501  0.00000000000E+00  0.00000000000E+00  0.94071226328E+03  0.94071226330E+03  0.50400001928E-02 0. -1.
        1   -1    0    0  501    0  0.00000000000E+00  0.00000000000E+00 -0.20825930106E+04  0.20825930106E+04  0.50400001928E-02 0.  1.
    10030    2    1    2    0    0  0.00000000000E+00  0.00000000000E+00 -0.11418807473E+04  0.30233052739E+04  0.27993719185E+04 0.  0.
        2    1    3    3  502    0 -0.26602576770E+03 -0.79567645471E+03  0.63906284188E+03  0.10546430892E+04  0.25500000920E-02 0. -1.
       -2    1    3    3    0  502  0.26602576770E+03  0.79567645471E+03 -0.17809435892E+04  0.19686621847E+04  0.25500000920E-02 0.  1.
</event>
<event>
 5   0  0.3571498E-07  0.2797518E+04  0.7818609E-02  0.8304039E-01
       -2   -1    0    0    0  501  0.00000000000E+00  0.00000000000E+00  0.12212396190E+04  0.12212396190E+04  0.25500000920E-02 0.  1.
        2   -1    0    0  501    0  0.00000000000E+00  0.00000000000E+00 -0.16020821696E+04  0.16020821696E+04  0.25500000920E-02 0. -1.
    10030    2    1    2    0    0  0.00000000000E+00  0.00000000000E+00 -0.38084255052E+03  0.28233217886E+04  0.27975176271E+04 0.  0.
        2    1    3    3  502    0  0.13953660463E+04  0.62025491820E+02 -0.26616454946E+03  0.14218780300E+04  0.25500000920E-02 0. -1.
       -2    1    3    3    0  502 -0.13953660463E+04 -0.62025491820E+02 -0.11467800106E+03  0.14014437586E+04  0.25500000920E-02 0.  1.
</event>
<event>
 5   0  0.1361741E-07  0.2803821E+04  0.7818609E-02  0.8302083E-01
        1   -1    0    0  501    0  0.00000000000E+00  0.00000000000E+00  0.12283309048E+04  0.12283309048E+04  0.50400001928E-02 0.  1.
       -1   -1    0    0    0  501  0.00000000000E+00  0.00000000000E+00 -0.16000188277E+04  0.16000188277E+04  0.50400001928E-02 0. -1.
    10030    2    1    2    0    0  0.00000000000E+00  0.00000000000E+00 -0.37168792289E+03  0.28283497325E+04  0.28038206607E+04 0.  0.
        5    1    3    3  502    0  0.82701674832E+03 -0.88320188399E+03 -0.90008360521E+03  0.15080367556E+04  0.46999998093E+01 0. -1.
       -5    1    3    3    0  502 -0.82701674832E+03  0.88320188399E+03  0.52839568232E+03  0.13203129769E+04  0.46999998093E+01 0.  1.
</event>
<event>
 5   0  0.3406920E-07  0.2800546E+04  0.7818609E-02  0.8303099E-01
        2   -1    0    0  501    0  0.00000000000E+00  0.00000000000E+00  0.15938616031E+04  0.15938616031E+04  0.25500000920E-02 0.  1.
       -2   -1    0    0    0  501  0.00000000000E+00  0.00000000000E+00 -0.12301974094E+04  0.12301974094E+04  0.25500000920E-02 0. -1.
    10030    2    1    2    0    0  0.00000000000E+00  0.00000000000E+00  0.36366419368E+03  0.28240590126E+04  0.28005459576E+04 0.  0.
        4    1    3    3  502    0  0.11381590538E+04 -0.74423152865E+03 -0.15485164563E+03  0.13686735349E+04  0.12699999809E+01 0.  1.
       -4    1    3    3    0  502 -0.11381590538E+04  0.74423152865E+03  0.51851583931E+03  0.14553854777E+04  0.12699999809E+01 0. -1.
</event>
<event>
 5   0  0.1346049E-07  0.2800798E+04  0.7818609E-02  0.8303021E-01
       -1   -1    0    0    0  501  0.00000000000E+00  0.00000000000E+00  0.19515518776E+04  0.19515518776E+04  0.50400001928E-02 0. -1.
        1   -1    0    0  501    0  0.00000000000E+00  0.00000000000E+00 -0.10049012342E+04  0.10049012342E+04  0.50400001928E-02 0.  1.
    10030    2    1    2    0    0  0.00000000000E+00  0.00000000000E+00  0.94665064348E+03  0.29564531118E+04  0.28007976652E+04 0.  0.
        1    1    3    3  502    0 -0.81090132855E+03  0.71635197583E+02  0.16761368484E+04  0.18633645109E+04  0.50400001928E-02 0. -1.
       -1    1    3    3    0  502  0.81090132855E+03 -0.71635197583E+02 -0.72948620489E+03  0.10930886009E+04  0.50400001928E-02 0.  1.
</event>
<event>
 5   0  0.1361741E-07  0.2804257E+04  0.7818609E-02  0.8301948E-01
       -1   -1    0    0    0  501  0.00000000000E+00  0.00000000000E+00  0.94607255130E+03  0.94607255132E+03  0.50400001928E-02 0. -1.
        1   -1    0    0  501    0  0.00000000000E+00  0.00000000000E+00 -0.20780264970E+04  0.20780264970E+04  0.50400001928E-02 0.  1.
    10030    2    1    2    0    0  0.00000000000E+00  0.00000000000E+00 -0.11319539457E+04  0.30240990483E+04  0.28042566428E+04 0.  0.
        5    1    3    3  502    0 -0.10430503078E+04  0.79949488973E+03 -0.10929538023E+04  0.17093028191E+04  0.46999998093E+01 0.  1.
       -5    1    3    3    0  502  0.10430503078E+04 -0.79949488973E+03 -0.39000143447E+02  0.13147962293E+04  0.46999998093E+01 0. -1.
</event>
<event>
 5   0  0.1346049E-07  0.2799473E+04  0.7818609E-02  0.8303432E-01
        1   -1    0    0  501    0  0.00000000000E+00  0.00000000000E+00  0.20346869383E+04  0.20346869383E+04  0.50400001928E-02 0.  1.
       -1   -1    0    0    0  501  0.00000000000E+00  0.00000000000E+00 -0.96293084319E+03  0.96293084321E+03  0.50400001928E-02 0. -1.
    10030    2    1    2    0    0  0.00000000000E+00  0.00000000000E+00  0.10717560951E+04  0.29976177815E+04  0.27994733856E+04 0.  0.
        1    1    3    3  502    0  0.46874537679E+03 -0.10512745828E+04  0.13887201004E+04  0.18037305769E+04  0.50400001928E-02 0.  1.
       -1    1    3    3    0  502 -0.46874537679E+03  0.10512745828E+04 -0.31696400528E+03  0.11938872046E+04  0.50400001928E-02 0. -1.
</event>
<event>
 5   0  0.3571498E-07  0.2798892E+04  0.7818609E-02  0.8303612E-01
        2   -1    0    0  501    0  0.00000000000E+00  0.00000000000E+00  0.17892387710E+04  0.17892387710E+04  0.25500000920E-02 0.  1.
       -2   -1    0    0    0  501  0.00000000000E+00  0.00000000000E+00 -0.10945714473E+04  0.10945714473E+04  0.25500000920E-02 0. -1.
    10030    2    1    2    0    0  0.00000000000E+00  0.00000000000E+00  0.69466732372E+03  0.28838102183E+04  0.27988924032E+04 0.  0.
        2    1    3    3  502    0 -0.58880619165E+03 -0.36296942820E+02 -0.96019939143E+03  0.11269396926E+04  0.25500000920E-02 0. -1.
       -2    1    3    3    0  502  0.58880619165E+03  0.36296942820E+02  0.16548667151E+04  0.17568705258E+04  0.25500000920E-02 0.  1.
</event>
<event>
 5   0  0.3502141E-07  0.2799136E+04  0.7818609E-02  0.8303537E-01
       -2   -1    0    0    0  501  0.00000000000E+00  0.00000000000E+00  0.98659818968E+03  0.98659818968E+03  0.25500000920E-02 0.  1.
        2   -1    0    0  501    0  0.00000000000E+00  0.00000000000E+00 -0.19853983588E+04  0.19853983588E+04  0.25500000920E-02 0. -1.
    10030    2    1    2    0    0  0.00000000000E+00  0.00000000000E+00 -0.99880016914E+03  0.29719965485E+04  0.27991358857E+04 0.  0.
        3    1    3    3  502    0  0.96724485604E+03 -0.55915253135E+03  0.39561357397E+03  0.11852106458E+04  0.10100000352E+00 0. -1.
       -3    1    3    3    0  502 -0.96724485604E+03  0.55915253135E+03 -0.13944137431E+04  0.17867859027E+04  0.10100000352E+00 0.  1.
</event>
<event>
 5   0  0.1361741E-07  0.2799174E+04  0.7818609E-02  0.8303525E-01
       -1   -1    0    0    0  501  0.00000000000E+00  0.00000000000E+00  0.11192273044E+04  0.11192273044E+04  0.50400001928E-02 0.  1.
        1   -1    0    0  501    0  0.00000000000E+00  0.00000000000E+00 -0.17501751621E+04  0.17501751621E+04  0.50400001928E-02 0. -1.
    10030    2    1    2    0    0  0.00000000000E+00  0.00000000000E+00 -0.63094785771E+03  0.28694024666E+04  0.27991740418E+04 0.  0.
        5    1    3    3  502    0  0.52799790494E+02  0.72980208686E+03 -0.15384797653E+04  0.17036258340E+04  0.46999998093E+01 0. -1.
       -5    1    3    3    0  502 -0.52799790494E+02 -0.72980208686E+03  0.90753190760E+03  0.11657766326E+04  0.46999998093E+01 0.  1.
</event>
<event>
 5   0  0.3557628E-07  0.2799927E+04  0.7818609E-02  0.8303291E-01
       -2   -1    0    0    0  501  0.00000000000E+00  0.00000000000E+00  0.75888933246E+03  0.75888933246E+03  0.25500000920E-02 0.  1.
        2   -1    0    0  501    0  0.00000000000E+00  0.00000000000E+00 -0.25825876273E+04  0.25825876273E+04  0.25500000920E-02 0. -1.
    10030    2    1    2    0    0  0.00000000000E+00  0.00000000000E+00 -0.18236982948E+04  0.33414769597E+04  0.27999272851E+04 0.  0.
        5    1    3    3  502    0 -0.93013630589E+03  0.76580880515E+03 -0.17626627872E+04  0.21350922380E+04  0.46999998093E+01 0.  1.
       -5    1    3    3    0  502  0.93013630589E+03 -0.76580880515E+03 -0.61035507630E+02  0.12063847217E+04  0.46999998093E+01 0. -1.
</event>
<event>
 5   0  0.3557628E-07  0.2799426E+04  0.7818609E-02  0.8303447E-01
        2   -1    0    0  501    0  0.00000000000E+00  0.00000000000E+00  0.13611179842E+04  0.13611179842E+04  0.25500000920E-02 0.  1.
       -2   -1    0    0    0  501  0.00000000000E+00  0.00000000000E+00 -0.14394021736E+04  0.14394021736E+04  0.25500000920E-02 0. -1.
    10030    2    1    2    0    0  0.00000000000E+00  0.00000000000E+00 -0.78284189313E+02  0.28005201578E+04  0.27994257875E+04 0.  0.
        5    1    3    3  502    0 -0.11188682725E+04  0.40972625986E+03 -0.77388974868E+03  0.14207988079E+04  0.46999998093E+01 0. -1.
       -5    1    3    3    0  502  0.11188682725E+04 -0.40972625986E+03  0.69560555936E+03  0.13797213500E+04  0.46999998093E+01 0.  1.
</event>
<event>
 5   0  0.3557628E-07  0.2799981E+04  0.7818609E-02  0.8303274E-01
        2   -1    0    0  501    0  0.00000000000E+00  0.00000000000E+00  0.26174020532E+04  0.26174020532E+04  0.25500000920E-02 0.  1.
       -2   -1    0    0    0  501  0.00000000000E+00  0.00000000000E+00 -0.74882404235E+03  0.74882404236E+03  0.25500000920E-02 0. -1.
    10030    2    1    2    0    0  0.00000000000E+00  0.00000000000E+00  0.18685780109E+04  0.33662260956E+04  0.27999811328E+04 0.  0.
        5    1    3    3  502    0 -0.75297238022E+03  0.83445379530E+03 -0.69175533054E+02  0.11260940841E+04  0.46999998093E+01 0. -1.
       -5    1    3    3    0  502  0.75297238022E+03 -0.83445379530E+03  0.19377535440E+04  0.22401320115E+04  0.46999998093E+01 0.  1.
</event>
<event>
 5   0  0.1346049E-07  0.2800309E+04  0.7818609E-02  0.8303173E-01
        1   -1    0    0  501    0  0.00000000000E+00  0.00000000000E+00  0.20233197862E+04  0.20233197862E+04  0.50400001928E-02 0. -1.
       -1   -1    0    0    0  501  0.00000000000E+00  0.00000000000E+00 -0.96891848659E+03  0.96891848660E+03  0.50400001928E-02 0.  1.
    10030    2    1    2    0    0  0.00000000000E+00  0.00000000000E+00  0.10544012996E+04  0.29922382728E+04  0.28003085152E+04 0.  0.
        1    1    3    3  502    0  0.86096218720E+03  0.32875262991E+02  0.17065186348E+04  0.19116857800E+04  0.50400001928E-02 0. -1.
       -1    1    3    3    0  502 -0.86096218720E+03 -0.32875262991E+02 -0.65211733519E+03  0.10805524927E+04  0.50400001928E-02 0.  1.
</event>
<event>
 5   0  0.3406920E-07  0.2800414E+04  0.7818609E-02  0.8303140E-01
        2   -1    0    0  501    0  0.00000000000E+00  0.00000000000E+00  0.18562805436E+04  0.18562805436E+04  0.25500000920E-02 0. -1.
       -2   -1    0    0    0  501  0.00000000000E+00  0.00000000000E+00 -0.10561872187E+04  0.10561872187E+04  0.25500000920E-02 0.  1.
    10030    2    1    2    0    0  0.00000000000E+00  0.00000000000E+00  0.80009332482E+03  0.29124677623E+04  0.28004141012E+04 0.  0.
        4    1    3    3  502    0 -0.93378668532E+03 -0.17122028844E+03 -0.67036102737E+03  0.11621787645E+04  0.12699999809E+01 0.  1.
       -4    1    3    3    0  502  0.93378668532E+03  0.17122028844E+03  0.14704543522E+04  0.17502889977E+04  0.12699999809E+01 0. -1.
</event>
<event>
 5   0  0.1346049E-07  0.2797634E+04  0.7818609E-02  0.8304003E-01
       -1   -1    0    0    0  501  0.00000000000E+00  0.00000000000E+00  0.16305480776E+04  0.16305480776E+04  0.50400001928E-02 0. -1.
        1   -1    0    0  501    0  0.00000000000E+00  0.00000000000E+00 -0.12000189238E+04  0.12000189238E+04  0.50400001928E-02 0.  1.
    10030    2    1    2    0    0  0.00000000000E+00  0.00000000000E+00  0.43052915377E+03  0.28305670014E+04  0.27976336782E+04 0.  0.
        1    1    3    3  502    0 -0.78166364330E+03  0.93932662531E+03  0.90398027541E+03  0.15200371373E+04  0.50400001928E-02 0.  1.
       -1    1    3    3    0  502  0.78166364330E+03 -0.93932662531E+03 -0.47345112164E+03  0.13105298642E+04  0.50400001928E-02 0. -1.
</event>
<event>
 5   0  0.1374680E-07  0.2799613E+04  0.7818609E-02  0.8303388E-01
        1   -1    0    0  501    0  0.00000000000E+00  0.00000000000E+00  0.10277580169E+04  0.10277580169E+04  0.50400001928E-02 0.  1.
       -1   -1    0    0    0  501  0.00000000000E+00  0.00000000000E+00 -0.19065369960E+04  0.19065369960E+04  0.50400001928E-02 0. -1.
    10030    2    1    2    0    0  0.00000000000E+00  0.00000000000E+00 -0.87877897913E+03  0.29342950129E+04  0.27996133176E+04 0.  0.
        3    1    3    3  502    0  0.48687622777E+03  0.95888385170E+03  0.49979412836E+03  0.11858755766E+04  0.10100000352E+00 0.  1.
       -3    1    3    3    0  502 -0.48687622777E+03 -0.95888385170E+03 -0.13785731075E+04  0.17484194363E+04  0.10100000352E+00 0. -1.
</event>
<event>
 5   0  0.1366235E-07  0.2795880E+04  0.7818609E-02  0.8304549E-01
        1   -1    0    0  501    0  0.00000000000E+00  0.00000000000E+00  0.15972387520E+04  0.15972387520E+04  0.50400001928E-02 0.  1.
       -1   -1    0    0    0  501  0.00000000000E+00  0.00000000000E+00 -0.12235088116E+04  0.12235088116E+04  0.50400001928E-02 0. -1.
    10030    2    1    2    0    0  0.00000000000E+00  0.00000000000E+00  0.37372994038E+03  0.28207475636E+04  0.27958796020E+04 0.  0.
        2    1    3    3  502    0  0.30959649575E+03 -0.38212884672E+02 -0.11879460128E+04  0.12282206415E+04  0.25500000920E-02 0. -1.
       -2    1    3    3    0  502 -0.30959649575E+03  0.38212884672E+02  0.15616759532E+04  0.15925269221E+04  0.25500000920E-02 0.  1.
</event>
<event>
 5   0  0.3406920E-07  0.2799763E+04  0.7818609E-02  0.8303342E-01
        2   -1    0    0  501    0  0.00000000000E+00  0.00000000000E+00  0.16670840963E+04  0.16670840963E+04  0.25500000920E-02 0. -1.
       -2   -1    0    0    0  501  0.00000000000E+00  0.00000000000E+00 -0.11755064619E+04  0.11755064619E+04  0.25500000920E-02 0.  1.
    10030    2    1    2    0    0  0.00000000000E+00  0.00000000000E+00  0.49157763433E+03  0.28425905582E+04  0.27997629384E+04 0.  0.
        4    1    3    3  502    0 -0.49315589588E+02 -0.98851811851E+03 -0.75933786694E+03  0.12474757341E+04  0.12699999809E+01 0.  1.
       -4    1    3    3    0  502  0.49315589588E+02  0.98851811851E+03  0.12509155013E+04  0.15951148241E+04  0.12699999809E+01 0. -1.
</event>
<event>
 5   0  0.1357902E-07  0.2800366E+04  0.7818609E-02  0.8303155E-01
        1   -1    0    0  501    0  0.00000000000E+00  0.00000000000E+00  0.12935990973E+04  0.12935990973E+04  0.50400001928E-02 0.  1.
       -1   -1    0    0    0  501  0.00000000000E+00  0.00000000000E+00 -0.15155487637E+04  0.15155487637E+04  0.50400001928E-02 0. -1.
    10030    2    1    2    0    0  0.00000000000E+00  0.00000000000E+00 -0.22194966644E+03  0.28091478610E+04  0.28003660566E+04 0.  0.
        4    1    3    3  502    0  0.10594749198E+04  0.89182686982E+03  0.96236800576E+02  0.13882022209E+04  0.12699999809E+01 0. -1.
       -4    1    3    3    0  502 -0.10594749198E+04 -0.89182686982E+03 -0.31818646701E+03  0.14209456401E+04  0.12699999809E+01 0.  1.
</event>
<event>
 5   0  0.1374680E-07  0.2798593E+04  0.7818609E-02  0.8303705E-01
       -1   -1    0    0    0  501  0.00000000000E+00  0.00000000000E+00  0.13777383291E+04  0.13777383291E+04  0.50400001928E-02 0. -1.
        1   -1    0    0  501    0  0.00000000000E+00  0.00000000000E+00 -0.14211922217E+04  0.14211922217E+04  0.50400001928E-02 0.  1.
    10030    2    1    2    0    0  0.00000000000E+00  0.00000000000E+00 -0.43453892582E+02  0.27989305509E+04  0.27985932159E+04 0.  0.
        3    1    3    3  502    0 -0.39970856110E+03  0.11326429163E+04  0.69626214189E+03  0.13883183677E+04  0.10100000352E+00 0.  1.
       -3    1    3    3    0  502  0.39970856110E+03 -0.11326429163E+04 -0.73971603448E+03  0.14106121832E+04  0.10100000352E+00 0. -1.
</event>
<event>
 5   0  0.3522569E-07  0.2800374E+04  0.7818609E-02  0.8303152E-01
       -2   -1    0    0    0  501  0.00000000000E+00  0.00000000000E+00  0.11301501090E+04  0.11301501090E+04  0.25500000920E-02 0.  1.
        2   -1    0    0  501    0  0.00000000000E+00  0.00000000000E+00 -0.17347460767E+04  0.17347460767E+04  0.25500000920E-02 0. -1.
    10030    2    1    2    0    0  0.00000000000E+00  0.00000000000E+00 -0.60459596770E+03  0.28648961858E+04  0.28003738806E+04 0.  0.
        1    1    3    3  502    0 -0.77334009261E+03  0.43804871265E+02  0.89100321440E+03  0.11806186911E+04  0.50400001928E-02 0.  1.
       -1    1    3    3    0  502  0.77334009261E+03 -0.43804871265E+02 -0.14955991821E+04  0.16842774947E+04  0.50400001928E-02 0. -1.
</event>
<event>
 5   0  0.3557628E-07  0.2800735E+04  0.7818609E-02  0.8303040E-01
        2   -1    0    0  501    0  0.00000000000E+00  0.00000000000E+00  0.16546747493E+04  0.16546747493E+04  0.25500000920E-02 0.  1.
       -2   -1    0    0    0  501  0.00000000000E+00  0.00000000000E+00 -0.11851447192E+04  0.11851447192E+04  0.25500000920E-02 0. -1.
    10030    2    1    2    0    0  0.00000000000E+00  0.00000000000E+00  0.46953003012E+03  0.28398194686E+04  0.28007349330E+04 0.  0.
        5    1    3    3  502    0  0.93937465614E+03 -0.61429894493E+03  0.10838390603E+04  0.15602939265E+04  0.46999998093E+01 0.  1.
       -5    1    3    3    0  502 -0.93937465614E+03  0.61429894493E+03 -0.61430903019E+03  0.12795255421E+04  0.46999998093E+01 0. -1.
</event>
<event>
 5   0  0.1357902E-07  0.2800121E+04  0.7818609E-02  0.8303231E-01
        1   -1    0    0  501    0  0.00000000000E+00  0.00000000000E+00  0.16858589589E+04  0.16858589589E+04  0.50400001928E-02 0.  1.
       -1   -1    0    0    0  501  0.00000000000E+00  0.00000000000E+00 -0.11627123237E+04  0.11627123237E+04  0.50400001928E-02 0. -1.
    10030    2    1    2    0    0  0.00000000000E+00  0.00000000000E+00  0.52314663516E+03  0.28485712826E+04  0.28001207027E+04 0.  0.
        4    1    3    3  502    0 -0.17526042900E+03 -0.65085176793E+03 -0.98678772005E+03  0.11950212798E+04  0.12699999809E+01 0. -1.
       -4    1    3    3    0  502  0.17526042900E+03  0.65085176793E+03  0.15099343552E+04  0.16535500028E+04  0.12699999809E+01 0.  1.
</event>
<event>
 5   0  0.3406920E-07  0.2799337E+04  0.7818609E-02  0.8303474E-01
       -2   -1    0    0    0  501  0.00000000000E+00  0.00000000000E+00  0.16334465328E+04  0.16334465328E+04  0.25500000920E-02 0. -1.
        2   -1    0    0  501    0  0.00000000000E+00  0.00000000000E+00 -0.11993484935E+04  0.11993484935E+04  0.25500000920E-02 0.  1.
    10030    2    1    2    0    0  0.00000000000E+00  0.00000000000E+00  0.43409803928E+03  0.28327950263E+04  0.27993368060E+04 0.  0.
        4    1    3    3  502    0 -0.96202828003E+03 -0.83714018837E+03  0.80080416585E+03  0.15058522609E+04  0.12699999809E+01 0.  1.
       -4    1    3    3    0  502  0.96202828003E+03  0.83714018837E+03 -0.36670612657E+03  0.13269427654E+04  0.12699999809E+01 0. -1.
</event>
<event>
 5   0  0.3571498E-07  0.2799519E+04  0.7818609E-02  0.8303418E-01
        2   -1    0    0  501    0  0.00000000000E+00  0.00000000000E+00  0.83562363375E+03  0.83562363376E+03  0.25500000920E-02 0. -1.
       -2   -1    0    0    0  501  0.00000000000E+00  0.00000000000E+00 -0.23447474777E+04  0.23447474777E+04  0.25500000920E-02 0.  1.
    10030    2    1    2    0    0  0.00000000000E+00  0.00000000000E+00 -0.15091238440E+04  0.31803711115E+04  0.27995188212E+04 0.  0.
        2    1    3    3  502    0 -0.77629187926E+03 -0.31653008805E+03 -0.20279966715E+04  0.21944454603E+04  0.25500000920E-02 0.  1.
       -2    1    3    3    0  502  0.77629187926E+03  0.31653008805E+03  0.51887282757E+03  0.98592565118E+03  0.25500000920E-02 0. -1.
</event>
<event>
 5   0  0.1346049E-07  0.2803151E+04  0.7818609E-02  0.8302291E-01
       -1   -1    0    0    0  501  0.00000000000E+00  0.00000000000E+00  0.79342534367E+03  0.79342534368E+03  0.50400001928E-02 0.  1.
        1   -1    0    0  501    0  0.00000000000E+00  0.00000000000E+00 -0.24758645397E+04  0.24758645397E+04  0.50400001928E-02 0. -1.
    10030    2    1    2    0    0  0.00000000000E+00  0.00000000000E+00 -0.16824391961E+04  0.32692898834E+04  0.28031508510E+04 0.  0.
        1    1    3    3  502    0  0.11946405589E+04  0.24658653005E+03 -0.16462500253E+04  0.20489290196E+04  0.50400001928E-02 0.  1.
       -1    1    3    3    0  502 -0.11946405589E+04 -0.24658653005E+03 -0.36189170780E+02  0.12203608638E+04  0.50400001928E-02 0. -1.
</event>
<event>
 5   0  0.3571498E-07  0.2799849E+04  0.7818609E-02  0.8303315E-01
       -2   -1    0    0    0  501  0.00000000000E+00  0.00000000000E+00  0.10891094761E+04  0.10891094761E+04  0.25500000920E-02 0.  1.
        2   -1    0    0  501    0  0.00000000000E+00  0.00000000000E+00 -0.17994415361E+04  0.17994415361E+04  0.25500000920E-02 0. -1.
    10030    2    1    2    0    0  0.00000000000E+00  0.00000000000E+00 -0.71033206000E+03  0.28885510121E+04  0.27998491592E+04 0.  0.
        2    1    3    3  502    0  0.18767508562E+03  0.49617217677E+03  0.98140044321E+03  0.11155965206E+04  0.25500000920E-02 0.  1.
       -2    1    3    3    0  502 -0.18767508562E+03 -0.49617217677E+03 -0.16917325032E+04  0.17729544916E+04  0.25500000920E-02 0. -1.
</event>
<event>
 5   0  0.1366235E-07  0.2799699E+04  0.7818609E-02  0.8303362E-01
        1   -1    0    0  501    0  0.00000000000E+00  0.00000000000E+00  0.19038293201E+04  0.19038293201E+04  0.50400001928E-02 0. -1.
       -1   -1    0    0    0  501  0.00000000000E+00  0.00000000000E+00 -0.10292830720E+04  0.10292830720E+04  0.50400001928E-02 0.  1.
    10030    2    1    2    0    0  0.00000000000E+00  0.00000000000E+00  0.87454624817E+03  0.29331123921E+04  0.27996994776E+04 0.  0.
        2    1    3    3  502    0 -0.58744661084E+03  0.93571813417E+02 -0.89028504929E+03  0.10707271706E+04  0.25500000920E-02 0.  1.
       -2    1    3    3    0  502  0.58744661084E+03 -0.93571813417E+02  0.17648312975E+04  0.18623852215E+04  0.25500000920E-02 0. -1.
</event>
<event>
 5   0  0.1357902E-07  0.2798069E+04  0.7818609E-02  0.8303868E-01
       -1   -1    0    0    0  501  0.00000000000E+00  0.00000000000E+00  0.17376274508E+04  0.17376274508E+04  0.50400001928E-02 0.  1.
        1   -1    0    0  501    0  0.00000000000E+00  0.00000000000E+00 -0.11264194230E+04  0.11264194230E+04  0.50400001928E-02 0. -1.
    10030    2    1    2    0    0  0.00000000000E+00  0.00000000000E+00  0.61120802774E+03  0.28640468738E+04  0.27980688415E+04 0.  0.
        4    1    3    3  502    0  0.42221213692E+03  0.16329885759E+03  0.16605879506E+04  0.17211866720E+04  0.12699999809E+01 0.  1.
       -4    1    3    3    0  502 -0.42221213692E+03 -0.16329885759E+03 -0.10493799228E+04  0.11428602018E+04  0.12699999809E+01 0. -1.
</event>
<event>
 5   0  0.3522569E-07  0.2800070E+04  0.7818609E-02  0.8303247E-01
       -2   -1    0    0    0  501  0.00000000000E+00  0.00000000000E+00  0.12716264105E+04  0.12716264105E+04  0.25500000920E-02 0. -1.
        2   -1    0    0  501    0  0.00000000000E+00  0.00000000000E+00 -0.15414105801E+04  0.15414105801E+04  0.25500000920E-02 0.  1.
    10030    2    1    2    0    0  0.00000000000E+00  0.00000000000E+00 -0.26978416959E+03  0.28130369906E+04  0.28000702870E+04 0.  0.
        1    1    3    3  502    0 -0.28117045168E+03  0.59881939039E+03  0.11047006321E+04  0.12876354188E+04  0.50400001928E-02 0. -1.
       -1    1    3    3    0  502  0.28117045168E+03 -0.59881939039E+03 -0.13744848017E+04  0.15254015718E+04  0.50400001928E-02 0.  1.
</event>
<event>
 5   0  0.3571498E-07  0.2800012E+04  0.7818609E-02  0.8303265E-01
       -2   -1    0    0    0  501  0.00000000000E+00  0.00000000000E+00  0.15481769873E+04  0.15481769873E+04  0.25500000920E-02 0.  1.
        2   -1    0    0  501    0  0.00000000000E+00  0.00000000000E+00 -0.12660162494E+04  0.12660162494E+04  0.25500000920E-02 0. -1.
    10030    2    1    2    0    0  0.00000000000E+00  0.00000000000E+00  0.28216073790E+03  0.28141932366E+04  0.28000123020E+04 0.  0.
        2    1    3    3  502    0 -0.19796424993E+03 -0.52488877148E+03 -0.11481159375E+04  0.12778373420E+04  0.25500000920E-02 0. -1.
       -2    1    3    3    0  502  0.19796424993E+03  0.52488877148E+03  0.14302766754E+04  0.15363558946E+04  0.25500000920E-02 0.  1.
</event>
<event>
 5   0  0.1346049E-07  0.2800265E+04  0.7818609E-02  0.8303186E-01
        1   -1    0    0  501    0  0.00000000000E+00  0.00000000000E+00  0.11662437897E+04  0.11662437897E+04  0.50400001928E-02 0.  1.
       -1   -1    0    0    0  501  0.00000000000E+00  0.00000000000E+00 -0.16809275531E+04  0.16809275531E+04  0.50400001928E-02 0. -1.
    10030    2    1    2    0    0  0.00000000000E+00  0.00000000000E+00 -0.51468376335E+03  0.28471713428E+04  0.28002652158E+04 0.  0.
        1    1    3    3  502    0  0.13587265727E+04 -0.20081051613E+03  0.19073241233E+02  0.13736180514E+04  0.50400001928E-02 0.  1.
       -1    1    3    3    0  502 -0.13587265727E+04  0.20081051613E+03 -0.53375700458E+03  0.14735532914E+04  0.50400001928E-02 0. -1.
</event>
<event>
 5   0  0.1366235E-07  0.2802213E+04  0.7818609E-02  0.8302582E-01
        1   -1    0    0  501    0  0.00000000000E+00  0.00000000000E+00  0.19460317995E+04  0.19460317995E+04  0.50400001928E-02 0.  1.
       -1   -1    0    0    0  501  0.00000000000E+00  0.00000000000E+00 -0.10087705781E+04  0.10087705781E+04  0.50400001928E-02 0. -1.
    10030    2    1    2    0    0  0.00000000000E+00  0.00000000000E+00  0.93726122137E+03  0.29548023777E+04  0.28022131421E+04 0.  0.
        2    1    3    3  502    0 -0.38652315188E+03 -0.12035179945E+04  0.11058937051E+04  0.16795405910E+04  0.25500000920E-02 0.  1.
       -2    1    3    3    0  502  0.38652315188E+03  0.12035179945E+04 -0.16863248369E+03  0.12752617866E+04  0.25500000920E-02 0. -1.
</event>
<event>
 5   0  0.3522569E-07  0.2799884E+04  0.7818609E-02  0.8303304E-01
        2   -1    0    0  501    0  0.00000000000E+00  0.00000000000E+00  0.14208782513E+04  0.14208782513E+04  0.25500000920E-02 0. -1.
       -2   -1    0    0    0  501  0.00000000000E+00  0.00000000000E+00 -0.13793139115E+04  0.13793139115E+04  0.25500000920E-02 0.  1.
    10030    2    1    2    0    0  0.00000000000E+00  0.00000000000E+00  0.41564339788E+02  0.28001921628E+04  0.27998836679E+04 0.  0.
        1    1    3    3  502    0 -0.55358458604E+03 -0.20367781204E+03 -0.12489626134E+04  0.13812487664E+04  0.50400001928E-02 0.  1.
       -1    1    3    3    0  502  0.55358458604E+03  0.20367781204E+03  0.12905269532E+04  0.14189433963E+04  0.50400001928E-02 0. -1.
</event>
<event>
 5   0  0.1366235E-07  0.2800363E+04  0.7818609E-02  0.8303156E-01
       -1   -1    0    0    0  501  0.00000000000E+00  0.00000000000E+00  0.18421454257E+04  0.18421454257E+04  0.50400001928E-02 0. -1.
        1   -1    0    0  501    0  0.00000000000E+00  0.00000000000E+00 -0.10642523303E+04  0.10642523303E+04  0.50400001928E-02 0.  1.
    10030    2    1    2    0    0  0.00000000000E+00  0.00000000000E+00  0.77789309544E+03  0.29063977560E+04  0.28003625209E+04 0.  0.
        2    1    3    3  502    0  0.88959785846E+03 -0.91938477884E+03  0.97957721006E+03  0.16112803083E+04  0.25500000920E-02 0. -1.
       -2    1    3    3    0  502 -0.88959785846E+03  0.91938477884E+03 -0.20168411462E+03  0.12951174477E+04  0.25500000920E-02 0.  1.
</event>
<event>
 5   0  0.1374680E-07  0.2800635E+04  0.7818609E-02  0.8303071E-01
        1   -1    0    0  501    0  0.00000000000E+00  0.00000000000E+00  0.28161465015E+04  0.28161465015E+04  0.50400001928E-02 0.  1.
       -1   -1    0    0    0  501  0.00000000000E+00  0.00000000000E+00 -0.69630238633E+03  0.69630238635E+03  0.50400001928E-02 0. -1.
    10030    2    1    2    0    0  0.00000000000E+00  0.00000000000E+00  0.21198441151E+04  0.35124488878E+04  0.28006353060E+04 0.  0.
        3    1    3    3  502    0  0.68708628604E+03 -0.99890161785E+03  0.19387282323E+04  0.22866042893E+04  0.10100000352E+00 0.  1.
       -3    1    3    3    0  502 -0.68708628604E+03  0.99890161785E+03  0.18111588278E+03  0.12258445985E+04  0.10100000352E+00 0. -1.
</event>
<event>
 5   0  0.3406920E-07  0.2798623E+04  0.7818609E-02  0.8303696E-01
        2   -1    0    0  501    0  0.00000000000E+00  0.00000000000E+00  0.23004201654E+04  0.23004201654E+04  0.25500000920E-02 0. -1.
       -2   -1    0    0    0  501  0.00000000000E+00  0.00000000000E+00 -0.85118050770E+03  0.85118050770E+03  0.25500000920E-02 0.  1.
    10030    2    1    2    0    0  0.00000000000E+00  0.00000000000E+00  0.14492396577E+04  0.31516006731E+04  0.27986230931E+04 0.  0.
        4    1    3    3  502    0 -0.11733448509E+04 -0.63066202480E+03  0.24209319335E+03  0.13539141242E+04  0.12699999809E+01 0.  1.
       -4    1    3    3    0  502  0.11733448509E+04  0.63066202480E+03  0.12071464644E+04  0.17976865489E+04  0.12699999809E+01 0. -1.
</event>
<event>
 5   0  0.3406920E-07  0.2800260E+04  0.7818609E-02  0.8303188E-01
       -2   -1    0    0    0  501  0.00000000000E+00  0.00000000000E+00  0.16398365700E+04  0.16398365700E+04  0.25500000920E-02 0. -1.
        2   -1    0    0  501    0  0.00000000000E+00  0.00000000000E+00 -0.11954628530E+04  0.11954628530E+04  0.25500000920E-02 0.  1.
    10030    2    1    2    0    0  0.00000000000E+00  0.00000000000E+00  0.44437371702E+03  0.28352994230E+04  0.28002597768E+04 0.  0.
        4    1    3    3  502    0 -0.26418096024E+03 -0.92410093017E+03  0.12530663072E+04  0.15792184434E+04  0.12699999809E+01 0. -1.
       -4    1    3    3    0  502  0.26418096024E+03  0.92410093017E+03 -0.80869259019E+03  0.12560809796E+04  0.12699999809E+01 0.  1.
</event>
<event>
 5   0  0.3406920E-07  0.2813068E+04  0.7818609E-02  0.8299223E-01
        2   -1    0    0  501    0  0.00000000000E+00  0.00000000000E+00  0.12903356544E+04  0.12903356544E+04  0.25500000920E-02 0. -1.
       -2   -1    0    0    0  501  0.00000000000E+00  0.00000000000E+00 -0.15331966996E+04  0.15331966996E+04  0.25500000920E-02 0.  1.
    10030    2    1    2    0    0  0.00000000000E+00  0.00000000000E+00 -0.24286104518E+03  0.28235323541E+04  0.28130683367E+04 0.  0.
        4    1    3    3  502    0 -0.14508155605E+02  0.76864096185E+03 -0.13036562148E+04  0.15134531886E+04  0.12699999809E+01 0.  1.
       -4    1    3    3    0  502  0.14508155605E+02 -0.76864096185E+03  0.10607951697E+04  0.13100791654E+04  0.12699999809E+01 0. -1.
</event>
<event>
 5   0  0.3502141E-07  0.2799972E+04  0.7818609E-02  0.8303277E-01
        2   -1    0    0  501    0  0.00000000000E+00  0.00000000000E+00  0.23226117795E+04  0.23226117795E+04  0.25500000920E-02 0. -1.
       -2   -1    0    0    0  501  0.00000000000E+00  0.00000000000E+00 -0.84386074780E+03  0.84386074780E+03  0.25500000920E-02 0.  1.
    10030    2    1    2    0    0  0.00000000000E+00  0.00000000000E+00  0.14787510317E+04  0.31664725273E+04  0.27999720806E+04 0.  0.
        3    1    3    3  502    0  0.55372634954E+03  0.12825459114E+04  0.63557926532E+03  0.15347631406E+04  0.10100000352E+00 0.  1.
       -3    1    3    3    0  502 -0.55372634954E+03 -0.12825459114E+04  0.84317176635E+03  0.16317093867E+04  0.10100000352E+00 0. -1.
</event>
<event>
 5   0  0.1346049E-07  0.2801427E+04  0.7818609E-02  0.8302825E-01
       -1   -1    0    0    0  501  0.00000000000E+00  0.00000000000E+00  0.90731837336E+03  0.90731837337E+03  0.50400001928E-02 0. -1.
        1   -1    0    0  501    0  0.00000000000E+00  0.00000000000E+00 -0.21624148047E+04  0.21624148047E+04  0.50400001928E-02 0.  1.
    10030    2    1    2    0    0  0.00000000000E+00  0.00000000000E+00 -0.12550964313E+04  0.30697331781E+04  0.28014272671E+04 0.  0.
        1    1    3    3  502    0  0.40283666136E+03  0.12707793537E+04 -0.15644008709E+03  0.13422485025E+04  0.50400001928E-02 0. -1.
       -1    1    3    3    0  502 -0.40283666136E+03 -0.12707793537E+04 -0.10986563443E+04  0.17274846756E+04  0.50400001928E-02 0.  1.
</event>
<event>
 5   0  0.3571498E-07  0.2821382E+04  0.7818609E-02  0.8296661E-01
       -2   -1    0    0    0  501  0.00000000000E+00  0.00000000000E+00  0.97225959059E+03  0.97225959059E+03  0.25500000920E-02 0.  1.
        2   -1    0    0  501    0  0.00000000000E+00  0.00000000000E+00 -0.20468284735E+04  0.20468284735E+04  0.25500000920E-02 0. -1.
    10030    2    1    2    0    0  0.00000000000E+00  0.00000000000E+00 -0.10745688829E+04  0.30190880641E+04  0.28213816570E+04 0.  0.
        2    1    3    3  502    0 -0.76306543804E+03  0.38450190115E+03 -0.17384103549E+04  0.19370547583E+04  0.25500000920E-02 0. -1.
       -2    1    3    3    0  502  0.76306543804E+03 -0.38450190115E+03  0.66384147203E+03  0.10820333057E+04  0.25500000920E-02 0.  1.
</event>
<event>
 5   0  0.3522569E-07  0.2799335E+04  0.7818609E-02  0.8303475E-01
       -2   -1    0    0    0  501  0.00000000000E+00  0.00000000000E+00  0.13587894186E+04  0.13587894186E+04  0.25500000920E-02 0.  1.
        2   -1    0    0  501    0  0.00000000000E+00  0.00000000000E+00 -0.14417748970E+04  0.14417748970E+04  0.25500000920E-02 0. -1.
    10030    2    1    2    0    0  0.00000000000E+00  0.00000000000E+00 -0.82985478395E+02  0.28005643156E+04  0.27993345453E+04 0.  0.
        1    1    3    3  502    0  0.10393126161E+02  0.60347234765E+03 -0.13048941368E+04  0.14377188876E+04  0.50400001928E-02 0. -1.
       -1    1    3    3    0  502 -0.10393126161E+02 -0.60347234765E+03  0.12219086584E+04  0.13628454281E+04  0.50400001928E-02 0.  1.
</event>
<event>
 5   0  0.1366235E-07  0.2799939E+04  0.7818609E-02  0.8303287E-01
       -1   -1    0    0    0  501  0.00000000000E+00  0.00000000000E+00  0.10977028538E+04  0.10977028538E+04  0.50400001928E-02 0. -1.
        1   -1    0    0  501    0  0.00000000000E+00  0.00000000000E+00 -0.17854696346E+04  0.17854696346E+04  0.50400001928E-02 0.  1.
    10030    2    1    2    0    0  0.00000000000E+00  0.00000000000E+00 -0.68776678079E+03  0.28831724884E+04  0.27999393660E+04 0.  0.
        2    1    3    3  502    0  0.40452193049E+03  0.53795226737E+03 -0.16079267703E+04  0.17431176474E+04  0.25500000920E-02 0.  1.
       -2    1    3    3    0  502 -0.40452193049E+03 -0.53795226737E+03  0.92015998949E+03  0.11400548410E+04  0.25500000920E-02 0. -1.
</event>
<event>
 5   0  0.1366235E-07  0.2798318E+04  0.7818609E-02  0.8303791E-01
        1   -1    0    0  501    0  0.00000000000E+00  0.00000000000E+00  0.13115453439E+04  0.13115453439E+04  0.50400001928E-02 0. -1.
       -1   -1    0    0    0  501  0.00000000000E+00  0.00000000000E+00 -0.14926258696E+04  0.14926258696E+04  0.50400001928E-02 0.  1.
    10030    2    1    2    0    0  0.00000000000E+00  0.00000000000E+00 -0.18108052565E+03  0.28041712135E+04  0.27983184304E+04 0.  0.
        2    1    3    3  502    0 -0.98757989789E+03 -0.13917556752E+03  0.89281876122E+03  0.13385847876E+04  0.25500000920E-02 0. -1.
       -2    1    3    3    0  502  0.98757989789E+03  0.13917556752E+03 -0.10738992869E+04  0.14655864259E+04  0.25500000920E-02 0.  1.
</event>
<event>
 5   0  0.3406920E-07  0.2808091E+04  0.7818609E-02  0.8300761E-01
        2   -1    0    0  501    0  0.00000000000E+00  0.00000000000E+00  0.21049012905E+04  0.21049012905E+04  0.25500000920E-02 0. -1.
       -2   -1    0    0    0  501  0.00000000000E+00  0.00000000000E+00 -0.93654928772E+03  0.93654928772E+03  0.25500000920E-02 0.  1.
    10030    2    1    2    0    0  0.00000000000E+00  0.00000000000E+00  0.11683520028E+04  0.30414505783E+04  0.28080910273E+04 0.  0.
        4    1    3    3  502    0  0.13196285192E+04 -0.31664578916E+03  0.19417152852E+03  0.13709077941E+04  0.12699999809E+01 0.  1.
       -4    1    3    3    0  502 -0.13196285192E+04  0.31664578916E+03  0.97418047429E+03  0.16705427842E+04  0.12699999809E+01 0. -1.
</event>
<event>
 5   0  0.3406920E-07  0.2804278E+04  0.7818609E-02  0.8301941E-01
       -2   -1    0    0    0  501  0.00000000000E+00  0.00000000000E+00  0.93533354901E+03  0.93533354901E+03  0.25500000920E-02 0. -1.
        2   -1    0    0  501    0  0.00000000000E+00  0.00000000000E+00 -0.21019180103E+04  0.21019180103E+04  0.25500000920E-02 0.  1.
    10030    2    1    2    0    0  0.00000000000E+00  0.00000000000E+00 -0.11665844613E+04  0.30372515593E+04  0.28042784686E+04 0.  0.
        4    1    3    3  502    0  0.62015830679E+03 -0.81976925287E+03 -0.16161275945E+04  0.19153297283E+04  0.12699999809E+01 0.  1.
       -4    1    3    3    0  502 -0.62015830679E+03  0.81976925287E+03  0.44954313321E+03  0.11219218310E+04  0.12699999809E+01 0. -1.
</event>
<event>
 5   0  0.3406920E-07  0.2800420E+04  0.7818609E-02  0.8303138E-01
       -2   -1    0    0    0  501  0.00000000000E+00  0.00000000000E+00  0.90963754004E+03  0.90963754004E+03  0.25500000920E-02 0. -1.
        2   -1    0    0  501    0  0.00000000000E+00  0.00000000000E+00 -0.21553511616E+04  0.21553511616E+04  0.25500000920E-02 0.  1.
    10030    2    1    2    0    0  0.00000000000E+00  0.00000000000E+00 -0.12457136215E+04  0.30649887016E+04  0.28004202031E+04 0.  0.
        4    1    3    3  502    0 -0.10920346098E+04 -0.27836566098E+03  0.28665069242E+03  0.11628401707E+04  0.12699999809E+01 0. -1.
       -4    1    3    3    0  502  0.10920346098E+04  0.27836566098E+03 -0.15323643140E+04  0.19021485309E+04  0.12699999809E+01 0.  1.
</event>
<event>
 5   0  0.1374680E-07  0.2792537E+04  0.7818609E-02  0.8305589E-01
        1   -1    0    0  501    0  0.00000000000E+00  0.00000000000E+00  0.15520200999E+04  0.15520200999E+04  0.50400001928E-02 0.  1.
       -1   -1    0    0    0  501  0.00000000000E+00  0.00000000000E+00 -0.12561474429E+04  0.12561474429E+04  0.50400001928E-02 0. -1.
    10030    2    1    2    0    0  0.00000000000E+00  0.00000000000E+00  0.29587265700E+03  0.28081675428E+04  0.27925372547E+04 0.  0.
        3    1    3    3  502    0  0.97742521046E+03  0.85149540413E+03 -0.37377539241E+03  0.13491154582E+04  0.10100000352E+00 0. -1.
       -3    1    3    3    0  502 -0.97742521046E+03 -0.85149540413E+03  0.66964804941E+03  0.14590520846E+04  0.10100000352E+00 0.  1.
</event>
<event>
 5   0  0.1361741E-07  0.2799368E+04  0.7818609E-02  0.8303465E-01
       -1   -1    0    0    0  501  0.00000000000E+00  0.00000000000E+00  0.25071189098E+04  0.25071189098E+04  0.50400001928E-02 0.  1.
        1   -1    0    0  501    0  0.00000000000E+00  0.00000000000E+00 -0.78142103617E+03  0.78142103618E+03  0.50400001928E-02 0. -1.
    10030    2    1    2    0    0  0.00000000000E+00  0.00000000000E+00  0.17256978736E+04  0.32885399460E+04  0.27993681118E+04 0.  0.
        5    1    3    3  502    0  0.10807528574E+04 -0.73973742533E+03  0.28274061791E+03  0.13398516874E+04  0.46999998093E+01 0.  1.
       -5    1    3    3    0  502 -0.10807528574E+04  0.73973742533E+03  0.14429572557E+04  0.19486882585E+04  0.46999998093E+01 0. -1.
</event>
<event>
 5   0  0.3571498E-07  0.2800043E+04  0.7818609E-02  0.8303255E-01
       -2   -1    0    0    0  501  0.00000000000E+00  0.00000000000E+00  0.12320725261E+04  0.12320725261E+04  0.25500000920E-02 0.  1.
        2   -1    0    0  501    0  0.00000000000E+00  0.00000000000E+00 -0.15908638609E+04  0.15908638609E+04  0.25500000920E-02 0. -1.
    10030    2    1    2    0    0  0.00000000000E+00  0.00000000000E+00 -0.35879133477E+03  0.28229363870E+04  0.28000426109E+04 0.  0.
        2    1    3    3  502    0 -0.36597992029E+03 -0.20938589195E+03 -0.15253301468E+04  0.15825346159E+04  0.25500000920E-02 0. -1.
       -2    1    3    3    0  502  0.36597992029E+03  0.20938589195E+03  0.11665388120E+04  0.12404017711E+04  0.25500000920E-02 0.  1.
</event>
<event>
 5   0  0.1366235E-07  0.2803054E+04  0.7818609E-02  0.8302321E-01
       -1   -1    0    0    0  501  0.00000000000E+00  0.00000000000E+00  0.15101891816E+04  0.15101891816E+04  0.50400001928E-02 0. -1.
        1   -1    0    0  501    0  0.00000000000E+00  0.00000000000E+00 -0.13006835389E+04  0.13006835389E+04  0.50400001928E-02 0.  1.
    10030    2    1    2    0    0  0.00000000000E+00  0.00000000000E+00  0.20950564271E+03  0.28108727205E+04  0.28030541979E+04 0.  0.
        2    1    3    3  502    0 -0.13543319375E+04  0.32668750635E+03  0.25794832549E+03  0.14168546370E+04  0.25500000920E-02 0. -1.
       -2    1    3    3    0  502  0.13543319375E+04 -0.32668750635E+03 -0.48442682778E+02  0.13940180835E+04  0.25500000920E-02 0.  1.
</event>
<event>
 5   0  0.1366235E-07  0.2799896E+04  0.7818609E-02  0.8303301E-01
        1   -1    0    0  501    0  0.00000000000E+00  0.00000000000E+00  0.12411216363E+04  0.12411216363E+04  0.50400001928E-02 0. -1.
       -1   -1    0    0    0  501  0.00000000000E+00  0.00000000000E+00 -0.15790988475E+04  0.15790988475E+04  0.50400001928E-02 0.  1.
    10030    2    1    2    0    0  0.00000000000E+00  0.00000000000E+00 -0.33797721124E+03  0.28202204839E+04  0.27998955306E+04 0.  0.
        2    1    3    3  502    0 -0.26062915258E+03  0.12145337946E+04  0.48132482939E+03  0.13321762214E+04  0.25500000920E-02 0. -1.
       -2    1    3    3    0  502  0.26062915258E+03 -0.12145337946E+04 -0.81930204063E+03  0.14880442625E+04  0.25500000920E-02 0.  1.
</event>
<event>
 5   0  0.1346049E-07  0.2801976E+04  0.7818609E-02  0.8302655E-01
        1   -1    0    0  501    0  0.00000000000E+00  0.00000000000E+00  0.17327613414E+04  0.17327613414E+04  0.50400001928E-02 0.  1.
       -1   -1    0    0    0  501  0.00000000000E+00  0.00000000000E+00 -0.11327399562E+04  0.11327399562E+04  0.50400001928E-02 0. -1.
    10030    2    1    2    0    0  0.00000000000E+00  0.00000000000E+00  0.60002138512E+03  0.28655012976E+04  0.28019764496E+04 0.  0.
        1    1    3    3  502    0 -0.75352801665E+03  0.44613216713E+03  0.14183895300E+04  0.16669334843E+04  0.50400001928E-02 0.  1.
       -1    1    3    3    0  502  0.75352801665E+03 -0.44613216713E+03 -0.81836814487E+03  0.11985678133E+04  0.50400001928E-02 0. -1.
</event>
<event>
 5   0  0.3571498E-07  0.2801249E+04  0.7818609E-02  0.8302881E-01
        2   -1    0    0  501    0  0.00000000000E+00  0.00000000000E+00  0.24379701996E+04  0.24379701996E+04  0.25500000920E-02 0. -1.
       -2   -1    0    0    0  501  0.00000000000E+00  0.00000000000E+00 -0.80466496050E+03  0.80466496050E+03  0.25500000920E-02 0.  1.
    10030    2    1    2    0    0  0.00000000000E+00  0.00000000000E+00  0.16333052391E+04  0.32426351601E+04  0.28012491459E+04 0.  0.
        2    1    3    3  502    0 -0.38106018292E+03  0.10188010472E+03  0.23723488309E+04  0.24049169204E+04  0.25500000920E-02 0. -1.
       -2    1    3    3    0  502  0.38106018292E+03 -0.10188010472E+03 -0.73904359171E+03  0.83771823974E+03  0.25500000920E-02 0.  1.
</event>
<event>
 5   0  0.3406920E-07  0.2798272E+04  0.7818609E-02  0.8303805E-01
       -2   -1    0    0    0  501  0.00000000000E+00  0.00000000000E+00  0.11622604505E+04  0.11622604506E+04  0.25500000920E-02 0.  1.
        2   -1    0    0  501    0  0.00000000000E+00  0.00000000000E+00 -0.16842886718E+04  0.16842886718E+04  0.25500000920E-02 0. -1.
    10030    2    1    2    0    0  0.00000000000E+00  0.00000000000E+00 -0.52202822127E+03  0.28465491224E+04  0.27982724032E+04 0.  0.
        4    1    3    3  502    0  0.99908758132E+03 -0.31668622906E+02  0.73485545103E+03  0.12406421900E+04  0.12699999809E+01 0.  1.
       -4    1    3    3    0  502 -0.99908758132E+03  0.31668622906E+02 -0.12568836723E+04  0.16059069324E+04  0.12699999809E+01 0. -1.
</event>
<event>
 5   0  0.1346049E-07  0.2799953E+04  0.7818609E-02  0.8303283E-01
       -1   -1    0    0    0  501  0.00000000000E+00  0.00000000000E+00  0.15506162828E+04  0.15506162828E+04  0.50400001928E-02 0. -1.
        1   -1    0    0  501    0  0.00000000000E+00  0.00000000000E+00 -0.12639710928E+04  0.12639710928E+04  0.50400001928E-02 0.  1.
    10030    2    1    2    0    0  0.00000000000E+00  0.00000000000E+00  0.28664518996E+03  0.28145873756E+04  0.27999529692E+04 0.  0.
        1    1    3    3  502    0  0.82607535880E+03  0.28307998202E+03  0.12432993656E+04  0.15193182968E+04  0.50400001928E-02 0. -1.
       -1    1    3    3    0  502 -0.82607535880E+03 -0.28307998202E+03 -0.95665417561E+03  0.12952690788E+04  0.50400001928E-02 0.  1.
</event>
<event>
 5   0  0.3522569E-07  0.2803209E+04  0.7818609E-02  0.8302273E-01
        2   -1    0    0  501    0  0.00000000000E+00  0.00000000000E+00  0.13438228721E+04  0.13438228721E+04  0.25500000920E-02 0.  1.
       -2   -1    0    0    0  501  0.00000000000E+00  0.00000000000E+00 -0.14618704107E+04  0.14618704107E+04  0.25500000920E-02 0. -1.
    10030    2    1    2    0    0  0.00000000000E+00  0.00000000000E+00 -0.11804753862E+03  0.28056932828E+04  0.28032087999E+04 0.  0.
        1    1    3    3  502    0 -0.75547160480E+03  0.83721671166E+03 -0.89212302667E+03  0.14378986969E+04  0.50400001928E-02 0. -1.
       -1    1    3    3    0  502  0.75547160480E+03 -0.83721671166E+03  0.77407548805E+03  0.13677945859E+04  0.50400001928E-02 0.  1.
</event>
<event>
 5   0  0.1366235E-07  0.2799357E+04  0.7818609E-02  0.8303468E-01
       -1   -1    0    0    0  501  0.00000000000E+00  0.00000000000E+00  0.11621578785E+04  0.11621578785E+04  0.50400001928E-02 0.  1.
        1   -1    0    0  501    0  0.00000000000E+00  0.00000000000E+00 -0.16857430013E+04  0.16857430013E+04  0.50400001928E-02 0. -1.
    10030    2    1    2    0    0  0.00000000000E+00  0.00000000000E+00 -0.52358512279E+03  0.28479008798E+04  0.27993567190E+04 0.  0.
        2    1    3    3  502    0 -0.13280658850E+04 -0.43931431637E+03 -0.21254392996E+03  0.14148961042E+04  0.25500000920E-02 0.  1.
       -2    1    3    3    0  502  0.13280658850E+04  0.43931431637E+03 -0.31104119283E+03  0.14330047757E+04  0.25500000920E-02 0. -1.
</event>
<event>
 5   0  0.1346049E-07  0.2799789E+04  0.7818609E-02  0.8303334E-01
       -1   -1    0    0    0  501  0.00000000000E+00  0.00000000000E+00  0.96423675009E+03  0.96423675010E+03  0.50400001928E-02 0.  1.
        1   -1    0    0  501    0  0.00000000000E+00  0.00000000000E+00 -0.20323887841E+04  0.20323887841E+04  0.50400001928E-02 0. -1.
    10030    2    1    2    0    0  0.00000000000E+00  0.00000000000E+00 -0.10681520340E+04  0.29966255342E+04  0.27997885321E+04 0.  0.
        1    1    3    3  502    0 -0.12400041097E+04  0.20459762763E+03  0.12590656932E+03  0.12630609033E+04  0.50400001928E-02 0. -1.
       -1    1    3    3    0  502  0.12400041097E+04 -0.20459762763E+03 -0.11940586033E+04  0.17335646309E+04  0.50400001928E-02 0.  1.
</event>
<event>
 5   0  0.1374680E-07  0.2800139E+04  0.7818609E-02  0.8303225E-01
       -1   -1    0    0    0  501  0.00000000000E+00  0.00000000000E+00  0.91624319609E+03  0.91624319611E+03  0.50400001928E-02 0. -1.
        1   -1    0    0  501    0  0.00000000000E+00  0.00000000000E+00 -0.21393825044E+04  0.21393825044E+04  0.50400001928E-02 0.  1.
    10030    2    1    2    0    0  0.00000000000E+00  0.00000000000E+00 -0.12231393083E+04  0.30556257005E+04  0.28001390419E+04 0.  0.
        3    1    3    3  502    0  0.11136806850E+04  0.59629475236E+03  0.47111906940E+02  0.12641485838E+04  0.10100000352E+00 0. -1.
       -3    1    3    3    0  502 -0.11136806850E+04 -0.59629475236E+03 -0.12702512152E+04  0.17914771168E+04  0.10100000352E+00 0.  1.
</event>
<event>
 5   0  0.1346049E-07  0.2799386E+04  0.7818609E-02  0.8303459E-01
        1   -1    0    0  501    0  0.00000000000E+00  0.00000000000E+00  0.21376695190E+04  0.21376695190E+04  0.50400001928E-02 0. -1.
       -1   -1    0    0    0  501  0.00000000000E+00  0.00000000000E+00 -0.91648417599E+03  0.91648417600E+03  0.50400001928E-02 0.  1.
    10030    2    1    2    0    0  0.00000000000E+00  0.00000000000E+00  0.12211853430E+04  0.30541536950E+04  0.27993858524E+04 0.  0.
        1    1    3    3  502    0 -0.81005210503E+02 -0.79317056398E+03  0.18657071931E+04  0.20289269869E+04  0.50400001928E-02 0. -1.
       -1    1    3    3    0  502  0.81005210503E+02  0.79317056398E+03 -0.64452185012E+03  0.10252267081E+04  0.50400001928E-02 0.  1.
</event>
<event>
 5   0  0.1346049E-07  0.2800089E+04  0.7818609E-02  0.8303241E-01
        1   -1    0    0  501    0  0.00000000000E+00  0.00000000000E+00  0.17259587275E+04  0.17259587275E+04  0.50400001928E-02 0. -1.
       -1   -1    0    0    0  501  0.00000000000E+00  0.00000000000E+00 -0.11356730740E+04  0.11356730740E+04  0.50400001928E-02 0.  1.
    10030    2    1    2    0    0  0.00000000000E+00  0.00000000000E+00  0.59028565352E+03  0.28616318015E+04  0.28000891798E+04 0.  0.
        1    1    3    3  502    0  0.68009879072E+03  0.77751254653E+03  0.12609342822E+04  0.16300353951E+04  0.50400001928E-02 0. -1.
       -1    1    3    3    0  502 -0.68009879072E+03 -0.77751254653E+03 -0.67064862870E+03  0.12315964064E+04  0.50400001928E-02 0.  1.
</event>
<event>
 5   0  0.1366235E-07  0.2801457E+04  0.7818609E-02  0.8302816E-01
        1   -1    0    0  501    0  0.00000000000E+00  0.00000000000E+00  0.14087188080E+04  0.14087188080E+04  0.50400001928E-02 0. -1.
       -1   -1    0    0    0  501  0.00000000000E+00  0.00000000000E+00 -0.13927832597E+04  0.13927832597E+04  0.50400001928E-02 0.  1.
    10030    2    1    2    0    0  0.00000000000E+00  0.00000000000E+00  0.15935548293E+02  0.28015020677E+04  0.28014567449E+04 0.  0.
        2    1    3    3  502    0 -0.24467909864E+03  0.19611649114E+03  0.13731676635E+04  0.14085165854E+04  0.25500000920E-02 0. -1.
       -2    1    3    3    0  502  0.24467909864E+03 -0.19611649114E+03 -0.13572321152E+04  0.13929854823E+04  0.25500000920E-02 0.  1.
</event>
<event>
 5   0  0.1346049E-07  0.2800821E+04  0.7818609E-02  0.8303014E-01
        1   -1    0    0  501    0  0.00000000000E+00  0.00000000000E+00  0.21449190308E+04  0.21449190308E+04  0.50400001928E-02 0. -1.
       -1   -1    0    0    0  501  0.00000000000E+00  0.00000000000E+00 -0.91432324428E+03  0.91432324429E+03  0.50400001928E-02 0.  1.
    10030    2    1    2    0    0  0.00000000000E+00  0.00000000000E+00  0.12305957865E+04  0.30592422751E+04  0.28008208276E+04 0.  0.
        1    1    3    3  502    0  0.10582795564E+04 -0.70318239192E+03  0.12584639952E+04  0.17883379778E+04  0.50400001928E-02 0. -1.
       -1    1    3    3    0  502 -0.10582795564E+04  0.70318239192E+03 -0.27868208651E+02  0.12709042973E+04  0.50400001928E-02 0.  1.
</event>
<event>
 5   0  0.3571498E-07  0.2799313E+04  0.7818609E-02  0.8303482E-01
        2   -1    0    0  501    0  0.00000000000E+00  0.00000000000E+00  0.15456886185E+04  0.15456886185E+04  0.25500000920E-02 0.  1.
       -2   -1    0    0    0  501  0.00000000000E+00  0.00000000000E+00 -0.12674213138E+04  0.12674213138E+04  0.25500000920E-02 0. -1.
    10030    2    1    2    0    0  0.00000000000E+00  0.00000000000E+00  0.27826730475E+03  0.28131099323E+04  0.27993132726E+04 0.  0.
        2    1    3    3  502    0 -0.92589307166E+03 -0.10483807257E+04  0.87318172456E+02  0.14014294807E+04  0.25500000920E-02 0.  1.
       -2    1    3    3    0  502  0.92589307166E+03  0.10483807257E+04  0.19094913229E+03  0.14116804516E+04  0.25500000920E-02 0. -1.
</event>
<event>
 5   0  0.1366235E-07  0.2798191E+04  0.7818609E-02  0.8303830E-01
       -1   -1    0    0    0  501  0.00000000000E+00  0.00000000000E+00  0.87671708581E+03  0.87671708582E+03  0.50400001928E-02 0. -1.
        1   -1    0    0  501    0  0.00000000000E+00  0.00000000000E+00 -0.22327246052E+04  0.22327246052E+04  0.50400001928E-02 0.  1.
    10030    2    1    2    0    0  0.00000000000E+00  0.00000000000E+00 -0.13560075194E+04  0.31094416910E+04  0.27981907078E+04 0.  0.
        2    1    3    3  502    0  0.39323831987E+03 -0.13369303594E+04 -0.81612177692E+03  0.16149532243E+04  0.25500000920E-02 0. -1.
       -2    1    3    3    0  502 -0.39323831987E+03  0.13369303594E+04 -0.53988574245E+03  0.14944884667E+04  0.25500000920E-02 0.  1.
</event>
<event>
 5   0  0.1361741E-07  0.2797241E+04  0.7818609E-02  0.8304125E-01
       -1   -1    0    0    0  501  0.00000000000E+00  0.00000000000E+00  0.10365897840E+04  0.10365897840E+04  0.50400001928E-02 0. -1.
        1   -1    0    0  501    0  0.00000000000E+00  0.00000000000E+00 -0.18870909469E+04  0.18870909470E+04  0.50400001928E-02 0.  1.
    10030    2    1    2    0    0  0.00000000000E+00  0.00000000000E+00 -0.85050116296E+03  0.29236807310E+04  0.27972409243E+04 0.  0.
        5    1    3    3  502    0  0.11222689731E+04 -0.83414004125E+03 -0.45554071019E+03  0.14706517892E+04  0.46999998093E+01 0.  1.
       -5    1    3    3    0  502 -0.11222689731E+04  0.83414004125E+03 -0.39496045277E+03  0.14530289418E+04  0.46999998093E+01 0. -1.
</event>
<event>
 5   0  0.3522569E-07  0.2799674E+04  0.7818609E-02  0.8303369E-01
        2   -1    0    0  501    0  0.00000000000E+00  0.00000000000E+00  0.16690587948E+04  0.16690587948E+04  0.25500000920E-02 0.  1.
       -2   -1    0    0    0  501  0.00000000000E+00  0.00000000000E+00 -0.11740415046E+04  0.11740415046E+04  0.25500000920E-02 0. -1.
    10030    2    1    2    0    0  0.00000000000E+00  0.00000000000E+00  0.49501729015E+03  0.28431002994E+04  0.27996744802E+04 0.  0.
        1    1    3    3  502    0 -0.12012782374E+04  0.40995499799E+03 -0.35191113069E+03  0.13171840979E+04  0.50400001928E-02 0. -1.
       -1    1    3    3    0  502  0.12012782374E+04 -0.40995499799E+03  0.84692842084E+03  0.15259162015E+04  0.50400001928E-02 0.  1.
</event>
<event>
 5   0  0.3522569E-07  0.2799362E+04  0.7818609E-02  0.8303466E-01
       -2   -1    0    0    0  501  0.00000000000E+00  0.00000000000E+00  0.15050076397E+04  0.15050076397E+04  0.25500000920E-02 0. -1.
        2   -1    0    0  501    0  0.00000000000E+00  0.00000000000E+00 -0.13017255968E+04  0.13017255968E+04  0.25500000920E-02 0.  1.
    10030    2    1    2    0    0  0.00000000000E+00  0.00000000000E+00  0.20328204289E+03  0.28067332365E+04  0.27993620473E+04 0.  0.
        1    1    3    3  502    0 -0.28031606878E+02  0.42366011472E+03  0.14388820505E+04  0.15002183905E+04  0.50400001928E-02 0. -1.
       -1    1    3    3    0  502  0.28031606878E+02 -0.42366011472E+03 -0.12356000077E+04  0.13065148460E+04  0.50400001928E-02 0.  1.
</event>
<event>
 5   0  0.3571498E-07  0.2800781E+04  0.7818609E-02  0.8303026E-01
       -2   -1    0    0    0  501  0.00000000000E+00  0.00000000000E+00  0.11368096840E+04  0.11368096840E+04  0.25500000920E-02 0. -1.
        2   -1    0    0  501    0  0.00000000000E+00  0.00000000000E+00 -0.17250850184E+04  0.17250850184E+04  0.25500000920E-02 0.  1.
    10030    2    1    2    0    0  0.00000000000E+00  0.00000000000E+00 -0.58827533433E+03  0.28618947024E+04  0.28007808587E+04 0.  0.
        2    1    3    3  502    0 -0.75091868989E+03  0.44201065368E+03 -0.14143440407E+04  0.16612108121E+04  0.25500000920E-02 0.  1.
       -2    1    3    3    0  502  0.75091868989E+03 -0.44201065368E+03  0.82606870637E+03  0.12006838903E+04  0.25500000920E-02 0. -1.
</event>
<event>
 5   0  0.3557628E-07  0.2798519E+04  0.7818609E-02  0.8303728E-01
        2   -1    0    0  501    0  0.00000000000E+00  0.00000000000E+00  0.18969598208E+04  0.18969598208E+04  0.25500000920E-02 0.  1.
       -2   -1    0    0    0  501  0.00000000000E+00  0.00000000000E+00 -0.10321396982E+04  0.10321396982E+04  0.25500000920E-02 0. -1.
    10030    2    1    2    0    0  0.00000000000E+00  0.00000000000E+00  0.86482012264E+03  0.29290995189E+04  0.27985192776E+04 0.  0.
        5    1    3    3  502    0  0.63870047432E+03  0.57056900071E+03  0.15905757828E+04  0.18064995685E+04  0.46999998093E+01 0.  1.
       -5    1    3    3    0  502 -0.63870047432E+03 -0.57056900071E+03 -0.72575566011E+03  0.11225999504E+04  0.46999998093E+01 0. -1.
</event>
<event>
 5   0  0.1357902E-07  0.2797842E+04  0.7818609E-02  0.8303939E-01
        1   -1    0    0  501    0  0.00000000000E+00  0.00000000000E+00  0.20325480423E+04  0.20325480423E+04  0.50400001928E-02 0.  1.
       -1   -1    0    0    0  501  0.00000000000E+00  0.00000000000E+00 -0.96282078242E+03  0.96282078244E+03  0.50400001928E-02 0. -1.
    10030    2    1    2    0    0  0.00000000000E+00  0.00000000000E+00  0.10697272599E+04  0.29953688247E+04  0.27978416656E+04 0.  0.
        4    1    3    3  502    0 -0.12833728931E+04  0.44926015471E+03  0.88685695089E+03  0.16233907520E+04  0.12699999809E+01 0. -1.
       -4    1    3    3    0  502  0.12833728931E+04 -0.44926015471E+03  0.18287030896E+03  0.13719780728E+04  0.12699999809E+01 0.  1.
</event>
<event>
 5   0  0.3522569E-07  0.2800790E+04  0.7818609E-02  0.8303023E-01
        2   -1    0    0  501    0  0.00000000000E+00  0.00000000000E+00  0.13520652074E+04  0.13520652075E+04  0.25500000920E-02 0.  1.
       -2   -1    0    0    0  501  0.00000000000E+00  0.00000000000E+00 -0.14504522165E+04  0.14504522165E+04  0.25500000920E-02 0. -1.
    10030    2    1    2    0    0  0.00000000000E+00  0.00000000000E+00 -0.98387009087E+02  0.28025174240E+04  0.28007898722E+04 0.  0.
        1    1    3    3  502    0  0.12596520963E+04  0.61044674017E+03 -0.90900754433E+02  0.14027229140E+04  0.50400001928E-02 0. -1.
       -1    1    3    3    0  502 -0.12596520963E+04 -0.61044674017E+03 -0.74862546541E+01  0.13997945100E+04  0.50400001928E-02 0.  1.
</event>
<event>
 5   0  0.1346049E-07  0.2798124E+04  0.7818609E-02  0.8303851E-01
        1   -1    0    0  501    0  0.00000000000E+00  0.00000000000E+00  0.24248950463E+04  0.24248950463E+04  0.50400001928E-02 0. -1.
       -1   -1    0    0    0  501  0.00000000000E+00  0.00000000000E+00 -0.80719964129E+03  0.80719964131E+03  0.50400001928E-02 0.  1.
    10030    2    1    2    0    0  0.00000000000E+00  0.00000000000E+00  0.16176954050E+04  0.32320946876E+04  0.27981239512E+04 0.  0.
        1    1    3    3  502    0  0.88332022219E+03  0.55946201786E+03 -0.26490598768E+03  0.10786229864E+04  0.50400001928E-02 0.  1.
       -1    1    3    3    0  502 -0.88332022219E+03 -0.55946201786E+03  0.18826013927E+04  0.21534717013E+04  0.50400001928E-02 0. -1.
</event>
<event>
 5   0  0.1366235E-07  0.2800853E+04  0.7818609E-02  0.8303003E-01
       -1   -1    0    0    0  501  0.00000000000E+00  0.00000000000E+00  0.15330414647E+04  0.15330414647E+04  0.50400001928E-02 0.  1.
        1   -1    0    0  501    0  0.00000000000E+00  0.00000000000E+00 -0.12792837220E+04  0.12792837220E+04  0.50400001928E-02 0. -1.
    10030    2    1    2    0    0  0.00000000000E+00  0.00000000000E+00  0.25375774264E+03  0.28123251867E+04  0.28008534349E+04 0.  0.
        2    1    3    3  502    0  0.11213916009E+03 -0.13378151527E+04 -0.27333917761E+03  0.13700506852E+04  0.25500000920E-02 0. -1.
       -2    1    3    3    0  502 -0.11213916009E+03  0.13378151527E+04  0.52709692026E+03  0.14422745014E+04  0.25500000920E-02 0.  1.
</event>
<event>
 5   0  0.1346049E-07  0.2799825E+04  0.7818609E-02  0.8303323E-01
       -1   -1    0    0    0  501  0.00000000000E+00  0.00000000000E+00  0.22556793762E+04  0.22556793762E+04  0.50400001928E-02 0.  1.
        1   -1    0    0  501    0  0.00000000000E+00  0.00000000000E+00 -0.86880931917E+03  0.86880931919E+03  0.50400001928E-02 0. -1.
    10030    2    1    2    0    0  0.00000000000E+00  0.00000000000E+00  0.13868700571E+04  0.31244886954E+04  0.27998251825E+04 0.  0.
        1    1    3    3  502    0  0.61778904056E+03  0.20473939755E+03  0.20765816212E+04  0.21761830689E+04  0.50400001928E-02 0.  1.
       -1    1    3    3    0  502 -0.61778904056E+03 -0.20473939755E+03 -0.68971156419E+03  0.94830562655E+03  0.50400001928E-02 0. -1.
</event>
<event>
 5   0  0.1361741E-07  0.2798465E+04  0.7818609E-02  0.8303745E-01
        1   -1    0    0  501    0  0.00000000000E+00  0.00000000000E+00  0.14972531089E+04  0.14972531090E+04  0.50400001928E-02 0. -1.
       -1   -1    0    0    0  501  0.00000000000E+00  0.00000000000E+00 -0.13076290854E+04  0.13076290854E+04  0.50400001928E-02 0.  1.
    10030    2    1    2    0    0  0.00000000000E+00  0.00000000000E+00  0.18962402357E+03  0.28048821943E+04  0.27984650889E+04 0.  0.
        5    1    3    3  502    0 -0.30161943297E+03  0.10145596095E+04  0.10120740049E+04  0.14644525821E+04  0.46999998093E+01 0. -1.
       -5    1    3    3    0  502  0.30161943297E+03 -0.10145596095E+04 -0.82244998134E+03  0.13404296123E+04  0.46999998093E+01 0.  1.
</event>
<event>
 5   0  0.1366235E-07  0.2800295E+04  0.7818609E-02  0.8303177E-01
       -1   -1    0    0    0  501  0.00000000000E+00  0.00000000000E+00  0.97284289910E+03  0.97284289912E+03  0.50400001928E-02 0.  1.
        1   -1    0    0  501    0  0.00000000000E+00  0.00000000000E+00 -0.20151386325E+04  0.20151386325E+04  0.50400001928E-02 0. -1.
    10030    2    1    2    0    0  0.00000000000E+00  0.00000000000E+00 -0.10422957334E+04  0.29879815316E+04  0.28002952054E+04 0.  0.
        2    1    3    3  502    0  0.96745858152E+03  0.82179905283E+03 -0.11515806149E+04  0.17139042280E+04  0.25500000920E-02 0.  1.
       -2    1    3    3    0  502 -0.96745858152E+03 -0.82179905283E+03  0.10928488153E+03  0.12740773036E+04  0.25500000920E-02 0. -1.
</event>
<event>
 5   0  0.3522569E-07  0.2800169E+04  0.7818609E-02  0.8303216E-01
        2   -1    0    0  501    0  0.00000000000E+00  0.00000000000E+00  0.97693807265E+03  0.97693807265E+03  0.25500000920E-02 0. -1.
       -2   -1    0    0    0  501  0.00000000000E+00  0.00000000000E+00 -0.20065101518E+04  0.20065101518E+04  0.25500000920E-02 0.  1.
    10030    2    1    2    0    0  0.00000000000E+00  0.00000000000E+00 -0.10295720791E+04  0.29834482244E+04  0.28001686809E+04 0.  0.
        1    1    3    3  502    0 -0.54381959409E+03  0.81518759491E+03  0.55064866833E+03  0.11240482738E+04  0.50400001928E-02 0. -1.
       -1    1    3    3    0  502  0.54381959409E+03 -0.81518759491E+03 -0.15802207474E+04  0.18593999506E+04  0.50400001928E-02 0.  1.
</event>
<event>
 5   0  0.3502141E-07  0.2800086E+04  0.7818609E-02  0.8303242E-01
       -2   -1    0    0    0  501  0.00000000000E+00  0.00000000000E+00  0.69431621403E+03  0.69431621403E+03  0.25500000920E-02 0. -1.
        2   -1    0    0  501    0  0.00000000000E+00  0.00000000000E+00 -0.28230943288E+04  0.28230943288E+04  0.25500000920E-02 0.  1.
    10030    2    1    2    0    0  0.00000000000E+00  0.00000000000E+00 -0.21287781148E+04  0.35174105429E+04  0.28000858317E+04 0.  0.
        3    1    3    3  502    0  0.74930290528E+03 -0.14941027891E+03 -0.25381087252E+04  0.26506176990E+04  0.10100000352E+00 0.  1.
       -3    1    3    3    0  502 -0.74930290528E+03  0.14941027891E+03  0.40933061040E+03  0.86679284383E+03  0.10100000352E+00 0. -1.
</event>
<event>
 5   0  0.1346049E-07  0.2800242E+04  0.7818609E-02  0.8303193E-01
        1   -1    0    0  501    0  0.00000000000E+00  0.00000000000E+00  0.29413178505E+04  0.29413178505E+04  0.50400001928E-02 0. -1.
       -1   -1    0    0    0  501  0.00000000000E+00  0.00000000000E+00 -0.66648339459E+03  0.66648339461E+03  0.50400001928E-02 0.  1.
    10030    2    1    2    0    0  0.00000000000E+00  0.00000000000E+00  0.22748344559E+04  0.36078012451E+04  0.28002424935E+04 0.  0.
        1    1    3    3  502    0 -0.96381915694E+03 -0.10146865868E+04  0.11921285481E+04  0.18383978655E+04  0.50400001928E-02 0.  1.
       -1    1    3    3    0  502  0.96381915694E+03  0.10146865868E+04  0.10827059078E+04  0.17694033796E+04  0.50400001928E-02 0. -1.
</event>
<event>
 5   0  0.1366235E-07  0.2798973E+04  0.7818609E-02  0.8303587E-01
        1   -1    0    0  501    0  0.00000000000E+00  0.00000000000E+00  0.21602938202E+04  0.21602938202E+04  0.50400001928E-02 0. -1.
       -1   -1    0    0    0  501  0.00000000000E+00  0.00000000000E+00 -0.90661827656E+03  0.90661827657E+03  0.50400001928E-02 0.  1.
    10030    2    1    2    0    0  0.00000000000E+00  0.00000000000E+00  0.12536755436E+04  0.30669120968E+04  0.27989725687E+04 0.  0.
        2    1    3    3  502    0  0.67507284649E+03 -0.76140093267E+03  0.16795962302E+04  0.19637968899E+04  0.25500000920E-02 0. -1.
       -2    1    3    3    0  502 -0.67507284649E+03  0.76140093267E+03 -0.42592068657E+03  0.11031152069E+04  0.25500000920E-02 0.  1.
</event>
<event>
 5   0  0.1346049E-07  0.2799950E+04  0.7818609E-02  0.8303284E-01
       -1   -1    0    0    0  501  0.00000000000E+00  0.00000000000E+00  0.88590097247E+03  0.88590097249E+03  0.50400001928E-02 0. -1.
        1   -1    0    0  501    0  0.00000000000E+00  0.00000000000E+00 -0.22123574706E+04  0.22123574706E+04  0.50400001928E-02 0.  1.
    10030    2    1    2    0    0  0.00000000000E+00  0.00000000000E+00 -0.13264564982E+04  0.30982584431E+04  0.27999497386E+04 0.  0.
        1    1    3    3  502    0 -0.48062303465E+03  0.63841647189E+03 -0.19351993715E+04  0.20936978532E+04  0.50400001928E-02 0.  1.
       -1    1    3    3    0  502  0.48062303465E+03 -0.63841647189E+03  0.60874287332E+03  0.10045605899E+04  0.50400001928E-02 0. -1.
</event>
<event>
 5   0  0.1366235E-07  0.2794743E+04  0.7818609E-02  0.8304902E-01
       -1   -1    0    0    0  501  0.00000000000E+00  0.00000000000E+00  0.97695703743E+03  0.97695703744E+03  0.50400001928E-02 0. -1.
        1   -1    0    0  501    0  0.00000000000E+00  0.00000000000E+00 -0.19987026386E+04  0.19987026386E+04  0.50400001928E-02 0.  1.
    10030    2    1    2    0    0  0.00000000000E+00  0.00000000000E+00 -0.10217456012E+04  0.29756596761E+04  0.27947426419E+04 0.  0.
        2    1    3    3  502    0  0.94761240940E+03 -0.21563043852E+03 -0.15799539184E+04  0.18549178281E+04  0.25500000920E-02 0.  1.
       -2    1    3    3    0  502 -0.94761240940E+03  0.21563043852E+03  0.55820831723E+03  0.11207418480E+04  0.25500000920E-02 0. -1.
</event>
<event>
 5   0  0.1374680E-07  0.2793701E+04  0.7818609E-02  0.8305226E-01
       -1   -1    0    0    0  501  0.00000000000E+00  0.00000000000E+00  0.98671811739E+03  0.98671811740E+03  0.50400001928E-02 0. -1.
        1   -1    0    0  501    0  0.00000000000E+00  0.00000000000E+00 -0.19774561871E+04  0.19774561872E+04  0.50400001928E-02 0.  1.
    10030    2    1    2    0    0  0.00000000000E+00  0.00000000000E+00 -0.99073806976E+03  0.29641743046E+04  0.27937013772E+04 0.  0.
        3    1    3    3  502    0  0.98795253942E+03  0.25685284416E+02  0.55202631345E+03  0.11320083988E+04  0.10100000352E+00 0. -1.
       -3    1    3    3    0  502 -0.98795253942E+03 -0.25685284416E+02 -0.15427643832E+04  0.18321659058E+04  0.10100000352E+00 0.  1.
</event>
<event>
 5   0  0.3522569E-07  0.2801540E+04  0.7818609E-02  0.8302790E-01
        2   -1    0    0  501    0  0.00000000000E+00  0.00000000000E+00  0.15802188857E+04  0.15802188857E+04  0.25500000920E-02 0. -1.
       -2   -1    0    0    0  501  0.00000000000E+00  0.00000000000E+00 -0.12416993943E+04  0.12416993943E+04  0.25500000920E-02 0.  1.
    10030    2    1    2    0    0  0.00000000000E+00  0.00000000000E+00  0.33851949141E+03  0.28219182801E+04  0.28015401716E+04 0.  0.
        1    1    3    3  502    0  0.55819650003E+03  0.29922831489E+03  0.14277620826E+04  0.15619300501E+04  0.50400001928E-02 0. -1.
       -1    1    3    3    0  502 -0.55819650003E+03 -0.29922831489E+03 -0.10892425912E+04  0.12599882299E+04  0.50400001928E-02 0.  1.
</event>
<event>
 5   0  0.1361741E-07  0.2800921E+04  0.7818609E-02  0.8302983E-01
        1   -1    0    0  501    0  0.00000000000E+00  0.00000000000E+00  0.22785523791E+04  0.22785523791E+04  0.50400001928E-02 0. -1.
       -1   -1    0    0    0  501  0.00000000000E+00  0.00000000000E+00 -0.86076107760E+03  0.86076107761E+03  0.50400001928E-02 0.  1.
    10030    2    1    2    0    0  0.00000000000E+00  0.00000000000E+00  0.14177913015E+04  0.31393134567E+04  0.28009207067E+04 0.  0.
        5    1    3    3  502    0 -0.11531878389E+04  0.70927798223E+03  0.11104378881E+04  0.17510030957E+04  0.46999998093E+01 0. -1.
       -5    1    3    3    0  502  0.11531878389E+04 -0.70927798223E+03  0.30735341344E+03  0.13883103610E+04  0.46999998093E+01 0.  1.
</event>
<event>
 5   0  0.3571498E-07  0.2800287E+04  0.7818609E-02  0.8303179E-01
        2   -1    0    0  501    0  0.00000000000E+00  0.00000000000E+00  0.14534270710E+04  0.14534270710E+04  0.25500000920E-02 0.  1.
       -2   -1    0    0    0  501  0.00000000000E+00  0.00000000000E+00 -0.13488133351E+04  0.13488133351E+04  0.25500000920E-02 0. -1.
    10030    2    1    2    0    0  0.00000000000E+00  0.00000000000E+00  0.10461373595E+03  0.28022404061E+04  0.28002869960E+04 0.  0.
        2    1    3    3  502    0  0.60730878645E+03  0.39952334502E+02  0.13141312220E+04  0.14482268537E+04  0.25500000920E-02 0.  1.
       -2    1    3    3    0  502 -0.60730878645E+03 -0.39952334502E+02 -0.12095174860E+04  0.13540135524E+04  0.25500000920E-02 0. -1.
</event>
<event>
 5   0  0.1357902E-07  0.2799507E+04  0.7818609E-02  0.8303421E-01
        1   -1    0    0  501    0  0.00000000000E+00  0.00000000000E+00  0.17238933724E+04  0.17238933724E+04  0.50400001928E-02 0. -1.
       -1   -1    0    0    0  501  0.00000000000E+00  0.00000000000E+00 -0.11365611257E+04  0.11365611257E+04  0.50400001928E-02 0.  1.
    10030    2    1    2    0    0  0.00000000000E+00  0.00000000000E+00  0.58733224664E+03  0.28604544981E+04  0.27995072366E+04 0.  0.
        4    1    3    3  502    0  0.12806021887E+04  0.56280300500E+03  0.34596033320E+03  0.14409647300E+04  0.12699999809E+01 0.  1.
       -4    1    3    3    0  502 -0.12806021887E+04 -0.56280300500E+03  0.24137191344E+03  0.14194897681E+04  0.12699999809E+01 0. -1.
</event>
<event>
 5   0  0.3502141E-07  0.2799638E+04  0.7818609E-02  0.8303381E-01
       -2   -1    0    0    0  501  0.00000000000E+00  0.00000000000E+00  0.17858492176E+04  0.17858492176E+04  0.25500000920E-02 0. -1.
        2   -1    0    0  501    0  0.00000000000E+00  0.00000000000E+00 -0.10972329919E+04  0.10972329919E+04  0.25500000920E-02 0.  1.
    10030    2    1    2    0    0  0.00000000000E+00  0.00000000000E+00  0.68861622578E+03  0.28830822095E+04  0.27996376052E+04 0.  0.
        3    1    3    3  502    0 -0.50888759087E+03 -0.67682079656E+03  0.14921785414E+04  0.17157067874E+04  0.10100000352E+00 0. -1.
       -3    1    3    3    0  502  0.50888759087E+03  0.67682079656E+03 -0.80356231562E+03  0.11673754221E+04  0.10100000352E+00 0.  1.
</event>
<event>
 5   0  0.1346049E-07  0.2800116E+04  0.7818609E-02  0.8303232E-01
       -1   -1    0    0    0  501  0.00000000000E+00  0.00000000000E+00  0.11338460801E+04  0.11338460801E+04  0.50400001928E-02 0. -1.
        1   -1    0    0  501    0  0.00000000000E+00  0.00000000000E+00 -0.17287730826E+04  0.17287730826E+04  0.50400001928E-02 0.  1.
    10030    2    1    2    0    0  0.00000000000E+00  0.00000000000E+00 -0.59492700257E+03  0.28626191627E+04  0.28001161284E+04 0.  0.
        1    1    3    3  502    0  0.13796910466E+04  0.71779188714E+02 -0.52938171501E+03  0.14795082414E+04  0.50400001928E-02 0. -1.
       -1    1    3    3    0  502 -0.13796910466E+04 -0.71779188714E+02 -0.65545287565E+02  0.13831109214E+04  0.50400001928E-02 0.  1.
</event>
<event>
 5   0  0.3502141E-07  0.2799712E+04  0.7818609E-02  0.8303358E-01
       -2   -1    0    0    0  501  0.00000000000E+00  0.00000000000E+00  0.23508431271E+04  0.23508431271E+04  0.25500000920E-02 0.  1.
        2   -1    0    0  501    0  0.00000000000E+00  0.00000000000E+00 -0.83357202741E+03  0.83357202741E+03  0.25500000920E-02 0. -1.
    10030    2    1    2    0    0  0.00000000000E+00  0.00000000000E+00  0.15172710997E+04  0.31844151545E+04  0.27997121792E+04 0.  0.
        3    1    3    3  502    0  0.10803548737E+04  0.74322513257E+03  0.20136734426E+03  0.13266872534E+04  0.10100000352E+00 0. -1.
       -3    1    3    3    0  502 -0.10803548737E+04 -0.74322513257E+03  0.13159037554E+04  0.18577279011E+04  0.10100000352E+00 0.  1.
</event>
<event>
 5   0  0.1374680E-07  0.2799946E+04  0.7818609E-02  0.8303285E-01
       -1   -1    0    0    0  501  0.00000000000E+00  0.00000000000E+00  0.13791741991E+04  0.13791741991E+04  0.50400001928E-02 0. -1.
        1   -1    0    0  501    0  0.00000000000E+00  0.00000000000E+00 -0.14210852945E+04  0.14210852945E+04  0.50400001928E-02 0.  1.
    10030    2    1    2    0    0  0.00000000000E+00  0.00000000000E+00 -0.41911095364E+02  0.28002594936E+04  0.27999458372E+04 0.  0.
        3    1    3    3  502    0 -0.32509857482E+03 -0.14083704350E+03  0.13335964140E+04  0.13798563555E+04  0.10100000352E+00 0. -1.
       -3    1    3    3    0  502  0.32509857482E+03  0.14083704350E+03 -0.13755075094E+04  0.14204031381E+04  0.10100000352E+00 0.  1.
</event>
<event>
 5   0  0.1361741E-07  0.2797930E+04  0.7818609E-02  0.8303911E-01
        1   -1    0    0  501    0  0.00000000000E+00  0.00000000000E+00  0.15224238535E+04  0.15224238535E+04  0.50400001928E-02 0. -1.
       -1   -1    0    0    0  501  0.00000000000E+00  0.00000000000E+00 -0.12855175418E+04  0.12855175419E+04  0.50400001928E-02 0.  1.
    10030    2    1    2    0    0  0.00000000000E+00  0.00000000000E+00  0.23690631165E+03  0.28079413954E+04  0.27979296416E+04 0.  0.
        5    1    3    3  502    0  0.44592794818E+03 -0.11627434796E+04  0.75811630052E+03  0.14579391447E+04  0.46999998093E+01 0. -1.
       -5    1    3    3    0  502 -0.44592794818E+03  0.11627434796E+04 -0.52120998887E+03  0.13500022507E+04  0.46999998093E+01 0.  1.
</event>
<event>
 5   0  0.1374680E-07  0.2800462E+04  0.7818609E-02  0.8303125E-01
       -1   -1    0    0    0  501  0.00000000000E+00  0.00000000000E+00  0.56686753453E+03  0.56686753456E+03  0.50400001928E-02 0.  1.
        1   -1    0    0  501    0  0.00000000000E+00  0.00000000000E+00 -0.34587399371E+04  0.34587399371E+04  0.50400001928E-02 0. -1.
    10030    2    1    2    0    0  0.00000000000E+00  0.00000000000E+00 -0.28918724026E+04  0.40256074717E+04  0.28004623767E+04 0.  0.
        3    1    3    3  502    0 -0.82263102801E+03  0.82869191015E+03 -0.25567975763E+04  0.28108123286E+04  0.10100000352E+00 0. -1.
       -3    1    3    3    0  502  0.82263102801E+03 -0.82869191015E+03 -0.33507482625E+03  0.12147951431E+04  0.10100000352E+00 0.  1.
</event>
<event>
 5   0  0.3557628E-07  0.2798884E+04  0.7818609E-02  0.8303615E-01
       -2   -1    0    0    0  501  0.00000000000E+00  0.00000000000E+00  0.15490988868E+04  0.15490988868E+04  0.25500000920E-02 0.  1.
        2   -1    0    0  501    0  0.00000000000E+00  0.00000000000E+00 -0.12642429881E+04  0.12642429881E+04  0.25500000920E-02 0. -1.
    10030    2    1    2    0    0  0.00000000000E+00  0.00000000000E+00  0.28485589872E+03  0.28133418749E+04  0.27988836386E+04 0.  0.
        5    1    3    3  502    0 -0.13254367024E+04 -0.44440968862E+03  0.20704761466E+03  0.14132137942E+04  0.46999998093E+01 0. -1.
       -5    1    3    3    0  502  0.13254367024E+04  0.44440968862E+03  0.77808284059E+02  0.14001280807E+04  0.46999998093E+01 0.  1.
</event>
<event>
 5   0  0.3522569E-07  0.2815084E+04  0.7818609E-02  0.8298601E-01
        2   -1    0    0  501    0  0.00000000000E+00  0.00000000000E+00  0.12817274777E+04  0.12817274777E+04  0.25500000920E-02 0.  1.
       -2   -1    0    0    0  501  0.00000000000E+00  0.00000000000E+00 -0.15457068272E+04  0.15457068272E+04  0.25500000920E-02 0. -1.
    10030    2    1    2    0    0  0.00000000000E+00  0.00000000000E+00 -0.26397934946E+03  0.28274343049E+04  0.28150843063E+04 0.  0.
        1    1    3    3  502    0 -0.63611670830E+03 -0.58688421081E+03 -0.12468581428E+04  0.15178052483E+04  0.50400001928E-02 0.  1.
       -1    1    3    3    0  502  0.63611670830E+03  0.58688421081E+03  0.98287879330E+03  0.13096290566E+04  0.50400001928E-02 0. -1.
</event>
<event>
 5   0  0.3522569E-07  0.2803317E+04  0.7818609E-02  0.8302239E-01
        2   -1    0    0  501    0  0.00000000000E+00  0.00000000000E+00  0.25112970337E+04  0.25112970337E+04  0.25500000920E-02 0.  1.
       -2   -1    0    0    0  501  0.00000000000E+00  0.00000000000E+00 -0.78232344518E+03  0.78232344518E+03  0.25500000920E-02 0. -1.
    10030    2    1    2    0    0  0.00000000000E+00  0.00000000000E+00  0.17289735885E+04  0.32936204789E+04  0.28033169976E+04 0.  0.
        1    1    3    3  502    0 -0.46116679268E+03 -0.21433440330E+03 -0.67011250000E+03  0.84122815561E+03  0.50400001928E-02 0. -1.
       -1    1    3    3    0  502  0.46116679268E+03  0.21433440330E+03  0.23990860885E+04  0.24523923233E+04  0.50400001928E-02 0.  1.
</event>
<event>
 5   0  0.1366235E-07  0.2800411E+04  0.7818609E-02  0.8303141E-01
       -1   -1    0    0    0  501  0.00000000000E+00  0.00000000000E+00  0.89412343114E+03  0.89412343116E+03  0.50400001928E-02 0.  1.
        1   -1    0    0  501    0  0.00000000000E+00  0.00000000000E+00 -0.21927348770E+04  0.21927348770E+04  0.50400001928E-02 0. -1.
    10030    2    1    2    0    0  0.00000000000E+00  0.00000000000E+00 -0.12986114458E+04  0.30868583081E+04  0.28004111354E+04 0.  0.
        2    1    3    3  502    0 -0.27700131996E+03 -0.13718158769E+04 -0.60041705918E+03  0.15228621659E+04  0.25500000920E-02 0. -1.
       -2    1    3    3    0  502  0.27700131996E+03  0.13718158769E+04 -0.69819438665E+03  0.15639961422E+04  0.25500000920E-02 0.  1.
</event>
<event>
 5   0  0.1173363E-07  0.2797754E+04  0.7818609E-02  0.8303966E-01
        4   -1    0    0  501    0  0.00000000000E+00  0.00000000000E+00  0.15013010970E+04  0.15013016341E+04  0.12699999809E+01 0. -1.
       -4   -1    0    0    0  501  0.00000000000E+00  0.00000000000E+00 -0.13034396870E+04  0.13034403057E+04  0.12699999809E+01 0.  1.
    10030    2    1    2    0    0  0.00000000000E+00  0.00000000000E+00  0.19786140996E+03  0.28047419399E+04  0.27977541371E+04 0.  0.
        3    1    3    3  502    0  0.10711899752E+04  0.63312341756E+03 -0.54185573609E+03  0.13571664872E+04  0.10100000352E+00 0.  1.
       -3    1    3    3    0  502 -0.10711899752E+04 -0.63312341756E+03  0.73971714605E+03  0.14475754527E+04  0.10100000352E+00 0. -1.
</event>
<event>
 5   0  0.3571498E-07  0.2801543E+04  0.7818609E-02  0.8302789E-01
       -2   -1    0    0    0  501  0.00000000000E+00  0.00000000000E+00  0.11548388262E+04  0.11548388262E+04  0.25500000920E-02 0.  1.
        2   -1    0    0  501    0  0.00000000000E+00  0.00000000000E+00 -0.16990780020E+04  0.16990780020E+04  0.25500000920E-02 0. -1.
    10030    2    1    2    0    0  0.00000000000E+00  0.00000000000E+00 -0.54423917579E+03  0.28539168281E+04  0.28015433214E+04 0.  0.
        2    1    3    3  502    0 -0.62673890969E+03 -0.86903055674E+03  0.64704858217E+03  0.12516739340E+04  0.25500000920E-02 0.  1.
       -2    1    3    3    0  502  0.62673890969E+03  0.86903055674E+03 -0.11912877580E+04  0.16022428941E+04  0.25500000920E-02 0. -1.
</event>
<event>
 5   0  0.1361741E-07  0.2800521E+04  0.7818609E-02  0.8303107E-01
       -1   -1    0    0    0  501  0.00000000000E+00  0.00000000000E+00  0.16559098689E+04  0.16559098689E+04  0.50400001928E-02 0.  1.
        1   -1    0    0  501    0  0.00000000000E+00  0.00000000000E+00 -0.11840795588E+04  0.11840795588E+04  0.50400001928E-02 0. -1.
    10030    2    1    2    0    0  0.00000000000E+00  0.00000000000E+00  0.47183031002E+03  0.28399894277E+04  0.28005206852E+04 0.  0.
        5    1    3    3  502    0  0.46877918745E+03  0.11138002861E+04  0.95327560285E+03  0.15391755809E+04  0.46999998093E+01 0.  1.
       -5    1    3    3    0  502 -0.46877918745E+03 -0.11138002861E+04 -0.48144529283E+03  0.13008138468E+04  0.46999998093E+01 0. -1.
</event>
<event>
 5   0  0.1357902E-07  0.2798162E+04  0.7818609E-02  0.8303839E-01
       -1   -1    0    0    0  501  0.00000000000E+00  0.00000000000E+00  0.11155730472E+04  0.11155730472E+04  0.50400001928E-02 0.  1.
        1   -1    0    0  501    0  0.00000000000E+00  0.00000000000E+00 -0.17546392342E+04  0.17546392343E+04  0.50400001928E-02 0. -1.
    10030    2    1    2    0    0  0.00000000000E+00  0.00000000000E+00 -0.63906618705E+03  0.28702122815E+04  0.27981624237E+04 0.  0.
        4    1    3    3  502    0 -0.11323907140E+04 -0.63764264919E+02 -0.11598037357E+04  0.16221963288E+04  0.12699999809E+01 0. -1.
       -4    1    3    3    0  502  0.11323907140E+04  0.63764264919E+02  0.52073754867E+03  0.12480159527E+04  0.12699999809E+01 0.  1.
</event>
<event>
 5   0  0.1374680E-07  0.2799959E+04  0.7818609E-02  0.8303281E-01
       -1   -1    0    0    0  501  0.00000000000E+00  0.00000000000E+00  0.16528773531E+04  0.16528773531E+04  0.50400001928E-02 0. -1.
        1   -1    0    0  501    0  0.00000000000E+00  0.00000000000E+00 -0.11857764821E+04  0.11857764821E+04  0.50400001928E-02 0.  1.
    10030    2    1    2    0    0  0.00000000000E+00  0.00000000000E+00  0.46710087100E+03  0.28386538353E+04  0.27999593520E+04 0.  0.
        3    1    3    3  502    0 -0.11731765930E+03 -0.12573097921E+04 -0.37924609287E+03  0.13184911663E+04  0.10100000352E+00 0.  1.
       -3    1    3    3    0  502  0.11731765930E+03  0.12573097921E+04  0.84634696387E+03  0.15201626689E+04  0.10100000352E+00 0. -1.
</event>
<event>
 5   0  0.1361741E-07  0.2803877E+04  0.7818609E-02  0.8302066E-01
        1   -1    0    0  501    0  0.00000000000E+00  0.00000000000E+00  0.79347813664E+03  0.79347813665E+03  0.50400001928E-02 0.  1.
       -1   -1    0    0    0  501  0.00000000000E+00  0.00000000000E+00 -0.24769826138E+04  0.24769826138E+04  0.50400001928E-02 0. -1.
    10030    2    1    2    0    0  0.00000000000E+00  0.00000000000E+00 -0.16835044771E+04  0.32704607504E+04  0.28038769937E+04 0.  0.
        5    1    3    3  502    0 -0.18961974648E+03  0.36068807693E+03 -0.24063718314E+04  0.24406349621E+04  0.46999998093E+01 0. -1.
       -5    1    3    3    0  502  0.18961974648E+03 -0.36068807693E+03  0.72286735429E+03  0.82982578834E+03  0.46999998093E+01 0.  1.
</event>
<event>
 5   0  0.3571498E-07  0.2801907E+04  0.7818609E-02  0.8302677E-01
        2   -1    0    0  501    0  0.00000000000E+00  0.00000000000E+00  0.20740461643E+04  0.20740461643E+04  0.25500000920E-02 0.  1.
       -2   -1    0    0    0  501  0.00000000000E+00  0.00000000000E+00 -0.94630019705E+03  0.94630019705E+03  0.25500000920E-02 0. -1.
    10030    2    1    2    0    0  0.00000000000E+00  0.00000000000E+00  0.11277459673E+04  0.30203463614E+04  0.28019067037E+04 0.  0.
        2    1    3    3  502    0  0.67907013754E+03  0.35640616953E+03 -0.69992256921E+03  0.10382934134E+04  0.25500000920E-02 0. -1.
       -2    1    3    3    0  502 -0.67907013754E+03 -0.35640616953E+03  0.18276685365E+04  0.19820529480E+04  0.25500000920E-02 0.  1.
</event>
<event>
 5   0  0.3571498E-07  0.2800913E+04  0.7818609E-02  0.8302985E-01
       -2   -1    0    0    0  501  0.00000000000E+00  0.00000000000E+00  0.21669682836E+04  0.21669682836E+04  0.25500000920E-02 0. -1.
        2   -1    0    0  501    0  0.00000000000E+00  0.00000000000E+00 -0.90507919711E+03  0.90507919711E+03  0.25500000920E-02 0.  1.
    10030    2    1    2    0    0  0.00000000000E+00  0.00000000000E+00  0.12618890864E+04  0.30720474807E+04  0.28009126472E+04 0.  0.
        2    1    3    3  502    0  0.44618909118E+03  0.82833689281E+02 -0.82219716514E+03  0.93912422157E+03  0.25500000920E-02 0.  1.
       -2    1    3    3    0  502 -0.44618909118E+03 -0.82833689281E+02  0.20840862516E+04  0.21329232591E+04  0.25500000920E-02 0. -1.
</event>
<event>
 5   0  0.1357902E-07  0.2806099E+04  0.7818609E-02  0.8301377E-01
        1   -1    0    0  501    0  0.00000000000E+00  0.00000000000E+00  0.24112438931E+04  0.24112438931E+04  0.50400001928E-02 0. -1.
       -1   -1    0    0    0  501  0.00000000000E+00  0.00000000000E+00 -0.81640372233E+03  0.81640372234E+03  0.50400001928E-02 0.  1.
    10030    2    1    2    0    0  0.00000000000E+00  0.00000000000E+00  0.15948401708E+04  0.32276476155E+04  0.28060994208E+04 0.  0.
        4    1    3    3  502    0 -0.96196843333E+03  0.91200154481E+03  0.26854537641E+03  0.13524970671E+04  0.12699999809E+01 0.  1.
       -4    1    3    3    0  502  0.96196843333E+03 -0.91200154481E+03  0.13262947944E+04  0.18751505483E+04  0.12699999809E+01 0. -1.
</event>
<event>
 5   0  0.1346049E-07  0.2800122E+04  0.7818609E-02  0.8303230E-01
       -1   -1    0    0    0  501  0.00000000000E+00  0.00000000000E+00  0.75172827022E+03  0.75172827023E+03  0.50400001928E-02 0.  1.
        1   -1    0    0  501    0  0.00000000000E+00  0.00000000000E+00 -0.26075525913E+04  0.26075525913E+04  0.50400001928E-02 0. -1.
    10030    2    1    2    0    0  0.00000000000E+00  0.00000000000E+00 -0.18558243211E+04  0.33592808615E+04  0.28001221395E+04 0.  0.
        1    1    3    3  502    0 -0.11396639132E+04 -0.28987956934E+03 -0.18394459073E+04  0.21832144296E+04  0.50400001928E-02 0. -1.
       -1    1    3    3    0  502  0.11396639132E+04  0.28987956934E+03 -0.16378413798E+02  0.11760664319E+04  0.50400001928E-02 0.  1.
</event>
<event>
 5   0  0.1346049E-07  0.2799618E+04  0.7818609E-02  0.8303387E-01
        1   -1    0    0  501    0  0.00000000000E+00  0.00000000000E+00  0.12185670941E+04  0.12185670941E+04  0.50400001928E-02 0.  1.
       -1   -1    0    0    0  501  0.00000000000E+00  0.00000000000E+00 -0.16080071117E+04  0.16080071117E+04  0.50400001928E-02 0. -1.
    10030    2    1    2    0    0  0.00000000000E+00  0.00000000000E+00 -0.38944001759E+03  0.28265742057E+04  0.27996175120E+04 0.  0.
        1    1    3    3  502    0  0.30604855806E+03  0.13656082365E+04 -0.16421354974E+03  0.14090839810E+04  0.50400001928E-02 0.  1.
       -1    1    3    3    0  502 -0.30604855806E+03 -0.13656082365E+04 -0.22522646785E+03  0.14174902248E+04  0.50400001928E-02 0. -1.
</event>
<event>
 5   0  0.1361741E-07  0.2800342E+04  0.7818609E-02  0.8303162E-01
       -1   -1    0    0    0  501  0.00000000000E+00  0.00000000000E+00  0.10834173195E+04  0.10834173195E+04  0.50400001928E-02 0. -1.
        1   -1    0    0  501    0  0.00000000000E+00  0.00000000000E+00 -0.18095328730E+04  0.18095328730E+04  0.50400001928E-02 0.  1.
    10030    2    1    2    0    0  0.00000000000E+00  0.00000000000E+00 -0.72611555350E+03  0.28929501926E+04  0.28003423040E+04 0.  0.
        5    1    3    3  502    0  0.76817949137E+03  0.79683955374E+03 -0.12489744520E+04  0.16688356052E+04  0.46999998093E+01 0.  1.
       -5    1    3    3    0  502 -0.76817949137E+03 -0.79683955374E+03  0.52285889848E+03  0.12241145874E+04  0.46999998093E+01 0. -1.
</event>
<event>
 5   0  0.3406920E-07  0.2800330E+04  0.7818609E-02  0.8303166E-01
       -2   -1    0    0    0  501  0.00000000000E+00  0.00000000000E+00  0.98355882166E+03  0.98355882167E+03  0.25500000920E-02 0. -1.
        2   -1    0    0  501    0  0.00000000000E+00  0.00000000000E+00 -0.19932327416E+04  0.19932327416E+04  0.25500000920E-02 0.  1.
    10030    2    1    2    0    0  0.00000000000E+00  0.00000000000E+00 -0.10096739200E+04  0.29767915633E+04  0.28003297282E+04 0.  0.
        4    1    3    3  502    0  0.14966366435E+03 -0.13547393457E+04 -0.16410448304E+03  0.13728254811E+04  0.12699999809E+01 0. -1.
       -4    1    3    3    0  502 -0.14966366435E+03  0.13547393457E+04 -0.84556943692E+03  0.16039660822E+04  0.12699999809E+01 0.  1.
</event>
<event>
 5   0  0.3502141E-07  0.2800830E+04  0.7818609E-02  0.8303011E-01
       -2   -1    0    0    0  501  0.00000000000E+00  0.00000000000E+00  0.82294150774E+03  0.82294150775E+03  0.25500000920E-02 0.  1.
        2   -1    0    0  501    0  0.00000000000E+00  0.00000000000E+00 -0.23831126195E+04  0.23831126195E+04  0.25500000920E-02 0. -1.
    10030    2    1    2    0    0  0.00000000000E+00  0.00000000000E+00 -0.15601711117E+04  0.32060541272E+04  0.28008300857E+04 0.  0.
        3    1    3    3  502    0  0.12658756859E+04  0.45007654188E+03 -0.32775278542E+03  0.13829070989E+04  0.10100000352E+00 0.  1.
       -3    1    3    3    0  502 -0.12658756859E+04 -0.45007654188E+03 -0.12324183263E+04  0.18231470283E+04  0.10100000352E+00 0. -1.
</event>
<event>
 5   0  0.3522569E-07  0.2799001E+04  0.7818609E-02  0.8303578E-01
       -2   -1    0    0    0  501  0.00000000000E+00  0.00000000000E+00  0.82000426283E+03  0.82000426283E+03  0.25500000920E-02 0.  1.
        2   -1    0    0  501    0  0.00000000000E+00  0.00000000000E+00 -0.23885266308E+04  0.23885266308E+04  0.25500000920E-02 0. -1.
    10030    2    1    2    0    0  0.00000000000E+00  0.00000000000E+00 -0.15685223680E+04  0.32085308936E+04  0.27990012641E+04 0.  0.
        1    1    3    3  502    0  0.66721770942E+03  0.86909257184E+03  0.21382160093E+03  0.11163427105E+04  0.50400001928E-02 0.  1.
       -1    1    3    3    0  502 -0.66721770942E+03 -0.86909257184E+03 -0.17823439689E+04  0.20921881831E+04  0.50400001928E-02 0. -1.
</event>
<event>
 5   0  0.3502141E-07  0.2816856E+04  0.7818609E-02  0.8298054E-01
        2   -1    0    0  501    0  0.00000000000E+00  0.00000000000E+00  0.14295612038E+04  0.14295612038E+04  0.25500000920E-02 0.  1.
       -2   -1    0    0    0  501  0.00000000000E+00  0.00000000000E+00 -0.13876067771E+04  0.13876067771E+04  0.25500000920E-02 0. -1.
    10030    2    1    2    0    0  0.00000000000E+00  0.00000000000E+00  0.41954426617E+02  0.28171679809E+04  0.28168555623E+04 0.  0.
        3    1    3    3  502    0  0.49787765201E+03  0.51304182746E+03  0.12346087048E+04  0.14266578908E+04  0.10100000352E+00 0.  1.
       -3    1    3    3    0  502 -0.49787765201E+03 -0.51304182746E+03 -0.11926542782E+04  0.13905100901E+04  0.10100000352E+00 0. -1.
</event>
<event>
 5   0  0.3557628E-07  0.2799537E+04  0.7818609E-02  0.8303412E-01
        2   -1    0    0  501    0  0.00000000000E+00  0.00000000000E+00  0.25142773891E+04  0.25142773891E+04  0.25500000920E-02 0.  1.
       -2   -1    0    0    0  501  0.00000000000E+00  0.00000000000E+00 -0.77929000683E+03  0.77929000684E+03  0.25500000920E-02 0. -1.
    10030    2    1    2    0    0  0.00000000000E+00  0.00000000000E+00  0.17349873823E+04  0.32935673960E+04  0.27995365643E+04 0.  0.
        5    1    3    3  502    0 -0.75282721189E+03  0.11428532543E+04  0.12134370985E+04  0.18290199709E+04  0.46999998093E+01 0.  1.
       -5    1    3    3    0  502  0.75282721189E+03 -0.11428532543E+04  0.52155028385E+03  0.14645474251E+04  0.46999998093E+01 0. -1.
</event>
<event>
 5   0  0.1173363E-07  0.2800258E+04  0.7818609E-02  0.8303188E-01
       -4   -1    0    0    0  501  0.00000000000E+00  0.00000000000E+00  0.13452637003E+04  0.13452642998E+04  0.12699999809E+01 0.  1.
        4   -1    0    0  501    0  0.00000000000E+00  0.00000000000E+00 -0.14572310315E+04  0.14572315850E+04  0.12699999809E+01 0. -1.
    10030    2    1    2    0    0  0.00000000000E+00  0.00000000000E+00 -0.11196733127E+03  0.28024958847E+04  0.28002582918E+04 0.  0.
        4    1    3    3  502    0  0.62608332147E+03 -0.82318459696E+03  0.88856432520E+03  0.13635106817E+04  0.12699999809E+01 0.  1.
       -4    1    3    3    0  502 -0.62608332147E+03  0.82318459696E+03 -0.10005316565E+04  0.14389852030E+04  0.12699999809E+01 0. -1.
</event>
<event>
 5   0  0.1374680E-07  0.2799992E+04  0.7818609E-02  0.8303271E-01
        1   -1    0    0  501    0  0.00000000000E+00  0.00000000000E+00  0.18569961481E+04  0.18569961481E+04  0.50400001928E-02 0.  1.
       -1   -1    0    0    0  501  0.00000000000E+00  0.00000000000E+00 -0.10554621523E+04  0.10554621523E+04  0.50400001928E-02 0. -1.
    10030    2    1    2    0    0  0.00000000000E+00  0.00000000000E+00  0.80153399579E+03  0.29124583004E+04  0.27999922509E+04 0.  0.
        3    1    3    3  502    0 -0.35533477455E+03 -0.98419178713E+03 -0.56669575034E+03  0.11899749407E+04  0.10100000352E+00 0. -1.
       -3    1    3    3    0  502  0.35533477455E+03  0.98419178713E+03  0.13682297461E+04  0.17224833596E+04  0.10100000352E+00 0.  1.
</event>
<event>
 5   0  0.3522569E-07  0.2798566E+04  0.7818609E-02  0.8303714E-01
        2   -1    0    0  501    0  0.00000000000E+00  0.00000000000E+00  0.79355213802E+03  0.79355213803E+03  0.25500000920E-02 0.  1.
       -2   -1    0    0    0  501  0.00000000000E+00  0.00000000000E+00 -0.24673783472E+04  0.24673783472E+04  0.25500000920E-02 0. -1.
    10030    2    1    2    0    0  0.00000000000E+00  0.00000000000E+00 -0.16738262092E+04  0.32609304852E+04  0.27985663206E+04 0.  0.
        1    1    3    3  502    0  0.10822268830E+04 -0.63826868044E+03 -0.15546242569E+04  0.19988643062E+04  0.50400001928E-02 0. -1.
       -1    1    3    3    0  502 -0.10822268830E+04  0.63826868044E+03 -0.11920195227E+03  0.12620661790E+04  0.50400001928E-02 0.  1.
</event>
<event>
 5   0  0.1374680E-07  0.2800282E+04  0.7818609E-02  0.8303181E-01
        1   -1    0    0  501    0  0.00000000000E+00  0.00000000000E+00  0.13690488286E+04  0.13690488287E+04  0.50400001928E-02 0. -1.
       -1   -1    0    0    0  501  0.00000000000E+00  0.00000000000E+00 -0.14319393493E+04  0.14319393493E+04  0.50400001928E-02 0.  1.
    10030    2    1    2    0    0  0.00000000000E+00  0.00000000000E+00 -0.62890520614E+02  0.28009881779E+04  0.28002820492E+04 0.  0.
        3    1    3    3  502    0  0.13955816997E+04 -0.10921869881E+03 -0.60050964697E+02  0.14011363722E+04  0.10100000352E+00 0.  1.
       -3    1    3    3    0  502 -0.13955816997E+04  0.10921869881E+03 -0.28395559174E+01  0.13998518058E+04  0.10100000352E+00 0. -1.
</event>
<event>
 5   0  0.1366235E-07  0.2799251E+04  0.7818609E-02  0.8303501E-01
        1   -1    0    0  501    0  0.00000000000E+00  0.00000000000E+00  0.11392179931E+04  0.11392179931E+04  0.50400001928E-02 0. -1.
       -1   -1    0    0    0  501  0.00000000000E+00  0.00000000000E+00 -0.17195582015E+04  0.17195582015E+04  0.50400001928E-02 0.  1.
    10030    2    1    2    0    0  0.00000000000E+00  0.00000000000E+00 -0.58034020845E+03  0.28587761946E+04  0.27992510736E+04 0.  0.
        2    1    3    3  502    0 -0.82212275815E+02  0.38684888060E+03  0.10809668844E+04  0.11510431442E+04  0.25500000920E-02 0. -1.
       -2    1    3    3    0  502  0.82212275815E+02 -0.38684888060E+03 -0.16613070928E+04  0.17077330504E+04  0.25500000920E-02 0.  1.
</event>
<event>
 5   0  0.1357902E-07  0.2800161E+04  0.7818609E-02  0.8303218E-01
        1   -1    0    0  501    0  0.00000000000E+00  0.00000000000E+00  0.23448475139E+04  0.23448475140E+04  0.50400001928E-02 0. -1.
       -1   -1    0    0    0  501  0.00000000000E+00  0.00000000000E+00 -0.83597131953E+03  0.83597131955E+03  0.50400001928E-02 0.  1.
    10030    2    1    2    0    0  0.00000000000E+00  0.00000000000E+00  0.15088761944E+04  0.31808188335E+04  0.28001609028E+04 0.  0.
        4    1    3    3  502    0  0.34586429093E+03 -0.12345913353E+04  0.13933844974E+04  0.18935046458E+04  0.12699999809E+01 0. -1.
       -4    1    3    3    0  502 -0.34586429093E+03  0.12345913353E+04  0.11549169700E+03  0.12873141877E+04  0.12699999809E+01 0.  1.
</event>
<event>
 5   0  0.3406920E-07  0.2800675E+04  0.7818609E-02  0.8303059E-01
       -2   -1    0    0    0  501  0.00000000000E+00  0.00000000000E+00  0.96237103300E+03  0.96237103300E+03  0.25500000920E-02 0. -1.
        2   -1    0    0  501    0  0.00000000000E+00  0.00000000000E+00 -0.20376180491E+04  0.20376180491E+04  0.25500000920E-02 0.  1.
    10030    2    1    2    0    0  0.00000000000E+00  0.00000000000E+00 -0.10752470161E+04  0.29999890821E+04  0.28006746236E+04 0.  0.
        4    1    3    3  502    0  0.21885616374E+03 -0.13648188016E+04 -0.29735104718E+03  0.14138768121E+04  0.12699999809E+01 0. -1.
       -4    1    3    3    0  502 -0.21885616374E+03  0.13648188016E+04 -0.77789596893E+03  0.15861122700E+04  0.12699999809E+01 0.  1.
</event>
<event>
 5   0  0.1361741E-07  0.2799314E+04  0.7818609E-02  0.8303481E-01
       -1   -1    0    0    0  501  0.00000000000E+00  0.00000000000E+00  0.21320129668E+04  0.21320129668E+04  0.50400001928E-02 0.  1.
        1   -1    0    0  501    0  0.00000000000E+00  0.00000000000E+00 -0.91886884440E+03  0.91886884441E+03  0.50400001928E-02 0. -1.
    10030    2    1    2    0    0  0.00000000000E+00  0.00000000000E+00  0.12131441224E+04  0.30508818113E+04  0.27993144097E+04 0.  0.
        5    1    3    3  502    0  0.31461516708E+03 -0.36820278482E+03 -0.82462865359E+03  0.95634225068E+03  0.46999998093E+01 0. -1.
       -5    1    3    3    0  502 -0.31461516708E+03  0.36820278482E+03  0.20377727760E+04  0.20945395606E+04  0.46999998093E+01 0.  1.
</event>
<event>
 5   0  0.1361741E-07  0.2797606E+04  0.7818609E-02  0.8304012E-01
        1   -1    0    0  501    0  0.00000000000E+00  0.00000000000E+00  0.17081504229E+04  0.17081504229E+04  0.50400001928E-02 0. -1.
       -1   -1    0    0    0  501  0.00000000000E+00  0.00000000000E+00 -0.11454787042E+04  0.11454787042E+04  0.50400001928E-02 0.  1.
    10030    2    1    2    0    0  0.00000000000E+00  0.00000000000E+00  0.56267171871E+03  0.28536291272E+04  0.27976060717E+04 0.  0.
        5    1    3    3  502    0 -0.23273006461E+03  0.90385496129E+03 -0.78140660832E+03  0.12172655633E+04  0.46999998093E+01 0.  1.
       -5    1    3    3    0  502  0.23273006461E+03 -0.90385496129E+03  0.13440783270E+04  0.16363635639E+04  0.46999998093E+01 0. -1.
</event>
<event>
 5   0  0.1361741E-07  0.2800749E+04  0.7818609E-02  0.8303036E-01
        1   -1    0    0  501    0  0.00000000000E+00  0.00000000000E+00  0.19762943151E+04  0.19762943151E+04  0.50400001928E-02 0.  1.
       -1   -1    0    0    0  501  0.00000000000E+00  0.00000000000E+00 -0.99228570627E+03  0.99228570629E+03  0.50400001928E-02 0. -1.
    10030    2    1    2    0    0  0.00000000000E+00  0.00000000000E+00  0.98400860882E+03  0.29685800214E+04  0.28007489000E+04 0.  0.
        5    1    3    3  502    0  0.10812028163E+04  0.23960268412E+03  0.14004630941E+04  0.17854209431E+04  0.46999998093E+01 0.  1.
       -5    1    3    3    0  502 -0.10812028163E+04 -0.23960268412E+03 -0.41645448532E+03  0.11831590783E+04  0.46999998093E+01 0. -1.
</event>
<event>
 5   0  0.3557628E-07  0.2802336E+04  0.7818609E-02  0.8302544E-01
       -2   -1    0    0    0  501  0.00000000000E+00  0.00000000000E+00  0.92798648618E+03  0.92798648619E+03  0.25500000920E-02 0. -1.
        2   -1    0    0  501    0  0.00000000000E+00  0.00000000000E+00 -0.21156247090E+04  0.21156247090E+04  0.25500000920E-02 0.  1.
    10030    2    1    2    0    0  0.00000000000E+00  0.00000000000E+00 -0.11876382229E+04  0.30436111952E+04  0.28023355544E+04 0.  0.
        5    1    3    3  502    0 -0.30958754788E+03 -0.12591195693E+04 -0.17038141692E+02  0.12967416581E+04  0.46999998093E+01 0.  1.
       -5    1    3    3    0  502  0.30958754788E+03  0.12591195693E+04 -0.11706000812E+04  0.17468695371E+04  0.46999998093E+01 0. -1.
</event>
<event>
 5   0  0.3522569E-07  0.2800029E+04  0.7818609E-02  0.8303259E-01
       -2   -1    0    0    0  501  0.00000000000E+00  0.00000000000E+00  0.20023336046E+04  0.20023336046E+04  0.25500000920E-02 0.  1.
        2   -1    0    0  501    0  0.00000000000E+00  0.00000000000E+00 -0.97887846817E+03  0.97887846818E+03  0.25500000920E-02 0. -1.
    10030    2    1    2    0    0  0.00000000000E+00  0.00000000000E+00  0.10234551364E+04  0.29812120728E+04  0.28000294653E+04 0.  0.
        1    1    3    3  502    0  0.10981308107E+04  0.48523536025E+02 -0.41143909586E+03  0.11736813624E+04  0.50400001928E-02 0. -1.
       -1    1    3    3    0  502 -0.10981308107E+04 -0.48523536025E+02  0.14348942323E+04  0.18075307103E+04  0.50400001928E-02 0.  1.
</event>
<event>
 5   0  0.1366235E-07  0.2797846E+04  0.7818609E-02  0.8303937E-01
       -1   -1    0    0    0  501  0.00000000000E+00  0.00000000000E+00  0.13543397953E+04  0.13543397954E+04  0.50400001928E-02 0. -1.
        1   -1    0    0  501    0  0.00000000000E+00  0.00000000000E+00 -0.14449741089E+04  0.14449741089E+04  0.50400001928E-02 0.  1.
    10030    2    1    2    0    0  0.00000000000E+00  0.00000000000E+00 -0.90634313538E+02  0.27993139042E+04  0.27978462709E+04 0.  0.
        2    1    3    3  502    0 -0.11186442672E+04 -0.64298843288E+03  0.49550946612E+03  0.13821464294E+04  0.25500000920E-02 0. -1.
       -2    1    3    3    0  502  0.11186442672E+04  0.64298843288E+03 -0.58614377966E+03  0.14171674748E+04  0.25500000920E-02 0.  1.
</event>
<event>
 5   0  0.3557628E-07  0.2800396E+04  0.7818609E-02  0.8303146E-01
       -2   -1    0    0    0  501  0.00000000000E+00  0.00000000000E+00  0.16887504677E+04  0.16887504677E+04  0.25500000920E-02 0. -1.
        2   -1    0    0  501    0  0.00000000000E+00  0.00000000000E+00 -0.11609493841E+04  0.11609493841E+04  0.25500000920E-02 0.  1.
    10030    2    1    2    0    0  0.00000000000E+00  0.00000000000E+00  0.52780108365E+03  0.28496998518E+04  0.28003955544E+04 0.  0.
        5    1    3    3  502    0 -0.92160057445E+03  0.57088666006E+03  0.11656584141E+04  0.15918670880E+04  0.46999998093E+01 0. -1.
       -5    1    3    3    0  502  0.92160057445E+03 -0.57088666006E+03 -0.63785733050E+03  0.12578327637E+04  0.46999998093E+01 0.  1.
</event>
<event>
 5   0  0.3522569E-07  0.2800546E+04  0.7818609E-02  0.8303099E-01
       -2   -1    0    0    0  501  0.00000000000E+00  0.00000000000E+00  0.11377128094E+04  0.11377128094E+04  0.25500000920E-02 0.  1.
        2   -1    0    0  501    0  0.00000000000E+00  0.00000000000E+00 -0.17234268009E+04  0.17234268009E+04  0.25500000920E-02 0. -1.
    10030    2    1    2    0    0  0.00000000000E+00  0.00000000000E+00 -0.58571399156E+03  0.28611396103E+04  0.28005461949E+04 0.  0.
        1    1    3    3  502    0  0.22901572828E+03 -0.84835528822E+03 -0.14066794564E+04  0.16585843337E+04  0.50400001928E-02 0. -1.
       -1    1    3    3    0  502 -0.22901572828E+03  0.84835528822E+03  0.82096546486E+03  0.12025552766E+04  0.50400001928E-02 0.  1.
</event>
<event>
 5   0  0.3522569E-07  0.2797446E+04  0.7818609E-02  0.8304062E-01
       -2   -1    0    0    0  501  0.00000000000E+00  0.00000000000E+00  0.15398298461E+04  0.15398298461E+04  0.25500000920E-02 0. -1.
        2   -1    0    0  501    0  0.00000000000E+00  0.00000000000E+00 -0.12705468089E+04  0.12705468089E+04  0.25500000920E-02 0.  1.
    10030    2    1    2    0    0  0.00000000000E+00  0.00000000000E+00  0.26928303721E+03  0.28103766549E+04  0.27974459045E+04 0.  0.
        1    1    3    3  502    0 -0.42140624808E+03  0.14102090196E+03  0.14670282294E+04  0.15328541831E+04  0.50400001928E-02 0. -1.
       -1    1    3    3    0  502  0.42140624808E+03 -0.14102090196E+03 -0.11977451922E+04  0.12775224719E+04  0.50400001928E-02 0.  1.
</event>
<event>
 5   0  0.3502141E-07  0.2788445E+04  0.7818609E-02  0.8306865E-01
        2   -1    0    0  501    0  0.00000000000E+00  0.00000000000E+00  0.14920854053E+04  0.14920854053E+04  0.25500000920E-02 0.  1.
       -2   -1    0    0    0  501  0.00000000000E+00  0.00000000000E+00 -0.13027781544E+04  0.13027781544E+04  0.25500000920E-02 0. -1.
    10030    2    1    2    0    0  0.00000000000E+00  0.00000000000E+00  0.18930725086E+03  0.27948635597E+04  0.27884449218E+04 0.  0.
        3    1    3    3  502    0 -0.50477711772E+02  0.10810682467E+04  0.97565342610E+03  0.14571054085E+04  0.10100000352E+00 0.  1.
       -3    1    3    3    0  502  0.50477711772E+02 -0.10810682467E+04 -0.78634617524E+03  0.13377581512E+04  0.10100000352E+00 0. -1.
</event>
<event>
 5   0  0.1357902E-07  0.2800262E+04  0.7818609E-02  0.8303187E-01
       -1   -1    0    0    0  501  0.00000000000E+00  0.00000000000E+00  0.14444391193E+04  0.14444391193E+04  0.50400001928E-02 0. -1.
        1   -1    0    0  501    0  0.00000000000E+00  0.00000000000E+00 -0.13571816444E+04  0.13571816444E+04  0.50400001928E-02 0.  1.
    10030    2    1    2    0    0  0.00000000000E+00  0.00000000000E+00  0.87257474894E+02  0.28016207637E+04  0.28002616015E+04 0.  0.
        4    1    3    3  502    0  0.76127206072E+02 -0.10416585440E+04  0.97656016668E+03  0.14298668630E+04  0.12699999809E+01 0. -1.
       -4    1    3    3    0  502 -0.76127206072E+02  0.10416585440E+04 -0.88930269179E+03  0.13717539008E+04  0.12699999809E+01 0.  1.
</event>
<event>
 5   0  0.1357902E-07  0.2800398E+04  0.7818609E-02  0.8303145E-01
       -1   -1    0    0    0  501  0.00000000000E+00  0.00000000000E+00  0.18967615161E+04  0.18967615162E+04  0.50400001928E-02 0.  1.
        1   -1    0    0  501    0  0.00000000000E+00  0.00000000000E+00 -0.10336337244E+04  0.10336337245E+04  0.50400001928E-02 0. -1.
    10030    2    1    2    0    0  0.00000000000E+00  0.00000000000E+00  0.86312779171E+03  0.29303952406E+04  0.28003975934E+04 0.  0.
        4    1    3    3  502    0  0.80508886017E+03  0.89880804721E+03  0.11748405061E+04  0.16841246409E+04  0.12699999809E+01 0.  1.
       -4    1    3    3    0  502 -0.80508886017E+03 -0.89880804721E+03 -0.31171271435E+03  0.12462705997E+04  0.12699999809E+01 0. -1.
</event>
<event>
 5   0  0.1346049E-07  0.2801746E+04  0.7818609E-02  0.8302727E-01
       -1   -1    0    0    0  501  0.00000000000E+00  0.00000000000E+00  0.98877279089E+03  0.98877279091E+03  0.50400001928E-02 0.  1.
        1   -1    0    0  501    0  0.00000000000E+00  0.00000000000E+00 -0.19847277919E+04  0.19847277919E+04  0.50400001928E-02 0. -1.
    10030    2    1    2    0    0  0.00000000000E+00  0.00000000000E+00 -0.99595500101E+03  0.29735005828E+04  0.28017457686E+04 0.  0.
        1    1    3    3  502    0 -0.20315330072E+03  0.13370696943E+04 -0.11032119426E+03  0.13569072912E+04  0.50400001928E-02 0.  1.
       -1    1    3    3    0  502  0.20315330072E+03 -0.13370696943E+04 -0.88563380675E+03  0.16165932916E+04  0.50400001928E-02 0. -1.
</event>
<event>
 5   0  0.3557628E-07  0.2800905E+04  0.7818609E-02  0.8302988E-01
        2   -1    0    0  501    0  0.00000000000E+00  0.00000000000E+00  0.24620399295E+04  0.24620399295E+04  0.25500000920E-02 0.  1.
       -2   -1    0    0    0  501  0.00000000000E+00  0.00000000000E+00 -0.79660236593E+03  0.79660236593E+03  0.25500000920E-02 0. -1.
    10030    2    1    2    0    0  0.00000000000E+00  0.00000000000E+00  0.16654375636E+04  0.32586422954E+04  0.28009047344E+04 0.  0.
        5    1    3    3  502    0  0.36099606640E+02 -0.83309992943E+03 -0.47626921056E+03  0.96031928281E+03  0.46999998093E+01 0. -1.
       -5    1    3    3    0  502 -0.36099606640E+02  0.83309992943E+03  0.21417067741E+04  0.22983230126E+04  0.46999998093E+01 0.  1.
</event>
<event>
 5   0  0.1346049E-07  0.2800059E+04  0.7818609E-02  0.8303250E-01
       -1   -1    0    0    0  501  0.00000000000E+00  0.00000000000E+00  0.13619580134E+04  0.13619580134E+04  0.50400001928E-02 0.  1.
        1   -1    0    0  501    0  0.00000000000E+00  0.00000000000E+00 -0.14391649227E+04  0.14391649227E+04  0.50400001928E-02 0. -1.
    10030    2    1    2    0    0  0.00000000000E+00  0.00000000000E+00 -0.77206909332E+02  0.28011229362E+04  0.28000587131E+04 0.  0.
        1    1    3    3  502    0  0.37835056288E+03  0.12812598107E+04 -0.45745859858E+03  0.14121063063E+04  0.50400001928E-02 0.  1.
       -1    1    3    3    0  502 -0.37835056288E+03 -0.12812598107E+04  0.38025168925E+03  0.13890166299E+04  0.50400001928E-02 0. -1.
</event>
<event>
 5   0  0.3557628E-07  0.2800472E+04  0.7818609E-02  0.8303122E-01
       -2   -1    0    0    0  501  0.00000000000E+00  0.00000000000E+00  0.14860576300E+04  0.14860576300E+04  0.25500000920E-02 0.  1.
        2   -1    0    0  501    0  0.00000000000E+00  0.00000000000E+00 -0.13193707045E+04  0.13193707045E+04  0.25500000920E-02 0. -1.
    10030    2    1    2    0    0  0.00000000000E+00  0.00000000000E+00  0.16668692547E+03  0.28054283345E+04  0.28004720332E+04 0.  0.
        5    1    3    3  502    0 -0.12711424078E+04 -0.24310975714E+03 -0.45214297011E+03  0.13708977826E+04  0.46999998093E+01 0.  1.
       -5    1    3    3    0  502  0.12711424078E+04  0.24310975714E+03  0.61882989557E+03  0.14345305519E+04  0.46999998093E+01 0. -1.
</event>
<event>
 5   0  0.3522569E-07  0.2800042E+04  0.7818609E-02  0.8303255E-01
       -2   -1    0    0    0  501  0.00000000000E+00  0.00000000000E+00  0.16548312941E+04  0.16548312941E+04  0.25500000920E-02 0.  1.
        2   -1    0    0  501    0  0.00000000000E+00  0.00000000000E+00 -0.11844465241E+04  0.11844465241E+04  0.25500000920E-02 0. -1.
    10030    2    1    2    0    0  0.00000000000E+00  0.00000000000E+00  0.47038477000E+03  0.28392778183E+04  0.28000422671E+04 0.  0.
        1    1    3    3  502    0  0.69359218180E+03 -0.12123807421E+04  0.13834492443E+03  0.14035941353E+04  0.50400001928E-02 0. -1.
       -1    1    3    3    0  502 -0.69359218180E+03  0.12123807421E+04  0.33203984557E+03  0.14356836830E+04  0.50400001928E-02 0.  1.
</event>
<event>
 5   0  0.3406920E-07  0.2800863E+04  0.7818609E-02  0.8303001E-01
       -2   -1    0    0    0  501  0.00000000000E+00  0.00000000000E+00  0.76417388860E+03  0.76417388861E+03  0.25500000920E-02 0.  1.
        2   -1    0    0  501    0  0.00000000000E+00  0.00000000000E+00 -0.25664417704E+04  0.25664417704E+04  0.25500000920E-02 0. -1.
    10030    2    1    2    0    0  0.00000000000E+00  0.00000000000E+00 -0.18022678818E+04  0.33306156591E+04  0.28008625726E+04 0.  0.
        4    1    3    3  502    0 -0.43214060670E+03 -0.13173550668E+04 -0.66618849248E+03  0.15381737861E+04  0.12699999809E+01 0. -1.
       -4    1    3    3    0  502  0.43214060670E+03  0.13173550668E+04 -0.11360793894E+04  0.17924418729E+04  0.12699999809E+01 0.  1.
</event>
<event>
 5   0  0.3557628E-07  0.2801174E+04  0.7818609E-02  0.8302904E-01
       -2   -1    0    0    0  501  0.00000000000E+00  0.00000000000E+00  0.13223339452E+04  0.13223339452E+04  0.25500000920E-02 0. -1.
        2   -1    0    0  501    0  0.00000000000E+00  0.00000000000E+00 -0.14834704441E+04  0.14834704441E+04  0.25500000920E-02 0.  1.
    10030    2    1    2    0    0  0.00000000000E+00  0.00000000000E+00 -0.16113649892E+03  0.28058043893E+04  0.28011735576E+04 0.  0.
        5    1    3    3  502    0  0.10320741516E+04 -0.92880713961E+03  0.10347847702E+03  0.13923324467E+04  0.46999998093E+01 0.  1.
       -5    1    3    3    0  502 -0.10320741516E+04  0.92880713961E+03 -0.26461497594E+03  0.14134719426E+04  0.46999998093E+01 0. -1.
</event>
<event>
 5   0  0.1357902E-07  0.2799543E+04  0.7818609E-02  0.8303410E-01
       -1   -1    0    0    0  501  0.00000000000E+00  0.00000000000E+00  0.11131052839E+04  0.11131052839E+04  0.50400001928E-02 0. -1.
        1   -1    0    0  501    0  0.00000000000E+00  0.00000000000E+00 -0.17602653296E+04  0.17602653297E+04  0.50400001928E-02 0.  1.
    10030    2    1    2    0    0  0.00000000000E+00  0.00000000000E+00 -0.64716004571E+03  0.28733706136E+04  0.27995432767E+04 0.  0.
        4    1    3    3  502    0  0.13869769949E+03 -0.13926378793E+04 -0.29678186432E+03  0.14306496435E+04  0.12699999809E+01 0.  1.
       -4    1    3    3    0  502 -0.13869769949E+03  0.13926378793E+04 -0.35037818140E+03  0.14427209701E+04  0.12699999809E+01 0. -1.
</event>
<event>
 5   0  0.3522569E-07  0.2801176E+04  0.7818609E-02  0.8302903E-01
        2   -1    0    0  501    0  0.00000000000E+00  0.00000000000E+00  0.15011753611E+04  0.15011753611E+04  0.25500000920E-02 0.  1.
       -2   -1    0    0    0  501  0.00000000000E+00  0.00000000000E+00 -0.13067406926E+04  0.13067406926E+04  0.25500000920E-02 0. -1.
    10030    2    1    2    0    0  0.00000000000E+00  0.00000000000E+00  0.19443466852E+03  0.28079160537E+04  0.28011761323E+04 0.  0.
        1    1    3    3  502    0  0.34055573694E+03  0.10047832249E+04  0.10137911831E+04  0.14674263532E+04  0.50400001928E-02 0.  1.
       -1    1    3    3    0  502 -0.34055573694E+03 -0.10047832249E+04 -0.81935651461E+03  0.13404897005E+04  0.50400001928E-02 0. -1.
</event>
<event>
 5   0  0.1357902E-07  0.2798537E+04  0.7818609E-02  0.8303723E-01
        1   -1    0    0  501    0  0.00000000000E+00  0.00000000000E+00  0.26362852832E+04  0.26362852832E+04  0.50400001928E-02 0. -1.
       -1   -1    0    0    0  501  0.00000000000E+00  0.00000000000E+00 -0.74269375434E+03  0.74269375436E+03  0.50400001928E-02 0.  1.
    10030    2    1    2    0    0  0.00000000000E+00  0.00000000000E+00  0.18935915289E+04  0.33789790376E+04  0.27985371997E+04 0.  0.
        4    1    3    3  502    0 -0.14405423909E+03  0.13204709972E+04  0.14779949766E+04  0.19871753929E+04  0.12699999809E+01 0. -1.
       -4    1    3    3    0  502  0.14405423909E+03 -0.13204709972E+04  0.41559655226E+03  0.13918036447E+04  0.12699999809E+01 0.  1.
</event>
<event>
 5   0  0.1366235E-07  0.2800040E+04  0.7818609E-02  0.8303256E-01
        1   -1    0    0  501    0  0.00000000000E+00  0.00000000000E+00  0.19603364155E+04  0.19603364155E+04  0.50400001928E-02 0. -1.
       -1   -1    0    0    0  501  0.00000000000E+00  0.00000000000E+00 -0.99985689982E+03  0.99985689983E+03  0.50400001928E-02 0.  1.
    10030    2    1    2    0    0  0.00000000000E+00  0.00000000000E+00  0.96047951567E+03  0.29601933153E+04  0.28000399219E+04 0.  0.
        2    1    3    3  502    0  0.49365461159E+03 -0.47039852294E+03  0.17729136369E+04  0.18995242589E+04  0.25500000920E-02 0. -1.
       -2    1    3    3    0  502 -0.49365461159E+03  0.47039852294E+03 -0.81243412127E+03  0.10606690565E+04  0.25500000920E-02 0.  1.
</event>
<event>
 5   0  0.1366235E-07  0.2803383E+04  0.7818609E-02  0.8302219E-01
       -1   -1    0    0    0  501  0.00000000000E+00  0.00000000000E+00  0.17982624863E+04  0.17982624863E+04  0.50400001928E-02 0. -1.
        1   -1    0    0  501    0  0.00000000000E+00  0.00000000000E+00 -0.10925766338E+04  0.10925766338E+04  0.50400001928E-02 0.  1.
    10030    2    1    2    0    0  0.00000000000E+00  0.00000000000E+00  0.70568585252E+03  0.28908391201E+04  0.28033833658E+04 0.  0.
        2    1    3    3  502    0 -0.46525665763E+03  0.89514116279E+03 -0.65065386554E+03  0.12004548769E+04  0.25500000920E-02 0.  1.
       -2    1    3    3    0  502  0.46525665763E+03 -0.89514116279E+03  0.13563397181E+04  0.16903842432E+04  0.25500000920E-02 0. -1.
</event>
<event>
 5   0  0.1346049E-07  0.2801048E+04  0.7818609E-02  0.8302943E-01
        1   -1    0    0  501    0  0.00000000000E+00  0.00000000000E+00  0.72289844205E+03  0.72289844207E+03  0.50400001928E-02 0.  1.
       -1   -1    0    0    0  501  0.00000000000E+00  0.00000000000E+00 -0.27133377490E+04  0.27133377490E+04  0.50400001928E-02 0. -1.
    10030    2    1    2    0    0  0.00000000000E+00  0.00000000000E+00 -0.19904393070E+04  0.34362361911E+04  0.28010481121E+04 0.  0.
        1    1    3    3  502    0  0.54946387074E+03 -0.13748474448E+03  0.57612364037E+03  0.80791772430E+03  0.50400001928E-02 0.  1.
       -1    1    3    3    0  502 -0.54946387074E+03  0.13748474448E+03 -0.25665629473E+04  0.26283184668E+04  0.50400001928E-02 0. -1.
</event>
<event>
 5   0  0.1357902E-07  0.2799053E+04  0.7818609E-02  0.8303563E-01
       -1   -1    0    0    0  501  0.00000000000E+00  0.00000000000E+00  0.77136880915E+03  0.77136880917E+03  0.50400001928E-02 0.  1.
        1   -1    0    0  501    0  0.00000000000E+00  0.00000000000E+00 -0.25392184387E+04  0.25392184387E+04  0.50400001928E-02 0. -1.
    10030    2    1    2    0    0  0.00000000000E+00  0.00000000000E+00 -0.17678496296E+04  0.33105872479E+04  0.27990526278E+04 0.  0.
        4    1    3    3  502    0 -0.10887513655E+04 -0.41954988590E+03 -0.17979950343E+04  0.21434060276E+04  0.12699999809E+01 0. -1.
       -4    1    3    3    0  502  0.10887513655E+04  0.41954988590E+03  0.30145404758E+02  0.11671812203E+04  0.12699999809E+01 0.  1.
</event>
<event>
 5   0  0.3406920E-07  0.2799913E+04  0.7818609E-02  0.8303295E-01
       -2   -1    0    0    0  501  0.00000000000E+00  0.00000000000E+00  0.15303187430E+04  0.15303187430E+04  0.25500000920E-02 0.  1.
        2   -1    0    0  501    0  0.00000000000E+00  0.00000000000E+00 -0.12806991300E+04  0.12806991300E+04  0.25500000920E-02 0. -1.
    10030    2    1    2    0    0  0.00000000000E+00  0.00000000000E+00  0.24961961299E+03  0.28110178731E+04  0.27999127721E+04 0.  0.
        4    1    3    3  502    0 -0.55372372605E+02  0.13818929278E+04  0.34288575442E+03  0.14248741758E+04  0.12699999809E+01 0. -1.
       -4    1    3    3    0  502  0.55372372605E+02 -0.13818929278E+04 -0.93266141428E+02  0.13861436973E+04  0.12699999809E+01 0.  1.
</event>
<event>
 5   0  0.3406920E-07  0.2813399E+04  0.7818609E-02  0.8299120E-01
        2   -1    0    0  501    0  0.00000000000E+00  0.00000000000E+00  0.24700493275E+04  0.24700493275E+04  0.25500000920E-02 0.  1.
       -2   -1    0    0    0  501  0.00000000000E+00  0.00000000000E+00 -0.80111915830E+03  0.80111915830E+03  0.25500000920E-02 0. -1.
    10030    2    1    2    0    0  0.00000000000E+00  0.00000000000E+00  0.16689301692E+04  0.32711684858E+04  0.28133992523E+04 0.  0.
        4    1    3    3  502    0 -0.10964243089E+04  0.59845574720E+03  0.82283420388E+02  0.12518257549E+04  0.12699999809E+01 0. -1.
       -4    1    3    3    0  502  0.10964243089E+04 -0.59845574720E+03  0.15866467488E+04  0.20193427309E+04  0.12699999809E+01 0.  1.
</event>
<event>
 5   0  0.1361741E-07  0.2799896E+04  0.7818609E-02  0.8303301E-01
       -1   -1    0    0    0  501  0.00000000000E+00  0.00000000000E+00  0.11840266609E+04  0.11840266609E+04  0.50400001928E-02 0. -1.
        1   -1    0    0  501    0  0.00000000000E+00  0.00000000000E+00 -0.16552447055E+04  0.16552447055E+04  0.50400001928E-02 0.  1.
    10030    2    1    2    0    0  0.00000000000E+00  0.00000000000E+00 -0.47121804463E+03  0.28392713664E+04  0.27998956135E+04 0.  0.
        5    1    3    3  502    0  0.27471618410E+03  0.21478496545E+03 -0.16104897107E+04  0.16478169685E+04  0.46999998093E+01 0.  1.
       -5    1    3    3    0  502 -0.27471618410E+03 -0.21478496545E+03  0.11392716661E+04  0.11914543979E+04  0.46999998093E+01 0. -1.
</event>
<event>
 5   0  0.3571498E-07  0.2799483E+04  0.7818609E-02  0.8303429E-01
       -2   -1    0    0    0  501  0.00000000000E+00  0.00000000000E+00  0.11421861643E+04  0.11421861643E+04  0.25500000920E-02 0.  1.
        2   -1    0    0  501    0  0.00000000000E+00  0.00000000000E+00 -0.17153743679E+04  0.17153743679E+04  0.25500000920E-02 0. -1.
    10030    2    1    2    0    0  0.00000000000E+00  0.00000000000E+00 -0.57318820356E+03  0.28575605322E+04  0.27994834306E+04 0.  0.
        2    1    3    3  502    0 -0.69299351844E+03  0.11932110266E+03  0.94880307202E+03  0.11809762113E+04  0.25500000920E-02 0.  1.
       -2    1    3    3    0  502  0.69299351844E+03 -0.11932110266E+03 -0.15219912756E+04  0.16765843209E+04  0.25500000920E-02 0. -1.
</event>
<event>
 5   0  0.1361741E-07  0.2799887E+04  0.7818609E-02  0.8303303E-01
        1   -1    0    0  501    0  0.00000000000E+00  0.00000000000E+00  0.13025148057E+04  0.13025148057E+04  0.50400001928E-02 0.  1.
       -1   -1    0    0    0  501  0.00000000000E+00  0.00000000000E+00 -0.15046602200E+04  0.15046602200E+04  0.50400001928E-02 0. -1.
    10030    2    1    2    0    0  0.00000000000E+00  0.00000000000E+00 -0.20214541424E+03  0.28071750257E+04  0.27998872935E+04 0.  0.
        5    1    3    3  502    0 -0.48382890698E+03  0.55373845027E+03  0.10932892685E+04  0.13175811919E+04  0.46999998093E+01 0.  1.
       -5    1    3    3    0  502  0.48382890698E+03 -0.55373845027E+03 -0.12954346828E+04  0.14895938338E+04  0.46999998093E+01 0. -1.
</event>
<event>
 5   0  0.3522569E-07  0.2801333E+04  0.7818609E-02  0.8302855E-01
        2   -1    0    0  501    0  0.00000000000E+00  0.00000000000E+00  0.64241527478E+03  0.64241527478E+03  0.25500000920E-02 0. -1.
       -2   -1    0    0    0  501  0.00000000000E+00  0.00000000000E+00 -0.30538916451E+04  0.30538916451E+04  0.25500000920E-02 0.  1.
    10030    2    1    2    0    0  0.00000000000E+00  0.00000000000E+00 -0.24114763703E+04  0.36963069199E+04  0.28013329972E+04 0.  0.
        1    1    3    3  502    0 -0.11125433873E+02 -0.13030494955E+04 -0.52802692937E+03  0.14060135850E+04  0.50400001928E-02 0. -1.
       -1    1    3    3    0  502  0.11125433873E+02  0.13030494955E+04 -0.18834494410E+04  0.22902933349E+04  0.50400001928E-02 0.  1.
</event>
<event>
 5   0  0.3406920E-07  0.2785245E+04  0.7818609E-02  0.8307864E-01
        2   -1    0    0  501    0  0.00000000000E+00  0.00000000000E+00  0.20676025425E+04  0.20676025425E+04  0.25500000920E-02 0.  1.
       -2   -1    0    0    0  501  0.00000000000E+00  0.00000000000E+00 -0.93799360026E+03  0.93799360027E+03  0.25500000920E-02 0. -1.
    10030    2    1    2    0    0  0.00000000000E+00  0.00000000000E+00  0.11296089422E+04  0.30055961428E+04  0.27852453772E+04 0.  0.
        4    1    3    3  502    0 -0.10050226502E+04 -0.64452067093E+03 -0.20879197284E+03  0.12120532676E+04  0.12699999809E+01 0. -1.
       -4    1    3    3    0  502  0.10050226502E+04  0.64452067093E+03  0.13384009151E+04  0.17935428752E+04  0.12699999809E+01 0.  1.
</event>
<event>
 5   0  0.1361741E-07  0.2800569E+04  0.7818609E-02  0.8303092E-01
       -1   -1    0    0    0  501  0.00000000000E+00  0.00000000000E+00  0.10428679697E+04  0.10428679697E+04  0.50400001928E-02 0. -1.
        1   -1    0    0  501    0  0.00000000000E+00  0.00000000000E+00 -0.18801963525E+04  0.18801963525E+04  0.50400001928E-02 0.  1.
    10030    2    1    2    0    0  0.00000000000E+00  0.00000000000E+00 -0.83732838282E+03  0.29230643223E+04  0.28005689085E+04 0.  0.
        5    1    3    3  502    0 -0.10861073063E+04  0.82952411769E+03 -0.73702204692E+03  0.15527275776E+04  0.46999998093E+01 0. -1.
       -5    1    3    3    0  502  0.10861073063E+04 -0.82952411769E+03 -0.10030633590E+03  0.13703367446E+04  0.46999998093E+01 0.  1.
</event>
<event>
 5   0  0.3406920E-07  0.2799036E+04  0.7818609E-02  0.8303568E-01
        2   -1    0    0  501    0  0.00000000000E+00  0.00000000000E+00  0.16861373116E+04  0.16861373116E+04  0.25500000920E-02 0.  1.
       -2   -1    0    0    0  501  0.00000000000E+00  0.00000000000E+00 -0.11616195474E+04  0.11616195474E+04  0.25500000920E-02 0. -1.
    10030    2    1    2    0    0  0.00000000000E+00  0.00000000000E+00  0.52451776420E+03  0.28477568589E+04  0.27990355915E+04 0.  0.
        4    1    3    3  502    0 -0.33702078440E+03  0.13540281276E+04  0.15233533893E+03  0.14036320201E+04  0.12699999809E+01 0. -1.
       -4    1    3    3    0  502  0.33702078440E+03 -0.13540281276E+04  0.37218242526E+03  0.14441248388E+04  0.12699999809E+01 0.  1.
</event>
<event>
 5   0  0.3557628E-07  0.2803073E+04  0.7818609E-02  0.8302315E-01
       -2   -1    0    0    0  501  0.00000000000E+00  0.00000000000E+00  0.12102135589E+04  0.12102135589E+04  0.25500000920E-02 0. -1.
        2   -1    0    0  501    0  0.00000000000E+00  0.00000000000E+00 -0.16231055382E+04  0.16231055382E+04  0.25500000920E-02 0.  1.
    10030    2    1    2    0    0  0.00000000000E+00  0.00000000000E+00 -0.41289197930E+03  0.28333190971E+04  0.28030728352E+04 0.  0.
        5    1    3    3  502    0  0.72492269390E+03  0.76886332845E+03  0.72415031201E+03  0.12810462499E+04  0.46999998093E+01 0.  1.
       -5    1    3    3    0  502 -0.72492269390E+03 -0.76886332845E+03 -0.11370422913E+04  0.15522728472E+04  0.46999998093E+01 0. -1.
</event>
<event>
 5   0  0.3522569E-07  0.2800087E+04  0.7818609E-02  0.8303241E-01
       -2   -1    0    0    0  501  0.00000000000E+00  0.00000000000E+00  0.88370926944E+03  0.88370926944E+03  0.25500000920E-02 0.  1.
        2   -1    0    0  501    0  0.00000000000E+00  0.00000000000E+00 -0.22180621312E+04  0.22180621312E+04  0.25500000920E-02 0. -1.
    10030    2    1    2    0    0  0.00000000000E+00  0.00000000000E+00 -0.13343528618E+04  0.31017714006E+04  0.28000871883E+04 0.  0.
        1    1    3    3  502    0  0.83076824783E+02 -0.11819506257E+04 -0.14933262464E+04  0.19062875750E+04  0.50400001928E-02 0.  1.
       -1    1    3    3    0  502 -0.83076824783E+02  0.11819506257E+04  0.15897338466E+03  0.11954838256E+04  0.50400001928E-02 0. -1.
</event>
<event>
 5   0  0.1357902E-07  0.2788578E+04  0.7818609E-02  0.8306823E-01
       -1   -1    0    0    0  501  0.00000000000E+00  0.00000000000E+00  0.14217844032E+04  0.14217844033E+04  0.50400001928E-02 0.  1.
        1   -1    0    0  501    0  0.00000000000E+00  0.00000000000E+00 -0.13673250339E+04  0.13673250339E+04  0.50400001928E-02 0. -1.
    10030    2    1    2    0    0  0.00000000000E+00  0.00000000000E+00  0.54459369306E+02  0.27891094372E+04  0.27885777073E+04 0.  0.
        4    1    3    3  502    0  0.54194942713E+03 -0.39080945035E+03 -0.11967677701E+04  0.13706552873E+04  0.12699999809E+01 0. -1.
       -4    1    3    3    0  502 -0.54194942713E+03  0.39080945035E+03  0.12512271394E+04  0.14184541499E+04  0.12699999809E+01 0.  1.
</event>
<event>
 5   0  0.3522569E-07  0.2798525E+04  0.7818609E-02  0.8303726E-01
        2   -1    0    0  501    0  0.00000000000E+00  0.00000000000E+00  0.23406772154E+04  0.23406772154E+04  0.25500000920E-02 0. -1.
       -2   -1    0    0    0  501  0.00000000000E+00  0.00000000000E+00 -0.83648248223E+03  0.83648248224E+03  0.25500000920E-02 0.  1.
    10030    2    1    2    0    0  0.00000000000E+00  0.00000000000E+00  0.15041947332E+04  0.31771596977E+04  0.27985249595E+04 0.  0.
        1    1    3    3  502    0  0.38569083009E+03 -0.77557471758E+03 -0.49552326478E+03  0.99790624054E+03  0.50400001928E-02 0.  1.
       -1    1    3    3    0  502 -0.38569083009E+03  0.77557471758E+03  0.19997179980E+04  0.21792534571E+04  0.50400001928E-02 0. -1.
</event>
<event>
 5   0  0.1366235E-07  0.2799473E+04  0.7818609E-02  0.8303432E-01
       -1   -1    0    0    0  501  0.00000000000E+00  0.00000000000E+00  0.64868982175E+03  0.64868982177E+03  0.50400001928E-02 0.  1.
        1   -1    0    0  501    0  0.00000000000E+00  0.00000000000E+00 -0.30203384190E+04  0.30203384190E+04  0.50400001928E-02 0. -1.
    10030    2    1    2    0    0  0.00000000000E+00  0.00000000000E+00 -0.23716485972E+04  0.36690282407E+04  0.27994733724E+04 0.  0.
        2    1    3    3  502    0  0.82588780010E+03 -0.74411975925E+02 -0.26637613887E+04  0.27898481207E+04  0.25500000920E-02 0. -1.
       -2    1    3    3    0  502 -0.82588780010E+03  0.74411975925E+02  0.29211279150E+03  0.87918012005E+03  0.25500000920E-02 0.  1.
</event>
<event>
 5   0  0.3502141E-07  0.2800705E+04  0.7818609E-02  0.8303049E-01
        2   -1    0    0  501    0  0.00000000000E+00  0.00000000000E+00  0.25127976036E+04  0.25127976036E+04  0.25500000920E-02 0.  1.
       -2   -1    0    0    0  501  0.00000000000E+00  0.00000000000E+00 -0.78040005166E+03  0.78040005166E+03  0.25500000920E-02 0. -1.
    10030    2    1    2    0    0  0.00000000000E+00  0.00000000000E+00  0.17323975520E+04  0.32931976553E+04  0.28007051824E+04 0.  0.
        3    1    3    3  502    0  0.84825770293E+03  0.57502850473E+02  0.21745827630E+04  0.23348785647E+04  0.10100000352E+00 0.  1.
       -3    1    3    3    0  502 -0.84825770293E+03 -0.57502850473E+02 -0.44218521103E+03  0.95831909062E+03  0.10100000352E+00 0. -1.
</event>
<event>
 5   0  0.1357902E-07  0.2799738E+04  0.7818609E-02  0.8303350E-01
        1   -1    0    0  501    0  0.00000000000E+00  0.00000000000E+00  0.79338912567E+03  0.79338912568E+03  0.50400001928E-02 0.  1.
       -1   -1    0    0    0  501  0.00000000000E+00  0.00000000000E+00 -0.24699528916E+04  0.24699528916E+04  0.50400001928E-02 0. -1.
    10030    2    1    2    0    0  0.00000000000E+00  0.00000000000E+00 -0.16765637660E+04  0.32633420173E+04  0.27997383915E+04 0.  0.
        4    1    3    3  502    0 -0.48548614346E+03 -0.65888035989E+03  0.48547536640E+03  0.95158187688E+03  0.12699999809E+01 0.  1.
       -4    1    3    3    0  502  0.48548614346E+03  0.65888035989E+03 -0.21620391324E+04  0.23117601404E+04  0.12699999809E+01 0. -1.
</event>
<event>
 5   0  0.1346049E-07  0.2819423E+04  0.7818609E-02  0.8297263E-01
        1   -1    0    0  501    0  0.00000000000E+00  0.00000000000E+00  0.17283079282E+04  0.17283079282E+04  0.50400001928E-02 0.  1.
       -1   -1    0    0    0  501  0.00000000000E+00  0.00000000000E+00 -0.11498453705E+04  0.11498453705E+04  0.50400001928E-02 0. -1.
    10030    2    1    2    0    0  0.00000000000E+00  0.00000000000E+00  0.57846255774E+03  0.28781532987E+04  0.28194232531E+04 0.  0.
        1    1    3    3  502    0 -0.63251041697E+03 -0.90653994915E+03 -0.60386577669E+03  0.12595784943E+04  0.50400001928E-02 0. -1.
       -1    1    3    3    0  502  0.63251041697E+03  0.90653994915E+03  0.11823283344E+04  0.16185748044E+04  0.50400001928E-02 0.  1.
</event>
<event>
 5   0  0.3522569E-07  0.2800677E+04  0.7818609E-02  0.8303058E-01
        2   -1    0    0  501    0  0.00000000000E+00  0.00000000000E+00  0.12724767105E+04  0.12724767105E+04  0.25500000920E-02 0.  1.
       -2   -1    0    0    0  501  0.00000000000E+00  0.00000000000E+00 -0.15410482013E+04  0.15410482013E+04  0.25500000920E-02 0. -1.
    10030    2    1    2    0    0  0.00000000000E+00  0.00000000000E+00 -0.26857149078E+03  0.28135249118E+04  0.28006770224E+04 0.  0.
        1    1    3    3  502    0 -0.85320183790E+03  0.28073207817E+03  0.94497224956E+03  0.13037394020E+04  0.50400001928E-02 0.  1.
       -1    1    3    3    0  502  0.85320183790E+03 -0.28073207817E+03 -0.12135437403E+04  0.15097855098E+04  0.50400001928E-02 0. -1.
</event>
<event>
 5   0  0.3406920E-07  0.2798004E+04  0.7818609E-02  0.8303888E-01
        2   -1    0    0  501    0  0.00000000000E+00  0.00000000000E+00  0.22137874629E+04  0.22137874629E+04  0.25500000920E-02 0.  1.
       -2   -1    0    0    0  501  0.00000000000E+00  0.00000000000E+00 -0.88409854998E+03  0.88409854998E+03  0.25500000920E-02 0. -1.
    10030    2    1    2    0    0  0.00000000000E+00  0.00000000000E+00  0.13296889130E+04  0.30978860129E+04  0.27980037784E+04 0.  0.
        4    1    3    3  502    0  0.79694053453E+03  0.93166560763E+02 -0.60402624862E+03  0.10043124741E+04  0.12699999809E+01 0. -1.
       -4    1    3    3    0  502 -0.79694053453E+03 -0.93166560763E+02  0.19337151616E+04  0.20935735389E+04  0.12699999809E+01 0.  1.
</event>
<event>
 5   0  0.1361741E-07  0.2797195E+04  0.7818609E-02  0.8304140E-01
        1   -1    0    0  501    0  0.00000000000E+00  0.00000000000E+00  0.23776573651E+04  0.23776573651E+04  0.50400001928E-02 0.  1.
       -1   -1    0    0    0  501  0.00000000000E+00  0.00000000000E+00 -0.82269006483E+03  0.82269006485E+03  0.50400001928E-02 0. -1.
    10030    2    1    2    0    0  0.00000000000E+00  0.00000000000E+00  0.15549673003E+04  0.32003474300E+04  0.27971950893E+04 0.  0.
        5    1    3    3  502    0  0.31888798370E+03 -0.68848455541E+03  0.21217006070E+04  0.22532944958E+04  0.46999998093E+01 0.  1.
       -5    1    3    3    0  502 -0.31888798370E+03  0.68848455541E+03 -0.56673330669E+03  0.94705293416E+03  0.46999998093E+01 0. -1.
</event>
<event>
 5   0  0.3522569E-07  0.2799662E+04  0.7818609E-02  0.8303373E-01
       -2   -1    0    0    0  501  0.00000000000E+00  0.00000000000E+00  0.72787719667E+03  0.72787719668E+03  0.25500000920E-02 0. -1.
        2   -1    0    0  501    0  0.00000000000E+00  0.00000000000E+00 -0.26921114875E+04  0.26921114875E+04  0.25500000920E-02 0.  1.
    10030    2    1    2    0    0  0.00000000000E+00  0.00000000000E+00 -0.19642342908E+04  0.34199886841E+04  0.27996618100E+04 0.  0.
        1    1    3    3  502    0  0.92798104706E+03  0.10385058976E+04 -0.11543685089E+04  0.18089250889E+04  0.50400001928E-02 0.  1.
       -1    1    3    3    0  502 -0.92798104706E+03 -0.10385058976E+04 -0.80986578190E+03  0.16110635952E+04  0.50400001928E-02 0. -1.
</event>
<event>
 5   0  0.3502141E-07  0.2799451E+04  0.7818609E-02  0.8303439E-01
       -2   -1    0    0    0  501  0.00000000000E+00  0.00000000000E+00  0.58668926861E+03  0.58668926862E+03  0.25500000920E-02 0. -1.
        2   -1    0    0  501    0  0.00000000000E+00  0.00000000000E+00 -0.33394701215E+04  0.33394701215E+04  0.25500000920E-02 0.  1.
    10030    2    1    2    0    0  0.00000000000E+00  0.00000000000E+00 -0.27527808529E+04  0.39261593901E+04  0.27994508627E+04 0.  0.
        3    1    3    3  502    0  0.19455617730E+03 -0.11786452913E+04 -0.23994998511E+04  0.26804209323E+04  0.10100000352E+00 0.  1.
       -3    1    3    3    0  502 -0.19455617730E+03  0.11786452913E+04 -0.35328100178E+03  0.12457384578E+04  0.10100000352E+00 0. -1.
</event>
<event>
 5   0  0.1346049E-07  0.2799617E+04  0.7818609E-02  0.8303387E-01
       -1   -1    0    0    0  501  0.00000000000E+00  0.00000000000E+00  0.24738411666E+04  0.24738411666E+04  0.50400001928E-02 0. -1.
        1   -1    0    0  501    0  0.00000000000E+00  0.00000000000E+00 -0.79207343361E+03  0.79207343363E+03  0.50400001928E-02 0.  1.
    10030    2    1    2    0    0  0.00000000000E+00  0.00000000000E+00  0.16817677329E+04  0.32659146002E+04  0.27996170217E+04 0.  0.
        1    1    3    3  502    0  0.13823929336E+04 -0.52041217868E+02  0.59137860766E+03  0.15044757123E+04  0.50400001928E-02 0.  1.
       -1    1    3    3    0  502 -0.13823929336E+04  0.52041217868E+02  0.10903891253E+04  0.17614388879E+04  0.50400001928E-02 0. -1.
</event>
<event>
 5   0  0.1346049E-07  0.2800513E+04  0.7818609E-02  0.8303109E-01
       -1   -1    0    0    0  501  0.00000000000E+00  0.00000000000E+00  0.15501516003E+04  0.15501516003E+04  0.50400001928E-02 0.  1.
        1   -1    0    0  501    0  0.00000000000E+00  0.00000000000E+00 -0.12648555575E+04  0.12648555575E+04  0.50400001928E-02 0. -1.
    10030    2    1    2    0    0  0.00000000000E+00  0.00000000000E+00  0.28529604281E+03  0.28150071578E+04  0.28005127149E+04 0.  0.
        1    1    3    3  502    0  0.21497656960E+02  0.11997597037E+04  0.86807038328E+03  0.14810238641E+04  0.50400001928E-02 0.  1.
       -1    1    3    3    0  502 -0.21497656960E+02 -0.11997597037E+04 -0.58277434047E+03  0.13339832936E+04  0.50400001928E-02 0. -1.
</event>
<event>
 5   0  0.1374680E-07  0.2798506E+04  0.7818609E-02  0.8303732E-01
        1   -1    0    0  501    0  0.00000000000E+00  0.00000000000E+00  0.19590971697E+04  0.19590971697E+04  0.50400001928E-02 0.  1.
       -1   -1    0    0    0  501  0.00000000000E+00  0.00000000000E+00 -0.99939354818E+03  0.99939354820E+03  0.50400001928E-02 0. -1.
    10030    2    1    2    0    0  0.00000000000E+00  0.00000000000E+00  0.95970362154E+03  0.29584907179E+04  0.27985060813E+04 0.  0.
        3    1    3    3  502    0 -0.23722571627E+03  0.10832328707E+04  0.13820066693E+04  0.17718950130E+04  0.10100000352E+00 0.  1.
       -3    1    3    3    0  502  0.23722571627E+03 -0.10832328707E+04 -0.42230304777E+03  0.11865957050E+04  0.10100000352E+00 0. -1.
</event>
<event>
 5   0  0.1361741E-07  0.2800070E+04  0.7818609E-02  0.8303247E-01
        1   -1    0    0  501    0  0.00000000000E+00  0.00000000000E+00  0.20488571421E+04  0.20488571421E+04  0.50400001928E-02 0.  1.
       -1   -1    0    0    0  501  0.00000000000E+00  0.00000000000E+00 -0.95667885429E+03  0.95667885430E+03  0.50400001928E-02 0. -1.
    10030    2    1    2    0    0  0.00000000000E+00  0.00000000000E+00  0.10921782878E+04  0.30055359964E+04  0.28000702158E+04 0.  0.
        5    1    3    3  502    0  0.11455225515E+04 -0.24861430446E+03  0.13677991540E+04  0.18013682589E+04  0.46999998093E+01 0.  1.
       -5    1    3    3    0  502 -0.11455225515E+04  0.24861430446E+03 -0.27562086614E+03  0.12041677376E+04  0.46999998093E+01 0. -1.
</event>
<event>
 5   0  0.1361741E-07  0.2821299E+04  0.7818609E-02  0.8296686E-01
       -1   -1    0    0    0  501  0.00000000000E+00  0.00000000000E+00  0.97406346215E+03  0.97406346216E+03  0.50400001928E-02 0. -1.
        1   -1    0    0  501    0  0.00000000000E+00  0.00000000000E+00 -0.20429177850E+04  0.20429177850E+04  0.50400001928E-02 0.  1.
    10030    2    1    2    0    0  0.00000000000E+00  0.00000000000E+00 -0.10688543228E+04  0.30169812472E+04  0.28212986872E+04 0.  0.
        5    1    3    3  502    0 -0.12545011949E+04  0.63660470657E+03 -0.64592126528E+03  0.15479906884E+04  0.46999998093E+01 0. -1.
       -5    1    3    3    0  502  0.12545011949E+04 -0.63660470657E+03 -0.42293305756E+03  0.14689905587E+04  0.46999998093E+01 0.  1.
</event>
<event>
 5   0  0.3406920E-07  0.2800171E+04  0.7818609E-02  0.8303215E-01
        2   -1    0    0  501    0  0.00000000000E+00  0.00000000000E+00  0.18236247387E+04  0.18236247387E+04  0.25500000920E-02 0.  1.
       -2   -1    0    0    0  501  0.00000000000E+00  0.00000000000E+00 -0.10749139145E+04  0.10749139145E+04  0.25500000920E-02 0. -1.
    10030    2    1    2    0    0  0.00000000000E+00  0.00000000000E+00  0.74871082414E+03  0.28985386532E+04  0.28001711422E+04 0.  0.
        4    1    3    3  502    0 -0.31465346730E+02  0.40013163760E+03 -0.10140852176E+04  0.10906263508E+04  0.12699999809E+01 0. -1.
       -4    1    3    3    0  502  0.31465346730E+02 -0.40013163760E+03  0.17627960418E+04  0.18079123024E+04  0.12699999809E+01 0.  1.
</event>
<event>
 5   0  0.3522569E-07  0.2800020E+04  0.7818609E-02  0.8303262E-01
       -2   -1    0    0    0  501  0.00000000000E+00  0.00000000000E+00  0.17677821453E+04  0.17677821453E+04  0.25500000920E-02 0. -1.
        2   -1    0    0  501    0  0.00000000000E+00  0.00000000000E+00 -0.11087498037E+04  0.11087498037E+04  0.25500000920E-02 0.  1.
    10030    2    1    2    0    0  0.00000000000E+00  0.00000000000E+00  0.65903234158E+03  0.28765319490E+04  0.28000200761E+04 0.  0.
        1    1    3    3  502    0 -0.65790192561E+03 -0.11441360723E+04 -0.15030730844E+03  0.13283352674E+04  0.50400001928E-02 0.  1.
       -1    1    3    3    0  502  0.65790192561E+03  0.11441360723E+04  0.80933965002E+03  0.15481966816E+04  0.50400001928E-02 0. -1.
</event>
<event>
 5   0  0.1366235E-07  0.2800967E+04  0.7818609E-02  0.8302968E-01
        1   -1    0    0  501    0  0.00000000000E+00  0.00000000000E+00  0.14804414339E+04  0.14804414340E+04  0.50400001928E-02 0.  1.
       -1   -1    0    0    0  501  0.00000000000E+00  0.00000000000E+00 -0.13248438096E+04  0.13248438096E+04  0.50400001928E-02 0. -1.
    10030    2    1    2    0    0  0.00000000000E+00  0.00000000000E+00  0.15559762434E+03  0.28052852436E+04  0.28009667397E+04 0.  0.
        2    1    3    3  502    0  0.56111652221E+03 -0.13888309875E+03 -0.11997906818E+04  0.13317799918E+04  0.25500000920E-02 0. -1.
       -2    1    3    3    0  502 -0.56111652221E+03  0.13888309875E+03  0.13553883061E+04  0.14735052517E+04  0.25500000920E-02 0.  1.
</event>
<event>
 5   0  0.3557628E-07  0.2801498E+04  0.7818609E-02  0.8302803E-01
        2   -1    0    0  501    0  0.00000000000E+00  0.00000000000E+00  0.18799210827E+04  0.18799210828E+04  0.25500000920E-02 0. -1.
       -2   -1    0    0    0  501  0.00000000000E+00  0.00000000000E+00 -0.10437128624E+04  0.10437128624E+04  0.25500000920E-02 0.  1.
    10030    2    1    2    0    0  0.00000000000E+00  0.00000000000E+00  0.83620822031E+03  0.29236339452E+04  0.28014980381E+04 0.  0.
        5    1    3    3  502    0 -0.11837609101E+04 -0.61346168451E+03 -0.30096766650E+02  0.13336240235E+04  0.46999998093E+01 0.  1.
       -5    1    3    3    0  502  0.11837609101E+04  0.61346168451E+03  0.86630498697E+03  0.15900099217E+04  0.46999998093E+01 0. -1.
</event>
<event>
 5   0  0.1366235E-07  0.2800947E+04  0.7818609E-02  0.8302974E-01
        1   -1    0    0  501    0  0.00000000000E+00  0.00000000000E+00  0.13230157823E+04  0.13230157823E+04  0.50400001928E-02 0.  1.
       -1   -1    0    0    0  501  0.00000000000E+00  0.00000000000E+00 -0.14824663684E+04  0.14824663684E+04  0.50400001928E-02 0. -1.
    10030    2    1    2    0    0  0.00000000000E+00  0.00000000000E+00 -0.15945058609E+03  0.28054821506E+04  0.28009472698E+04 0.  0.
        2    1    3    3  502    0  0.24060809542E+02  0.23003226452E+03 -0.14632047473E+04  0.14813716272E+04  0.25500000920E-02 0. -1.
       -2    1    3    3    0  502 -0.24060809542E+02 -0.23003226452E+03  0.13037541612E+04  0.13241105234E+04  0.25500000920E-02 0.  1.
</event>
<event>
 5   0  0.3571498E-07  0.2800678E+04  0.7818609E-02  0.8303058E-01
       -2   -1    0    0    0  501  0.00000000000E+00  0.00000000000E+00  0.14856398058E+04  0.14856398058E+04  0.25500000920E-02 0.  1.
        2   -1    0    0  501    0  0.00000000000E+00  0.00000000000E+00 -0.13199361495E+04  0.13199361495E+04  0.25500000920E-02 0. -1.
    10030    2    1    2    0    0  0.00000000000E+00  0.00000000000E+00  0.16570365629E+03  0.28055759553E+04  0.28006782642E+04 0.  0.
        2    1    3    3  502    0  0.27265281660E+03 -0.62042367453E+03 -0.11447235586E+04  0.13302846011E+04  0.25500000920E-02 0. -1.
       -2    1    3    3    0  502 -0.27265281660E+03  0.62042367453E+03  0.13104272149E+04  0.14752913542E+04  0.25500000920E-02 0.  1.
</event>
<event>
 5   0  0.3502141E-07  0.2799995E+04  0.7818609E-02  0.8303270E-01
        2   -1    0    0  501    0  0.00000000000E+00  0.00000000000E+00  0.23778410096E+04  0.23778410096E+04  0.25500000920E-02 0. -1.
       -2   -1    0    0    0  501  0.00000000000E+00  0.00000000000E+00 -0.82427437524E+03  0.82427437525E+03  0.25500000920E-02 0.  1.
    10030    2    1    2    0    0  0.00000000000E+00  0.00000000000E+00  0.15535666344E+04  0.32021153849E+04  0.27999952947E+04 0.  0.
        3    1    3    3  502    0  0.41501031466E+03 -0.79380397426E+03  0.20072376992E+04  0.21980358282E+04  0.10100000352E+00 0. -1.
       -3    1    3    3    0  502 -0.41501031466E+03  0.79380397426E+03 -0.45367106483E+03  0.10040795566E+04  0.10100000352E+00 0.  1.
</event>
<event>
 5   0  0.3522569E-07  0.2798417E+04  0.7818609E-02  0.8303760E-01
        2   -1    0    0  501    0  0.00000000000E+00  0.00000000000E+00  0.13223344773E+04  0.13223344773E+04  0.25500000920E-02 0.  1.
       -2   -1    0    0    0  501  0.00000000000E+00  0.00000000000E+00 -0.14805516417E+04  0.14805516417E+04  0.25500000920E-02 0. -1.
    10030    2    1    2    0    0  0.00000000000E+00  0.00000000000E+00 -0.15821716441E+03  0.28028861190E+04  0.27984170391E+04 0.  0.
        1    1    3    3  502    0 -0.38118980616E+03 -0.59588061661E+03 -0.12882668765E+04  0.14696975617E+04  0.50400001928E-02 0. -1.
       -1    1    3    3    0  502  0.38118980616E+03  0.59588061661E+03  0.11300497121E+04  0.13331885573E+04  0.50400001928E-02 0.  1.
</event>
<event>
 5   0  0.3406920E-07  0.2801481E+04  0.7818609E-02  0.8302809E-01
        2   -1    0    0  501    0  0.00000000000E+00  0.00000000000E+00  0.21721702714E+04  0.21721702714E+04  0.25500000920E-02 0.  1.
       -2   -1    0    0    0  501  0.00000000000E+00  0.00000000000E+00 -0.90327796401E+03  0.90327796402E+03  0.25500000920E-02 0. -1.
    10030    2    1    2    0    0  0.00000000000E+00  0.00000000000E+00  0.12688923074E+04  0.30754482354E+04  0.28014807087E+04 0.  0.
        4    1    3    3  502    0  0.10942684306E+04  0.19557361573E+03 -0.30119335164E+03  0.11516907073E+04  0.12699999809E+01 0. -1.
       -4    1    3    3    0  502 -0.10942684306E+04 -0.19557361573E+03  0.15700856590E+04  0.19237575281E+04  0.12699999809E+01 0.  1.
</event>
<event>
 5   0  0.1361741E-07  0.2799033E+04  0.7818609E-02  0.8303569E-01
        1   -1    0    0  501    0  0.00000000000E+00  0.00000000000E+00  0.16196143260E+04  0.16196143260E+04  0.50400001928E-02 0. -1.
       -1   -1    0    0    0  501  0.00000000000E+00  0.00000000000E+00 -0.12093289504E+04  0.12093289505E+04  0.50400001928E-02 0.  1.
    10030    2    1    2    0    0  0.00000000000E+00  0.00000000000E+00  0.41028537555E+03  0.28289432765E+04  0.27990330423E+04 0.  0.
        5    1    3    3  502    0  0.50751151487E+03  0.20635223140E+03  0.15067222119E+04  0.16032414338E+04  0.46999998093E+01 0. -1.
       -5    1    3    3    0  502 -0.50751151487E+03 -0.20635223140E+03 -0.10964368363E+04  0.12257018427E+04  0.46999998093E+01 0.  1.
</event>
<event>
 5   0  0.1357902E-07  0.2798769E+04  0.7818609E-02  0.8303651E-01
       -1   -1    0    0    0  501  0.00000000000E+00  0.00000000000E+00  0.10852304634E+04  0.10852304634E+04  0.50400001928E-02 0. -1.
        1   -1    0    0  501    0  0.00000000000E+00  0.00000000000E+00 -0.18044803663E+04  0.18044803663E+04  0.50400001928E-02 0.  1.
    10030    2    1    2    0    0  0.00000000000E+00  0.00000000000E+00 -0.71924990293E+03  0.28897108297E+04  0.27987690609E+04 0.  0.
        4    1    3    3  502    0  0.68208943417E+03 -0.68490386165E+02 -0.16192409919E+04  0.17583742298E+04  0.12699999809E+01 0.  1.
       -4    1    3    3    0  502 -0.68208943417E+03  0.68490386165E+02  0.89999108894E+03  0.11313365999E+04  0.12699999809E+01 0. -1.
</event>
<event>
 5   0  0.1173363E-07  0.2802257E+04  0.7818609E-02  0.8302568E-01
       -3   -1    0    0    0  501  0.00000000000E+00  0.00000000000E+00  0.14131994728E+04  0.14131994764E+04  0.10100000352E+00 0.  1.
        3   -1    0    0  501    0  0.00000000000E+00  0.00000000000E+00 -0.13891603255E+04  0.13891603292E+04  0.10100000352E+00 0. -1.
    10030    2    1    2    0    0  0.00000000000E+00  0.00000000000E+00  0.24039147244E+02  0.28023598056E+04  0.28022566976E+04 0.  0.
        2    1    3    3  502    0  0.33658436317E+03  0.67256137073E+03 -0.11701968466E+04  0.13910386374E+04  0.25500000920E-02 0. -1.
       -2    1    3    3    0  502 -0.33658436317E+03 -0.67256137073E+03  0.11942359938E+04  0.14113211682E+04  0.25500000920E-02 0.  1.
</event>
<event>
 5   0  0.3502141E-07  0.2799829E+04  0.7818609E-02  0.8303322E-01
        2   -1    0    0  501    0  0.00000000000E+00  0.00000000000E+00  0.12489491310E+04  0.12489491310E+04  0.25500000920E-02 0. -1.
       -2   -1    0    0    0  501  0.00000000000E+00  0.00000000000E+00 -0.15691271402E+04  0.15691271402E+04  0.25500000920E-02 0.  1.
    10030    2    1    2    0    0  0.00000000000E+00  0.00000000000E+00 -0.32017800926E+03  0.28180762712E+04  0.27998285506E+04 0.  0.
        3    1    3    3  502    0 -0.75323488986E+02  0.11906920080E+04  0.57703566566E+03  0.13252891215E+04  0.10100000352E+00 0. -1.
       -3    1    3    3    0  502  0.75323488986E+02 -0.11906920080E+04 -0.89721367493E+03  0.14927871498E+04  0.10100000352E+00 0.  1.
</event>
<event>
 5   0  0.3571498E-07  0.2799394E+04  0.7818609E-02  0.8303457E-01
        2   -1    0    0  501    0  0.00000000000E+00  0.00000000000E+00  0.10960534202E+04  0.10960534202E+04  0.25500000920E-02 0. -1.
       -2   -1    0    0    0  501  0.00000000000E+00  0.00000000000E+00 -0.17874594926E+04  0.17874594926E+04  0.25500000920E-02 0.  1.
    10030    2    1    2    0    0  0.00000000000E+00  0.00000000000E+00 -0.69140607241E+03  0.28835129128E+04  0.27993935703E+04 0.  0.
        2    1    3    3  502    0 -0.12616485271E+02  0.97279286152E+03  0.69084885028E+03  0.11932129990E+04  0.25500000920E-02 0. -1.
       -2    1    3    3    0  502  0.12616485271E+02 -0.97279286152E+03 -0.13822549227E+04  0.16902999138E+04  0.25500000920E-02 0.  1.
</event>
<event>
 5   0  0.3557628E-07  0.2800618E+04  0.7818609E-02  0.8303076E-01
       -2   -1    0    0    0  501  0.00000000000E+00  0.00000000000E+00  0.13131089246E+04  0.13131089246E+04  0.25500000920E-02 0. -1.
        2   -1    0    0  501    0  0.00000000000E+00  0.00000000000E+00 -0.14933000843E+04  0.14933000843E+04  0.25500000920E-02 0.  1.
    10030    2    1    2    0    0  0.00000000000E+00  0.00000000000E+00 -0.18019115968E+03  0.28064090089E+04  0.28006182659E+04 0.  0.
        5    1    3    3  502    0  0.35203445110E+03 -0.13480613796E+04  0.50357850553E+02  0.13941864082E+04  0.46999998093E+01 0. -1.
       -5    1    3    3    0  502 -0.35203445110E+03  0.13480613796E+04 -0.23054901023E+03  0.14122226007E+04  0.46999998093E+01 0.  1.
</event>
<event>
 5   0  0.1357902E-07  0.2800188E+04  0.7818609E-02  0.8303210E-01
       -1   -1    0    0    0  501  0.00000000000E+00  0.00000000000E+00  0.11860374934E+04  0.11860374934E+04  0.50400001928E-02 0. -1.
        1   -1    0    0  501    0  0.00000000000E+00  0.00000000000E+00 -0.16527833523E+04  0.16527833524E+04  0.50400001928E-02 0.  1.
    10030    2    1    2    0    0  0.00000000000E+00  0.00000000000E+00 -0.46674585897E+03  0.28388208457E+04  0.28001878682E+04 0.  0.
        4    1    3    3  502    0  0.49060030073E+03 -0.11761499301E+04 -0.82123866992E+03  0.15160646025E+04  0.12699999809E+01 0. -1.
       -4    1    3    3    0  502 -0.49060030073E+03  0.11761499301E+04  0.35449281095E+03  0.13227562432E+04  0.12699999809E+01 0.  1.
</event>
<event>
 5   0  0.1346049E-07  0.2814550E+04  0.7818609E-02  0.8298765E-01
       -1   -1    0    0    0  501  0.00000000000E+00  0.00000000000E+00  0.16480110714E+04  0.16480110714E+04  0.50400001928E-02 0. -1.
        1   -1    0    0  501    0  0.00000000000E+00  0.00000000000E+00 -0.12017048227E+04  0.12017048227E+04  0.50400001928E-02 0.  1.
    10030    2    1    2    0    0  0.00000000000E+00  0.00000000000E+00  0.44630624875E+03  0.28497158941E+04  0.28145499480E+04 0.  0.
        1    1    3    3  502    0  0.13863232918E+04 -0.23020142410E+03  0.14780634947E+03  0.14130575650E+04  0.50400001928E-02 0.  1.
       -1    1    3    3    0  502 -0.13863232918E+04  0.23020142410E+03  0.29849989928E+03  0.14366583292E+04  0.50400001928E-02 0. -1.
</event>
<event>
 5   0  0.3571498E-07  0.2796206E+04  0.7818609E-02  0.8304447E-01
       -2   -1    0    0    0  501  0.00000000000E+00  0.00000000000E+00  0.14448931538E+04  0.14448931538E+04  0.25500000920E-02 0.  1.
        2   -1    0    0  501    0  0.00000000000E+00  0.00000000000E+00 -0.13528284319E+04  0.13528284319E+04  0.25500000920E-02 0. -1.
    10030    2    1    2    0    0  0.00000000000E+00  0.00000000000E+00  0.92064721862E+02  0.27977215857E+04  0.27962063869E+04 0.  0.
        2    1    3    3  502    0 -0.13824024161E+04 -0.20411343825E+03  0.13561329637E+01  0.13973906307E+04  0.25500000920E-02 0.  1.
       -2    1    3    3    0  502  0.13824024161E+04  0.20411343825E+03  0.90708588898E+02  0.14003309551E+04  0.25500000920E-02 0. -1.
</event>
<event>
 5   0  0.1357902E-07  0.2799433E+04  0.7818609E-02  0.8303444E-01
        1   -1    0    0  501    0  0.00000000000E+00  0.00000000000E+00  0.15742588262E+04  0.15742588262E+04  0.50400001928E-02 0.  1.
       -1   -1    0    0    0  501  0.00000000000E+00  0.00000000000E+00 -0.12445264024E+04  0.12445264024E+04  0.50400001928E-02 0. -1.
    10030    2    1    2    0    0  0.00000000000E+00  0.00000000000E+00  0.32973242385E+03  0.28187852286E+04  0.27994332808E+04 0.  0.
        4    1    3    3  502    0 -0.52691075547E+03 -0.45546109798E+03  0.13873949200E+04  0.15524000879E+04  0.12699999809E+01 0.  1.
       -4    1    3    3    0  502  0.52691075547E+03  0.45546109798E+03 -0.10576624961E+04  0.12663851407E+04  0.12699999809E+01 0. -1.
</event>
<event>
 5   0  0.3406920E-07  0.2799356E+04  0.7818609E-02  0.8303468E-01
        2   -1    0    0  501    0  0.00000000000E+00  0.00000000000E+00  0.14536217487E+04  0.14536217487E+04  0.25500000920E-02 0.  1.
       -2   -1    0    0    0  501  0.00000000000E+00  0.00000000000E+00 -0.13477357675E+04  0.13477357675E+04  0.25500000920E-02 0. -1.
    10030    2    1    2    0    0  0.00000000000E+00  0.00000000000E+00  0.10588598121E+03  0.28013575162E+04  0.27993556566E+04 0.  0.
        4    1    3    3  502    0 -0.79584713851E+03 -0.11264990379E+04 -0.18539462047E+03  0.13916700501E+04  0.12699999809E+01 0. -1.
       -4    1    3    3    0  502  0.79584713851E+03  0.11264990379E+04  0.29128060169E+03  0.14096874661E+04  0.12699999809E+01 0.  1.
</event>
<event>
 5   0  0.1361741E-07  0.2799160E+04  0.7818609E-02  0.8303529E-01
        1   -1    0    0  501    0  0.00000000000E+00  0.00000000000E+00  0.15596007189E+04  0.15596007189E+04  0.50400001928E-02 0. -1.
       -1   -1    0    0    0  501  0.00000000000E+00  0.00000000000E+00 -0.12559781293E+04  0.12559781293E+04  0.50400001928E-02 0.  1.
    10030    2    1    2    0    0  0.00000000000E+00  0.00000000000E+00  0.30362258959E+03  0.28155788482E+04  0.27991601550E+04 0.  0.
        5    1    3    3  502    0  0.13452658718E+04 -0.37917814809E+03  0.22494242241E+03  0.14156756399E+04  0.46999998093E+01 0.  1.
       -5    1    3    3    0  502 -0.13452658718E+04  0.37917814809E+03  0.78680167176E+02  0.13999032083E+04  0.46999998093E+01 0. -1.
</event>
<event>
 5   0  0.3502141E-07  0.2797664E+04  0.7818609E-02  0.8303994E-01
       -2   -1    0    0    0  501  0.00000000000E+00  0.00000000000E+00  0.19457684458E+04  0.19457684458E+04  0.25500000920E-02 0. -1.
        2   -1    0    0  501    0  0.00000000000E+00  0.00000000000E+00 -0.10056342833E+04  0.10056342833E+04  0.25500000920E-02 0.  1.
    10030    2    1    2    0    0  0.00000000000E+00  0.00000000000E+00  0.94013416256E+03  0.29514027291E+04  0.27976643518E+04 0.  0.
        3    1    3    3  502    0  0.38516956800E+03 -0.79176723699E+03  0.16167573929E+04  0.18409658963E+04  0.10100000352E+00 0.  1.
       -3    1    3    3    0  502 -0.38516956800E+03  0.79176723699E+03 -0.67662323029E+03  0.11104368328E+04  0.10100000352E+00 0. -1.
</event>
<event>
 5   0  0.3522569E-07  0.2800027E+04  0.7818609E-02  0.8303260E-01
        2   -1    0    0  501    0  0.00000000000E+00  0.00000000000E+00  0.13213000753E+04  0.13213000753E+04  0.25500000920E-02 0.  1.
       -2   -1    0    0    0  501  0.00000000000E+00  0.00000000000E+00 -0.14834155997E+04  0.14834155998E+04  0.25500000920E-02 0. -1.
    10030    2    1    2    0    0  0.00000000000E+00  0.00000000000E+00 -0.16211552442E+03  0.28047156751E+04  0.28000265311E+04 0.  0.
        1    1    3    3  502    0  0.32027848738E+02  0.10641074999E+03 -0.14789909072E+04  0.14831598479E+04  0.50400001928E-02 0. -1.
       -1    1    3    3    0  502 -0.32027848738E+02 -0.10641074999E+03  0.13168753827E+04  0.13215558272E+04  0.50400001928E-02 0.  1.
</event>
<event>
 5   0  0.1374680E-07  0.2794881E+04  0.7818609E-02  0.8304859E-01
        1   -1    0    0  501    0  0.00000000000E+00  0.00000000000E+00  0.11867458008E+04  0.11867458008E+04  0.50400001928E-02 0. -1.
       -1   -1    0    0    0  501  0.00000000000E+00  0.00000000000E+00 -0.16455424356E+04  0.16455424356E+04  0.50400001928E-02 0.  1.
    10030    2    1    2    0    0  0.00000000000E+00  0.00000000000E+00 -0.45879663477E+03  0.28322882364E+04  0.27948814468E+04 0.  0.
        3    1    3    3  502    0 -0.20256034755E+01 -0.73921574157E+03 -0.14311865685E+04  0.16108193628E+04  0.10100000352E+00 0.  1.
       -3    1    3    3    0  502  0.20256034755E+01  0.73921574157E+03  0.97238993372E+03  0.12214688736E+04  0.10100000352E+00 0. -1.
</event>
<event>
 5   0  0.1357902E-07  0.2800306E+04  0.7818609E-02  0.8303173E-01
       -1   -1    0    0    0  501  0.00000000000E+00  0.00000000000E+00  0.10809162325E+04  0.10809162326E+04  0.50400001928E-02 0.  1.
        1   -1    0    0  501    0  0.00000000000E+00  0.00000000000E+00 -0.18136724444E+04  0.18136724444E+04  0.50400001928E-02 0. -1.
    10030    2    1    2    0    0  0.00000000000E+00  0.00000000000E+00 -0.73275621187E+03  0.28945886770E+04  0.28003056874E+04 0.  0.
        4    1    3    3  502    0  0.12188530401E+04  0.40083285275E+03  0.21298996097E+03  0.13006290961E+04  0.12699999809E+01 0. -1.
       -4    1    3    3    0  502 -0.12188530401E+04 -0.40083285275E+03 -0.94574617284E+03  0.15939595809E+04  0.12699999809E+01 0.  1.
</event>
<event>
 5   0  0.1357902E-07  0.2800862E+04  0.7818609E-02  0.8303001E-01
       -1   -1    0    0    0  501  0.00000000000E+00  0.00000000000E+00  0.16517583517E+04  0.16517583517E+04  0.50400001928E-02 0. -1.
        1   -1    0    0  501    0  0.00000000000E+00  0.00000000000E+00 -0.11873448848E+04  0.11873448848E+04  0.50400001928E-02 0.  1.
    10030    2    1    2    0    0  0.00000000000E+00  0.00000000000E+00  0.46441346696E+03  0.28391032365E+04  0.28008618886E+04 0.  0.
        4    1    3    3  502    0 -0.74549912377E+03 -0.11170686360E+04  0.63460790981E+03  0.14853754048E+04  0.12699999809E+01 0. -1.
       -4    1    3    3    0  502  0.74549912377E+03  0.11170686360E+04 -0.17019444285E+03  0.13537278317E+04  0.12699999809E+01 0.  1.
</event>
<event>
 5   0  0.1357902E-07  0.2800192E+04  0.7818609E-02  0.8303209E-01
        1   -1    0    0  501    0  0.00000000000E+00  0.00000000000E+00  0.16217369393E+04  0.16217369393E+04  0.50400001928E-02 0. -1.
       -1   -1    0    0    0  501  0.00000000000E+00  0.00000000000E+00 -0.12087463672E+04  0.12087463672E+04  0.50400001928E-02 0.  1.
    10030    2    1    2    0    0  0.00000000000E+00  0.00000000000E+00  0.41299057212E+03  0.28304833065E+04  0.28001918748E+04 0.  0.
        4    1    3    3  502    0  0.76785885252E+03  0.95924365616E+03 -0.47196699000E+03  0.13162484803E+04  0.12699999809E+01 0.  1.
       -4    1    3    3    0  502 -0.76785885252E+03 -0.95924365616E+03  0.88495756212E+03  0.15142348262E+04  0.12699999809E+01 0. -1.
</event>
<event>
 5   0  0.1374680E-07  0.2799848E+04  0.7818609E-02  0.8303315E-01
       -1   -1    0    0    0  501  0.00000000000E+00  0.00000000000E+00  0.10105241394E+04  0.10105241394E+04  0.50400001928E-02 0.  1.
        1   -1    0    0  501    0  0.00000000000E+00  0.00000000000E+00 -0.19393772293E+04  0.19393772293E+04  0.50400001928E-02 0. -1.
    10030    2    1    2    0    0  0.00000000000E+00  0.00000000000E+00 -0.92885308983E+03  0.29499013687E+04  0.27998482142E+04 0.  0.
        3    1    3    3  502    0 -0.51995382174E+03 -0.68004456359E+03 -0.16314802683E+04  0.18424278714E+04  0.10100000352E+00 0. -1.
       -3    1    3    3    0  502  0.51995382174E+03  0.68004456359E+03  0.70262717846E+03  0.11074734973E+04  0.10100000352E+00 0.  1.
</event>
<event>
 5   0  0.3557628E-07  0.2800408E+04  0.7818609E-02  0.8303142E-01
       -2   -1    0    0    0  501  0.00000000000E+00  0.00000000000E+00  0.12985333994E+04  0.12985333994E+04  0.25500000920E-02 0.  1.
        2   -1    0    0  501    0  0.00000000000E+00  0.00000000000E+00 -0.15098348655E+04  0.15098348655E+04  0.25500000920E-02 0. -1.
    10030    2    1    2    0    0  0.00000000000E+00  0.00000000000E+00 -0.21130146610E+03  0.28083682650E+04  0.28004078278E+04 0.  0.
        5    1    3    3  502    0  0.65921837306E+03 -0.29862874214E+03 -0.13077243705E+04  0.14946280836E+04  0.46999998093E+01 0. -1.
       -5    1    3    3    0  502 -0.65921837306E+03  0.29862874214E+03  0.10964229044E+04  0.13137401814E+04  0.46999998093E+01 0.  1.
</event>
<event>
 5   0  0.3571498E-07  0.2800713E+04  0.7818609E-02  0.8303047E-01
       -2   -1    0    0    0  501  0.00000000000E+00  0.00000000000E+00  0.95772679221E+03  0.95772679222E+03  0.25500000920E-02 0. -1.
        2   -1    0    0  501    0  0.00000000000E+00  0.00000000000E+00 -0.20475549344E+04  0.20475549344E+04  0.25500000920E-02 0.  1.
    10030    2    1    2    0    0  0.00000000000E+00  0.00000000000E+00 -0.10898281422E+04  0.30052817266E+04  0.28007129230E+04 0.  0.
        2    1    3    3  502    0  0.37264998817E+03 -0.35248435335E+03 -0.19431186801E+04  0.20096824221E+04  0.25500000920E-02 0.  1.
       -2    1    3    3    0  502 -0.37264998817E+03  0.35248435335E+03  0.85329053788E+03  0.99559930448E+03  0.25500000920E-02 0. -1.
</event>
<event>
 5   0  0.1366235E-07  0.2813091E+04  0.7818609E-02  0.8299216E-01
        1   -1    0    0  501    0  0.00000000000E+00  0.00000000000E+00  0.11707378744E+04  0.11707378744E+04  0.50400001928E-02 0.  1.
       -1   -1    0    0    0  501  0.00000000000E+00  0.00000000000E+00 -0.16898490827E+04  0.16898490827E+04  0.50400001928E-02 0. -1.
    10030    2    1    2    0    0  0.00000000000E+00  0.00000000000E+00 -0.51911120829E+03  0.28605869571E+04  0.28130910566E+04 0.  0.
        2    1    3    3  502    0  0.28942202155E+03 -0.85375362043E+03 -0.13574652988E+04  0.16295313401E+04  0.25500000920E-02 0. -1.
       -2    1    3    3    0  502 -0.28942202155E+03  0.85375362043E+03  0.83835409052E+03  0.12310556170E+04  0.25500000920E-02 0.  1.
</event>
<event>
 5   0  0.1346049E-07  0.2800166E+04  0.7818609E-02  0.8303217E-01
       -1   -1    0    0    0  501  0.00000000000E+00  0.00000000000E+00  0.19721795722E+04  0.19721795722E+04  0.50400001928E-02 0. -1.
        1   -1    0    0  501    0  0.00000000000E+00  0.00000000000E+00 -0.99394220168E+03  0.99394220170E+03  0.50400001928E-02 0.  1.
    10030    2    1    2    0    0  0.00000000000E+00  0.00000000000E+00  0.97823737055E+03  0.29661217739E+04  0.28001660709E+04 0.  0.
        1    1    3    3  502    0 -0.15778918832E+03 -0.10938453945E+04 -0.42138058773E+03  0.11827750314E+04  0.50400001928E-02 0.  1.
       -1    1    3    3    0  502  0.15778918832E+03  0.10938453945E+04  0.13996179583E+04  0.17833467426E+04  0.50400001928E-02 0. -1.
</event>
<event>
 5   0  0.1374680E-07  0.2802597E+04  0.7818609E-02  0.8302462E-01
        1   -1    0    0  501    0  0.00000000000E+00  0.00000000000E+00  0.10026717845E+04  0.10026717845E+04  0.50400001928E-02 0. -1.
       -1   -1    0    0    0  501  0.00000000000E+00  0.00000000000E+00 -0.19584054530E+04  0.19584054530E+04  0.50400001928E-02 0.  1.
    10030    2    1    2    0    0  0.00000000000E+00  0.00000000000E+00 -0.95573366851E+03  0.29610772375E+04  0.28025972885E+04 0.  0.
        3    1    3    3  502    0 -0.11555730750E+04 -0.19343420945E+03 -0.12900158586E+04  0.17426723303E+04  0.10100000352E+00 0.  1.
       -3    1    3    3    0  502  0.11555730750E+04  0.19343420945E+03  0.33428219007E+03  0.12184049072E+04  0.10100000352E+00 0. -1.
</event>
<event>
 5   0  0.1346049E-07  0.2800538E+04  0.7818609E-02  0.8303101E-01
        1   -1    0    0  501    0  0.00000000000E+00  0.00000000000E+00  0.16900440265E+04  0.16900440265E+04  0.50400001928E-02 0. -1.
       -1   -1    0    0    0  501  0.00000000000E+00  0.00000000000E+00 -0.11601787795E+04  0.11601787795E+04  0.50400001928E-02 0.  1.
    10030    2    1    2    0    0  0.00000000000E+00  0.00000000000E+00  0.52986524699E+03  0.28502228060E+04  0.28005379597E+04 0.  0.
        1    1    3    3  502    0  0.19499634616E+02 -0.74371603237E+03 -0.94239304172E+03  0.12006658226E+04  0.50400001928E-02 0.  1.
       -1    1    3    3    0  502 -0.19499634616E+02  0.74371603237E+03  0.14722582887E+04  0.16495569833E+04  0.50400001928E-02 0. -1.
</event>
<event>
 5   0  0.1357902E-07  0.2798654E+04  0.7818609E-02  0.8303686E-01
       -1   -1    0    0    0  501  0.00000000000E+00  0.00000000000E+00  0.71092623184E+03  0.71092623186E+03  0.50400001928E-02 0. -1.
        1   -1    0    0  501    0  0.00000000000E+00  0.00000000000E+00 -0.27543171356E+04  0.27543171356E+04  0.50400001928E-02 0.  1.
    10030    2    1    2    0    0  0.00000000000E+00  0.00000000000E+00 -0.20433909038E+04  0.34652433675E+04  0.27986541784E+04 0.  0.
        4    1    3    3  502    0  0.13096535592E+04  0.33271649117E+03 -0.57146347837E+03  0.14671280887E+04  0.12699999809E+01 0. -1.
       -4    1    3    3    0  502 -0.13096535592E+04 -0.33271649117E+03 -0.14719274254E+04  0.19981152788E+04  0.12699999809E+01 0.  1.
</event>
<event>
 5   0  0.1357902E-07  0.2800360E+04  0.7818609E-02  0.8303157E-01
       -1   -1    0    0    0  501  0.00000000000E+00  0.00000000000E+00  0.11026391973E+04  0.11026391973E+04  0.50400001928E-02 0.  1.
        1   -1    0    0  501    0  0.00000000000E+00  0.00000000000E+00 -0.17780107833E+04  0.17780107833E+04  0.50400001928E-02 0. -1.
    10030    2    1    2    0    0  0.00000000000E+00  0.00000000000E+00 -0.67537158605E+03  0.28806499806E+04  0.28003602503E+04 0.  0.
        4    1    3    3  502    0  0.32859145486E+03 -0.79238126688E+03 -0.14760592766E+04  0.17072179173E+04  0.12699999809E+01 0. -1.
       -4    1    3    3    0  502 -0.32859145486E+03  0.79238126688E+03  0.80068769056E+03  0.11734320632E+04  0.12699999809E+01 0.  1.
</event>
<event>
 5   0  0.1374680E-07  0.2798886E+04  0.7818609E-02  0.8303614E-01
        1   -1    0    0  501    0  0.00000000000E+00  0.00000000000E+00  0.25198807026E+04  0.25198807026E+04  0.50400001928E-02 0. -1.
       -1   -1    0    0    0  501  0.00000000000E+00  0.00000000000E+00 -0.77719606285E+03  0.77719606287E+03  0.50400001928E-02 0.  1.
    10030    2    1    2    0    0  0.00000000000E+00  0.00000000000E+00  0.17426846398E+04  0.32970767655E+04  0.27988864650E+04 0.  0.
        3    1    3    3  502    0  0.74748007550E+03 -0.65918901851E+03 -0.28596579169E+03  0.10368380151E+04  0.10100000352E+00 0.  1.
       -3    1    3    3    0  502 -0.74748007550E+03  0.65918901851E+03  0.20286504315E+04  0.22602387504E+04  0.10100000352E+00 0. -1.
</event>
<event>
 5   0  0.3571498E-07  0.2797619E+04  0.7818609E-02  0.8304008E-01
        2   -1    0    0  501    0  0.00000000000E+00  0.00000000000E+00  0.17750039364E+04  0.17750039364E+04  0.25500000920E-02 0. -1.
       -2   -1    0    0    0  501  0.00000000000E+00  0.00000000000E+00 -0.11023457826E+04  0.11023457826E+04  0.25500000920E-02 0.  1.
    10030    2    1    2    0    0  0.00000000000E+00  0.00000000000E+00  0.67265815372E+03  0.28773497190E+04  0.27976190616E+04 0.  0.
        2    1    3    3  502    0 -0.11656374480E+04 -0.77141012114E+03  0.39156120518E+03  0.14515868602E+04  0.25500000920E-02 0.  1.
       -2    1    3    3    0  502  0.11656374480E+04  0.77141012114E+03  0.28109694854E+03  0.14257628588E+04  0.25500000920E-02 0. -1.
</event>
<event>
 5   0  0.1173363E-07  0.2800089E+04  0.7818609E-02  0.8303241E-01
        3   -1    0    0  501    0  0.00000000000E+00  0.00000000000E+00  0.11812605159E+04  0.11812605202E+04  0.10100000352E+00 0. -1.
       -3   -1    0    0    0  501  0.00000000000E+00  0.00000000000E+00 -0.16593497269E+04  0.16593497300E+04  0.10100000352E+00 0.  1.
    10030    2    1    2    0    0  0.00000000000E+00  0.00000000000E+00 -0.47808921106E+03  0.28406102502E+04  0.28000888021E+04 0.  0.
        2    1    3    3  502    0 -0.84209460933E+03  0.48442366809E+03  0.78367886487E+03  0.12481755423E+04  0.25500000920E-02 0. -1.
       -2    1    3    3    0  502  0.84209460933E+03 -0.48442366809E+03 -0.12617680759E+04  0.15924347078E+04  0.25500000920E-02 0.  1.
</event>
<event>
 5   0  0.3522569E-07  0.2792409E+04  0.7818609E-02  0.8305629E-01
       -2   -1    0    0    0  501  0.00000000000E+00  0.00000000000E+00  0.14136089183E+04  0.14136089183E+04  0.25500000920E-02 0.  1.
        2   -1    0    0  501    0  0.00000000000E+00  0.00000000000E+00 -0.13790140251E+04  0.13790140251E+04  0.25500000920E-02 0. -1.
    10030    2    1    2    0    0  0.00000000000E+00  0.00000000000E+00  0.34594893197E+02  0.27926229434E+04  0.27924086551E+04 0.  0.
        1    1    3    3  502    0  0.18053357960E+03  0.77760944175E+03  0.11628624153E+04  0.14105026814E+04  0.50400001928E-02 0.  1.
       -1    1    3    3    0  502 -0.18053357960E+03 -0.77760944175E+03 -0.11282675221E+04  0.13821202620E+04  0.50400001928E-02 0. -1.
</event>
<event>
 5   0  0.1374680E-07  0.2800294E+04  0.7818609E-02  0.8303177E-01
        1   -1    0    0  501    0  0.00000000000E+00  0.00000000000E+00  0.18855826055E+04  0.18855826055E+04  0.50400001928E-02 0. -1.
       -1   -1    0    0    0  501  0.00000000000E+00  0.00000000000E+00 -0.10396851358E+04  0.10396851358E+04  0.50400001928E-02 0.  1.
    10030    2    1    2    0    0  0.00000000000E+00  0.00000000000E+00  0.84589746972E+03  0.29252677413E+04  0.28002944183E+04 0.  0.
        3    1    3    3  502    0 -0.50424396007E+03  0.11127339353E+04 -0.29166690744E+03  0.12559890036E+04  0.10100000352E+00 0.  1.
       -3    1    3    3    0  502  0.50424396007E+03 -0.11127339353E+04  0.11375643772E+04  0.16692787378E+04  0.10100000352E+00 0. -1.
</event>
<event>
 5   0  0.3522569E-07  0.2799812E+04  0.7818609E-02  0.8303327E-01
        2   -1    0    0  501    0  0.00000000000E+00  0.00000000000E+00  0.15722128804E+04  0.15722128804E+04  0.25500000920E-02 0.  1.
       -2   -1    0    0    0  501  0.00000000000E+00  0.00000000000E+00 -0.12464828032E+04  0.12464828032E+04  0.25500000920E-02 0. -1.
    10030    2    1    2    0    0  0.00000000000E+00  0.00000000000E+00  0.32573007718E+03  0.28186956835E+04  0.27998116496E+04 0.  0.
        1    1    3    3  502    0  0.13766832934E+04 -0.24784682269E+03  0.21847691425E+03  0.14157743818E+04  0.50400001928E-02 0.  1.
       -1    1    3    3    0  502 -0.13766832934E+04  0.24784682269E+03  0.10725316293E+03  0.14029213018E+04  0.50400001928E-02 0. -1.
</event>
<event>
 5   0  0.1346049E-07  0.2800349E+04  0.7818609E-02  0.8303160E-01
       -1   -1    0    0    0  501  0.00000000000E+00  0.00000000000E+00  0.16056386155E+04  0.16056386155E+04  0.50400001928E-02 0.  1.
        1   -1    0    0  501    0  0.00000000000E+00  0.00000000000E+00 -0.12210026581E+04  0.12210026581E+04  0.50400001928E-02 0. -1.
    10030    2    1    2    0    0  0.00000000000E+00  0.00000000000E+00  0.38463595741E+03  0.28266412736E+04  0.28003492764E+04 0.  0.
        1    1    3    3  502    0  0.12412728659E+04  0.43449035116E+03  0.67740133267E+03  0.14793284822E+04  0.50400001928E-02 0.  1.
       -1    1    3    3    0  502 -0.12412728659E+04 -0.43449035116E+03 -0.29276537525E+03  0.13473127914E+04  0.50400001928E-02 0. -1.
</event>
<event>
 5   0  0.3557628E-07  0.2798856E+04  0.7818609E-02  0.8303624E-01
        2   -1    0    0  501    0  0.00000000000E+00  0.00000000000E+00  0.29397459112E+04  0.29397459112E+04  0.25500000920E-02 0. -1.
       -2   -1    0    0    0  501  0.00000000000E+00  0.00000000000E+00 -0.66617975104E+03  0.66617975104E+03  0.25500000920E-02 0.  1.
    10030    2    1    2    0    0  0.00000000000E+00  0.00000000000E+00  0.22735661602E+04  0.36059256622E+04  0.27988563373E+04 0.  0.
        5    1    3    3  502    0 -0.26506544382E+03 -0.13109944248E+04  0.60650092376E+03  0.14686155154E+04  0.46999998093E+01 0.  1.
       -5    1    3    3    0  502  0.26506544382E+03  0.13109944248E+04  0.16670652364E+04  0.21373101469E+04  0.46999998093E+01 0. -1.
</event>
<event>
 5   0  0.1366235E-07  0.2799165E+04  0.7818609E-02  0.8303528E-01
        1   -1    0    0  501    0  0.00000000000E+00  0.00000000000E+00  0.17475633200E+04  0.17475633200E+04  0.50400001928E-02 0. -1.
       -1   -1    0    0    0  501  0.00000000000E+00  0.00000000000E+00 -0.11208925335E+04  0.11208925336E+04  0.50400001928E-02 0.  1.
    10030    2    1    2    0    0  0.00000000000E+00  0.00000000000E+00  0.62667078647E+03  0.28684558536E+04  0.27991646449E+04 0.  0.
        2    1    3    3  502    0 -0.46169558732E+03 -0.15037266315E+03 -0.10318105707E+04  0.11403542463E+04  0.25500000920E-02 0.  1.
       -2    1    3    3    0  502  0.46169558732E+03  0.15037266315E+03  0.16584813572E+04  0.17281016073E+04  0.25500000920E-02 0. -1.
</event>
<event>
 5   0  0.3502141E-07  0.2800290E+04  0.7818609E-02  0.8303178E-01
       -2   -1    0    0    0  501  0.00000000000E+00  0.00000000000E+00  0.98922759088E+03  0.98922759089E+03  0.25500000920E-02 0.  1.
        2   -1    0    0  501    0  0.00000000000E+00  0.00000000000E+00 -0.19817541372E+04  0.19817541372E+04  0.25500000920E-02 0. -1.
    10030    2    1    2    0    0  0.00000000000E+00  0.00000000000E+00 -0.99252654632E+03  0.29709817281E+04  0.28002898928E+04 0.  0.
        3    1    3    3  502    0 -0.12430822512E+03  0.13930995896E+04 -0.56524052387E+03  0.15085343422E+04  0.10100000352E+00 0.  1.
       -3    1    3    3    0  502  0.12430822512E+03 -0.13930995896E+04 -0.42728602245E+03  0.14624473859E+04  0.10100000352E+00 0. -1.
</event>
<event>
 5   0  0.3571498E-07  0.2799709E+04  0.7818609E-02  0.8303359E-01
        2   -1    0    0  501    0  0.00000000000E+00  0.00000000000E+00  0.10406411303E+04  0.10406411303E+04  0.25500000920E-02 0.  1.
       -2   -1    0    0    0  501  0.00000000000E+00  0.00000000000E+00 -0.18830624473E+04  0.18830624473E+04  0.25500000920E-02 0. -1.
    10030    2    1    2    0    0  0.00000000000E+00  0.00000000000E+00 -0.84242131698E+03  0.29237035776E+04  0.27997087231E+04 0.  0.
        2    1    3    3  502    0 -0.69470143549E+03 -0.70040711211E+03  0.61595867671E+03  0.11630070071E+04  0.25500000920E-02 0.  1.
       -2    1    3    3    0  502  0.69470143549E+03  0.70040711211E+03 -0.14583799937E+04  0.17606965704E+04  0.25500000920E-02 0. -1.
</event>
<event>
 5   0  0.1366235E-07  0.2798579E+04  0.7818609E-02  0.8303710E-01
        1   -1    0    0  501    0  0.00000000000E+00  0.00000000000E+00  0.20705942880E+04  0.20705942880E+04  0.50400001928E-02 0.  1.
       -1   -1    0    0    0  501  0.00000000000E+00  0.00000000000E+00 -0.94562738007E+03  0.94562738008E+03  0.50400001928E-02 0. -1.
    10030    2    1    2    0    0  0.00000000000E+00  0.00000000000E+00  0.11249669079E+04  0.30162216680E+04  0.27985786762E+04 0.  0.
        2    1    3    3  502    0 -0.81747654168E+03  0.10881227442E+04  0.21203170009E+03  0.13774020635E+04  0.25500000920E-02 0. -1.
       -2    1    3    3    0  502  0.81747654168E+03 -0.10881227442E+04  0.91293520779E+03  0.16388196046E+04  0.25500000920E-02 0.  1.
</event>
<event>
 5   0  0.3557628E-07  0.2802519E+04  0.7818609E-02  0.8302487E-01
       -2   -1    0    0    0  501  0.00000000000E+00  0.00000000000E+00  0.10112369435E+04  0.10112369435E+04  0.25500000920E-02 0. -1.
        2   -1    0    0  501    0  0.00000000000E+00  0.00000000000E+00 -0.19417090112E+04  0.19417090112E+04  0.25500000920E-02 0.  1.
    10030    2    1    2    0    0  0.00000000000E+00  0.00000000000E+00 -0.93047206768E+03  0.29529459548E+04  0.28025187855E+04 0.  0.
        5    1    3    3  502    0 -0.77531425657E+03  0.26207146124E+03  0.73323017739E+03  0.10988367623E+04  0.46999998093E+01 0. -1.
       -5    1    3    3    0  502  0.77531425657E+03 -0.26207146124E+03 -0.16637022451E+04  0.18541091924E+04  0.46999998093E+01 0.  1.
</event>
<event>
 5   0  0.3557628E-07  0.2798066E+04  0.7818609E-02  0.8303869E-01
       -2   -1    0    0    0  501  0.00000000000E+00  0.00000000000E+00  0.10493178069E+04  0.10493178069E+04  0.25500000920E-02 0. -1.
        2   -1    0    0  501    0  0.00000000000E+00  0.00000000000E+00 -0.18653004413E+04  0.18653004413E+04  0.25500000920E-02 0.  1.
    10030    2    1    2    0    0  0.00000000000E+00  0.00000000000E+00 -0.81598263440E+03  0.29146182482E+04  0.27980657378E+04 0.  0.
        5    1    3    3  502    0 -0.11372701120E+04  0.98063991717E+02 -0.12505547553E+04  0.16931949504E+04  0.46999998093E+01 0.  1.
       -5    1    3    3    0  502  0.11372701120E+04 -0.98063991717E+02  0.43457212093E+03  0.12214232978E+04  0.46999998093E+01 0. -1.
</event>
<event>
 5   0  0.3502141E-07  0.2804194E+04  0.7818609E-02  0.8301967E-01
       -2   -1    0    0    0  501  0.00000000000E+00  0.00000000000E+00  0.13212263393E+04  0.13212263393E+04  0.25500000920E-02 0.  1.
        2   -1    0    0  501    0  0.00000000000E+00  0.00000000000E+00 -0.14879178488E+04  0.14879178488E+04  0.25500000920E-02 0. -1.
    10030    2    1    2    0    0  0.00000000000E+00  0.00000000000E+00 -0.16669150945E+03  0.28091441881E+04  0.28041941820E+04 0.  0.
        3    1    3    3  502    0 -0.95283899005E+03 -0.97617946461E+03  0.24133708347E+03  0.13853057735E+04  0.10100000352E+00 0.  1.
       -3    1    3    3    0  502  0.95283899005E+03  0.97617946461E+03 -0.40802859293E+03  0.14238384146E+04  0.10100000352E+00 0. -1.
</event>
<event>
 5   0  0.3522569E-07  0.2799346E+04  0.7818609E-02  0.8303471E-01
        2   -1    0    0  501    0  0.00000000000E+00  0.00000000000E+00  0.17461507180E+04  0.17461507180E+04  0.25500000920E-02 0.  1.
       -2   -1    0    0    0  501  0.00000000000E+00  0.00000000000E+00 -0.11219450740E+04  0.11219450740E+04  0.25500000920E-02 0. -1.
    10030    2    1    2    0    0  0.00000000000E+00  0.00000000000E+00  0.62420564402E+03  0.28680957920E+04  0.27993464927E+04 0.  0.
        1    1    3    3  502    0  0.71980952914E+03  0.99561041321E+03 -0.37497792494E+03  0.12845132531E+04  0.50400001928E-02 0. -1.
       -1    1    3    3    0  502 -0.71980952914E+03 -0.99561041321E+03  0.99918356896E+03  0.15835825389E+04  0.50400001928E-02 0.  1.
</event>
<event>
 5   0  0.1361741E-07  0.2800121E+04  0.7818609E-02  0.8303231E-01
       -1   -1    0    0    0  501  0.00000000000E+00  0.00000000000E+00  0.57174493978E+03  0.57174493980E+03  0.50400001928E-02 0. -1.
        1   -1    0    0  501    0  0.00000000000E+00  0.00000000000E+00 -0.34283981847E+04  0.34283981847E+04  0.50400001928E-02 0.  1.
    10030    2    1    2    0    0  0.00000000000E+00  0.00000000000E+00 -0.28566532449E+04  0.40001431245E+04  0.28001209357E+04 0.  0.
        5    1    3    3  502    0  0.11668227004E+04 -0.72800933504E+03 -0.18026924806E+04  0.22674203571E+04  0.46999998093E+01 0. -1.
       -5    1    3    3    0  502 -0.11668227004E+04  0.72800933504E+03 -0.10539607642E+04  0.17327227674E+04  0.46999998093E+01 0.  1.
</event>
<event>
 5   0  0.1346049E-07  0.2801067E+04  0.7818609E-02  0.8302937E-01
        1   -1    0    0  501    0  0.00000000000E+00  0.00000000000E+00  0.12442669818E+04  0.12442669818E+04  0.50400001928E-02 0. -1.
       -1   -1    0    0    0  501  0.00000000000E+00  0.00000000000E+00 -0.15764249373E+04  0.15764249373E+04  0.50400001928E-02 0.  1.
    10030    2    1    2    0    0  0.00000000000E+00  0.00000000000E+00 -0.33215795550E+03  0.28206919191E+04  0.28010665817E+04 0.  0.
        1    1    3    3  502    0  0.72736989563E+03 -0.77639720893E+03  0.75114514702E+03  0.13023358334E+04  0.50400001928E-02 0. -1.
       -1    1    3    3    0  502 -0.72736989563E+03  0.77639720893E+03 -0.10833031025E+04  0.15183560857E+04  0.50400001928E-02 0.  1.
</event>
<event>
 5   0  0.3571498E-07  0.2799696E+04  0.7818609E-02  0.8303363E-01
       -2   -1    0    0    0  501  0.00000000000E+00  0.00000000000E+00  0.98472336365E+03  0.98472336365E+03  0.25500000920E-02 0. -1.
        2   -1    0    0  501    0  0.00000000000E+00  0.00000000000E+00 -0.19899739394E+04  0.19899739394E+04  0.25500000920E-02 0.  1.
    10030    2    1    2    0    0  0.00000000000E+00  0.00000000000E+00 -0.10052505758E+04  0.29746973031E+04  0.27996955772E+04 0.  0.
        2    1    3    3  502    0  0.64473543510E+03 -0.58663042649E+03  0.66117434331E+03  0.10940614932E+04  0.25500000920E-02 0. -1.
       -2    1    3    3    0  502 -0.64473543510E+03  0.58663042649E+03 -0.16664249191E+04  0.18806358099E+04  0.25500000920E-02 0.  1.
</event>
<event>
 5   0  0.1366235E-07  0.2801603E+04  0.7818609E-02  0.8302771E-01
        1   -1    0    0  501    0  0.00000000000E+00  0.00000000000E+00  0.12408968429E+04  0.12408968429E+04  0.50400001928E-02 0. -1.
       -1   -1    0    0    0  501  0.00000000000E+00  0.00000000000E+00 -0.15813116113E+04  0.15813116113E+04  0.50400001928E-02 0.  1.
    10030    2    1    2    0    0  0.00000000000E+00  0.00000000000E+00 -0.34041476835E+03  0.28222084542E+04  0.28016028170E+04 0.  0.
        2    1    3    3  502    0 -0.56528012688E+02 -0.39511343533E+03 -0.15228171007E+04  0.15742560037E+04  0.25500000920E-02 0.  1.
       -2    1    3    3    0  502  0.56528012688E+02  0.39511343533E+03  0.11824023324E+04  0.12479524505E+04  0.25500000920E-02 0. -1.
</event>
<event>
 5   0  0.3522569E-07  0.2800012E+04  0.7818609E-02  0.8303265E-01
        2   -1    0    0  501    0  0.00000000000E+00  0.00000000000E+00  0.12055398767E+04  0.12055398767E+04  0.25500000920E-02 0.  1.
       -2   -1    0    0    0  501  0.00000000000E+00  0.00000000000E+00 -0.16258414735E+04  0.16258414735E+04  0.25500000920E-02 0. -1.
    10030    2    1    2    0    0  0.00000000000E+00  0.00000000000E+00 -0.42030159676E+03  0.28313813502E+04  0.28000119497E+04 0.  0.
        1    1    3    3  502    0  0.38483637596E+03 -0.40862537044E+03 -0.15070729528E+04  0.16082109982E+04  0.50400001928E-02 0. -1.
       -1    1    3    3    0  502 -0.38483637596E+03  0.40862537044E+03  0.10867713561E+04  0.12231703520E+04  0.50400001928E-02 0.  1.
</event>
<event>
 5   0  0.3557628E-07  0.2800981E+04  0.7818609E-02  0.8302964E-01
        2   -1    0    0  501    0  0.00000000000E+00  0.00000000000E+00  0.13027700631E+04  0.13027700631E+04  0.25500000920E-02 0. -1.
       -2   -1    0    0    0  501  0.00000000000E+00  0.00000000000E+00 -0.15055411994E+04  0.15055411994E+04  0.25500000920E-02 0.  1.
    10030    2    1    2    0    0  0.00000000000E+00  0.00000000000E+00 -0.20277113625E+03  0.28083112625E+04  0.28009812590E+04 0.  0.
        5    1    3    3  502    0  0.94604965728E+03  0.96711135282E+03 -0.46432402474E+03  0.14303612176E+04  0.46999998093E+01 0.  1.
       -5    1    3    3    0  502 -0.94604965728E+03 -0.96711135282E+03  0.26155288849E+03  0.13779500449E+04  0.46999998093E+01 0. -1.
</event>
<event>
 5   0  0.1361741E-07  0.2800164E+04  0.7818609E-02  0.8303218E-01
       -1   -1    0    0    0  501  0.00000000000E+00  0.00000000000E+00  0.18553816490E+04  0.18553816490E+04  0.50400001928E-02 0. -1.
        1   -1    0    0  501    0  0.00000000000E+00  0.00000000000E+00 -0.10565098949E+04  0.10565098949E+04  0.50400001928E-02 0.  1.
    10030    2    1    2    0    0  0.00000000000E+00  0.00000000000E+00  0.79887175417E+03  0.29118915439E+04  0.28001636174E+04 0.  0.
        5    1    3    3  502    0 -0.46115101753E+03  0.85513475450E+02 -0.97237939088E+03  0.10795909342E+04  0.46999998093E+01 0.  1.
       -5    1    3    3    0  502  0.46115101753E+03 -0.85513475450E+02  0.17712511451E+04  0.18323006097E+04  0.46999998093E+01 0. -1.
</event>
<event>
 5   0  0.1361741E-07  0.2800089E+04  0.7818609E-02  0.8303241E-01
        1   -1    0    0  501    0  0.00000000000E+00  0.00000000000E+00  0.16462695640E+04  0.16462695640E+04  0.50400001928E-02 0.  1.
       -1   -1    0    0    0  501  0.00000000000E+00  0.00000000000E+00 -0.11906463630E+04  0.11906463630E+04  0.50400001928E-02 0. -1.
    10030    2    1    2    0    0  0.00000000000E+00  0.00000000000E+00  0.45562320093E+03  0.28369159270E+04  0.28000891907E+04 0.  0.
        5    1    3    3  502    0  0.12839300347E+04 -0.52599197685E+03  0.38379581879E+02  0.13880342129E+04  0.46999998093E+01 0.  1.
       -5    1    3    3    0  502 -0.12839300347E+04  0.52599197685E+03  0.41724361905E+03  0.14488817141E+04  0.46999998093E+01 0. -1.
</event>
<event>
 5   0  0.3522569E-07  0.2798912E+04  0.7818609E-02  0.8303606E-01
        2   -1    0    0  501    0  0.00000000000E+00  0.00000000000E+00  0.25925209025E+04  0.25925209025E+04  0.25500000920E-02 0. -1.
       -2   -1    0    0    0  501  0.00000000000E+00  0.00000000000E+00 -0.75543342267E+03  0.75543342267E+03  0.25500000920E-02 0.  1.
    10030    2    1    2    0    0  0.00000000000E+00  0.00000000000E+00  0.18370874798E+04  0.33479543252E+04  0.27989118876E+04 0.  0.
        1    1    3    3  502    0 -0.22185782352E+03 -0.13810088252E+04  0.86411281756E+03  0.16441098597E+04  0.50400001928E-02 0. -1.
       -1    1    3    3    0  502  0.22185782352E+03  0.13810088252E+04  0.97297466225E+03  0.17038444655E+04  0.50400001928E-02 0.  1.
</event>
<event>
 5   0  0.3406920E-07  0.2799734E+04  0.7818609E-02  0.8303351E-01
        2   -1    0    0  501    0  0.00000000000E+00  0.00000000000E+00  0.22701227331E+04  0.22701227331E+04  0.25500000920E-02 0. -1.
       -2   -1    0    0    0  501  0.00000000000E+00  0.00000000000E+00 -0.86322514919E+03  0.86322514919E+03  0.25500000920E-02 0.  1.
    10030    2    1    2    0    0  0.00000000000E+00  0.00000000000E+00  0.14068975839E+04  0.31333478823E+04  0.27997335837E+04 0.  0.
        4    1    3    3  502    0 -0.48419292614E+03 -0.94397392434E+01 -0.76648654699E+03  0.90666153443E+03  0.12699999809E+01 0.  1.
       -4    1    3    3    0  502  0.48419292614E+03  0.94397392434E+01  0.21733841309E+04  0.22266863478E+04  0.12699999809E+01 0. -1.
</event>
<event>
 5   0  0.1366235E-07  0.2800282E+04  0.7818609E-02  0.8303181E-01
       -1   -1    0    0    0  501  0.00000000000E+00  0.00000000000E+00  0.12927472097E+04  0.12927472097E+04  0.50400001928E-02 0. -1.
        1   -1    0    0  501    0  0.00000000000E+00  0.00000000000E+00 -0.15164564888E+04  0.15164564889E+04  0.50400001928E-02 0.  1.
    10030    2    1    2    0    0  0.00000000000E+00  0.00000000000E+00 -0.22370927917E+03  0.28092036985E+04  0.28002820533E+04 0.  0.
        2    1    3    3  502    0 -0.27948319227E+03 -0.51711603257E+03 -0.13866806523E+04  0.15061218667E+04  0.25500000920E-02 0.  1.
       -2    1    3    3    0  502  0.27948319227E+03  0.51711603257E+03  0.11629713731E+04  0.13030818319E+04  0.25500000920E-02 0. -1.
</event>
<event>
 5   0  0.1357902E-07  0.2800997E+04  0.7818609E-02  0.8302959E-01
       -1   -1    0    0    0  501  0.00000000000E+00  0.00000000000E+00  0.10100092713E+04  0.10100092713E+04  0.50400001928E-02 0.  1.
        1   -1    0    0  501    0  0.00000000000E+00  0.00000000000E+00 -0.19419586317E+04  0.19419586317E+04  0.50400001928E-02 0. -1.
    10030    2    1    2    0    0  0.00000000000E+00  0.00000000000E+00 -0.93194936038E+03  0.29519679030E+04  0.28009971242E+04 0.  0.
        4    1    3    3  502    0  0.12249460462E+03 -0.73642351187E+03  0.78282667829E+03  0.10817318236E+04  0.12699999809E+01 0.  1.
       -4    1    3    3    0  502 -0.12249460462E+03  0.73642351187E+03 -0.17147760387E+04  0.18702360794E+04  0.12699999809E+01 0. -1.
</event>
<event>
 5   0  0.3502141E-07  0.2799184E+04  0.7818609E-02  0.8303522E-01
       -2   -1    0    0    0  501  0.00000000000E+00  0.00000000000E+00  0.15497279728E+04  0.15497279728E+04  0.25500000920E-02 0.  1.
        2   -1    0    0  501    0  0.00000000000E+00  0.00000000000E+00 -0.12640014577E+04  0.12640014577E+04  0.25500000920E-02 0. -1.
    10030    2    1    2    0    0  0.00000000000E+00  0.00000000000E+00  0.28572651513E+03  0.28137294305E+04  0.27991844646E+04 0.  0.
        3    1    3    3  502    0 -0.12039924058E+02 -0.13925774609E+04  0.27061017712E+01  0.13926321401E+04  0.10100000352E+00 0. -1.
       -3    1    3    3    0  502  0.12039924058E+02  0.13925774609E+04  0.28302041336E+03  0.14210972905E+04  0.10100000352E+00 0.  1.
</event>
<event>
 5   0  0.1346049E-07  0.2800184E+04  0.7818609E-02  0.8303211E-01
        1   -1    0    0  501    0  0.00000000000E+00  0.00000000000E+00  0.16580510493E+04  0.16580510493E+04  0.50400001928E-02 0. -1.
       -1   -1    0    0    0  501  0.00000000000E+00  0.00000000000E+00 -0.11822657202E+04  0.11822657202E+04  0.50400001928E-02 0.  1.
    10030    2    1    2    0    0  0.00000000000E+00  0.00000000000E+00  0.47578532913E+03  0.28403167695E+04  0.28001835068E+04 0.  0.
        1    1    3    3  502    0 -0.33182331166E+03 -0.61144286592E+03 -0.99454738956E+03  0.12137106733E+04  0.50400001928E-02 0.  1.
       -1    1    3    3    0  502  0.33182331166E+03  0.61144286592E+03  0.14703327187E+04  0.16266060962E+04  0.50400001928E-02 0. -1.
</event>
<event>
 5   0  0.3502141E-07  0.2799391E+04  0.7818609E-02  0.8303457E-01
       -2   -1    0    0    0  501  0.00000000000E+00  0.00000000000E+00  0.14452764239E+04  0.14452764239E+04  0.25500000920E-02 0. -1.
        2   -1    0    0  501    0  0.00000000000E+00  0.00000000000E+00 -0.13555525734E+04  0.13555525734E+04  0.25500000920E-02 0.  1.
    10030    2    1    2    0    0  0.00000000000E+00  0.00000000000E+00  0.89723850417E+02  0.28008289973E+04  0.27993914880E+04 0.  0.
        3    1    3    3  502    0  0.80324721092E+03 -0.59827208186E+03  0.10231229802E+04  0.14317528448E+04  0.10100000352E+00 0. -1.
       -3    1    3    3    0  502 -0.80324721092E+03  0.59827208186E+03 -0.93339912975E+03  0.13690761525E+04  0.10100000352E+00 0.  1.
</event>
<event>
 5   0  0.1366235E-07  0.2800698E+04  0.7818609E-02  0.8303052E-01
       -1   -1    0    0    0  501  0.00000000000E+00  0.00000000000E+00  0.14042107607E+04  0.14042107607E+04  0.50400001928E-02 0.  1.
        1   -1    0    0  501    0  0.00000000000E+00  0.00000000000E+00 -0.13964981924E+04  0.13964981924E+04  0.50400001928E-02 0. -1.
    10030    2    1    2    0    0  0.00000000000E+00  0.00000000000E+00  0.77125683044E+01  0.28007089531E+04  0.28006983337E+04 0.  0.
        2    1    3    3  502    0  0.25493086835E+03  0.69765477324E+03  0.11909858246E+04  0.14036235837E+04  0.25500000920E-02 0.  1.
       -2    1    3    3    0  502 -0.25493086835E+03 -0.69765477324E+03 -0.11832732563E+04  0.13970853694E+04  0.25500000920E-02 0. -1.
</event>
<event>
 5   0  0.3522569E-07  0.2800027E+04  0.7818609E-02  0.8303260E-01
       -2   -1    0    0    0  501  0.00000000000E+00  0.00000000000E+00  0.12752507274E+04  0.12752507274E+04  0.25500000920E-02 0. -1.
        2   -1    0    0  501    0  0.00000000000E+00  0.00000000000E+00 -0.15369821063E+04  0.15369821063E+04  0.25500000920E-02 0.  1.
    10030    2    1    2    0    0  0.00000000000E+00  0.00000000000E+00 -0.26173137892E+03  0.28122328338E+04  0.28000268207E+04 0.  0.
        1    1    3    3  502    0  0.14491999607E+03 -0.31742418837E+03  0.12308756883E+04  0.12793806629E+04  0.50400001928E-02 0. -1.
       -1    1    3    3    0  502 -0.14491999607E+03  0.31742418837E+03 -0.14926070672E+04  0.15328521709E+04  0.50400001928E-02 0.  1.
</event>
<event>
 5   0  0.3571498E-07  0.2798282E+04  0.7818609E-02  0.8303802E-01
        2   -1    0    0  501    0  0.00000000000E+00  0.00000000000E+00  0.17434140821E+04  0.17434140821E+04  0.25500000920E-02 0. -1.
       -2   -1    0    0    0  501  0.00000000000E+00  0.00000000000E+00 -0.11228520880E+04  0.11228520880E+04  0.25500000920E-02 0.  1.
    10030    2    1    2    0    0  0.00000000000E+00  0.00000000000E+00  0.62056199412E+03  0.28662661701E+04  0.27982824320E+04 0.  0.
        2    1    3    3  502    0  0.46997396967E+03 -0.56998409811E+03 -0.90679449952E+03  0.11696297143E+04  0.25500000920E-02 0.  1.
       -2    1    3    3    0  502 -0.46997396967E+03  0.56998409811E+03  0.15273564936E+04  0.16966364557E+04  0.25500000920E-02 0. -1.
</event>
<event>
 5   0  0.1173363E-07  0.2799601E+04  0.7818609E-02  0.8303392E-01
        3   -1    0    0  501    0  0.00000000000E+00  0.00000000000E+00  0.13636927872E+04  0.13636927909E+04  0.10100000352E+00 0.  1.
       -3   -1    0    0    0  501  0.00000000000E+00  0.00000000000E+00 -0.14368644067E+04  0.14368644102E+04  0.10100000352E+00 0. -1.
    10030    2    1    2    0    0  0.00000000000E+00  0.00000000000E+00 -0.73171619501E+02  0.28005572011E+04  0.27996011414E+04 0.  0.
        5    1    3    3  502    0  0.11305637616E+04 -0.31849681684E+01  0.78906565765E+03  0.13787063738E+04  0.46999998093E+01 0.  1.
       -5    1    3    3    0  502 -0.11305637616E+04  0.31849681684E+01 -0.86223727715E+03  0.14218508273E+04  0.46999998093E+01 0. -1.
</event>
<event>
 5   0  0.1357902E-07  0.2801206E+04  0.7818609E-02  0.8302894E-01
       -1   -1    0    0    0  501  0.00000000000E+00  0.00000000000E+00  0.12545179932E+04  0.12545179932E+04  0.50400001928E-02 0. -1.
        1   -1    0    0  501    0  0.00000000000E+00  0.00000000000E+00 -0.15636987204E+04  0.15636987204E+04  0.50400001928E-02 0.  1.
    10030    2    1    2    0    0  0.00000000000E+00  0.00000000000E+00 -0.30918072715E+03  0.28182167136E+04  0.28012055838E+04 0.  0.
        4    1    3    3  502    0 -0.65469634620E+03 -0.99887199870E+03  0.58150435287E+03  0.13283529278E+04  0.12699999809E+01 0. -1.
       -4    1    3    3    0  502  0.65469634620E+03  0.99887199870E+03 -0.89068508003E+03  0.14898637858E+04  0.12699999809E+01 0.  1.
</event>
<event>
 5   0  0.3406920E-07  0.2792492E+04  0.7818609E-02  0.8305603E-01
        2   -1    0    0  501    0  0.00000000000E+00  0.00000000000E+00  0.21274960322E+04  0.21274960322E+04  0.25500000920E-02 0. -1.
       -2   -1    0    0    0  501  0.00000000000E+00  0.00000000000E+00 -0.91633695845E+03  0.91633695846E+03  0.25500000920E-02 0.  1.
    10030    2    1    2    0    0  0.00000000000E+00  0.00000000000E+00  0.12111590737E+04  0.30438329906E+04  0.27924922512E+04 0.  0.
        4    1    3    3  502    0  0.42675933426E+03  0.11471930489E+04 -0.12669531641E+03  0.12305400184E+04  0.12699999809E+01 0.  1.
       -4    1    3    3    0  502 -0.42675933426E+03 -0.11471930489E+04  0.13378543901E+04  0.18132929722E+04  0.12699999809E+01 0. -1.
</event>
<event>
 5   0  0.3557628E-07  0.2779546E+04  0.7818609E-02  0.8309647E-01
       -2   -1    0    0    0  501  0.00000000000E+00  0.00000000000E+00  0.11447963855E+04  0.11447963855E+04  0.25500000920E-02 0. -1.
        2   -1    0    0  501    0  0.00000000000E+00  0.00000000000E+00 -0.16871729593E+04  0.16871729593E+04  0.25500000920E-02 0.  1.
    10030    2    1    2    0    0  0.00000000000E+00  0.00000000000E+00 -0.54237657376E+03  0.28319693448E+04  0.27795463699E+04 0.  0.
        5    1    3    3  502    0 -0.68292849557E+03  0.53094173309E+03  0.83705677815E+03  0.12037344366E+04  0.46999998093E+01 0. -1.
       -5    1    3    3    0  502  0.68292849557E+03 -0.53094173309E+03 -0.13794333519E+04  0.16282349082E+04  0.46999998093E+01 0.  1.
</event>
<event>
 5   0  0.1346049E-07  0.2799803E+04  0.7818609E-02  0.8303329E-01
       -1   -1    0    0    0  501  0.00000000000E+00  0.00000000000E+00  0.94590437020E+03  0.94590437022E+03  0.50400001928E-02 0.  1.
        1   -1    0    0  501    0  0.00000000000E+00  0.00000000000E+00 -0.20718001546E+04  0.20718001546E+04  0.50400001928E-02 0. -1.
    10030    2    1    2    0    0  0.00000000000E+00  0.00000000000E+00 -0.11258957844E+04  0.30177045248E+04  0.27998034363E+04 0.  0.
        1    1    3    3  502    0  0.12504594730E+04  0.37740738347E+03 -0.11057702114E+04  0.17113775116E+04  0.50400001928E-02 0.  1.
       -1    1    3    3    0  502 -0.12504594730E+04 -0.37740738347E+03 -0.20125572922E+02  0.13063270132E+04  0.50400001928E-02 0. -1.
</event>
<event>
 5   0  0.3406920E-07  0.2800274E+04  0.7818609E-02  0.8303183E-01
       -2   -1    0    0    0  501  0.00000000000E+00  0.00000000000E+00  0.10018946172E+04  0.10018946172E+04  0.25500000920E-02 0.  1.
        2   -1    0    0  501    0  0.00000000000E+00  0.00000000000E+00 -0.19566761141E+04  0.19566761141E+04  0.25500000920E-02 0. -1.
    10030    2    1    2    0    0  0.00000000000E+00  0.00000000000E+00 -0.95478149687E+03  0.29585707313E+04  0.28002737483E+04 0.  0.
        4    1    3    3  502    0  0.74075261098E+03 -0.51677039723E+03 -0.16077364676E+04  0.18440673079E+04  0.12699999809E+01 0. -1.
       -4    1    3    3    0  502 -0.74075261098E+03  0.51677039723E+03  0.65295497069E+03  0.11145034234E+04  0.12699999809E+01 0.  1.
</event>
<event>
 5   0  0.1374680E-07  0.2790412E+04  0.7818609E-02  0.8306251E-01
        1   -1    0    0  501    0  0.00000000000E+00  0.00000000000E+00  0.14638905920E+04  0.14638905920E+04  0.50400001928E-02 0.  1.
       -1   -1    0    0    0  501  0.00000000000E+00  0.00000000000E+00 -0.13297442610E+04  0.13297442610E+04  0.50400001928E-02 0. -1.
    10030    2    1    2    0    0  0.00000000000E+00  0.00000000000E+00  0.13414633096E+03  0.27936348530E+04  0.27904122373E+04 0.  0.
        3    1    3    3  502    0  0.10165612681E+04  0.95854588399E+02 -0.88482203314E+03  0.13511087870E+04  0.10100000352E+00 0. -1.
       -3    1    3    3    0  502 -0.10165612681E+04 -0.95854588399E+02  0.10189683641E+04  0.14425260660E+04  0.10100000352E+00 0.  1.
</event>
<event>
 5   0  0.1366235E-07  0.2798652E+04  0.7818609E-02  0.8303687E-01
        1   -1    0    0  501    0  0.00000000000E+00  0.00000000000E+00  0.20460143987E+04  0.20460143987E+04  0.50400001928E-02 0. -1.
       -1   -1    0    0    0  501  0.00000000000E+00  0.00000000000E+00 -0.95703786046E+03  0.95703786048E+03  0.50400001928E-02 0.  1.
    10030    2    1    2    0    0  0.00000000000E+00  0.00000000000E+00  0.10889765382E+04  0.30030522592E+04  0.27986519917E+04 0.  0.
        2    1    3    3  502    0 -0.73146543033E+03  0.58798298371E+02  0.18229836955E+04  0.19651382826E+04  0.25500000920E-02 0. -1.
       -2    1    3    3    0  502  0.73146543033E+03 -0.58798298371E+02 -0.73400715732E+03  0.10379139765E+04  0.25500000920E-02 0.  1.
</event>
<event>
 5   0  0.1366235E-07  0.2802229E+04  0.7818609E-02  0.8302577E-01
        1   -1    0    0  501    0  0.00000000000E+00  0.00000000000E+00  0.15549581399E+04  0.15549581399E+04  0.50400001928E-02 0.  1.
       -1   -1    0    0    0  501  0.00000000000E+00  0.00000000000E+00 -0.12624918501E+04  0.12624918502E+04  0.50400001928E-02 0. -1.
    10030    2    1    2    0    0  0.00000000000E+00  0.00000000000E+00  0.29246628972E+03  0.28174499900E+04  0.28022290976E+04 0.  0.
        2    1    3    3  502    0 -0.13492258519E+04  0.23325835085E+03 -0.15253765215E+03  0.13777109977E+04  0.25500000920E-02 0.  1.
       -2    1    3    3    0  502  0.13492258519E+04 -0.23325835085E+03  0.44500394186E+03  0.14397389923E+04  0.25500000920E-02 0. -1.
</event>
<event>
 5   0  0.1346049E-07  0.2800195E+04  0.7818609E-02  0.8303208E-01
        1   -1    0    0  501    0  0.00000000000E+00  0.00000000000E+00  0.21935266102E+04  0.21935266102E+04  0.50400001928E-02 0.  1.
       -1   -1    0    0    0  501  0.00000000000E+00  0.00000000000E+00 -0.89366285480E+03  0.89366285481E+03  0.50400001928E-02 0. -1.
    10030    2    1    2    0    0  0.00000000000E+00  0.00000000000E+00  0.12998637554E+04  0.30871894650E+04  0.28001951736E+04 0.  0.
        1    1    3    3  502    0  0.19487143931E+01 -0.22889025591E+03  0.21727581514E+04  0.21847820329E+04  0.50400001928E-02 0.  1.
       -1    1    3    3    0  502 -0.19487143931E+01  0.22889025591E+03 -0.87289439606E+03  0.90240743206E+03  0.50400001928E-02 0. -1.
</event>
<event>
 5   0  0.1361741E-07  0.2802255E+04  0.7818609E-02  0.8302569E-01
        1   -1    0    0  501    0  0.00000000000E+00  0.00000000000E+00  0.18115164996E+04  0.18115164996E+04  0.50400001928E-02 0. -1.
       -1   -1    0    0    0  501  0.00000000000E+00  0.00000000000E+00 -0.10837097722E+04  0.10837097722E+04  0.50400001928E-02 0.  1.
    10030    2    1    2    0    0  0.00000000000E+00  0.00000000000E+00  0.72780672737E+03  0.28952262718E+04  0.28022549014E+04 0.  0.
        5    1    3    3  502    0  0.57759941977E+03  0.27756701329E+03  0.16512238853E+04  0.17712218794E+04  0.46999998093E+01 0. -1.
       -5    1    3    3    0  502 -0.57759941977E+03 -0.27756701329E+03 -0.92341715792E+03  0.11240043924E+04  0.46999998093E+01 0.  1.
</event>
<event>
 5   0  0.1366235E-07  0.2800582E+04  0.7818609E-02  0.8303088E-01
       -1   -1    0    0    0  501  0.00000000000E+00  0.00000000000E+00  0.13441385151E+04  0.13441385151E+04  0.50400001928E-02 0.  1.
        1   -1    0    0  501    0  0.00000000000E+00  0.00000000000E+00 -0.14587896167E+04  0.14587896167E+04  0.50400001928E-02 0. -1.
    10030    2    1    2    0    0  0.00000000000E+00  0.00000000000E+00 -0.11465110158E+03  0.28029281318E+04  0.28005823032E+04 0.  0.
        2    1    3    3  502    0 -0.13575406845E+04  0.68303969187E+02  0.27945767256E+03  0.13876882694E+04  0.25500000920E-02 0. -1.
       -2    1    3    3    0  502  0.13575406845E+04 -0.68303969187E+02 -0.39410877413E+03  0.14152398624E+04  0.25500000920E-02 0.  1.
</event>
<event>
 5   0  0.3406920E-07  0.2800145E+04  0.7818609E-02  0.8303223E-01
        2   -1    0    0  501    0  0.00000000000E+00  0.00000000000E+00  0.12828283986E+04  0.12828283986E+04  0.25500000920E-02 0. -1.
       -2   -1    0    0    0  501  0.00000000000E+00  0.00000000000E+00 -0.15280324411E+04  0.15280324411E+04  0.25500000920E-02 0.  1.
    10030    2    1    2    0    0  0.00000000000E+00  0.00000000000E+00 -0.24520404254E+03  0.28108608397E+04  0.28001452886E+04 0.  0.
        4    1    3    3  502    0 -0.13386509039E+04  0.30852443142E+03  0.14866947601E+03  0.13817661862E+04  0.12699999809E+01 0. -1.
       -4    1    3    3    0  502  0.13386509039E+04 -0.30852443142E+03 -0.39387351856E+03  0.14290946535E+04  0.12699999809E+01 0.  1.
</event>
<event>
 5   0  0.3406920E-07  0.2799993E+04  0.7818609E-02  0.8303270E-01
       -2   -1    0    0    0  501  0.00000000000E+00  0.00000000000E+00  0.17276225628E+04  0.17276225628E+04  0.25500000920E-02 0.  1.
        2   -1    0    0  501    0  0.00000000000E+00  0.00000000000E+00 -0.11345017500E+04  0.11345017500E+04  0.25500000920E-02 0. -1.
    10030    2    1    2    0    0  0.00000000000E+00  0.00000000000E+00  0.59312081288E+03  0.28621243128E+04  0.27999934434E+04 0.  0.
        4    1    3    3  502    0  0.10627702619E+04  0.55194443791E+03 -0.44469690462E+03  0.12774506808E+04  0.12699999809E+01 0. -1.
       -4    1    3    3    0  502 -0.10627702619E+04 -0.55194443791E+03  0.10378177175E+04  0.15846736319E+04  0.12699999809E+01 0.  1.
</event>
<event>
 5   0  0.3522569E-07  0.2799842E+04  0.7818609E-02  0.8303317E-01
        2   -1    0    0  501    0  0.00000000000E+00  0.00000000000E+00  0.25490114014E+04  0.25490114014E+04  0.25500000920E-02 0. -1.
       -2   -1    0    0    0  501  0.00000000000E+00  0.00000000000E+00 -0.76883872951E+03  0.76883872952E+03  0.25500000920E-02 0.  1.
    10030    2    1    2    0    0  0.00000000000E+00  0.00000000000E+00  0.17801726719E+04  0.33178501309E+04  0.27998419151E+04 0.  0.
        1    1    3    3  502    0 -0.37564818508E+03  0.26193212118E+03  0.24577379753E+04  0.25000391898E+04  0.50400001928E-02 0. -1.
       -1    1    3    3    0  502  0.37564818508E+03 -0.26193212118E+03 -0.67756530341E+03  0.81781094116E+03  0.50400001928E-02 0.  1.
</event>
<event>
 5   0  0.1357902E-07  0.2789682E+04  0.7818609E-02  0.8306479E-01
       -1   -1    0    0    0  501  0.00000000000E+00  0.00000000000E+00  0.93418765598E+03  0.93418765599E+03  0.50400001928E-02 0. -1.
        1   -1    0    0  501    0  0.00000000000E+00  0.00000000000E+00 -0.20826451093E+04  0.20826451093E+04  0.50400001928E-02 0.  1.
    10030    2    1    2    0    0  0.00000000000E+00  0.00000000000E+00 -0.11484574533E+04  0.30168327653E+04  0.27896819553E+04 0.  0.
        4    1    3    3  502    0  0.39401958981E+03 -0.12842408425E+04 -0.16807646238E+03  0.13538010521E+04  0.12699999809E+01 0. -1.
       -4    1    3    3    0  502 -0.39401958981E+03  0.12842408425E+04 -0.98038099097E+03  0.16630317132E+04  0.12699999809E+01 0.  1.
</event>
<event>
 5   0  0.1357902E-07  0.2796856E+04  0.7818609E-02  0.8304245E-01
       -1   -1    0    0    0  501  0.00000000000E+00  0.00000000000E+00  0.13080157904E+04  0.13080157904E+04  0.50400001928E-02 0.  1.
        1   -1    0    0  501    0  0.00000000000E+00  0.00000000000E+00 -0.14950896198E+04  0.14950896198E+04  0.50400001928E-02 0. -1.
    10030    2    1    2    0    0  0.00000000000E+00  0.00000000000E+00 -0.18707382947E+03  0.28031054102E+04  0.27968559711E+04 0.  0.
        4    1    3    3  502    0  0.25828235716E+02 -0.14329447688E+02 -0.14947763772E+04  0.14950687146E+04  0.12699999809E+01 0. -1.
       -4    1    3    3    0  502 -0.25828235716E+02  0.14329447688E+02  0.13077025477E+04  0.13080366956E+04  0.12699999809E+01 0.  1.
</event>
<event>
 5   0  0.3557628E-07  0.2799253E+04  0.7818609E-02  0.8303500E-01
        2   -1    0    0  501    0  0.00000000000E+00  0.00000000000E+00  0.23858012280E+04  0.23858012280E+04  0.25500000920E-02 0. -1.
       -2   -1    0    0    0  501  0.00000000000E+00  0.00000000000E+00 -0.82108865285E+03  0.82108865285E+03  0.25500000920E-02 0.  1.
    10030    2    1    2    0    0  0.00000000000E+00  0.00000000000E+00  0.15647125752E+04  0.32068898809E+04  0.27992529834E+04 0.  0.
        5    1    3    3  502    0 -0.80457012940E+03 -0.11284696650E+04  0.10061354321E+04  0.17126317396E+04  0.46999998093E+01 0. -1.
       -5    1    3    3    0  502  0.80457012940E+03  0.11284696650E+04  0.55857714305E+03  0.14942581412E+04  0.46999998093E+01 0.  1.
</event>
<event>
 5   0  0.1361741E-07  0.2801487E+04  0.7818609E-02  0.8302807E-01
       -1   -1    0    0    0  501  0.00000000000E+00  0.00000000000E+00  0.98787108116E+03  0.98787108117E+03  0.50400001928E-02 0.  1.
        1   -1    0    0  501    0  0.00000000000E+00  0.00000000000E+00 -0.19861725729E+04  0.19861725729E+04  0.50400001928E-02 0. -1.
    10030    2    1    2    0    0  0.00000000000E+00  0.00000000000E+00 -0.99830149177E+03  0.29740436541E+04  0.28014870673E+04 0.  0.
        5    1    3    3  502    0 -0.46900166851E+03 -0.12731945959E+04 -0.12976262059E+03  0.13630287861E+04  0.46999998093E+01 0.  1.
       -5    1    3    3    0  502  0.46900166851E+03  0.12731945959E+04 -0.86853887118E+03  0.16110148680E+04  0.46999998093E+01 0. -1.
</event>
<event>
 5   0  0.1173363E-07  0.2800683E+04  0.7818609E-02  0.8303056E-01
        3   -1    0    0  501    0  0.00000000000E+00  0.00000000000E+00  0.13685029625E+04  0.13685029662E+04  0.10100000352E+00 0. -1.
       -3   -1    0    0    0  501  0.00000000000E+00  0.00000000000E+00 -0.14329204524E+04  0.14329204559E+04  0.10100000352E+00 0.  1.
    10030    2    1    2    0    0  0.00000000000E+00  0.00000000000E+00 -0.64417489873E+02  0.28014234222E+04  0.28006826984E+04 0.  0.
        2    1    3    3  502    0  0.19661209561E+03  0.12724773493E+04  0.51848293188E+03  0.13880488001E+04  0.25500000920E-02 0. -1.
       -2    1    3    3    0  502 -0.19661209561E+03 -0.12724773493E+04 -0.58290042175E+03  0.14133746221E+04  0.25500000920E-02 0.  1.
</event>
<event>
 5   0  0.3571498E-07  0.2799688E+04  0.7818609E-02  0.8303365E-01
        2   -1    0    0  501    0  0.00000000000E+00  0.00000000000E+00  0.22134658451E+04  0.22134658451E+04  0.25500000920E-02 0. -1.
       -2   -1    0    0    0  501  0.00000000000E+00  0.00000000000E+00 -0.88529195192E+03  0.88529195193E+03  0.25500000920E-02 0.  1.
    10030    2    1    2    0    0  0.00000000000E+00  0.00000000000E+00  0.13281738932E+04  0.30987577970E+04  0.27996881959E+04 0.  0.
        2    1    3    3  502    0  0.56319803639E+03 -0.12614707151E+04  0.41397664630E+03  0.14421778867E+04  0.25500000920E-02 0.  1.
       -2    1    3    3    0  502 -0.56319803639E+03  0.12614707151E+04  0.91419724686E+03  0.16565799103E+04  0.25500000920E-02 0. -1.
</event>
<event>
 5   0  0.1374680E-07  0.2799727E+04  0.7818609E-02  0.8303353E-01
        1   -1    0    0  501    0  0.00000000000E+00  0.00000000000E+00  0.13450229438E+04  0.13450229438E+04  0.50400001928E-02 0.  1.
       -1   -1    0    0    0  501  0.00000000000E+00  0.00000000000E+00 -0.14569400171E+04  0.14569400171E+04  0.50400001928E-02 0. -1.
    10030    2    1    2    0    0  0.00000000000E+00  0.00000000000E+00 -0.11191707331E+03  0.28019629609E+04  0.27997269515E+04 0.  0.
        3    1    3    3  502    0 -0.47901217950E+03 -0.12490892545E+04  0.35660983711E+03  0.13845025171E+04  0.10100000352E+00 0.  1.
       -3    1    3    3    0  502  0.47901217950E+03  0.12490892545E+04 -0.46852691043E+03  0.14174604438E+04  0.10100000352E+00 0. -1.
</event>
<event>
 5   0  0.3502141E-07  0.2800265E+04  0.7818609E-02  0.8303186E-01
        2   -1    0    0  501    0  0.00000000000E+00  0.00000000000E+00  0.13508653567E+04  0.13508653567E+04  0.25500000920E-02 0.  1.
       -2   -1    0    0    0  501  0.00000000000E+00  0.00000000000E+00 -0.14511960909E+04  0.14511960909E+04  0.25500000920E-02 0. -1.
    10030    2    1    2    0    0  0.00000000000E+00  0.00000000000E+00 -0.10033073420E+03  0.28020614476E+04  0.28002646482E+04 0.  0.
        3    1    3    3  502    0 -0.12838424046E+04  0.22322410863E+03  0.46230599708E+03  0.13826811518E+04  0.10100000352E+00 0.  1.
       -3    1    3    3    0  502  0.12838424046E+04 -0.22322410863E+03 -0.56263673128E+03  0.14193802958E+04  0.10100000352E+00 0. -1.
</event>
<event>
 5   0  0.3406920E-07  0.2800711E+04  0.7818609E-02  0.8303048E-01
        2   -1    0    0  501    0  0.00000000000E+00  0.00000000000E+00  0.20586318051E+04  0.20586318051E+04  0.25500000920E-02 0. -1.
       -2   -1    0    0    0  501  0.00000000000E+00  0.00000000000E+00 -0.95257235528E+03  0.95257235528E+03  0.25500000920E-02 0.  1.
    10030    2    1    2    0    0  0.00000000000E+00  0.00000000000E+00  0.11060594498E+04  0.30112041604E+04  0.28007111577E+04 0.  0.
        4    1    3    3  502    0 -0.29445421799E+03  0.12604756177E+04  0.11275017717E+04  0.17166140881E+04  0.12699999809E+01 0. -1.
       -4    1    3    3    0  502  0.29445421799E+03 -0.12604756177E+04 -0.21442321825E+02  0.12945900723E+04  0.12699999809E+01 0.  1.
</event>
<event>
 5   0  0.3406920E-07  0.2800470E+04  0.7818609E-02  0.8303123E-01
        2   -1    0    0  501    0  0.00000000000E+00  0.00000000000E+00  0.16027352667E+04  0.16027352667E+04  0.25500000920E-02 0. -1.
       -2   -1    0    0    0  501  0.00000000000E+00  0.00000000000E+00 -0.12233196249E+04  0.12233196249E+04  0.25500000920E-02 0.  1.
    10030    2    1    2    0    0  0.00000000000E+00  0.00000000000E+00  0.37941564176E+03  0.28260548916E+04  0.28004696073E+04 0.  0.
        4    1    3    3  502    0 -0.85851121739E+03 -0.10012982125E+04  0.66412658038E+03  0.14767211478E+04  0.12699999809E+01 0.  1.
       -4    1    3    3    0  502  0.85851121739E+03  0.10012982125E+04 -0.28471093862E+03  0.13493337438E+04  0.12699999809E+01 0. -1.
</event>
<event>
 5   0  0.1366235E-07  0.2802052E+04  0.7818609E-02  0.8302632E-01
       -1   -1    0    0    0  501  0.00000000000E+00  0.00000000000E+00  0.11820860594E+04  0.11820860594E+04  0.50400001928E-02 0.  1.
        1   -1    0    0  501    0  0.00000000000E+00  0.00000000000E+00 -0.16605165747E+04  0.16605165747E+04  0.50400001928E-02 0. -1.
    10030    2    1    2    0    0  0.00000000000E+00  0.00000000000E+00 -0.47843051530E+03  0.28426026341E+04  0.28020517443E+04 0.  0.
        2    1    3    3  502    0  0.13078869158E+04  0.32833461928E+03  0.14641975971E+03  0.13563961637E+04  0.25500000920E-02 0.  1.
       -2    1    3    3    0  502 -0.13078869158E+04 -0.32833461928E+03 -0.62485027501E+03  0.14862064705E+04  0.25500000920E-02 0. -1.
</event>
<event>
 5   0  0.3522569E-07  0.2798871E+04  0.7818609E-02  0.8303619E-01
        2   -1    0    0  501    0  0.00000000000E+00  0.00000000000E+00  0.14756586688E+04  0.14756586688E+04  0.25500000920E-02 0.  1.
       -2   -1    0    0    0  501  0.00000000000E+00  0.00000000000E+00 -0.13271499695E+04  0.13271499695E+04  0.25500000920E-02 0. -1.
    10030    2    1    2    0    0  0.00000000000E+00  0.00000000000E+00  0.14850869930E+03  0.28028086384E+04  0.27988714564E+04 0.  0.
        1    1    3    3  502    0  0.10014858000E+04  0.32685949441E+03 -0.84824149502E+03  0.13525252569E+04  0.50400001928E-02 0. -1.
       -1    1    3    3    0  502 -0.10014858000E+04 -0.32685949441E+03  0.99675019432E+03  0.14502833815E+04  0.50400001928E-02 0.  1.
</event>
<event>
 5   0  0.1346049E-07  0.2807412E+04  0.7818609E-02  0.8300971E-01
        1   -1    0    0  501    0  0.00000000000E+00  0.00000000000E+00  0.21892592942E+04  0.21892592942E+04  0.50400001928E-02 0.  1.
       -1   -1    0    0    0  501  0.00000000000E+00  0.00000000000E+00 -0.90002611873E+03  0.90002611874E+03  0.50400001928E-02 0. -1.
    10030    2    1    2    0    0  0.00000000000E+00  0.00000000000E+00  0.12892331755E+04  0.30892854129E+04  0.28074120079E+04 0.  0.
        1    1    3    3  502    0  0.94207630473E+03 -0.36340458978E+03  0.17176197667E+04  0.19924327649E+04  0.50400001928E-02 0.  1.
       -1    1    3    3    0  502 -0.94207630473E+03  0.36340458978E+03 -0.42838659125E+03  0.10968526480E+04  0.50400001928E-02 0. -1.
</event>
<event>
 5   0  0.1361741E-07  0.2798953E+04  0.7818609E-02  0.8303593E-01
        1   -1    0    0  501    0  0.00000000000E+00  0.00000000000E+00  0.17503242618E+04  0.17503242618E+04  0.50400001928E-02 0. -1.
       -1   -1    0    0    0  501  0.00000000000E+00  0.00000000000E+00 -0.11189553740E+04  0.11189553740E+04  0.50400001928E-02 0.  1.
    10030    2    1    2    0    0  0.00000000000E+00  0.00000000000E+00  0.63136888783E+03  0.28692796358E+04  0.27989531893E+04 0.  0.
        5    1    3    3  502    0 -0.10148500758E+04  0.19861121265E+03  0.12823220181E+04  0.16473429935E+04  0.46999998093E+01 0. -1.
       -5    1    3    3    0  502  0.10148500758E+04 -0.19861121265E+03 -0.65095313027E+03  0.12219366423E+04  0.46999998093E+01 0.  1.
</event>
<event>
 5   0  0.3522569E-07  0.2807016E+04  0.7818609E-02  0.8301093E-01
       -2   -1    0    0    0  501  0.00000000000E+00  0.00000000000E+00  0.17304609975E+04  0.17304609975E+04  0.25500000920E-02 0.  1.
        2   -1    0    0  501    0  0.00000000000E+00  0.00000000000E+00 -0.11383295839E+04  0.11383295839E+04  0.25500000920E-02 0. -1.
    10030    2    1    2    0    0  0.00000000000E+00  0.00000000000E+00  0.59213141357E+03  0.28687905814E+04  0.28070161719E+04 0.  0.
        1    1    3    3  502    0  0.11209882057E+04 -0.11045981866E+03  0.11517603867E+04  0.16110145615E+04  0.50400001928E-02 0.  1.
       -1    1    3    3    0  502 -0.11209882057E+04  0.11045981866E+03 -0.55962897314E+03  0.12577760200E+04  0.50400001928E-02 0. -1.
</event>
<event>
 5   0  0.1361741E-07  0.2798973E+04  0.7818609E-02  0.8303587E-01
        1   -1    0    0  501    0  0.00000000000E+00  0.00000000000E+00  0.15982718084E+04  0.15982718084E+04  0.50400001928E-02 0. -1.
       -1   -1    0    0    0  501  0.00000000000E+00  0.00000000000E+00 -0.12254248167E+04  0.12254248167E+04  0.50400001928E-02 0.  1.
    10030    2    1    2    0    0  0.00000000000E+00  0.00000000000E+00  0.37284699166E+03  0.28236966251E+04  0.27989726243E+04 0.  0.
        5    1    3    3  502    0  0.89813573519E+03  0.13640517729E+03  0.12603859134E+04  0.15536566262E+04  0.46999998093E+01 0. -1.
       -5    1    3    3    0  502 -0.89813573519E+03 -0.13640517729E+03 -0.88753892178E+03  0.12700399989E+04  0.46999998093E+01 0.  1.
</event>
<event>
 5   0  0.1374680E-07  0.2799564E+04  0.7818609E-02  0.8303404E-01
       -1   -1    0    0    0  501  0.00000000000E+00  0.00000000000E+00  0.18584465138E+04  0.18584465138E+04  0.50400001928E-02 0.  1.
        1   -1    0    0  501    0  0.00000000000E+00  0.00000000000E+00 -0.10543161863E+04  0.10543161863E+04  0.50400001928E-02 0. -1.
    10030    2    1    2    0    0  0.00000000000E+00  0.00000000000E+00  0.80413032754E+03  0.29127627001E+04  0.27995644239E+04 0.  0.
        3    1    3    3  502    0  0.76600769416E+03  0.78071340538E+03 -0.50681773620E+03  0.12054648219E+04  0.10100000352E+00 0. -1.
       -3    1    3    3    0  502 -0.76600769416E+03 -0.78071340538E+03  0.13109480637E+04  0.17072978782E+04  0.10100000352E+00 0.  1.
</event>
<event>
 5   0  0.1357902E-07  0.2802781E+04  0.7818609E-02  0.8302405E-01
        1   -1    0    0  501    0  0.00000000000E+00  0.00000000000E+00  0.19812595203E+04  0.19812595203E+04  0.50400001928E-02 0.  1.
       -1   -1    0    0    0  501  0.00000000000E+00  0.00000000000E+00 -0.99123610741E+03  0.99123610742E+03  0.50400001928E-02 0. -1.
    10030    2    1    2    0    0  0.00000000000E+00  0.00000000000E+00  0.99002341285E+03  0.29724956277E+04  0.28027814575E+04 0.  0.
        4    1    3    3  502    0 -0.85406286242E+03 -0.26860361380E+03 -0.64838100905E+03  0.11054278901E+04  0.12699999809E+01 0. -1.
       -4    1    3    3    0  502  0.85406286242E+03  0.26860361380E+03  0.16384044219E+04  0.18670677376E+04  0.12699999809E+01 0.  1.
</event>
<event>
 5   0  0.3557628E-07  0.2802480E+04  0.7818609E-02  0.8302499E-01
       -2   -1    0    0    0  501  0.00000000000E+00  0.00000000000E+00  0.11020420316E+04  0.11020420316E+04  0.25500000920E-02 0.  1.
        2   -1    0    0  501    0  0.00000000000E+00  0.00000000000E+00 -0.17816689206E+04  0.17816689206E+04  0.25500000920E-02 0. -1.
    10030    2    1    2    0    0  0.00000000000E+00  0.00000000000E+00 -0.67962688900E+03  0.28837109523E+04  0.28024803564E+04 0.  0.
        5    1    3    3  502    0 -0.13576397930E+04 -0.29248214682E+03 -0.53154830966E+03  0.14870431430E+04  0.46999998093E+01 0. -1.
       -5    1    3    3    0  502  0.13576397930E+04  0.29248214682E+03 -0.14807857934E+03  0.13966678092E+04  0.46999998093E+01 0.  1.
</event>
<event>
 5   0  0.3522569E-07  0.2799986E+04  0.7818609E-02  0.8303273E-01
        2   -1    0    0  501    0  0.00000000000E+00  0.00000000000E+00  0.15398275290E+04  0.15398275290E+04  0.25500000920E-02 0. -1.
       -2   -1    0    0    0  501  0.00000000000E+00  0.00000000000E+00 -0.12728567385E+04  0.12728567385E+04  0.25500000920E-02 0.  1.
    10030    2    1    2    0    0  0.00000000000E+00  0.00000000000E+00  0.26697079043E+03  0.28126842675E+04  0.27999856046E+04 0.  0.
        1    1    3    3  502    0  0.47757251749E+03  0.66239529677E+03  0.12758044528E+04  0.15147673222E+04  0.50400001928E-02 0. -1.
       -1    1    3    3    0  502 -0.47757251749E+03 -0.66239529677E+03 -0.10088336623E+04  0.12979169453E+04  0.50400001928E-02 0.  1.
</event>
<event>
 5   0  0.1366235E-07  0.2799341E+04  0.7818609E-02  0.8303473E-01
        1   -1    0    0  501    0  0.00000000000E+00  0.00000000000E+00  0.85514198658E+03  0.85514198659E+03  0.50400001928E-02 0. -1.
       -1   -1    0    0    0  501  0.00000000000E+00  0.00000000000E+00 -0.22909380085E+04  0.22909380085E+04  0.50400001928E-02 0.  1.
    10030    2    1    2    0    0  0.00000000000E+00  0.00000000000E+00 -0.14357960219E+04  0.31460799951E+04  0.27993408365E+04 0.  0.
        2    1    3    3  502    0  0.37488168926E+03 -0.43717952954E+03  0.71581803740E+03  0.91872612059E+03  0.25500000920E-02 0. -1.
       -2    1    3    3    0  502 -0.37488168926E+03  0.43717952954E+03 -0.21516140593E+04  0.22273538745E+04  0.25500000920E-02 0.  1.
</event>
<event>
 5   0  0.1361741E-07  0.2801234E+04  0.7818609E-02  0.8302885E-01
       -1   -1    0    0    0  501  0.00000000000E+00  0.00000000000E+00  0.15771800908E+04  0.15771800908E+04  0.50400001928E-02 0. -1.
        1   -1    0    0  501    0  0.00000000000E+00  0.00000000000E+00 -0.12438195726E+04  0.12438195726E+04  0.50400001928E-02 0.  1.
    10030    2    1    2    0    0  0.00000000000E+00  0.00000000000E+00  0.33336051825E+03  0.28209996634E+04  0.28012336328E+04 0.  0.
        5    1    3    3  502    0 -0.44118699129E+03 -0.57063658229E+03 -0.10423884416E+04  0.12676229027E+04  0.46999998093E+01 0.  1.
       -5    1    3    3    0  502  0.44118699129E+03  0.57063658229E+03  0.13757489598E+04  0.15533767607E+04  0.46999998093E+01 0. -1.
</event>
<event>
 5   0  0.3502141E-07  0.2800715E+04  0.7818609E-02  0.8303046E-01
       -2   -1    0    0    0  501  0.00000000000E+00  0.00000000000E+00  0.87968866000E+03  0.87968866001E+03  0.25500000920E-02 0. -1.
        2   -1    0    0  501    0  0.00000000000E+00  0.00000000000E+00 -0.22291986683E+04  0.22291986683E+04  0.25500000920E-02 0.  1.
    10030    2    1    2    0    0  0.00000000000E+00  0.00000000000E+00 -0.13495100083E+04  0.31088873283E+04  0.28007147584E+04 0.  0.
        3    1    3    3  502    0  0.28006306163E+03  0.48018959640E+03 -0.21014756435E+04  0.21737564853E+04  0.10100000352E+00 0.  1.
       -3    1    3    3    0  502 -0.28006306163E+03 -0.48018959640E+03  0.75196563515E+03  0.93513084305E+03  0.10100000352E+00 0. -1.
</event>
<event>
 5   0  0.3522569E-07  0.2799842E+04  0.7818609E-02  0.8303318E-01
       -2   -1    0    0    0  501  0.00000000000E+00  0.00000000000E+00  0.18934533254E+04  0.18934533254E+04  0.25500000920E-02 0.  1.
        2   -1    0    0  501    0  0.00000000000E+00  0.00000000000E+00 -0.10350285552E+04  0.10350285552E+04  0.25500000920E-02 0. -1.
    10030    2    1    2    0    0  0.00000000000E+00  0.00000000000E+00  0.85842477028E+03  0.29284818806E+04  0.27998416096E+04 0.  0.
        1    1    3    3  502    0  0.52770791936E+03 -0.53951319867E+03 -0.80404042044E+03  0.11027380185E+04  0.50400001928E-02 0. -1.
       -1    1    3    3    0  502 -0.52770791936E+03  0.53951319867E+03  0.16624651907E+04  0.18257438621E+04  0.50400001928E-02 0.  1.
</event>
<event>
 5   0  0.1173363E-07  0.2803667E+04  0.7818609E-02  0.8302131E-01
       -3   -1    0    0    0  501  0.00000000000E+00  0.00000000000E+00  0.12218502450E+04  0.12218502492E+04  0.10100000352E+00 0. -1.
        3   -1    0    0  501    0  0.00000000000E+00  0.00000000000E+00 -0.16083289678E+04  0.16083289709E+04  0.10100000352E+00 0.  1.
    10030    2    1    2    0    0  0.00000000000E+00  0.00000000000E+00 -0.38647872273E+03  0.28301792201E+04  0.28036669943E+04 0.  0.
        1    1    3    3  502    0 -0.88820315749E+03  0.62766418715E+03 -0.10860633266E+04  0.15370103221E+04  0.50400001928E-02 0.  1.
       -1    1    3    3    0  502  0.88820315749E+03 -0.62766418715E+03  0.69958460387E+03  0.12931688980E+04  0.50400001928E-02 0. -1.
</event>
<event>
 5   0  0.1366235E-07  0.2800027E+04  0.7818609E-02  0.8303260E-01
       -1   -1    0    0    0  501  0.00000000000E+00  0.00000000000E+00  0.68608851530E+03  0.68608851531E+03  0.50400001928E-02 0. -1.
        1   -1    0    0  501    0  0.00000000000E+00  0.00000000000E+00 -0.28568294632E+04  0.28568294632E+04  0.50400001928E-02 0.  1.
    10030    2    1    2    0    0  0.00000000000E+00  0.00000000000E+00 -0.21707409479E+04  0.35429179785E+04  0.28000270605E+04 0.  0.
        2    1    3    3  502    0  0.59099975552E+03  0.36243357186E+03  0.45363988042E+03  0.82850947258E+03  0.25500000920E-02 0. -1.
       -2    1    3    3    0  502 -0.59099975552E+03 -0.36243357186E+03 -0.26243808283E+04  0.27144085059E+04  0.25500000920E-02 0.  1.
</event>
<event>
 5   0  0.1361741E-07  0.2799951E+04  0.7818609E-02  0.8303284E-01
       -1   -1    0    0    0  501  0.00000000000E+00  0.00000000000E+00  0.11067521998E+04  0.11067521998E+04  0.50400001928E-02 0. -1.
        1   -1    0    0  501    0  0.00000000000E+00  0.00000000000E+00 -0.17708851739E+04  0.17708851739E+04  0.50400001928E-02 0.  1.
    10030    2    1    2    0    0  0.00000000000E+00  0.00000000000E+00 -0.66413297413E+03  0.28776373737E+04  0.27999507580E+04 0.  0.
        5    1    3    3  502    0  0.12854005704E+04  0.21437782652E+03  0.19368997948E+03  0.13174787957E+04  0.46999998093E+01 0. -1.
       -5    1    3    3    0  502 -0.12854005704E+04 -0.21437782652E+03 -0.85782295361E+03  0.15601585781E+04  0.46999998093E+01 0.  1.
</event>
<event>
 5   0  0.1366235E-07  0.2799933E+04  0.7818609E-02  0.8303289E-01
       -1   -1    0    0    0  501  0.00000000000E+00  0.00000000000E+00  0.12331918416E+04  0.12331918416E+04  0.50400001928E-02 0.  1.
        1   -1    0    0  501    0  0.00000000000E+00  0.00000000000E+00 -0.15892954629E+04  0.15892954629E+04  0.50400001928E-02 0. -1.
    10030    2    1    2    0    0  0.00000000000E+00  0.00000000000E+00 -0.35610362128E+03  0.28224873044E+04  0.27999329982E+04 0.  0.
        2    1    3    3  502    0  0.13564355884E+04 -0.34626548167E+03 -0.16854667562E+03  0.14100444217E+04  0.25500000920E-02 0.  1.
       -2    1    3    3    0  502 -0.13564355884E+04  0.34626548167E+03 -0.18755694566E+03  0.14124428828E+04  0.25500000920E-02 0. -1.
</event>
<event>
 5   0  0.1361741E-07  0.2803264E+04  0.7818609E-02  0.8302256E-01
       -1   -1    0    0    0  501  0.00000000000E+00  0.00000000000E+00  0.11535478528E+04  0.11535478528E+04  0.50400001928E-02 0.  1.
        1   -1    0    0  501    0  0.00000000000E+00  0.00000000000E+00 -0.17030698766E+04  0.17030698766E+04  0.50400001928E-02 0. -1.
    10030    2    1    2    0    0  0.00000000000E+00  0.00000000000E+00 -0.54952202384E+03  0.28566177294E+04  0.28032642396E+04 0.  0.
        5    1    3    3  502    0  0.37936298533E+03  0.53311250317E+03  0.98835666932E+03  0.11853253610E+04  0.46999998093E+01 0.  1.
       -5    1    3    3    0  502 -0.37936298533E+03 -0.53311250317E+03 -0.15378786932E+04  0.16712923684E+04  0.46999998093E+01 0. -1.
</event>
<event>
 5   0  0.1366235E-07  0.2799437E+04  0.7818609E-02  0.8303443E-01
       -1   -1    0    0    0  501  0.00000000000E+00  0.00000000000E+00  0.12095302295E+04  0.12095302295E+04  0.50400001928E-02 0.  1.
        1   -1    0    0  501    0  0.00000000000E+00  0.00000000000E+00 -0.16198118980E+04  0.16198118980E+04  0.50400001928E-02 0. -1.
    10030    2    1    2    0    0  0.00000000000E+00  0.00000000000E+00 -0.41028166848E+03  0.28293421275E+04  0.27994366982E+04 0.  0.
        2    1    3    3  502    0  0.11215312740E+04  0.11660565548E+03  0.63304491745E+03  0.12931261133E+04  0.25500000920E-02 0.  1.
       -2    1    3    3    0  502 -0.11215312740E+04 -0.11660565548E+03 -0.10433265859E+04  0.15362160142E+04  0.25500000920E-02 0. -1.
</event>
<event>
 5   0  0.3502141E-07  0.2799105E+04  0.7818609E-02  0.8303546E-01
       -2   -1    0    0    0  501  0.00000000000E+00  0.00000000000E+00  0.10969572401E+04  0.10969572401E+04  0.25500000920E-02 0.  1.
        2   -1    0    0  501    0  0.00000000000E+00  0.00000000000E+00 -0.17856186362E+04  0.17856186362E+04  0.25500000920E-02 0. -1.
    10030    2    1    2    0    0  0.00000000000E+00  0.00000000000E+00 -0.68866139607E+03  0.28825758763E+04  0.27991050649E+04 0.  0.
        3    1    3    3  502    0  0.26251845524E+03  0.12098798353E+04 -0.10164983762E+04  0.16018720655E+04  0.10100000352E+00 0. -1.
       -3    1    3    3    0  502 -0.26251845524E+03 -0.12098798353E+04  0.32783698018E+03  0.12807038108E+04  0.10100000352E+00 0.  1.
</event>
<event>
 5   0  0.3571498E-07  0.2799438E+04  0.7818609E-02  0.8303443E-01
        2   -1    0    0  501    0  0.00000000000E+00  0.00000000000E+00  0.19137904657E+04  0.19137904657E+04  0.25500000920E-02 0. -1.
       -2   -1    0    0    0  501  0.00000000000E+00  0.00000000000E+00 -0.10237347798E+04  0.10237347798E+04  0.25500000920E-02 0.  1.
    10030    2    1    2    0    0  0.00000000000E+00  0.00000000000E+00  0.89005568588E+03  0.29375252455E+04  0.27994384158E+04 0.  0.
        2    1    3    3  502    0  0.17343097755E+03 -0.79516770258E+03 -0.74993537752E+03  0.11066946506E+04  0.25500000920E-02 0.  1.
       -2    1    3    3    0  502 -0.17343097755E+03  0.79516770258E+03  0.16399910634E+04  0.18308305949E+04  0.25500000920E-02 0. -1.
</event>
<event>
 5   0  0.3522569E-07  0.2800198E+04  0.7818609E-02  0.8303207E-01
        2   -1    0    0  501    0  0.00000000000E+00  0.00000000000E+00  0.21531950345E+04  0.21531950345E+04  0.25500000920E-02 0. -1.
       -2   -1    0    0    0  501  0.00000000000E+00  0.00000000000E+00 -0.91040416088E+03  0.91040416088E+03  0.25500000920E-02 0.  1.
    10030    2    1    2    0    0  0.00000000000E+00  0.00000000000E+00  0.12427908736E+04  0.30635991953E+04  0.28001983634E+04 0.  0.
        1    1    3    3  502    0  0.96567811290E+03  0.17194743172E+03 -0.47167224816E+03  0.10883817560E+04  0.50400001928E-02 0.  1.
       -1    1    3    3    0  502 -0.96567811290E+03 -0.17194743172E+03  0.17144631217E+04  0.19752174394E+04  0.50400001928E-02 0. -1.
</event>
<event>
 5   0  0.1366235E-07  0.2800665E+04  0.7818609E-02  0.8303062E-01
        1   -1    0    0  501    0  0.00000000000E+00  0.00000000000E+00  0.14653409877E+04  0.14653409877E+04  0.50400001928E-02 0. -1.
       -1   -1    0    0    0  501  0.00000000000E+00  0.00000000000E+00 -0.13382079125E+04  0.13382079125E+04  0.50400001928E-02 0.  1.
    10030    2    1    2    0    0  0.00000000000E+00  0.00000000000E+00  0.12713307525E+03  0.28035489002E+04  0.28006648526E+04 0.  0.
        2    1    3    3  502    0 -0.74939459107E+02  0.12085021197E+04 -0.64060480038E+03  0.13698422560E+04  0.25500000920E-02 0.  1.
       -2    1    3    3    0  502  0.74939459107E+02 -0.12085021197E+04  0.76773787563E+03  0.14337066442E+04  0.25500000920E-02 0. -1.
</event>
<event>
 5   0  0.3406920E-07  0.2797141E+04  0.7818609E-02  0.8304156E-01
        2   -1    0    0  501    0  0.00000000000E+00  0.00000000000E+00  0.16522420308E+04  0.16522420308E+04  0.25500000920E-02 0.  1.
       -2   -1    0    0    0  501  0.00000000000E+00  0.00000000000E+00 -0.11838459045E+04  0.11838459046E+04  0.25500000920E-02 0. -1.
    10030    2    1    2    0    0  0.00000000000E+00  0.00000000000E+00  0.46839612626E+03  0.28360879354E+04  0.27971413704E+04 0.  0.
        4    1    3    3  502    0  0.97406868661E+03  0.91132247116E+03 -0.19198760706E+03  0.13476569693E+04  0.12699999809E+01 0. -1.
       -4    1    3    3    0  502 -0.97406868661E+03 -0.91132247116E+03  0.66038373332E+03  0.14884309661E+04  0.12699999809E+01 0.  1.
</event>
<event>
 5   0  0.1346049E-07  0.2800361E+04  0.7818609E-02  0.8303156E-01
       -1   -1    0    0    0  501  0.00000000000E+00  0.00000000000E+00  0.12110401928E+04  0.12110401928E+04  0.50400001928E-02 0.  1.
        1   -1    0    0  501    0  0.00000000000E+00  0.00000000000E+00 -0.16188611410E+04  0.16188611410E+04  0.50400001928E-02 0. -1.
    10030    2    1    2    0    0  0.00000000000E+00  0.00000000000E+00 -0.40782094821E+03  0.28299013338E+04  0.28003613397E+04 0.  0.
        1    1    3    3  502    0  0.11101470477E+04 -0.14112147781E+03  0.64649137339E+03  0.12923980946E+04  0.50400001928E-02 0.  1.
       -1    1    3    3    0  502 -0.11101470477E+04  0.14112147781E+03 -0.10543123216E+04  0.15375032392E+04  0.50400001928E-02 0. -1.
</event>
<event>
 5   0  0.1357902E-07  0.2799187E+04  0.7818609E-02  0.8303521E-01
        1   -1    0    0  501    0  0.00000000000E+00  0.00000000000E+00  0.71088534130E+03  0.71088534132E+03  0.50400001928E-02 0. -1.
       -1   -1    0    0    0  501  0.00000000000E+00  0.00000000000E+00 -0.27555244111E+04  0.27555244111E+04  0.50400001928E-02 0.  1.
    10030    2    1    2    0    0  0.00000000000E+00  0.00000000000E+00 -0.20446390698E+04  0.34664097524E+04  0.27991869616E+04 0.  0.
        4    1    3    3  502    0  0.12133378868E+04  0.69702784315E+03 -0.98677923015E+03  0.17122416604E+04  0.12699999809E+01 0. -1.
       -4    1    3    3    0  502 -0.12133378868E+04 -0.69702784315E+03 -0.10578598396E+04  0.17541680920E+04  0.12699999809E+01 0.  1.
</event>
<event>
 5   0  0.3502141E-07  0.2801190E+04  0.7818609E-02  0.8302899E-01
        2   -1    0    0  501    0  0.00000000000E+00  0.00000000000E+00  0.22431681790E+04  0.22431681790E+04  0.25500000920E-02 0. -1.
       -2   -1    0    0    0  501  0.00000000000E+00  0.00000000000E+00 -0.87450724153E+03  0.87450724153E+03  0.25500000920E-02 0.  1.
    10030    2    1    2    0    0  0.00000000000E+00  0.00000000000E+00  0.13686609375E+04  0.31176754206E+04  0.28011903302E+04 0.  0.
        3    1    3    3  502    0  0.29851605161E+03 -0.35940917228E+03  0.21538802850E+04  0.22039707527E+04  0.10100000352E+00 0. -1.
       -3    1    3    3    0  502 -0.29851605161E+03  0.35940917228E+03 -0.78521934753E+03  0.91370466789E+03  0.10100000352E+00 0.  1.
</event>
<event>
 5   0  0.1361741E-07  0.2800190E+04  0.7818609E-02  0.8303209E-01
       -1   -1    0    0    0  501  0.00000000000E+00  0.00000000000E+00  0.11665874773E+04  0.11665874774E+04  0.50400001928E-02 0.  1.
        1   -1    0    0  501    0  0.00000000000E+00  0.00000000000E+00 -0.16803420643E+04  0.16803420643E+04  0.50400001928E-02 0. -1.
    10030    2    1    2    0    0  0.00000000000E+00  0.00000000000E+00 -0.51375458695E+03  0.28469295417E+04  0.28001900006E+04 0.  0.
        5    1    3    3  502    0  0.45399428589E+03 -0.13115888595E+04 -0.69773526427E+02  0.13897001774E+04  0.46999998093E+01 0. -1.
       -5    1    3    3    0  502 -0.45399428589E+03  0.13115888595E+04 -0.44398106052E+03  0.14572293643E+04  0.46999998093E+01 0.  1.
</event>
<event>
 5   0  0.3502141E-07  0.2799382E+04  0.7818609E-02  0.8303460E-01
       -2   -1    0    0    0  501  0.00000000000E+00  0.00000000000E+00  0.11212627454E+04  0.11212627454E+04  0.25500000920E-02 0. -1.
        2   -1    0    0  501    0  0.00000000000E+00  0.00000000000E+00 -0.17472581071E+04  0.17472581071E+04  0.25500000920E-02 0.  1.
    10030    2    1    2    0    0  0.00000000000E+00  0.00000000000E+00 -0.62599536169E+03  0.28685208526E+04  0.27993823763E+04 0.  0.
        3    1    3    3  502    0 -0.34787533397E+03  0.39608489822E+03  0.10156504711E+04  0.11443104405E+04  0.10100000352E+00 0. -1.
       -3    1    3    3    0  502  0.34787533397E+03 -0.39608489822E+03 -0.16416458328E+04  0.17242104121E+04  0.10100000352E+00 0.  1.
</event>
<event>
 5   0  0.1357902E-07  0.2800909E+04  0.7818609E-02  0.8302986E-01
        1   -1    0    0  501    0  0.00000000000E+00  0.00000000000E+00  0.23731119253E+04  0.23731119253E+04  0.50400001928E-02 0. -1.
       -1   -1    0    0    0  501  0.00000000000E+00  0.00000000000E+00 -0.82645592602E+03  0.82645592604E+03  0.50400001928E-02 0.  1.
    10030    2    1    2    0    0  0.00000000000E+00  0.00000000000E+00  0.15466559993E+04  0.31995678513E+04  0.28009087195E+04 0.  0.
        4    1    3    3  502    0 -0.10780458042E+04 -0.88500644384E+03  0.62950462980E+03  0.15302603875E+04  0.12699999809E+01 0. -1.
       -4    1    3    3    0  502  0.10780458042E+04  0.88500644384E+03  0.91715136948E+03  0.16693074639E+04  0.12699999809E+01 0.  1.
</event>
<event>
 5   0  0.1361741E-07  0.2800986E+04  0.7818609E-02  0.8302962E-01
        1   -1    0    0  501    0  0.00000000000E+00  0.00000000000E+00  0.17491097891E+04  0.17491097891E+04  0.50400001928E-02 0. -1.
       -1   -1    0    0    0  501  0.00000000000E+00  0.00000000000E+00 -0.11213590939E+04  0.11213590939E+04  0.50400001928E-02 0.  1.
    10030    2    1    2    0    0  0.00000000000E+00  0.00000000000E+00  0.62775069517E+03  0.28704688830E+04  0.28009856610E+04 0.  0.
        5    1    3    3  502    0  0.32176602848E+03  0.10313967181E+04 -0.59932202905E+03  0.12355248082E+04  0.46999998093E+01 0.  1.
       -5    1    3    3    0  502 -0.32176602848E+03 -0.10313967181E+04  0.12270727242E+04  0.16349440748E+04  0.46999998093E+01 0. -1.
</event>
<event>
 5   0  0.3557628E-07  0.2799452E+04  0.7818609E-02  0.8303439E-01
       -2   -1    0    0    0  501  0.00000000000E+00  0.00000000000E+00  0.10826710435E+04  0.10826710435E+04  0.25500000920E-02 0.  1.
        2   -1    0    0  501    0  0.00000000000E+00  0.00000000000E+00 -0.18096284516E+04  0.18096284516E+04  0.25500000920E-02 0. -1.
    10030    2    1    2    0    0  0.00000000000E+00  0.00000000000E+00 -0.72695740816E+03  0.28922994951E+04  0.27994516063E+04 0.  0.
        5    1    3    3  502    0  0.26365364801E+03 -0.11391929459E+04 -0.11583701587E+04  0.16459396492E+04  0.46999998093E+01 0. -1.
       -5    1    3    3    0  502 -0.26365364801E+03  0.11391929459E+04  0.43141275055E+03  0.12463598459E+04  0.46999998093E+01 0.  1.
</event>
<event>
 5   0  0.1346049E-07  0.2812137E+04  0.7818609E-02  0.8299510E-01
        1   -1    0    0  501    0  0.00000000000E+00  0.00000000000E+00  0.15207195847E+04  0.15207195847E+04  0.50400001928E-02 0. -1.
       -1   -1    0    0    0  501  0.00000000000E+00  0.00000000000E+00 -0.13000610561E+04  0.13000610561E+04  0.50400001928E-02 0.  1.
    10030    2    1    2    0    0  0.00000000000E+00  0.00000000000E+00  0.22065852859E+03  0.28207806408E+04  0.28121367743E+04 0.  0.
        1    1    3    3  502    0 -0.34234102228E+03  0.21354707282E+03 -0.12407439282E+04  0.13047012007E+04  0.50400001928E-02 0.  1.
       -1    1    3    3    0  502  0.34234102228E+03 -0.21354707282E+03  0.14614024568E+04  0.15160794400E+04  0.50400001928E-02 0. -1.
</event>
<event>
 5   0  0.3557628E-07  0.2800208E+04  0.7818609E-02  0.8303204E-01
        2   -1    0    0  501    0  0.00000000000E+00  0.00000000000E+00  0.13404035378E+04  0.13404035378E+04  0.25500000920E-02 0. -1.
       -2   -1    0    0    0  501  0.00000000000E+00  0.00000000000E+00 -0.14624634110E+04  0.14624634110E+04  0.25500000920E-02 0.  1.
    10030    2    1    2    0    0  0.00000000000E+00  0.00000000000E+00 -0.12205987324E+03  0.28028669487E+04  0.28002079422E+04 0.  0.
        5    1    3    3  502    0 -0.10563679133E+04  0.37498784449E+03 -0.90071864688E+03  0.14380004251E+04  0.46999998093E+01 0.  1.
       -5    1    3    3    0  502  0.10563679133E+04 -0.37498784449E+03  0.77865877364E+03  0.13648665237E+04  0.46999998093E+01 0. -1.
</event>
<event>
 5   0  0.1366235E-07  0.2799579E+04  0.7818609E-02  0.8303399E-01
        1   -1    0    0  501    0  0.00000000000E+00  0.00000000000E+00  0.14732639622E+04  0.14732639622E+04  0.50400001928E-02 0. -1.
       -1   -1    0    0    0  501  0.00000000000E+00  0.00000000000E+00 -0.13299797775E+04  0.13299797776E+04  0.50400001928E-02 0.  1.
    10030    2    1    2    0    0  0.00000000000E+00  0.00000000000E+00  0.14328418467E+03  0.28032437398E+04  0.27995794518E+04 0.  0.
        2    1    3    3  502    0  0.19749180101E+03 -0.89615835337E+03  0.11300537372E+04  0.14557212147E+04  0.25500000920E-02 0. -1.
       -2    1    3    3    0  502 -0.19749180101E+03  0.89615835337E+03 -0.98676955257E+03  0.13475225251E+04  0.25500000920E-02 0.  1.
</event>
<event>
 5   0  0.1374680E-07  0.2806169E+04  0.7818609E-02  0.8301356E-01
       -1   -1    0    0    0  501  0.00000000000E+00  0.00000000000E+00  0.14671489970E+04  0.14671489970E+04  0.50400001928E-02 0.  1.
        1   -1    0    0  501    0  0.00000000000E+00  0.00000000000E+00 -0.13418178178E+04  0.13418178178E+04  0.50400001928E-02 0. -1.
    10030    2    1    2    0    0  0.00000000000E+00  0.00000000000E+00  0.12533117920E+03  0.28089668149E+04  0.28061693930E+04 0.  0.
        3    1    3    3  502    0  0.56680232552E+03  0.12513843300E+04  0.34829025433E+03  0.14172274797E+04  0.10100000352E+00 0. -1.
       -3    1    3    3    0  502 -0.56680232552E+03 -0.12513843300E+04 -0.22295907513E+03  0.13917393352E+04  0.10100000352E+00 0.  1.
</event>
<event>
 5   0  0.1361741E-07  0.2799687E+04  0.7818609E-02  0.8303365E-01
        1   -1    0    0  501    0  0.00000000000E+00  0.00000000000E+00  0.25159495029E+04  0.25159495030E+04  0.50400001928E-02 0. -1.
       -1   -1    0    0    0  501  0.00000000000E+00  0.00000000000E+00 -0.77885594288E+03  0.77885594290E+03  0.50400001928E-02 0.  1.
    10030    2    1    2    0    0  0.00000000000E+00  0.00000000000E+00  0.17370935601E+04  0.32948054459E+04  0.27996872842E+04 0.  0.
        5    1    3    3  502    0 -0.11069395008E+04 -0.39589003273E+03 -0.25777042080E+02  0.11758956256E+04  0.46999998093E+01 0.  1.
       -5    1    3    3    0  502  0.11069395008E+04  0.39589003273E+03  0.17628706021E+04  0.21189098202E+04  0.46999998093E+01 0. -1.
</event>
<event>
 5   0  0.3571498E-07  0.2799993E+04  0.7818609E-02  0.8303271E-01
        2   -1    0    0  501    0  0.00000000000E+00  0.00000000000E+00  0.19415163706E+04  0.19415163706E+04  0.25500000920E-02 0. -1.
       -2   -1    0    0    0  501  0.00000000000E+00  0.00000000000E+00 -0.10095150412E+04  0.10095150412E+04  0.25500000920E-02 0.  1.
    10030    2    1    2    0    0  0.00000000000E+00  0.00000000000E+00  0.93200132934E+03  0.29510314118E+04  0.27999928421E+04 0.  0.
        2    1    3    3  502    0 -0.14712801186E+03  0.35501312576E+03 -0.95283806798E+03  0.10274148895E+04  0.25500000920E-02 0.  1.
       -2    1    3    3    0  502  0.14712801186E+03 -0.35501312576E+03  0.18848393973E+04  0.19236165223E+04  0.25500000920E-02 0. -1.
</event>
<event>
 5   0  0.3522569E-07  0.2800651E+04  0.7818609E-02  0.8303066E-01
        2   -1    0    0  501    0  0.00000000000E+00  0.00000000000E+00  0.17558466102E+04  0.17558466102E+04  0.25500000920E-02 0.  1.
       -2   -1    0    0    0  501  0.00000000000E+00  0.00000000000E+00 -0.11167900783E+04  0.11167900783E+04  0.25500000920E-02 0. -1.
    10030    2    1    2    0    0  0.00000000000E+00  0.00000000000E+00  0.63905653187E+03  0.28726366885E+04  0.28006514051E+04 0.  0.
        1    1    3    3  502    0 -0.12647609822E+04  0.48374023385E+03 -0.46415095044E+02  0.13549093390E+04  0.50400001928E-02 0. -1.
       -1    1    3    3    0  502  0.12647609822E+04 -0.48374023385E+03  0.68547162692E+03  0.15177273494E+04  0.50400001928E-02 0.  1.
</event>
<event>
 5   0  0.1346049E-07  0.2803130E+04  0.7818609E-02  0.8302297E-01
        1   -1    0    0  501    0  0.00000000000E+00  0.00000000000E+00  0.18351516618E+04  0.18351516618E+04  0.50400001928E-02 0.  1.
       -1   -1    0    0    0  501  0.00000000000E+00  0.00000000000E+00 -0.10704209453E+04  0.10704209453E+04  0.50400001928E-02 0. -1.
    10030    2    1    2    0    0  0.00000000000E+00  0.00000000000E+00  0.76473071643E+03  0.29055726071E+04  0.28031302336E+04 0.  0.
        1    1    3    3  502    0  0.71874290528E+03  0.85889339417E+03  0.12558330635E+04  0.16826781956E+04  0.50400001928E-02 0.  1.
       -1    1    3    3    0  502 -0.71874290528E+03 -0.85889339417E+03 -0.49110234707E+03  0.12228944115E+04  0.50400001928E-02 0. -1.
</event>
<event>
 5   0  0.1374680E-07  0.2795119E+04  0.7818609E-02  0.8304785E-01
        1   -1    0    0  501    0  0.00000000000E+00  0.00000000000E+00  0.24170402658E+04  0.24170402658E+04  0.50400001928E-02 0. -1.
       -1   -1    0    0    0  501  0.00000000000E+00  0.00000000000E+00 -0.80808418934E+03  0.80808418936E+03  0.50400001928E-02 0.  1.
    10030    2    1    2    0    0  0.00000000000E+00  0.00000000000E+00  0.16089560765E+04  0.32251244552E+04  0.27951186192E+04 0.  0.
        3    1    3    3  502    0  0.41025049034E+03 -0.23115749998E+03  0.23227481765E+04  0.23699996532E+04  0.10100000352E+00 0. -1.
       -3    1    3    3    0  502 -0.41025049034E+03  0.23115749998E+03 -0.71379210004E+03  0.85512480195E+03  0.10100000352E+00 0.  1.
</event>
<event>
 5   0  0.1374680E-07  0.2800346E+04  0.7818609E-02  0.8303161E-01
       -1   -1    0    0    0  501  0.00000000000E+00  0.00000000000E+00  0.70536832508E+03  0.70536832510E+03  0.50400001928E-02 0. -1.
        1   -1    0    0  501    0  0.00000000000E+00  0.00000000000E+00 -0.27793771281E+04  0.27793771281E+04  0.50400001928E-02 0.  1.
    10030    2    1    2    0    0  0.00000000000E+00  0.00000000000E+00 -0.20740088031E+04  0.34847454532E+04  0.28003461141E+04 0.  0.
        3    1    3    3  502    0 -0.88026633214E+03 -0.36260196704E+03  0.24063290218E+03  0.98196395342E+03  0.10100000352E+00 0. -1.
       -3    1    3    3    0  502  0.88026633214E+03  0.36260196704E+03 -0.23146417052E+04  0.25027814998E+04  0.10100000352E+00 0.  1.
</event>
<event>
 5   0  0.1366235E-07  0.2801195E+04  0.7818609E-02  0.8302897E-01
       -1   -1    0    0    0  501  0.00000000000E+00  0.00000000000E+00  0.74157554946E+03  0.74157554948E+03  0.50400001928E-02 0.  1.
        1   -1    0    0  501    0  0.00000000000E+00  0.00000000000E+00 -0.26452777084E+04  0.26452777084E+04  0.50400001928E-02 0. -1.
    10030    2    1    2    0    0  0.00000000000E+00  0.00000000000E+00 -0.19037021589E+04  0.33868532579E+04  0.28011949380E+04 0.  0.
        2    1    3    3  502    0  0.99064019153E+02 -0.21918094784E+02 -0.26408286486E+04  0.26427769550E+04  0.25500000920E-02 0. -1.
       -2    1    3    3    0  502 -0.99064019153E+02  0.21918094784E+02  0.73712648964E+03  0.74407630287E+03  0.25500000920E-02 0.  1.
</event>
<event>
 5   0  0.3522569E-07  0.2799959E+04  0.7818609E-02  0.8303281E-01
       -2   -1    0    0    0  501  0.00000000000E+00  0.00000000000E+00  0.12434764707E+04  0.12434764707E+04  0.25500000920E-02 0. -1.
        2   -1    0    0  501    0  0.00000000000E+00  0.00000000000E+00 -0.15761800863E+04  0.15761800863E+04  0.25500000920E-02 0.  1.
    10030    2    1    2    0    0  0.00000000000E+00  0.00000000000E+00 -0.33270361556E+03  0.28196565570E+04  0.27999591789E+04 0.  0.
        1    1    3    3  502    0  0.10493133811E+04 -0.30609243260E+03 -0.10472579521E+04  0.15137702492E+04  0.50400001928E-02 0.  1.
       -1    1    3    3    0  502 -0.10493133811E+04  0.30609243260E+03  0.71455433651E+03  0.13058863078E+04  0.50400001928E-02 0. -1.
</event>
<event>
 5   0  0.3502141E-07  0.2800502E+04  0.7818609E-02  0.8303112E-01
        2   -1    0    0  501    0  0.00000000000E+00  0.00000000000E+00  0.17205873137E+04  0.17205873137E+04  0.25500000920E-02 0.  1.
       -2   -1    0    0    0  501  0.00000000000E+00  0.00000000000E+00 -0.11395546856E+04  0.11395546856E+04  0.25500000920E-02 0. -1.
    10030    2    1    2    0    0  0.00000000000E+00  0.00000000000E+00  0.58103262813E+03  0.28601419994E+04  0.28005023374E+04 0.  0.
        3    1    3    3  502    0  0.24494503420E+02  0.31114215169E+03 -0.11035785835E+04  0.11468631651E+04  0.10100000352E+00 0. -1.
       -3    1    3    3    0  502 -0.24494503420E+02 -0.31114215169E+03  0.16846112117E+04  0.17132788343E+04  0.10100000352E+00 0.  1.
</event>
<event>
 5   0  0.1374680E-07  0.2798194E+04  0.7818609E-02  0.8303829E-01
       -1   -1    0    0    0  501  0.00000000000E+00  0.00000000000E+00  0.17250424868E+04  0.17250424869E+04  0.50400001928E-02 0.  1.
        1   -1    0    0  501    0  0.00000000000E+00  0.00000000000E+00 -0.11347384368E+04  0.11347384368E+04  0.50400001928E-02 0. -1.
    10030    2    1    2    0    0  0.00000000000E+00  0.00000000000E+00  0.59030405009E+03  0.28597809236E+04  0.27981937137E+04 0.  0.
        3    1    3    3  502    0  0.68812999160E+01 -0.90954917493E+03 -0.79132879192E+03  0.12056236233E+04  0.10100000352E+00 0. -1.
       -3    1    3    3    0  502 -0.68812999160E+01  0.90954917493E+03  0.13816328420E+04  0.16541573003E+04  0.10100000352E+00 0.  1.
</event>
<event>
 5   0  0.3406920E-07  0.2798983E+04  0.7818609E-02  0.8303584E-01
        2   -1    0    0  501    0  0.00000000000E+00  0.00000000000E+00  0.16567566777E+04  0.16567566777E+04  0.25500000920E-02 0. -1.
       -2   -1    0    0    0  501  0.00000000000E+00  0.00000000000E+00 -0.11821749681E+04  0.11821749681E+04  0.25500000920E-02 0.  1.
    10030    2    1    2    0    0  0.00000000000E+00  0.00000000000E+00  0.47458170965E+03  0.28389316458E+04  0.27989828671E+04 0.  0.
        4    1    3    3  502    0  0.56645341491E+03  0.12566598375E+04  0.48263423932E+03  0.14604796610E+04  0.12699999809E+01 0.  1.
       -4    1    3    3    0  502 -0.56645341491E+03 -0.12566598375E+04 -0.80525296638E+01  0.13784519848E+04  0.12699999809E+01 0. -1.
</event>
<event>
 5   0  0.1374680E-07  0.2795650E+04  0.7818609E-02  0.8304620E-01
       -1   -1    0    0    0  501  0.00000000000E+00  0.00000000000E+00  0.13807747798E+04  0.13807747799E+04  0.50400001928E-02 0.  1.
        1   -1    0    0  501    0  0.00000000000E+00  0.00000000000E+00 -0.14150861446E+04  0.14150861446E+04  0.50400001928E-02 0. -1.
    10030    2    1    2    0    0  0.00000000000E+00  0.00000000000E+00 -0.34311364729E+02  0.27958609244E+04  0.27956503785E+04 0.  0.
        3    1    3    3  502    0 -0.38174992570E+02 -0.97911203604E+03 -0.10141247068E+04  0.14101654656E+04  0.10100000352E+00 0. -1.
       -3    1    3    3    0  502  0.38174992570E+02  0.97911203604E+03  0.97981334208E+03  0.13856954589E+04  0.10100000352E+00 0.  1.
</event>
<event>
 5   0  0.1374680E-07  0.2800481E+04  0.7818609E-02  0.8303119E-01
       -1   -1    0    0    0  501  0.00000000000E+00  0.00000000000E+00  0.88035447482E+03  0.88035447484E+03  0.50400001928E-02 0. -1.
        1   -1    0    0  501    0  0.00000000000E+00  0.00000000000E+00 -0.22271401956E+04  0.22271401956E+04  0.50400001928E-02 0.  1.
    10030    2    1    2    0    0  0.00000000000E+00  0.00000000000E+00 -0.13467857207E+04  0.31074946704E+04  0.28004805568E+04 0.  0.
        3    1    3    3  502    0 -0.51328625418E+02  0.12112127761E+04  0.10414111892E+03  0.12167647265E+04  0.10100000352E+00 0. -1.
       -3    1    3    3    0  502  0.51328625418E+02 -0.12112127761E+04 -0.14509268397E+04  0.18907299439E+04  0.10100000352E+00 0.  1.
</event>
<event>
 5   0  0.3502141E-07  0.2808328E+04  0.7818609E-02  0.8300687E-01
        2   -1    0    0  501    0  0.00000000000E+00  0.00000000000E+00  0.25782504670E+04  0.25782504670E+04  0.25500000920E-02 0.  1.
       -2   -1    0    0    0  501  0.00000000000E+00  0.00000000000E+00 -0.76473438378E+03  0.76473438379E+03  0.25500000920E-02 0. -1.
    10030    2    1    2    0    0  0.00000000000E+00  0.00000000000E+00  0.18135160832E+04  0.33429848507E+04  0.28083281732E+04 0.  0.
        3    1    3    3  502    0 -0.39574574056E+03  0.25326561142E+03  0.24818993864E+04  0.25259815390E+04  0.10100000352E+00 0.  1.
       -3    1    3    3    0  502  0.39574574056E+03 -0.25326561142E+03 -0.66838330323E+03  0.81700331171E+03  0.10100000352E+00 0. -1.
</event>
<event>
 5   0  0.1357902E-07  0.2799727E+04  0.7818609E-02  0.8303353E-01
       -1   -1    0    0    0  501  0.00000000000E+00  0.00000000000E+00  0.11397495971E+04  0.11397495971E+04  0.50400001928E-02 0.  1.
        1   -1    0    0  501    0  0.00000000000E+00  0.00000000000E+00 -0.17193412139E+04  0.17193412139E+04  0.50400001928E-02 0. -1.
    10030    2    1    2    0    0  0.00000000000E+00  0.00000000000E+00 -0.57959161680E+03  0.28590908111E+04  0.27997274552E+04 0.  0.
        4    1    3    3  502    0  0.10732197072E+04  0.44215454543E+03 -0.10888935021E+04  0.15915375754E+04  0.12699999809E+01 0. -1.
       -4    1    3    3    0  502 -0.10732197072E+04 -0.44215454543E+03  0.50930188532E+03  0.12675532357E+04  0.12699999809E+01 0.  1.
</event>
<event>
 5   0  0.1374680E-07  0.2791671E+04  0.7818609E-02  0.8305859E-01
        1   -1    0    0  501    0  0.00000000000E+00  0.00000000000E+00  0.21139533566E+04  0.21139533566E+04  0.50400001928E-02 0. -1.
       -1   -1    0    0    0  501  0.00000000000E+00  0.00000000000E+00 -0.92166474915E+03  0.92166474916E+03  0.50400001928E-02 0.  1.
    10030    2    1    2    0    0  0.00000000000E+00  0.00000000000E+00  0.11922886074E+04  0.30356181057E+04  0.27916706755E+04 0.  0.
        3    1    3    3  502    0 -0.13229768933E+04 -0.38987295088E+03  0.36270470199E+03  0.14261218353E+04  0.10100000352E+00 0.  1.
       -3    1    3    3    0  502  0.13229768933E+04  0.38987295088E+03  0.82958390542E+03  0.16094962704E+04  0.10100000352E+00 0. -1.
</event>
<event>
 5   0  0.3571498E-07  0.2800909E+04  0.7818609E-02  0.8302986E-01
        2   -1    0    0  501    0  0.00000000000E+00  0.00000000000E+00  0.17992714589E+04  0.17992714589E+04  0.25500000920E-02 0. -1.
       -2   -1    0    0    0  501  0.00000000000E+00  0.00000000000E+00 -0.10900373456E+04  0.10900373456E+04  0.25500000920E-02 0.  1.
    10030    2    1    2    0    0  0.00000000000E+00  0.00000000000E+00  0.70923411325E+03  0.28893088045E+04  0.28009091989E+04 0.  0.
        2    1    3    3  502    0 -0.10039331016E+04  0.95781507048E+03  0.55029225844E+03  0.14926864880E+04  0.25500000920E-02 0.  1.
       -2    1    3    3    0  502  0.10039331016E+04 -0.95781507048E+03  0.15894185481E+03  0.13966223165E+04  0.25500000920E-02 0. -1.
</event>
<event>
 5   0  0.1357902E-07  0.2799962E+04  0.7818609E-02  0.8303280E-01
       -1   -1    0    0    0  501  0.00000000000E+00  0.00000000000E+00  0.26974078219E+04  0.26974078219E+04  0.50400001928E-02 0. -1.
        1   -1    0    0  501    0  0.00000000000E+00  0.00000000000E+00 -0.72660361044E+03  0.72660361045E+03  0.50400001928E-02 0.  1.
    10030    2    1    2    0    0  0.00000000000E+00  0.00000000000E+00  0.19708042114E+04  0.34240114323E+04  0.27999616156E+04 0.  0.
        4    1    3    3  502    0  0.37843797406E+02 -0.84560899432E+03 -0.37823457751E+03  0.92711904996E+03  0.12699999809E+01 0.  1.
       -4    1    3    3    0  502 -0.37843797406E+02  0.84560899432E+03  0.23490387890E+04  0.24968923824E+04  0.12699999809E+01 0. -1.
</event>
<event>
 5   0  0.3522569E-07  0.2798228E+04  0.7818609E-02  0.8303819E-01
       -2   -1    0    0    0  501  0.00000000000E+00  0.00000000000E+00  0.85916120782E+03  0.85916120783E+03  0.25500000920E-02 0.  1.
        2   -1    0    0  501    0  0.00000000000E+00  0.00000000000E+00 -0.22784082926E+04  0.22784082926E+04  0.25500000920E-02 0. -1.
    10030    2    1    2    0    0  0.00000000000E+00  0.00000000000E+00 -0.14192470848E+04  0.31375695005E+04  0.27982280255E+04 0.  0.
        1    1    3    3  502    0 -0.12678778326E+04 -0.11125533668E+03 -0.13611462057E+04  0.18634942827E+04  0.50400001928E-02 0. -1.
       -1    1    3    3    0  502  0.12678778326E+04  0.11125533668E+03 -0.58100879081E+02  0.12740752178E+04  0.50400001928E-02 0.  1.
</event>
<event>
 5   0  0.1366235E-07  0.2800159E+04  0.7818609E-02  0.8303219E-01
       -1   -1    0    0    0  501  0.00000000000E+00  0.00000000000E+00  0.13259994542E+04  0.13259994542E+04  0.50400001928E-02 0. -1.
        1   -1    0    0  501    0  0.00000000000E+00  0.00000000000E+00 -0.14782987260E+04  0.14782987260E+04  0.50400001928E-02 0.  1.
    10030    2    1    2    0    0  0.00000000000E+00  0.00000000000E+00 -0.15229927182E+03  0.28042981802E+04  0.28001594982E+04 0.  0.
        2    1    3    3  502    0  0.43607300234E+03  0.11015514467E+04 -0.82334086760E+03  0.14427284698E+04  0.25500000920E-02 0.  1.
       -2    1    3    3    0  502 -0.43607300234E+03 -0.11015514467E+04  0.67104159577E+03  0.13615697105E+04  0.25500000920E-02 0. -1.
</event>
<event>
 5   0  0.1357902E-07  0.2800694E+04  0.7818609E-02  0.8303053E-01
       -1   -1    0    0    0  501  0.00000000000E+00  0.00000000000E+00  0.15411233128E+04  0.15411233128E+04  0.50400001928E-02 0.  1.
        1   -1    0    0  501    0  0.00000000000E+00  0.00000000000E+00 -0.12724300111E+04  0.12724300111E+04  0.50400001928E-02 0. -1.
    10030    2    1    2    0    0  0.00000000000E+00  0.00000000000E+00  0.26869330169E+03  0.28135533240E+04  0.28006938813E+04 0.  0.
        4    1    3    3  502    0  0.13764993263E+01  0.13902660316E+04 -0.34138675085E+02  0.13906863757E+04  0.12699999809E+01 0.  1.
       -4    1    3    3    0  502 -0.13764993263E+01 -0.13902660316E+04  0.30283197678E+03  0.14228669483E+04  0.12699999809E+01 0. -1.
</event>
<event>
 5   0  0.3502141E-07  0.2802994E+04  0.7818609E-02  0.8302339E-01
       -2   -1    0    0    0  501  0.00000000000E+00  0.00000000000E+00  0.15844642380E+04  0.15844642380E+04  0.25500000920E-02 0. -1.
        2   -1    0    0  501    0  0.00000000000E+00  0.00000000000E+00 -0.12396581207E+04  0.12396581207E+04  0.25500000920E-02 0.  1.
    10030    2    1    2    0    0  0.00000000000E+00  0.00000000000E+00  0.34480611734E+03  0.28241223587E+04  0.28029940846E+04 0.  0.
        3    1    3    3  502    0  0.94907508264E+03  0.93010863832E+03 -0.27631715369E+03  0.13572754957E+04  0.10100000352E+00 0.  1.
       -3    1    3    3    0  502 -0.94907508264E+03 -0.93010863832E+03  0.62112327103E+03  0.14668468630E+04  0.10100000352E+00 0. -1.
</event>
<event>
 5   0  0.1374680E-07  0.2799675E+04  0.7818609E-02  0.8303369E-01
        1   -1    0    0  501    0  0.00000000000E+00  0.00000000000E+00  0.19380214977E+04  0.19380214977E+04  0.50400001928E-02 0.  1.
       -1   -1    0    0    0  501  0.00000000000E+00  0.00000000000E+00 -0.10111057302E+04  0.10111057302E+04  0.50400001928E-02 0. -1.
    10030    2    1    2    0    0  0.00000000000E+00  0.00000000000E+00  0.92691576750E+03  0.29491272279E+04  0.27996747251E+04 0.  0.
        3    1    3    3  502    0 -0.81457855354E+03 -0.96682663210E+03 -0.16967003958E+03  0.12755704171E+04  0.10100000352E+00 0.  1.
       -3    1    3    3    0  502  0.81457855354E+03  0.96682663210E+03  0.10965858071E+04  0.16735568108E+04  0.10100000352E+00 0. -1.
</event>
<event>
 5   0  0.3571498E-07  0.2798564E+04  0.7818609E-02  0.8303714E-01
       -2   -1    0    0    0  501  0.00000000000E+00  0.00000000000E+00  0.13222035422E+04  0.13222035422E+04  0.25500000920E-02 0. -1.
        2   -1    0    0  501    0  0.00000000000E+00  0.00000000000E+00 -0.14808540010E+04  0.14808540010E+04  0.25500000920E-02 0.  1.
    10030    2    1    2    0    0  0.00000000000E+00  0.00000000000E+00 -0.15865045880E+03  0.28030575432E+04  0.27985642073E+04 0.  0.
        2    1    3    3  502    0  0.71163739737E+00 -0.11576532042E+04  0.70795776027E+03  0.13569692841E+04  0.25500000920E-02 0. -1.
       -2    1    3    3    0  502 -0.71163739737E+00  0.11576532042E+04 -0.86660821907E+03  0.14460882591E+04  0.25500000920E-02 0.  1.
</event>
<event>
 5   0  0.3502141E-07  0.2800452E+04  0.7818609E-02  0.8303128E-01
        2   -1    0    0  501    0  0.00000000000E+00  0.00000000000E+00  0.19424074460E+04  0.19424074460E+04  0.25500000920E-02 0. -1.
       -2   -1    0    0    0  501  0.00000000000E+00  0.00000000000E+00 -0.10093827794E+04  0.10093827795E+04  0.25500000920E-02 0.  1.
    10030    2    1    2    0    0  0.00000000000E+00  0.00000000000E+00  0.93302466651E+03  0.29517902254E+04  0.28004518397E+04 0.  0.
        3    1    3    3  502    0  0.75525059073E+03  0.35895828896E+02  0.17087343617E+04  0.18685462516E+04  0.10100000352E+00 0. -1.
       -3    1    3    3    0  502 -0.75525059073E+03 -0.35895828896E+02 -0.77570969520E+03  0.10832439738E+04  0.10100000352E+00 0.  1.
</event>
<event>
 5   0  0.3571498E-07  0.2800768E+04  0.7818609E-02  0.8303030E-01
        2   -1    0    0  501    0  0.00000000000E+00  0.00000000000E+00  0.21022101975E+04  0.21022101975E+04  0.25500000920E-02 0. -1.
       -2   -1    0    0    0  501  0.00000000000E+00  0.00000000000E+00 -0.93286346029E+03  0.93286346029E+03  0.25500000920E-02 0.  1.
    10030    2    1    2    0    0  0.00000000000E+00  0.00000000000E+00  0.11693467372E+04  0.30350736578E+04  0.28007678083E+04 0.  0.
        2    1    3    3  502    0 -0.81605968276E+03 -0.10881935576E+04  0.22370560843E+03  0.13784639364E+04  0.25500000920E-02 0.  1.
       -2    1    3    3    0  502  0.81605968276E+03  0.10881935576E+04  0.94564112874E+03  0.16566097214E+04  0.25500000920E-02 0. -1.
</event>
<event>
 5   0  0.3571498E-07  0.2794886E+04  0.7818609E-02  0.8304858E-01
        2   -1    0    0  501    0  0.00000000000E+00  0.00000000000E+00  0.20648950599E+04  0.20648950599E+04  0.25500000920E-02 0.  1.
       -2   -1    0    0    0  501  0.00000000000E+00  0.00000000000E+00 -0.94573670238E+03  0.94573670238E+03  0.25500000920E-02 0. -1.
    10030    2    1    2    0    0  0.00000000000E+00  0.00000000000E+00  0.11191583575E+04  0.30106317622E+04  0.27948860762E+04 0.  0.
        2    1    3    3  502    0  0.74073680183E+03 -0.39043554794E+03 -0.64558565696E+03  0.10573134668E+04  0.25500000920E-02 0. -1.
       -2    1    3    3    0  502 -0.74073680183E+03  0.39043554794E+03  0.17647440144E+04  0.19533182954E+04  0.25500000920E-02 0.  1.
</event>
<event>
 5   0  0.1361741E-07  0.2799313E+04  0.7818609E-02  0.8303482E-01
       -1   -1    0    0    0  501  0.00000000000E+00  0.00000000000E+00  0.12531009797E+04  0.12531009797E+04  0.50400001928E-02 0.  1.
        1   -1    0    0  501    0  0.00000000000E+00  0.00000000000E+00 -0.15633527680E+04  0.15633527680E+04  0.50400001928E-02 0. -1.
    10030    2    1    2    0    0  0.00000000000E+00  0.00000000000E+00 -0.31025178833E+03  0.28164537477E+04  0.27993134053E+04 0.  0.
        5    1    3    3  502    0 -0.11873920560E+04 -0.36000153259E+03 -0.80679218899E+03  0.14800124068E+04  0.46999998093E+01 0.  1.
       -5    1    3    3    0  502  0.11873920560E+04  0.36000153259E+03  0.49654040066E+03  0.13364413409E+04  0.46999998093E+01 0. -1.
</event>
<event>
 5   0  0.1357902E-07  0.2800966E+04  0.7818609E-02  0.8302969E-01
        1   -1    0    0  501    0  0.00000000000E+00  0.00000000000E+00  0.20620413429E+04  0.20620413429E+04  0.50400001928E-02 0. -1.
       -1   -1    0    0    0  501  0.00000000000E+00  0.00000000000E+00 -0.95117026692E+03  0.95117026694E+03  0.50400001928E-02 0.  1.
    10030    2    1    2    0    0  0.00000000000E+00  0.00000000000E+00  0.11108710760E+04  0.30132116098E+04  0.28009658438E+04 0.  0.
        4    1    3    3  502    0  0.26316601532E+02  0.52229127752E+03 -0.84219159715E+03  0.99134708418E+03  0.12699999809E+01 0.  1.
       -4    1    3    3    0  502 -0.26316601532E+02 -0.52229127752E+03  0.19530626731E+04  0.20218645257E+04  0.12699999809E+01 0. -1.
</event>
<event>
 5   0  0.3571498E-07  0.2788454E+04  0.7818609E-02  0.8306862E-01
       -2   -1    0    0    0  501  0.00000000000E+00  0.00000000000E+00  0.12440710735E+04  0.12440710735E+04  0.25500000920E-02 0. -1.
        2   -1    0    0  501    0  0.00000000000E+00  0.00000000000E+00 -0.15625058649E+04  0.15625058649E+04  0.25500000920E-02 0.  1.
    10030    2    1    2    0    0  0.00000000000E+00  0.00000000000E+00 -0.31843479134E+03  0.28065769384E+04  0.27884535848E+04 0.  0.
        2    1    3    3  502    0  0.71240718957E+03  0.91013453091E+03 -0.94402849514E+03  0.14923332965E+04  0.25500000920E-02 0.  1.
       -2    1    3    3    0  502 -0.71240718957E+03 -0.91013453091E+03  0.62559370380E+03  0.13142436419E+04  0.25500000920E-02 0. -1.
</event>
<event>
 5   0  0.3571498E-07  0.2799727E+04  0.7818609E-02  0.8303353E-01
       -2   -1    0    0    0  501  0.00000000000E+00  0.00000000000E+00  0.95261813451E+03  0.95261813452E+03  0.25500000920E-02 0.  1.
        2   -1    0    0  501    0  0.00000000000E+00  0.00000000000E+00 -0.20570869006E+04  0.20570869006E+04  0.25500000920E-02 0. -1.
    10030    2    1    2    0    0  0.00000000000E+00  0.00000000000E+00 -0.11044687661E+04  0.30097050351E+04  0.27997273337E+04 0.  0.
        2    1    3    3  502    0 -0.10790495179E+04  0.64410688667E+03  0.11078556028E+03  0.12615446817E+04  0.25500000920E-02 0. -1.
       -2    1    3    3    0  502  0.10790495179E+04 -0.64410688667E+03 -0.12152543264E+04  0.17481603534E+04  0.25500000920E-02 0.  1.
</event>
<event>
 5   0  0.3502141E-07  0.2800112E+04  0.7818609E-02  0.8303234E-01
        2   -1    0    0  501    0  0.00000000000E+00  0.00000000000E+00  0.21560812022E+04  0.21560812022E+04  0.25500000920E-02 0. -1.
       -2   -1    0    0    0  501  0.00000000000E+00  0.00000000000E+00 -0.90912908246E+03  0.90912908246E+03  0.25500000920E-02 0.  1.
    10030    2    1    2    0    0  0.00000000000E+00  0.00000000000E+00  0.12469521198E+04  0.30652102847E+04  0.28001115157E+04 0.  0.
        3    1    3    3  502    0 -0.10674492716E+04 -0.43921948766E+03  0.14908246328E+04  0.18854494959E+04  0.10100000352E+00 0. -1.
       -3    1    3    3    0  502  0.10674492716E+04  0.43921948766E+03 -0.24387251305E+03  0.11797607887E+04  0.10100000352E+00 0.  1.
</event>
<event>
 5   0  0.1366235E-07  0.2800765E+04  0.7818609E-02  0.8303031E-01
       -1   -1    0    0    0  501  0.00000000000E+00  0.00000000000E+00  0.76737703062E+03  0.76737703064E+03  0.50400001928E-02 0. -1.
        1   -1    0    0  501    0  0.00000000000E+00  0.00000000000E+00 -0.25555519148E+04  0.25555519148E+04  0.50400001928E-02 0.  1.
    10030    2    1    2    0    0  0.00000000000E+00  0.00000000000E+00 -0.17881748842E+04  0.33229289455E+04  0.28007654954E+04 0.  0.
        2    1    3    3  502    0 -0.22141441105E+03 -0.71683277863E+02 -0.25324472764E+04  0.25431185662E+04  0.25500000920E-02 0.  1.
       -2    1    3    3    0  502  0.22141441105E+03  0.71683277863E+02  0.74427239224E+03  0.77981037927E+03  0.25500000920E-02 0. -1.
</event>
<event>
 5   0  0.1346049E-07  0.2799406E+04  0.7818609E-02  0.8303453E-01
        1   -1    0    0  501    0  0.00000000000E+00  0.00000000000E+00  0.17628934743E+04  0.17628934743E+04  0.50400001928E-02 0. -1.
       -1   -1    0    0    0  501  0.00000000000E+00  0.00000000000E+00 -0.11113370982E+04  0.11113370982E+04  0.50400001928E-02 0.  1.
    10030    2    1    2    0    0  0.00000000000E+00  0.00000000000E+00  0.65155637613E+03  0.28742305725E+04  0.27994063071E+04 0.  0.
        1    1    3    3  502    0  0.82587258531E+03 -0.10512530913E+04  0.75155541476E+03  0.15336342884E+04  0.50400001928E-02 0. -1.
       -1    1    3    3    0  502 -0.82587258531E+03  0.10512530913E+04 -0.99999038636E+02  0.13405962841E+04  0.50400001928E-02 0.  1.
</event>
<event>
 5   0  0.3571498E-07  0.2799673E+04  0.7818609E-02  0.8303370E-01
        2   -1    0    0  501    0  0.00000000000E+00  0.00000000000E+00  0.18451217102E+04  0.18451217102E+04  0.25500000920E-02 0.  1.
       -2   -1    0    0    0  501  0.00000000000E+00  0.00000000000E+00 -0.10620123708E+04  0.10620123708E+04  0.25500000920E-02 0. -1.
    10030    2    1    2    0    0  0.00000000000E+00  0.00000000000E+00  0.78310933945E+03  0.29071340810E+04  0.27996728965E+04 0.  0.
        2    1    3    3  502    0 -0.52946437457E+03 -0.12956712338E+04  0.41347444357E+03  0.14594716803E+04  0.25500000920E-02 0.  1.
       -2    1    3    3    0  502  0.52946437457E+03  0.12956712338E+04  0.36963489589E+03  0.14476624007E+04  0.25500000920E-02 0. -1.
</event>
<event>
 5   0  0.3557628E-07  0.2801415E+04  0.7818609E-02  0.8302829E-01
       -2   -1    0    0    0  501  0.00000000000E+00  0.00000000000E+00  0.15722092611E+04  0.15722092611E+04  0.25500000920E-02 0.  1.
        2   -1    0    0  501    0  0.00000000000E+00  0.00000000000E+00 -0.12479140556E+04  0.12479140556E+04  0.25500000920E-02 0. -1.
    10030    2    1    2    0    0  0.00000000000E+00  0.00000000000E+00  0.32429520545E+03  0.28201233167E+04  0.28014153818E+04 0.  0.
        5    1    3    3  502    0 -0.98860379331E+03 -0.51845719383E+03 -0.68956663480E+03  0.13121202520E+04  0.46999998093E+01 0. -1.
       -5    1    3    3    0  502  0.98860379331E+03  0.51845719383E+03  0.10138618402E+04  0.15080030647E+04  0.46999998093E+01 0.  1.
</event>
<event>
 5   0  0.1366235E-07  0.2800484E+04  0.7818609E-02  0.8303118E-01
        1   -1    0    0  501    0  0.00000000000E+00  0.00000000000E+00  0.17824180116E+04  0.17824180116E+04  0.50400001928E-02 0.  1.
       -1   -1    0    0    0  501  0.00000000000E+00  0.00000000000E+00 -0.11000099326E+04  0.11000099327E+04  0.50400001928E-02 0. -1.
    10030    2    1    2    0    0  0.00000000000E+00  0.00000000000E+00  0.68240807899E+03  0.28824279443E+04  0.28004838989E+04 0.  0.
        2    1    3    3  502    0 -0.67489486829E+03  0.42131324541E+03 -0.84476582383E+03  0.11604383789E+04  0.25500000920E-02 0. -1.
       -2    1    3    3    0  502  0.67489486829E+03 -0.42131324541E+03  0.15271739028E+04  0.17219895654E+04  0.25500000920E-02 0.  1.
</event>
<event>
 5   0  0.1361741E-07  0.2799862E+04  0.7818609E-02  0.8303311E-01
        1   -1    0    0  501    0  0.00000000000E+00  0.00000000000E+00  0.17211954365E+04  0.17211954365E+04  0.50400001928E-02 0.  1.
       -1   -1    0    0    0  501  0.00000000000E+00  0.00000000000E+00 -0.11386312944E+04  0.11386312944E+04  0.50400001928E-02 0. -1.
    10030    2    1    2    0    0  0.00000000000E+00  0.00000000000E+00  0.58256414205E+03  0.28598267309E+04  0.27998621307E+04 0.  0.
        5    1    3    3  502    0 -0.16229176362E+03 -0.45461760109E+03  0.16334912705E+04  0.17033295631E+04  0.46999998093E+01 0.  1.
       -5    1    3    3    0  502  0.16229176362E+03  0.45461760109E+03 -0.10509271285E+04  0.11564971678E+04  0.46999998093E+01 0. -1.
</event>
<event>
 5   0  0.3406920E-07  0.2799833E+04  0.7818609E-02  0.8303320E-01
       -2   -1    0    0    0  501  0.00000000000E+00  0.00000000000E+00  0.10625778253E+04  0.10625778253E+04  0.25500000920E-02 0.  1.
        2   -1    0    0  501    0  0.00000000000E+00  0.00000000000E+00 -0.18443507742E+04  0.18443507742E+04  0.25500000920E-02 0. -1.
    10030    2    1    2    0    0  0.00000000000E+00  0.00000000000E+00 -0.78177294885E+03  0.29069285995E+04  0.27998330198E+04 0.  0.
        4    1    3    3  502    0 -0.10443071285E+04  0.63012077234E+03 -0.11042901743E+04  0.16453230589E+04  0.12699999809E+01 0.  1.
       -4    1    3    3    0  502  0.10443071285E+04 -0.63012077234E+03  0.32251722543E+03  0.12616055405E+04  0.12699999809E+01 0. -1.
</event>
<event>
 5   0  0.1374680E-07  0.2799974E+04  0.7818609E-02  0.8303276E-01
        1   -1    0    0  501    0  0.00000000000E+00  0.00000000000E+00  0.20991188947E+04  0.20991188947E+04  0.50400001928E-02 0.  1.
       -1   -1    0    0    0  501  0.00000000000E+00  0.00000000000E+00 -0.93370802887E+03  0.93370802888E+03  0.50400001928E-02 0. -1.
    10030    2    1    2    0    0  0.00000000000E+00  0.00000000000E+00  0.11654108658E+04  0.30328269236E+04  0.27999744038E+04 0.  0.
        3    1    3    3  502    0 -0.16029695309E+03 -0.13450919708E+04  0.96565600413E+03  0.16635681686E+04  0.10100000352E+00 0.  1.
       -3    1    3    3    0  502  0.16029695309E+03  0.13450919708E+04  0.19975486170E+03  0.13692587550E+04  0.10100000352E+00 0. -1.
</event>
<event>
 5   0  0.1366235E-07  0.2803900E+04  0.7818609E-02  0.8302059E-01
        1   -1    0    0  501    0  0.00000000000E+00  0.00000000000E+00  0.16299422125E+04  0.16299422125E+04  0.50400001928E-02 0. -1.
       -1   -1    0    0    0  501  0.00000000000E+00  0.00000000000E+00 -0.12058486940E+04  0.12058486940E+04  0.50400001928E-02 0.  1.
    10030    2    1    2    0    0  0.00000000000E+00  0.00000000000E+00  0.42409351852E+03  0.28357909066E+04  0.28038999186E+04 0.  0.
        2    1    3    3  502    0 -0.63401020812E+03 -0.37422854290E+02 -0.10520063400E+04  0.12288558717E+04  0.25500000920E-02 0.  1.
       -2    1    3    3    0  502  0.63401020812E+03  0.37422854290E+02  0.14760998585E+04  0.16069350349E+04  0.25500000920E-02 0. -1.
</event>
<event>
 5   0  0.3571498E-07  0.2799539E+04  0.7818609E-02  0.8303411E-01
        2   -1    0    0  501    0  0.00000000000E+00  0.00000000000E+00  0.17114786813E+04  0.17114786813E+04  0.25500000920E-02 0. -1.
       -2   -1    0    0    0  501  0.00000000000E+00  0.00000000000E+00 -0.11448317742E+04  0.11448317742E+04  0.25500000920E-02 0.  1.
    10030    2    1    2    0    0  0.00000000000E+00  0.00000000000E+00  0.56664690702E+03  0.28563104555E+04  0.27995393730E+04 0.  0.
        2    1    3    3  502    0  0.34641847536E+03 -0.15523891176E+03 -0.10913105666E+04  0.11554495370E+04  0.25500000920E-02 0.  1.
       -2    1    3    3    0  502 -0.34641847536E+03  0.15523891176E+03  0.16579574736E+04  0.17008609185E+04  0.25500000920E-02 0. -1.
</event>
<event>
 5   0  0.3502141E-07  0.2800547E+04  0.7818609E-02  0.8303099E-01
       -2   -1    0    0    0  501  0.00000000000E+00  0.00000000000E+00  0.17387632200E+04  0.17387632200E+04  0.25500000920E-02 0.  1.
        2   -1    0    0  501    0  0.00000000000E+00  0.00000000000E+00 -0.11276782595E+04  0.11276782595E+04  0.25500000920E-02 0. -1.
    10030    2    1    2    0    0  0.00000000000E+00  0.00000000000E+00  0.61108496051E+03  0.28664414795E+04  0.28005467192E+04 0.  0.
        3    1    3    3  502    0 -0.51042472490E+03  0.12788749411E+04  0.45173544828E+02  0.13777137490E+04  0.10100000352E+00 0. -1.
       -3    1    3    3    0  502  0.51042472490E+03 -0.12788749411E+04  0.56591141568E+03  0.14887277305E+04  0.10100000352E+00 0.  1.
</event>
<event>
 5   0  0.1357902E-07  0.2800481E+04  0.7818609E-02  0.8303119E-01
        1   -1    0    0  501    0  0.00000000000E+00  0.00000000000E+00  0.18375814613E+04  0.18375814613E+04  0.50400001928E-02 0.  1.
       -1   -1    0    0    0  501  0.00000000000E+00  0.00000000000E+00 -0.10669856868E+04  0.10669856868E+04  0.50400001928E-02 0. -1.
    10030    2    1    2    0    0  0.00000000000E+00  0.00000000000E+00  0.77059577453E+03  0.29045671481E+04  0.28004807569E+04 0.  0.
        4    1    3    3  502    0 -0.44878749496E+03  0.64149206110E+03  0.15893724275E+04  0.17717303989E+04  0.12699999809E+01 0.  1.
       -4    1    3    3    0  502  0.44878749496E+03 -0.64149206110E+03 -0.81877665296E+03  0.11328367492E+04  0.12699999809E+01 0. -1.
</event>
<event>
 5   0  0.3502141E-07  0.2799756E+04  0.7818609E-02  0.8303344E-01
        2   -1    0    0  501    0  0.00000000000E+00  0.00000000000E+00  0.10234663972E+04  0.10234663972E+04  0.25500000920E-02 0. -1.
       -2   -1    0    0    0  501  0.00000000000E+00  0.00000000000E+00 -0.19147267333E+04  0.19147267333E+04  0.25500000920E-02 0.  1.
    10030    2    1    2    0    0  0.00000000000E+00  0.00000000000E+00 -0.89126033606E+03  0.29381931305E+04  0.27997560404E+04 0.  0.
        3    1    3    3  502    0  0.87235099738E+03 -0.71125413986E+03 -0.13191197714E+04  0.17340575814E+04  0.10100000352E+00 0.  1.
       -3    1    3    3    0  502 -0.87235099738E+03  0.71125413986E+03  0.42785943533E+03  0.12041355491E+04  0.10100000352E+00 0. -1.
</event>
<event>
 5   0  0.1374680E-07  0.2800217E+04  0.7818609E-02  0.8303201E-01
       -1   -1    0    0    0  501  0.00000000000E+00  0.00000000000E+00  0.24329082513E+04  0.24329082513E+04  0.50400001928E-02 0. -1.
        1   -1    0    0  501    0  0.00000000000E+00  0.00000000000E+00 -0.80574509935E+03  0.80574509937E+03  0.50400001928E-02 0.  1.
    10030    2    1    2    0    0  0.00000000000E+00  0.00000000000E+00  0.16271631519E+04  0.32386533506E+04  0.28002170635E+04 0.  0.
        3    1    3    3  502    0  0.45516497587E+03  0.12857114340E+04  0.44770447568E+03  0.14355028229E+04  0.10100000352E+00 0.  1.
       -3    1    3    3    0  502 -0.45516497587E+03 -0.12857114340E+04  0.11794586762E+04  0.18031505278E+04  0.10100000352E+00 0. -1.
</event>
<event>
 5   0  0.3571498E-07  0.2796497E+04  0.7818609E-02  0.8304357E-01
       -2   -1    0    0    0  501  0.00000000000E+00  0.00000000000E+00  0.10245586369E+04  0.10245586369E+04  0.25500000920E-02 0. -1.
        2   -1    0    0  501    0  0.00000000000E+00  0.00000000000E+00 -0.19082347449E+04  0.19082347449E+04  0.25500000920E-02 0.  1.
    10030    2    1    2    0    0  0.00000000000E+00  0.00000000000E+00 -0.88367610802E+03  0.29327933818E+04  0.27964966577E+04 0.  0.
        2    1    3    3  502    0  0.84764276333E+03  0.59092725626E+03  0.54609638775E+03  0.11687234665E+04  0.25500000920E-02 0. -1.
       -2    1    3    3    0  502 -0.84764276333E+03 -0.59092725626E+03 -0.14297724958E+04  0.17640699153E+04  0.25500000920E-02 0.  1.
</event>
<event>
 5   0  0.3502141E-07  0.2801044E+04  0.7818609E-02  0.8302944E-01
        2   -1    0    0  501    0  0.00000000000E+00  0.00000000000E+00  0.14360944600E+04  0.14360944600E+04  0.25500000920E-02 0.  1.
       -2   -1    0    0    0  501  0.00000000000E+00  0.00000000000E+00 -0.13658303661E+04  0.13658303661E+04  0.25500000920E-02 0. -1.
    10030    2    1    2    0    0  0.00000000000E+00  0.00000000000E+00  0.70264093916E+02  0.28019248260E+04  0.28010436783E+04 0.  0.
        3    1    3    3  502    0 -0.94390583423E+03  0.72704611348E+03 -0.70124294913E+03  0.13824962781E+04  0.10100000352E+00 0. -1.
       -3    1    3    3    0  502  0.94390583423E+03 -0.72704611348E+03  0.77150704305E+03  0.14194285479E+04  0.10100000352E+00 0.  1.
</event>
<event>
 5   0  0.3522569E-07  0.2800519E+04  0.7818609E-02  0.8303107E-01
        2   -1    0    0  501    0  0.00000000000E+00  0.00000000000E+00  0.16142478999E+04  0.16142478999E+04  0.25500000920E-02 0. -1.
       -2   -1    0    0    0  501  0.00000000000E+00  0.00000000000E+00 -0.12146376225E+04  0.12146376225E+04  0.25500000920E-02 0.  1.
    10030    2    1    2    0    0  0.00000000000E+00  0.00000000000E+00  0.39961027741E+03  0.28288855224E+04  0.28005186885E+04 0.  0.
        1    1    3    3  502    0 -0.10685313919E+03 -0.13197337394E+04 -0.26045418572E+03  0.13494262185E+04  0.50400001928E-02 0.  1.
       -1    1    3    3    0  502  0.10685313919E+03  0.13197337394E+04  0.66006446313E+03  0.14794593039E+04  0.50400001928E-02 0. -1.
</event>
<event>
 5   0  0.1346049E-07  0.2817770E+04  0.7818609E-02  0.8297773E-01
        1   -1    0    0  501    0  0.00000000000E+00  0.00000000000E+00  0.10694901176E+04  0.10694901176E+04  0.50400001928E-02 0. -1.
       -1   -1    0    0    0  501  0.00000000000E+00  0.00000000000E+00 -0.18559843864E+04  0.18559843864E+04  0.50400001928E-02 0.  1.
    10030    2    1    2    0    0  0.00000000000E+00  0.00000000000E+00 -0.78649426873E+03  0.29254745040E+04  0.28177700117E+04 0.  0.
        1    1    3    3  502    0  0.12781925302E+04 -0.57850752009E+03 -0.25984507627E+03  0.14268730002E+04  0.50400001928E-02 0.  1.
       -1    1    3    3    0  502 -0.12781925302E+04  0.57850752009E+03 -0.52664919246E+03  0.14986015038E+04  0.50400001928E-02 0. -1.
</event>
<event>
 5   0  0.3502141E-07  0.2799438E+04  0.7818609E-02  0.8303443E-01
       -2   -1    0    0    0  501  0.00000000000E+00  0.00000000000E+00  0.93337149934E+03  0.93337149934E+03  0.25500000920E-02 0. -1.
        2   -1    0    0  501    0  0.00000000000E+00  0.00000000000E+00 -0.20990719574E+04  0.20990719574E+04  0.25500000920E-02 0.  1.
    10030    2    1    2    0    0  0.00000000000E+00  0.00000000000E+00 -0.11657004580E+04  0.30324434567E+04  0.27994384723E+04 0.  0.
        3    1    3    3  502    0  0.96640049072E+03  0.17105089477E+03 -0.16639282506E+04  0.19317985274E+04  0.10100000352E+00 0.  1.
       -3    1    3    3    0  502 -0.96640049072E+03 -0.17105089477E+03  0.49822779253E+03  0.11006449294E+04  0.10100000352E+00 0. -1.
</event>
<event>
 5   0  0.1357902E-07  0.2798673E+04  0.7818609E-02  0.8303681E-01
        1   -1    0    0  501    0  0.00000000000E+00  0.00000000000E+00  0.18142598799E+04  0.18142598799E+04  0.50400001928E-02 0.  1.
       -1   -1    0    0    0  501  0.00000000000E+00  0.00000000000E+00 -0.10793062218E+04  0.10793062218E+04  0.50400001928E-02 0. -1.
    10030    2    1    2    0    0  0.00000000000E+00  0.00000000000E+00  0.73495365816E+03  0.28935661017E+04  0.27986725255E+04 0.  0.
        4    1    3    3  502    0  0.10630524405E+04 -0.55184962544E+03 -0.38060436158E+03  0.12567735649E+04  0.12699999809E+01 0. -1.
       -4    1    3    3    0  502 -0.10630524405E+04  0.55184962544E+03  0.11155580197E+04  0.16367925368E+04  0.12699999809E+01 0.  1.
</event>
<event>
 5   0  0.3557628E-07  0.2799408E+04  0.7818609E-02  0.8303452E-01
        2   -1    0    0  501    0  0.00000000000E+00  0.00000000000E+00  0.18800171121E+04  0.18800171121E+04  0.25500000920E-02 0.  1.
       -2   -1    0    0    0  501  0.00000000000E+00  0.00000000000E+00 -0.10421032031E+04  0.10421032031E+04  0.25500000920E-02 0. -1.
    10030    2    1    2    0    0  0.00000000000E+00  0.00000000000E+00  0.83791390901E+03  0.29221203151E+04  0.27994084049E+04 0.  0.
        5    1    3    3  502    0  0.10780461065E+04 -0.20838556377E+03  0.13250765227E+04  0.17208886750E+04  0.46999998093E+01 0.  1.
       -5    1    3    3    0  502 -0.10780461065E+04  0.20838556377E+03 -0.48716261366E+03  0.12012316401E+04  0.46999998093E+01 0. -1.
</event>
<event>
 5   0  0.1357902E-07  0.2799806E+04  0.7818609E-02  0.8303328E-01
        1   -1    0    0  501    0  0.00000000000E+00  0.00000000000E+00  0.15056545917E+04  0.15056545917E+04  0.50400001928E-02 0. -1.
       -1   -1    0    0    0  501  0.00000000000E+00  0.00000000000E+00 -0.13015793748E+04  0.13015793748E+04  0.50400001928E-02 0.  1.
    10030    2    1    2    0    0  0.00000000000E+00  0.00000000000E+00  0.20407521694E+03  0.28072339665E+04  0.27998063949E+04 0.  0.
        4    1    3    3  502    0 -0.51417730718E+03  0.24630822404E+03  0.13839760083E+04  0.14968090222E+04  0.12699999809E+01 0. -1.
       -4    1    3    3    0  502  0.51417730718E+03 -0.24630822404E+03 -0.11799007914E+04  0.13104249444E+04  0.12699999809E+01 0.  1.
</event>
<event>
 5   0  0.1374680E-07  0.2799613E+04  0.7818609E-02  0.8303389E-01
        1   -1    0    0  501    0  0.00000000000E+00  0.00000000000E+00  0.20643209889E+04  0.20643209889E+04  0.50400001928E-02 0.  1.
       -1   -1    0    0    0  501  0.00000000000E+00  0.00000000000E+00 -0.94920224389E+03  0.94920224391E+03  0.50400001928E-02 0. -1.
    10030    2    1    2    0    0  0.00000000000E+00  0.00000000000E+00  0.11151187450E+04  0.30135232328E+04  0.27996129124E+04 0.  0.
        3    1    3    3  502    0  0.47542505830E+03 -0.97895206795E+03 -0.39009587665E+03  0.11560929636E+04  0.10100000352E+00 0. -1.
       -3    1    3    3    0  502 -0.47542505830E+03  0.97895206795E+03  0.15052146217E+04  0.18574302692E+04  0.10100000352E+00 0.  1.
</event>
<event>
 5   0  0.3522569E-07  0.2797422E+04  0.7818609E-02  0.8304069E-01
        2   -1    0    0  501    0  0.00000000000E+00  0.00000000000E+00  0.11741547177E+04  0.11741547177E+04  0.25500000920E-02 0.  1.
       -2   -1    0    0    0  501  0.00000000000E+00  0.00000000000E+00 -0.16662139117E+04  0.16662139117E+04  0.25500000920E-02 0. -1.
    10030    2    1    2    0    0  0.00000000000E+00  0.00000000000E+00 -0.49205919403E+03  0.28403686294E+04  0.27974223314E+04 0.  0.
        1    1    3    3  502    0  0.13695842112E+04  0.23063843573E+03 -0.77842642698E+02  0.13910479778E+04  0.50400001928E-02 0. -1.
       -1    1    3    3    0  502 -0.13695842112E+04 -0.23063843573E+03 -0.41421655133E+03  0.14493206515E+04  0.50400001928E-02 0.  1.
</event>
<event>
 5   0  0.3406920E-07  0.2799971E+04  0.7818609E-02  0.8303277E-01
        2   -1    0    0  501    0  0.00000000000E+00  0.00000000000E+00  0.15321834221E+04  0.15321834221E+04  0.25500000920E-02 0. -1.
       -2   -1    0    0    0  501  0.00000000000E+00  0.00000000000E+00 -0.12791934771E+04  0.12791934771E+04  0.25500000920E-02 0.  1.
    10030    2    1    2    0    0  0.00000000000E+00  0.00000000000E+00  0.25298994493E+03  0.28113768992E+04  0.27999707422E+04 0.  0.
        4    1    3    3  502    0 -0.39802880611E+03  0.62859316934E+03  0.13172438505E+04  0.15128414582E+04  0.12699999809E+01 0. -1.
       -4    1    3    3    0  502  0.39802880611E+03 -0.62859316934E+03 -0.10642539056E+04  0.12985354410E+04  0.12699999809E+01 0.  1.
</event>
<event>
 5   0  0.3502141E-07  0.2799951E+04  0.7818609E-02  0.8303284E-01
       -2   -1    0    0    0  501  0.00000000000E+00  0.00000000000E+00  0.16280465826E+04  0.16280465826E+04  0.25500000920E-02 0. -1.
        2   -1    0    0  501    0  0.00000000000E+00  0.00000000000E+00 -0.12038547135E+04  0.12038547135E+04  0.25500000920E-02 0.  1.
    10030    2    1    2    0    0  0.00000000000E+00  0.00000000000E+00  0.42419186906E+03  0.28319012961E+04  0.27999511083E+04 0.  0.
        3    1    3    3  502    0 -0.10819274953E+04  0.82207827999E+03 -0.12872366220E+03  0.13648991153E+04  0.10100000352E+00 0.  1.
       -3    1    3    3    0  502  0.10819274953E+04 -0.82207827999E+03  0.55291553126E+03  0.14670021808E+04  0.10100000352E+00 0. -1.
</event>
<event>
 5   0  0.1357902E-07  0.2799647E+04  0.7818609E-02  0.8303378E-01
       -1   -1    0    0    0  501  0.00000000000E+00  0.00000000000E+00  0.19078333934E+04  0.19078333934E+04  0.50400001928E-02 0.  1.
        1   -1    0    0  501    0  0.00000000000E+00  0.00000000000E+00 -0.10270845694E+04  0.10270845694E+04  0.50400001928E-02 0. -1.
    10030    2    1    2    0    0  0.00000000000E+00  0.00000000000E+00  0.88074882401E+03  0.29349179627E+04  0.27996472915E+04 0.  0.
        4    1    3    3  502    0  0.10480660807E+04 -0.54481709453E+03  0.12278248242E+04  0.17037674688E+04  0.12699999809E+01 0.  1.
       -4    1    3    3    0  502 -0.10480660807E+04  0.54481709453E+03 -0.34707600018E+03  0.12311504939E+04  0.12699999809E+01 0. -1.
</event>
<event>
 5   0  0.1366235E-07  0.2797726E+04  0.7818609E-02  0.8303975E-01
       -1   -1    0    0    0  501  0.00000000000E+00  0.00000000000E+00  0.11377533421E+04  0.11377533421E+04  0.50400001928E-02 0. -1.
        1   -1    0    0  501    0  0.00000000000E+00  0.00000000000E+00 -0.17198961915E+04  0.17198961915E+04  0.50400001928E-02 0.  1.
    10030    2    1    2    0    0  0.00000000000E+00  0.00000000000E+00 -0.58214284939E+03  0.28576495336E+04  0.27977259623E+04 0.  0.
        2    1    3    3  502    0 -0.37690983540E+03 -0.39409900392E+03  0.10247135065E+04  0.11607811247E+04  0.25500000920E-02 0. -1.
       -2    1    3    3    0  502  0.37690983540E+03  0.39409900392E+03 -0.16068563559E+04  0.16968684090E+04  0.25500000920E-02 0.  1.
</event>
<event>
 5   0  0.3557628E-07  0.2800327E+04  0.7818609E-02  0.8303167E-01
        2   -1    0    0  501    0  0.00000000000E+00  0.00000000000E+00  0.12607671256E+04  0.12607671256E+04  0.25500000920E-02 0. -1.
       -2   -1    0    0    0  501  0.00000000000E+00  0.00000000000E+00 -0.15549722008E+04  0.15549722008E+04  0.25500000920E-02 0.  1.
    10030    2    1    2    0    0  0.00000000000E+00  0.00000000000E+00 -0.29420507522E+03  0.28157393264E+04  0.28003270037E+04 0.  0.
        5    1    3    3  502    0 -0.13564439504E+04  0.34358189571E+03 -0.19684228160E+03  0.14130667654E+04  0.46999998093E+01 0.  1.
       -5    1    3    3    0  502  0.13564439504E+04 -0.34358189571E+03 -0.97362793615E+02  0.14026725610E+04  0.46999998093E+01 0. -1.
</event>
<event>
 5   0  0.1346049E-07  0.2795459E+04  0.7818609E-02  0.8304680E-01
       -1   -1    0    0    0  501  0.00000000000E+00  0.00000000000E+00  0.20408335383E+04  0.20408335383E+04  0.50400001928E-02 0.  1.
        1   -1    0    0  501    0  0.00000000000E+00  0.00000000000E+00 -0.95727909908E+03  0.95727909909E+03  0.50400001928E-02 0. -1.
    10030    2    1    2    0    0  0.00000000000E+00  0.00000000000E+00  0.10835544392E+04  0.29981126374E+04  0.27954586678E+04 0.  0.
        1    1    3    3  502    0 -0.28806053625E+02 -0.83276817726E+03 -0.66176685776E+03  0.10640808239E+04  0.50400001928E-02 0. -1.
       -1    1    3    3    0  502  0.28806053625E+02  0.83276817726E+03  0.17453212970E+04  0.19340318134E+04  0.50400001928E-02 0.  1.
</event>
<event>
 5   0  0.3502141E-07  0.2799624E+04  0.7818609E-02  0.8303385E-01
       -2   -1    0    0    0  501  0.00000000000E+00  0.00000000000E+00  0.18802717565E+04  0.18802717565E+04  0.25500000920E-02 0. -1.
        2   -1    0    0  501    0  0.00000000000E+00  0.00000000000E+00 -0.10421228143E+04  0.10421228143E+04  0.25500000920E-02 0.  1.
    10030    2    1    2    0    0  0.00000000000E+00  0.00000000000E+00  0.83814894221E+03  0.29223945708E+04  0.27996243280E+04 0.  0.
        3    1    3    3  502    0 -0.53053255973E+03  0.18485871129E+03 -0.91927154084E+03  0.10773568193E+04  0.10100000352E+00 0.  1.
       -3    1    3    3    0  502  0.53053255973E+03 -0.18485871129E+03  0.17574204830E+04  0.18450377515E+04  0.10100000352E+00 0. -1.
</event>
<event>
 5   0  0.1366235E-07  0.2800081E+04  0.7818609E-02  0.8303243E-01
       -1   -1    0    0    0  501  0.00000000000E+00  0.00000000000E+00  0.79856010557E+03  0.79856010559E+03  0.50400001928E-02 0.  1.
        1   -1    0    0  501    0  0.00000000000E+00  0.00000000000E+00 -0.24545599635E+04  0.24545599636E+04  0.50400001928E-02 0. -1.
    10030    2    1    2    0    0  0.00000000000E+00  0.00000000000E+00 -0.16559998580E+04  0.32531200691E+04  0.28000811871E+04 0.  0.
        2    1    3    3  502    0  0.13274593749E+02 -0.51230419109E+03  0.68567298894E+03  0.85602526062E+03  0.25500000920E-02 0.  1.
       -2    1    3    3    0  502 -0.13274593749E+02  0.51230419109E+03 -0.23416728469E+04  0.23970948085E+04  0.25500000920E-02 0. -1.
</event>
<event>
 5   0  0.1357902E-07  0.2800172E+04  0.7818609E-02  0.8303215E-01
       -1   -1    0    0    0  501  0.00000000000E+00  0.00000000000E+00  0.12453281893E+04  0.12453281893E+04  0.50400001928E-02 0.  1.
        1   -1    0    0  501    0  0.00000000000E+00  0.00000000000E+00 -0.15740751244E+04  0.15740751244E+04  0.50400001928E-02 0. -1.
    10030    2    1    2    0    0  0.00000000000E+00  0.00000000000E+00 -0.32874693505E+03  0.28194033137E+04  0.28001715123E+04 0.  0.
        4    1    3    3  502    0  0.15902251001E+03  0.10474520496E+04 -0.10859710780E+04  0.15171614120E+04  0.12699999809E+01 0. -1.
       -4    1    3    3    0  502 -0.15902251001E+03 -0.10474520496E+04  0.75722414295E+03  0.13022419017E+04  0.12699999809E+01 0.  1.
</event>
<event>
 5   0  0.1173363E-07  0.2799863E+04  0.7818609E-02  0.8303311E-01
       -3   -1    0    0    0  501  0.00000000000E+00  0.00000000000E+00  0.10555805348E+04  0.10555805396E+04  0.10100000352E+00 0. -1.
        3   -1    0    0  501    0  0.00000000000E+00  0.00000000000E+00 -0.18566158479E+04  0.18566158506E+04  0.10100000352E+00 0.  1.
    10030    2    1    2    0    0  0.00000000000E+00  0.00000000000E+00 -0.80103531310E+03  0.29121963902E+04  0.27998625399E+04 0.  0.
        1    1    3    3  502    0 -0.82025317454E+03 -0.10953823347E+03  0.77394162046E+03  0.11330487751E+04  0.50400001928E-02 0. -1.
       -1    1    3    3    0  502  0.82025317454E+03  0.10953823347E+03 -0.15749769336E+04  0.17791476151E+04  0.50400001928E-02 0.  1.
</event>
<event>
 5   0  0.3406920E-07  0.2800328E+04  0.7818609E-02  0.8303166E-01
       -2   -1    0    0    0  501  0.00000000000E+00  0.00000000000E+00  0.70265319534E+03  0.70265319535E+03  0.25500000920E-02 0.  1.
        2   -1    0    0  501    0  0.00000000000E+00  0.00000000000E+00 -0.27900814569E+04  0.27900814569E+04  0.25500000920E-02 0. -1.
    10030    2    1    2    0    0  0.00000000000E+00  0.00000000000E+00 -0.20874282615E+04  0.34927346522E+04  0.28003283029E+04 0.  0.
        4    1    3    3  502    0  0.12055837124E+04 -0.19377405653E+03 -0.18911181553E+03  0.12356153788E+04  0.12699999809E+01 0.  1.
       -4    1    3    3    0  502 -0.12055837124E+04  0.19377405653E+03 -0.18983164460E+04  0.22571192735E+04  0.12699999809E+01 0. -1.
</event>
<event>
 5   0  0.1361741E-07  0.2799948E+04  0.7818609E-02  0.8303285E-01
        1   -1    0    0  501    0  0.00000000000E+00  0.00000000000E+00  0.26901037407E+04  0.26901037407E+04  0.50400001928E-02 0. -1.
       -1   -1    0    0    0  501  0.00000000000E+00  0.00000000000E+00 -0.72856920620E+03  0.72856920622E+03  0.50400001928E-02 0.  1.
    10030    2    1    2    0    0  0.00000000000E+00  0.00000000000E+00  0.19615345345E+04  0.34186729469E+04  0.27999476759E+04 0.  0.
        5    1    3    3  502    0 -0.97403626934E+03 -0.90369036738E+03  0.15192470051E+04  0.20183003955E+04  0.46999998093E+01 0.  1.
       -5    1    3    3    0  502  0.97403626934E+03  0.90369036738E+03  0.44228752940E+03  0.14003725514E+04  0.46999998093E+01 0. -1.
</event>
<event>
 5   0  0.3571498E-07  0.2800379E+04  0.7818609E-02  0.8303151E-01
       -2   -1    0    0    0  501  0.00000000000E+00  0.00000000000E+00  0.83826980867E+03  0.83826980868E+03  0.25500000920E-02 0.  1.
        2   -1    0    0  501    0  0.00000000000E+00  0.00000000000E+00 -0.23387829849E+04  0.23387829849E+04  0.25500000920E-02 0. -1.
    10030    2    1    2    0    0  0.00000000000E+00  0.00000000000E+00 -0.15005131763E+04  0.31770527936E+04  0.28003793781E+04 0.  0.
        2    1    3    3  502    0  0.36723783961E+03  0.10890696494E+04  0.15706247184E+03  0.11600021345E+04  0.25500000920E-02 0.  1.
       -2    1    3    3    0  502 -0.36723783961E+03 -0.10890696494E+04 -0.16575756481E+04  0.20170506591E+04  0.25500000920E-02 0. -1.
</event>
<event>
 5   0  0.1357902E-07  0.2799763E+04  0.7818609E-02  0.8303342E-01
        1   -1    0    0  501    0  0.00000000000E+00  0.00000000000E+00  0.16177543364E+04  0.16177543364E+04  0.50400001928E-02 0.  1.
       -1   -1    0    0    0  501  0.00000000000E+00  0.00000000000E+00 -0.12113510957E+04  0.12113510957E+04  0.50400001928E-02 0. -1.
    10030    2    1    2    0    0  0.00000000000E+00  0.00000000000E+00  0.40640324068E+03  0.28291054322E+04  0.27997631958E+04 0.  0.
        4    1    3    3  502    0 -0.53772359523E+03  0.12799556110E+04  0.38462108625E+03  0.14406137663E+04  0.12699999809E+01 0.  1.
       -4    1    3    3    0  502  0.53772359523E+03 -0.12799556110E+04  0.21782154429E+02  0.13884916658E+04  0.12699999809E+01 0. -1.
</event>
<event>
 5   0  0.1346049E-07  0.2797285E+04  0.7818609E-02  0.8304112E-01
        1   -1    0    0  501    0  0.00000000000E+00  0.00000000000E+00  0.17427901731E+04  0.17427901731E+04  0.50400001928E-02 0. -1.
       -1   -1    0    0    0  501  0.00000000000E+00  0.00000000000E+00 -0.11224532527E+04  0.11224532527E+04  0.50400001928E-02 0.  1.
    10030    2    1    2    0    0  0.00000000000E+00  0.00000000000E+00  0.62033692034E+03  0.28652434258E+04  0.27972847539E+04 0.  0.
        1    1    3    3  502    0 -0.60523457734E+03  0.93456156615E+03  0.11771878038E+04  0.16203349469E+04  0.50400001928E-02 0. -1.
       -1    1    3    3    0  502  0.60523457734E+03 -0.93456156615E+03 -0.55685088348E+03  0.12449084790E+04  0.50400001928E-02 0.  1.
</event>
<event>
 5   0  0.3571498E-07  0.2802237E+04  0.7818609E-02  0.8302574E-01
        2   -1    0    0  501    0  0.00000000000E+00  0.00000000000E+00  0.21109749832E+04  0.21109749832E+04  0.25500000920E-02 0. -1.
       -2   -1    0    0    0  501  0.00000000000E+00  0.00000000000E+00 -0.92996521341E+03  0.92996521342E+03  0.25500000920E-02 0.  1.
    10030    2    1    2    0    0  0.00000000000E+00  0.00000000000E+00  0.11810097697E+04  0.30409401966E+04  0.28022371782E+04 0.  0.
        2    1    3    3  502    0 -0.12547858709E+04 -0.89125932076E+02  0.12600744912E+04  0.17805108079E+04  0.25500000920E-02 0. -1.
       -2    1    3    3    0  502  0.12547858709E+04  0.89125932076E+02 -0.79064721483E+02  0.12604293887E+04  0.25500000920E-02 0.  1.
</event>
<event>
 5   0  0.3406920E-07  0.2799111E+04  0.7818609E-02  0.8303544E-01
       -2   -1    0    0    0  501  0.00000000000E+00  0.00000000000E+00  0.12207795930E+04  0.12207795930E+04  0.25500000920E-02 0. -1.
        2   -1    0    0  501    0  0.00000000000E+00  0.00000000000E+00 -0.16045118235E+04  0.16045118235E+04  0.25500000920E-02 0.  1.
    10030    2    1    2    0    0  0.00000000000E+00  0.00000000000E+00 -0.38373223056E+03  0.28252914165E+04  0.27991107809E+04 0.  0.
        4    1    3    3  502    0 -0.17483005004E+03 -0.54552516306E+03 -0.14807553829E+04  0.15877031734E+04  0.12699999809E+01 0.  1.
       -4    1    3    3    0  502  0.17483005004E+03  0.54552516306E+03  0.10970231523E+04  0.12375882431E+04  0.12699999809E+01 0. -1.
</event>
<event>
 5   0  0.1366235E-07  0.2798577E+04  0.7818609E-02  0.8303710E-01
       -1   -1    0    0    0  501  0.00000000000E+00  0.00000000000E+00  0.81462254615E+03  0.81462254617E+03  0.50400001928E-02 0.  1.
        1   -1    0    0  501    0  0.00000000000E+00  0.00000000000E+00 -0.24035767299E+04  0.24035767299E+04  0.50400001928E-02 0. -1.
    10030    2    1    2    0    0  0.00000000000E+00  0.00000000000E+00 -0.15889541838E+04  0.32181992761E+04  0.27985766351E+04 0.  0.
        2    1    3    3  502    0 -0.14697063560E+02  0.13518653442E+04 -0.37945832625E+03  0.14041882117E+04  0.25500000920E-02 0.  1.
       -2    1    3    3    0  502  0.14697063560E+02 -0.13518653442E+04 -0.12094958575E+04  0.18140110644E+04  0.25500000920E-02 0. -1.
</event>
<event>
 5   0  0.1346049E-07  0.2802325E+04  0.7818609E-02  0.8302547E-01
       -1   -1    0    0    0  501  0.00000000000E+00  0.00000000000E+00  0.16063586776E+04  0.16063586776E+04  0.50400001928E-02 0.  1.
        1   -1    0    0  501    0  0.00000000000E+00  0.00000000000E+00 -0.12221784983E+04  0.12221784983E+04  0.50400001928E-02 0. -1.
    10030    2    1    2    0    0  0.00000000000E+00  0.00000000000E+00  0.38418017931E+03  0.28285371760E+04  0.28023254889E+04 0.  0.
        1    1    3    3  502    0 -0.89375365035E+03  0.10514757698E+04 -0.52790302937E+02  0.13810082179E+04  0.50400001928E-02 0.  1.
       -1    1    3    3    0  502  0.89375365035E+03 -0.10514757698E+04  0.43697048225E+03  0.14475289580E+04  0.50400001928E-02 0. -1.
</event>
<event>
 5   0  0.1346049E-07  0.2801144E+04  0.7818609E-02  0.8302913E-01
       -1   -1    0    0    0  501  0.00000000000E+00  0.00000000000E+00  0.10937889499E+04  0.10937889499E+04  0.50400001928E-02 0.  1.
        1   -1    0    0  501    0  0.00000000000E+00  0.00000000000E+00 -0.17934009015E+04  0.17934009015E+04  0.50400001928E-02 0. -1.
    10030    2    1    2    0    0  0.00000000000E+00  0.00000000000E+00 -0.69961195162E+03  0.28871898514E+04  0.28011441153E+04 0.  0.
        1    1    3    3  502    0  0.10929627930E+03 -0.22676119405E+03 -0.17698930223E+04  0.17877045690E+04  0.50400001928E-02 0. -1.
       -1    1    3    3    0  502 -0.10929627930E+03  0.22676119405E+03  0.10702810707E+04  0.10994852823E+04  0.50400001928E-02 0.  1.
</event>
<event>
 5   0  0.3406920E-07  0.2811355E+04  0.7818609E-02  0.8299752E-01
        2   -1    0    0  501    0  0.00000000000E+00  0.00000000000E+00  0.18866114977E+04  0.18866114977E+04  0.25500000920E-02 0. -1.
       -2   -1    0    0    0  501  0.00000000000E+00  0.00000000000E+00 -0.10473430401E+04  0.10473430401E+04  0.25500000920E-02 0.  1.
    10030    2    1    2    0    0  0.00000000000E+00  0.00000000000E+00  0.83926845755E+03  0.29339545378E+04  0.28113551334E+04 0.  0.
        4    1    3    3  502    0  0.68900959012E+03  0.92026708719E+03 -0.42452975960E+03  0.12255010635E+04  0.12699999809E+01 0.  1.
       -4    1    3    3    0  502 -0.68900959012E+03 -0.92026708719E+03  0.12637982172E+04  0.17084534742E+04  0.12699999809E+01 0. -1.
</event>
<event>
 5   0  0.1374680E-07  0.2799808E+04  0.7818609E-02  0.8303328E-01
        1   -1    0    0  501    0  0.00000000000E+00  0.00000000000E+00  0.16142166043E+04  0.16142166043E+04  0.50400001928E-02 0. -1.
       -1   -1    0    0    0  501  0.00000000000E+00  0.00000000000E+00 -0.12140444989E+04  0.12140444989E+04  0.50400001928E-02 0.  1.
    10030    2    1    2    0    0  0.00000000000E+00  0.00000000000E+00  0.40017210546E+03  0.28282611032E+04  0.27998076995E+04 0.  0.
        3    1    3    3  502    0  0.19541998188E+03  0.25076926351E+03 -0.11770944787E+04  0.12192725761E+04  0.10100000352E+00 0.  1.
       -3    1    3    3    0  502 -0.19541998188E+03 -0.25076926351E+03  0.15772665841E+04  0.16089885272E+04  0.10100000352E+00 0. -1.
</event>
<event>
 5   0  0.1346049E-07  0.2800955E+04  0.7818609E-02  0.8302972E-01
        1   -1    0    0  501    0  0.00000000000E+00  0.00000000000E+00  0.28159535398E+04  0.28159535398E+04  0.50400001928E-02 0.  1.
       -1   -1    0    0    0  501  0.00000000000E+00  0.00000000000E+00 -0.69650922897E+03  0.69650922898E+03  0.50400001928E-02 0. -1.
    10030    2    1    2    0    0  0.00000000000E+00  0.00000000000E+00  0.21194443108E+04  0.35124627688E+04  0.28009552862E+04 0.  0.
        1    1    3    3  502    0 -0.76562254633E+03  0.37265624143E+03  0.24540510180E+04  0.25975790569E+04  0.50400001928E-02 0.  1.
       -1    1    3    3    0  502  0.76562254633E+03 -0.37265624143E+03 -0.33460670721E+03  0.91488371188E+03  0.50400001928E-02 0. -1.
</event>
<event>
 5   0  0.1346049E-07  0.2799410E+04  0.7818609E-02  0.8303452E-01
       -1   -1    0    0    0  501  0.00000000000E+00  0.00000000000E+00  0.85956063590E+03  0.85956063592E+03  0.50400001928E-02 0.  1.
        1   -1    0    0  501    0  0.00000000000E+00  0.00000000000E+00 -0.22792739406E+04  0.22792739406E+04  0.50400001928E-02 0. -1.
    10030    2    1    2    0    0  0.00000000000E+00  0.00000000000E+00 -0.14197133047E+04  0.31388345765E+04  0.27994100506E+04 0.  0.
        1    1    3    3  502    0 -0.88084894832E+03  0.24841726047E+03 -0.18973050478E+04  0.21065071681E+04  0.50400001928E-02 0. -1.
       -1    1    3    3    0  502  0.88084894832E+03 -0.24841726047E+03  0.47759174307E+03  0.10323274084E+04  0.50400001928E-02 0.  1.
</event>
<event>
 5   0  0.3406920E-07  0.2799698E+04  0.7818609E-02  0.8303362E-01
       -2   -1    0    0    0  501  0.00000000000E+00  0.00000000000E+00  0.85225938488E+03  0.85225938488E+03  0.25500000920E-02 0. -1.
        2   -1    0    0  501    0  0.00000000000E+00  0.00000000000E+00 -0.22992740266E+04  0.22992740266E+04  0.25500000920E-02 0.  1.
    10030    2    1    2    0    0  0.00000000000E+00  0.00000000000E+00 -0.14470146418E+04  0.31515334115E+04  0.27996984606E+04 0.  0.
        4    1    3    3  502    0  0.20457249707E+03 -0.10742829123E+04  0.26017694129E+03  0.11241117987E+04  0.12699999809E+01 0. -1.
       -4    1    3    3    0  502 -0.20457249707E+03  0.10742829123E+04 -0.17071915830E+04  0.20274216129E+04  0.12699999809E+01 0.  1.
</event>
<event>
 5   0  0.3502141E-07  0.2798430E+04  0.7818609E-02  0.8303756E-01
       -2   -1    0    0    0  501  0.00000000000E+00  0.00000000000E+00  0.82706246224E+03  0.82706246225E+03  0.25500000920E-02 0. -1.
        2   -1    0    0  501    0  0.00000000000E+00  0.00000000000E+00 -0.23671760195E+04  0.23671760195E+04  0.25500000920E-02 0.  1.
    10030    2    1    2    0    0  0.00000000000E+00  0.00000000000E+00 -0.15401135573E+04  0.31942384818E+04  0.27984298650E+04 0.  0.
        3    1    3    3  502    0  0.73561745580E+03  0.11007948322E+04 -0.25334875687E+03  0.13479866122E+04  0.10100000352E+00 0. -1.
       -3    1    3    3    0  502 -0.73561745580E+03 -0.11007948322E+04 -0.12867648004E+04  0.18462518695E+04  0.10100000352E+00 0.  1.
</event>
<event>
 5   0  0.3557628E-07  0.2805562E+04  0.7818609E-02  0.8301544E-01
       -2   -1    0    0    0  501  0.00000000000E+00  0.00000000000E+00  0.19983446529E+04  0.19983446529E+04  0.25500000920E-02 0.  1.
        2   -1    0    0  501    0  0.00000000000E+00  0.00000000000E+00 -0.98471258393E+03  0.98471258393E+03  0.25500000920E-02 0. -1.
    10030    2    1    2    0    0  0.00000000000E+00  0.00000000000E+00  0.10136320689E+04  0.29830572368E+04  0.28055624225E+04 0.  0.
        5    1    3    3  502    0 -0.11615899014E+03  0.72752255667E+03 -0.76243556541E+03  0.10602415116E+04  0.46999998093E+01 0. -1.
       -5    1    3    3    0  502  0.11615899014E+03 -0.72752255667E+03  0.17760676343E+04  0.19228157252E+04  0.46999998093E+01 0.  1.
</event>
<event>
 5   0  0.3502141E-07  0.2799599E+04  0.7818609E-02  0.8303393E-01
       -2   -1    0    0    0  501  0.00000000000E+00  0.00000000000E+00  0.86636774099E+03  0.86636774099E+03  0.25500000920E-02 0.  1.
        2   -1    0    0  501    0  0.00000000000E+00  0.00000000000E+00 -0.22616713780E+04  0.22616713780E+04  0.25500000920E-02 0. -1.
    10030    2    1    2    0    0  0.00000000000E+00  0.00000000000E+00 -0.13953036370E+04  0.31280391190E+04  0.27995993447E+04 0.  0.
        3    1    3    3  502    0 -0.87263841409E+03 -0.10929788600E+04 -0.63309331776E+03  0.15352223778E+04  0.10100000352E+00 0.  1.
       -3    1    3    3    0  502  0.87263841409E+03  0.10929788600E+04 -0.76221031928E+03  0.15928167412E+04  0.10100000352E+00 0. -1.
</event>
<event>
 5   0  0.1361741E-07  0.2801641E+04  0.7818609E-02  0.8302759E-01
       -1   -1    0    0    0  501  0.00000000000E+00  0.00000000000E+00  0.13061758896E+04  0.13061758896E+04  0.50400001928E-02 0. -1.
        1   -1    0    0  501    0  0.00000000000E+00  0.00000000000E+00 -0.15023224825E+04  0.15023224826E+04  0.50400001928E-02 0.  1.
    10030    2    1    2    0    0  0.00000000000E+00  0.00000000000E+00 -0.19614659294E+03  0.28084983722E+04  0.28016405231E+04 0.  0.
        5    1    3    3  502    0  0.70243372578E+03  0.83012969901E+03  0.78712095110E+03  0.13424268837E+04  0.46999998093E+01 0. -1.
       -5    1    3    3    0  502 -0.70243372578E+03 -0.83012969901E+03 -0.98326754404E+03  0.14660714885E+04  0.46999998093E+01 0.  1.
</event>
<event>
 5   0  0.3557628E-07  0.2799793E+04  0.7818609E-02  0.8303333E-01
       -2   -1    0    0    0  501  0.00000000000E+00  0.00000000000E+00  0.10342301251E+04  0.10342301251E+04  0.25500000920E-02 0.  1.
        2   -1    0    0  501    0  0.00000000000E+00  0.00000000000E+00 -0.18948491305E+04  0.18948491305E+04  0.25500000920E-02 0. -1.
    10030    2    1    2    0    0  0.00000000000E+00  0.00000000000E+00 -0.86061900541E+03  0.29290792557E+04  0.27997928876E+04 0.  0.
        5    1    3    3  502    0  0.57669883987E+03 -0.48188116093E+03  0.80528589143E+03  0.11014982806E+04  0.46999998093E+01 0.  1.
       -5    1    3    3    0  502 -0.57669883987E+03  0.48188116093E+03 -0.16659048968E+04  0.18275809751E+04  0.46999998093E+01 0. -1.
</event>
<event>
 5   0  0.3571498E-07  0.2798465E+04  0.7818609E-02  0.8303745E-01
       -2   -1    0    0    0  501  0.00000000000E+00  0.00000000000E+00  0.13219056591E+04  0.13219056591E+04  0.25500000920E-02 0.  1.
        2   -1    0    0  501    0  0.00000000000E+00  0.00000000000E+00 -0.14810822376E+04  0.14810822376E+04  0.25500000920E-02 0. -1.
    10030    2    1    2    0    0  0.00000000000E+00  0.00000000000E+00 -0.15917657843E+03  0.28029878967E+04  0.27984645729E+04 0.  0.
        2    1    3    3  502    0 -0.52569230775E+03 -0.11684745780E+04 -0.64278332685E+03  0.14334767690E+04  0.25500000920E-02 0. -1.
       -2    1    3    3    0  502  0.52569230775E+03  0.11684745780E+04  0.48360674842E+03  0.13695111277E+04  0.25500000920E-02 0.  1.
</event>
<event>
 5   0  0.3557628E-07  0.2799131E+04  0.7818609E-02  0.8303538E-01
       -2   -1    0    0    0  501  0.00000000000E+00  0.00000000000E+00  0.88816466137E+03  0.88816466137E+03  0.25500000920E-02 0. -1.
        2   -1    0    0  501    0  0.00000000000E+00  0.00000000000E+00 -0.22054288203E+04  0.22054288203E+04  0.25500000920E-02 0.  1.
    10030    2    1    2    0    0  0.00000000000E+00  0.00000000000E+00 -0.13172641589E+04  0.30935934817E+04  0.27991312519E+04 0.  0.
        5    1    3    3  502    0  0.13838963273E+04 -0.86593363333E+02 -0.86860334726E+03  0.16362033248E+04  0.46999998093E+01 0. -1.
       -5    1    3    3    0  502 -0.13838963273E+04  0.86593363333E+02 -0.44866081168E+03  0.14573901568E+04  0.46999998093E+01 0.  1.
</event>
<event>
 5   0  0.1346049E-07  0.2800089E+04  0.7818609E-02  0.8303241E-01
        1   -1    0    0  501    0  0.00000000000E+00  0.00000000000E+00  0.15996070732E+04  0.15996070733E+04  0.50400001928E-02 0.  1.
       -1   -1    0    0    0  501  0.00000000000E+00  0.00000000000E+00 -0.12253790393E+04  0.12253790394E+04  0.50400001928E-02 0. -1.
    10030    2    1    2    0    0  0.00000000000E+00  0.00000000000E+00  0.37422803391E+03  0.28249861126E+04  0.28000892691E+04 0.  0.
        1    1    3    3  502    0  0.71984504680E+03 -0.58031544745E+03 -0.87350975055E+03  0.12719914285E+04  0.50400001928E-02 0. -1.
       -1    1    3    3    0  502 -0.71984504680E+03  0.58031544745E+03  0.12477377845E+04  0.15529946841E+04  0.50400001928E-02 0.  1.
</event>
<event>
 5   0  0.3571498E-07  0.2802553E+04  0.7818609E-02  0.8302476E-01
       -2   -1    0    0    0  501  0.00000000000E+00  0.00000000000E+00  0.17346703225E+04  0.17346703225E+04  0.25500000920E-02 0.  1.
        2   -1    0    0  501    0  0.00000000000E+00  0.00000000000E+00 -0.11319587002E+04  0.11319587002E+04  0.25500000920E-02 0. -1.
    10030    2    1    2    0    0  0.00000000000E+00  0.00000000000E+00  0.60271162230E+03  0.28666290227E+04  0.28025525247E+04 0.  0.
        2    1    3    3  502    0 -0.11480370558E+04  0.76940209700E+03  0.53818020745E+03  0.14831070778E+04  0.25500000920E-02 0.  1.
       -2    1    3    3    0  502  0.11480370558E+04 -0.76940209700E+03  0.64531414854E+02  0.13835219449E+04  0.25500000920E-02 0. -1.
</event>
<event>
 5   0  0.1361741E-07  0.2800434E+04  0.7818609E-02  0.8303134E-01
        1   -1    0    0  501    0  0.00000000000E+00  0.00000000000E+00  0.15573264319E+04  0.15573264319E+04  0.50400001928E-02 0. -1.
       -1   -1    0    0    0  501  0.00000000000E+00  0.00000000000E+00 -0.12589575113E+04  0.12589575113E+04  0.50400001928E-02 0.  1.
    10030    2    1    2    0    0  0.00000000000E+00  0.00000000000E+00  0.29836892061E+03  0.28162839433E+04  0.28004341157E+04 0.  0.
        5    1    3    3  502    0  0.50168062075E+03 -0.11444496040E+04  0.78453335575E+03  0.14754534956E+04  0.46999998093E+01 0. -1.
       -5    1    3    3    0  502 -0.50168062075E+03  0.11444496040E+04 -0.48616443514E+03  0.13408304477E+04  0.46999998093E+01 0.  1.
</event>
<event>
 5   0  0.1374680E-07  0.2797044E+04  0.7818609E-02  0.8304187E-01
        1   -1    0    0  501    0  0.00000000000E+00  0.00000000000E+00  0.20762464281E+04  0.20762464281E+04  0.50400001928E-02 0.  1.
       -1   -1    0    0    0  501  0.00000000000E+00  0.00000000000E+00 -0.94201899837E+03  0.94201899839E+03  0.50400001928E-02 0. -1.
    10030    2    1    2    0    0  0.00000000000E+00  0.00000000000E+00  0.11342274297E+04  0.30182654265E+04  0.27970438542E+04 0.  0.
        3    1    3    3  502    0 -0.31653213689E+03  0.20469717291E+03  0.20203936111E+04  0.20552576189E+04  0.10100000352E+00 0.  1.
       -3    1    3    3    0  502  0.31653213689E+03 -0.20469717291E+03 -0.88616618134E+03  0.96300780757E+03  0.10100000352E+00 0. -1.
</event>
<event>
 5   0  0.3406920E-07  0.2799638E+04  0.7818609E-02  0.8303381E-01
        2   -1    0    0  501    0  0.00000000000E+00  0.00000000000E+00  0.11437607771E+04  0.11437607772E+04  0.25500000920E-02 0. -1.
       -2   -1    0    0    0  501  0.00000000000E+00  0.00000000000E+00 -0.17132020457E+04  0.17132020457E+04  0.25500000920E-02 0.  1.
    10030    2    1    2    0    0  0.00000000000E+00  0.00000000000E+00 -0.56944126859E+03  0.28569628229E+04  0.27996380504E+04 0.  0.
        4    1    3    3  502    0 -0.58779028603E+02 -0.74765880655E+03  0.92144678235E+03  0.11880717364E+04  0.12699999809E+01 0. -1.
       -4    1    3    3    0  502  0.58779028603E+02  0.74765880655E+03 -0.14908880509E+04  0.16688910865E+04  0.12699999809E+01 0.  1.
</event>
<event>
 5   0  0.1361741E-07  0.2801647E+04  0.7818609E-02  0.8302757E-01
       -1   -1    0    0    0  501  0.00000000000E+00  0.00000000000E+00  0.14610889758E+04  0.14610889758E+04  0.50400001928E-02 0.  1.
        1   -1    0    0  501    0  0.00000000000E+00  0.00000000000E+00 -0.13430436866E+04  0.13430436866E+04  0.50400001928E-02 0. -1.
    10030    2    1    2    0    0  0.00000000000E+00  0.00000000000E+00  0.11804528924E+03  0.28041326624E+04  0.28016468903E+04 0.  0.
        5    1    3    3  502    0  0.12268978806E+04  0.67602112653E+03  0.60146855918E+02  0.14021136570E+04  0.46999998093E+01 0. -1.
       -5    1    3    3    0  502 -0.12268978806E+04 -0.67602112653E+03  0.57898433320E+02  0.14020190054E+04  0.46999998093E+01 0.  1.
</event>
<event>
 5   0  0.1346049E-07  0.2799588E+04  0.7818609E-02  0.8303396E-01
       -1   -1    0    0    0  501  0.00000000000E+00  0.00000000000E+00  0.20626539227E+04  0.20626539227E+04  0.50400001928E-02 0.  1.
        1   -1    0    0  501    0  0.00000000000E+00  0.00000000000E+00 -0.94995281346E+03  0.94995281347E+03  0.50400001928E-02 0. -1.
    10030    2    1    2    0    0  0.00000000000E+00  0.00000000000E+00  0.11127011092E+04  0.30126067362E+04  0.27995884677E+04 0.  0.
        1    1    3    3  502    0 -0.76126169950E+03 -0.23615494572E+02  0.18201698672E+04  0.19730928545E+04  0.50400001928E-02 0.  1.
       -1    1    3    3    0  502  0.76126169950E+03  0.23615494572E+02 -0.70746875799E+03  0.10395138817E+04  0.50400001928E-02 0. -1.
</event>
<event>
 5   0  0.1361741E-07  0.2800068E+04  0.7818609E-02  0.8303247E-01
       -1   -1    0    0    0  501  0.00000000000E+00  0.00000000000E+00  0.13376069209E+04  0.13376069209E+04  0.50400001928E-02 0. -1.
        1   -1    0    0  501    0  0.00000000000E+00  0.00000000000E+00 -0.14653743633E+04  0.14653743633E+04  0.50400001928E-02 0.  1.
    10030    2    1    2    0    0  0.00000000000E+00  0.00000000000E+00 -0.12776744238E+03  0.28029812842E+04  0.28000677778E+04 0.  0.
        5    1    3    3  502    0 -0.33266696930E+03 -0.31826299880E+03 -0.13874221279E+04  0.14618210903E+04  0.46999998093E+01 0.  1.
       -5    1    3    3    0  502  0.33266696930E+03  0.31826299880E+03  0.12596546856E+04  0.13411601939E+04  0.46999998093E+01 0. -1.
</event>
<event>
 5   0  0.3557628E-07  0.2802473E+04  0.7818609E-02  0.8302501E-01
        2   -1    0    0  501    0  0.00000000000E+00  0.00000000000E+00  0.16182279122E+04  0.16182279122E+04  0.25500000920E-02 0.  1.
       -2   -1    0    0    0  501  0.00000000000E+00  0.00000000000E+00 -0.12133417771E+04  0.12133417771E+04  0.25500000920E-02 0. -1.
    10030    2    1    2    0    0  0.00000000000E+00  0.00000000000E+00  0.40488613506E+03  0.28315696893E+04  0.28024728585E+04 0.  0.
        5    1    3    3  502    0  0.14552133188E+03 -0.50138086500E+03 -0.11113970450E+04  0.12279188538E+04  0.46999998093E+01 0. -1.
       -5    1    3    3    0  502 -0.14552133188E+03  0.50138086500E+03  0.15162831801E+04  0.16036508355E+04  0.46999998093E+01 0.  1.
</event>
<event>
 5   0  0.1357902E-07  0.2798474E+04  0.7818609E-02  0.8303742E-01
       -1   -1    0    0    0  501  0.00000000000E+00  0.00000000000E+00  0.12256607297E+04  0.12256607297E+04  0.50400001928E-02 0.  1.
        1   -1    0    0  501    0  0.00000000000E+00  0.00000000000E+00 -0.15973952823E+04  0.15973952824E+04  0.50400001928E-02 0. -1.
    10030    2    1    2    0    0  0.00000000000E+00  0.00000000000E+00 -0.37173455266E+03  0.28230560121E+04  0.27984743468E+04 0.  0.
        4    1    3    3  502    0 -0.10893075380E+04  0.64238445414E+03 -0.78997167790E+03  0.14910753046E+04  0.12699999809E+01 0.  1.
       -4    1    3    3    0  502  0.10893075380E+04 -0.64238445414E+03  0.41823712525E+03  0.13319807075E+04  0.12699999809E+01 0. -1.
</event>
<event>
 5   0  0.1173363E-07  0.2800600E+04  0.7818609E-02  0.8303082E-01
       -3   -1    0    0    0  501  0.00000000000E+00  0.00000000000E+00  0.15822535492E+04  0.15822535524E+04  0.10100000352E+00 0.  1.
        3   -1    0    0  501    0  0.00000000000E+00  0.00000000000E+00 -0.12392700171E+04  0.12392700212E+04  0.10100000352E+00 0. -1.
    10030    2    1    2    0    0  0.00000000000E+00  0.00000000000E+00  0.34298353212E+03  0.28215235736E+04  0.28005995025E+04 0.  0.
        4    1    3    3  502    0  0.13181310796E+04 -0.46654410744E+03  0.24758642017E+03  0.14200118294E+04  0.12699999809E+01 0. -1.
       -4    1    3    3    0  502 -0.13181310796E+04  0.46654410744E+03  0.95397111946E+02  0.14015117442E+04  0.12699999809E+01 0.  1.
</event>
<event>
 5   0  0.3557628E-07  0.2799581E+04  0.7818609E-02  0.8303398E-01
       -2   -1    0    0    0  501  0.00000000000E+00  0.00000000000E+00  0.12767733493E+04  0.12767733493E+04  0.25500000920E-02 0.  1.
        2   -1    0    0  501    0  0.00000000000E+00  0.00000000000E+00 -0.15346602915E+04  0.15346602915E+04  0.25500000920E-02 0. -1.
    10030    2    1    2    0    0  0.00000000000E+00  0.00000000000E+00 -0.25788694221E+03  0.28114336408E+04  0.27995809403E+04 0.  0.
        5    1    3    3  502    0 -0.11730432243E+04 -0.76313927260E+03 -0.97516970599E+02  0.14028341331E+04  0.46999998093E+01 0.  1.
       -5    1    3    3    0  502  0.11730432243E+04  0.76313927260E+03 -0.16036997161E+03  0.14085995077E+04  0.46999998093E+01 0. -1.
</event>
<event>
 5   0  0.1361741E-07  0.2800151E+04  0.7818609E-02  0.8303222E-01
        1   -1    0    0  501    0  0.00000000000E+00  0.00000000000E+00  0.22901466322E+04  0.22901466322E+04  0.50400001928E-02 0. -1.
       -1   -1    0    0    0  501  0.00000000000E+00  0.00000000000E+00 -0.85593261486E+03  0.85593261487E+03  0.50400001928E-02 0.  1.
    10030    2    1    2    0    0  0.00000000000E+00  0.00000000000E+00  0.14342140173E+04  0.31460792470E+04  0.28001508497E+04 0.  0.
        5    1    3    3  502    0  0.13358515908E+04 -0.12402723764E+03  0.26726054952E+03  0.13679665638E+04  0.46999998093E+01 0. -1.
       -5    1    3    3    0  502 -0.13358515908E+04  0.12402723764E+03  0.11669534678E+04  0.17781126832E+04  0.46999998093E+01 0.  1.
</event>
<event>
 5   0  0.3406920E-07  0.2800005E+04  0.7818609E-02  0.8303267E-01
        2   -1    0    0  501    0  0.00000000000E+00  0.00000000000E+00  0.21780744332E+04  0.21780744332E+04  0.25500000920E-02 0. -1.
       -2   -1    0    0    0  501  0.00000000000E+00  0.00000000000E+00 -0.89988079735E+03  0.89988079735E+03  0.25500000920E-02 0.  1.
    10030    2    1    2    0    0  0.00000000000E+00  0.00000000000E+00  0.12781936358E+04  0.30779552305E+04  0.28000052554E+04 0.  0.
        4    1    3    3  502    0 -0.10261295163E+03  0.91120197731E+03  0.18020301959E+04  0.20219131784E+04  0.12699999809E+01 0. -1.
       -4    1    3    3    0  502  0.10261295163E+03 -0.91120197731E+03 -0.52383656004E+03  0.10560420521E+04  0.12699999809E+01 0.  1.
</event>
<event>
 5   0  0.1357902E-07  0.2801025E+04  0.7818609E-02  0.8302950E-01
        1   -1    0    0  501    0  0.00000000000E+00  0.00000000000E+00  0.13262742028E+04  0.13262742028E+04  0.50400001928E-02 0. -1.
       -1   -1    0    0    0  501  0.00000000000E+00  0.00000000000E+00 -0.14789063338E+04  0.14789063338E+04  0.50400001928E-02 0.  1.
    10030    2    1    2    0    0  0.00000000000E+00  0.00000000000E+00 -0.15263213099E+03  0.28051805366E+04  0.28010250402E+04 0.  0.
        4    1    3    3  502    0 -0.13834196153E+04  0.20133134144E+03  0.77701840098E+01  0.13980150678E+04  0.12699999809E+01 0.  1.
       -4    1    3    3    0  502  0.13834196153E+04 -0.20133134144E+03 -0.16040231500E+03  0.14071654688E+04  0.12699999809E+01 0. -1.
</event>
<event>
 5   0  0.1366235E-07  0.2800290E+04  0.7818609E-02  0.8303178E-01
       -1   -1    0    0    0  501  0.00000000000E+00  0.00000000000E+00  0.17743041673E+04  0.17743041674E+04  0.50400001928E-02 0.  1.
        1   -1    0    0  501    0  0.00000000000E+00  0.00000000000E+00 -0.11048870968E+04  0.11048870968E+04  0.50400001928E-02 0. -1.
    10030    2    1    2    0    0  0.00000000000E+00  0.00000000000E+00  0.66941707058E+03  0.28791912641E+04  0.28002898280E+04 0.  0.
        2    1    3    3  502    0  0.91869838083E+03 -0.98025917542E+03 -0.70725478964E+02  0.13453315054E+04  0.25500000920E-02 0.  1.
       -2    1    3    3    0  502 -0.91869838083E+03  0.98025917542E+03  0.74014254954E+03  0.15338597588E+04  0.25500000920E-02 0. -1.
</event>
<event>
 5   0  0.1374680E-07  0.2799406E+04  0.7818609E-02  0.8303453E-01
       -1   -1    0    0    0  501  0.00000000000E+00  0.00000000000E+00  0.18281384821E+04  0.18281384821E+04  0.50400001928E-02 0.  1.
        1   -1    0    0  501    0  0.00000000000E+00  0.00000000000E+00 -0.10716739857E+04  0.10716739858E+04  0.50400001928E-02 0. -1.
    10030    2    1    2    0    0  0.00000000000E+00  0.00000000000E+00  0.75646449633E+03  0.28998124678E+04  0.27994059753E+04 0.  0.
        3    1    3    3  502    0 -0.54436428114E+03 -0.71800748751E+03 -0.73130721985E+03  0.11604643393E+04  0.10100000352E+00 0. -1.
       -3    1    3    3    0  502  0.54436428114E+03  0.71800748751E+03  0.14877717162E+04  0.17393481286E+04  0.10100000352E+00 0.  1.
</event>
<event>
 5   0  0.3502141E-07  0.2798474E+04  0.7818609E-02  0.8303742E-01
        2   -1    0    0  501    0  0.00000000000E+00  0.00000000000E+00  0.11192485512E+04  0.11192485512E+04  0.25500000920E-02 0. -1.
       -2   -1    0    0    0  501  0.00000000000E+00  0.00000000000E+00 -0.17492663941E+04  0.17492663941E+04  0.25500000920E-02 0.  1.
    10030    2    1    2    0    0  0.00000000000E+00  0.00000000000E+00 -0.63001784292E+03  0.28685149453E+04  0.27984737821E+04 0.  0.
        3    1    3    3  502    0  0.92103687865E+03  0.21095552984E+03  0.74283458189E+03  0.12019211262E+04  0.10100000352E+00 0. -1.
       -3    1    3    3    0  502 -0.92103687865E+03 -0.21095552984E+03 -0.13728524248E+04  0.16665938191E+04  0.10100000352E+00 0.  1.
</event>
<event>
 5   0  0.1366235E-07  0.2800643E+04  0.7818609E-02  0.8303069E-01
        1   -1    0    0  501    0  0.00000000000E+00  0.00000000000E+00  0.25594028995E+04  0.25594028995E+04  0.50400001928E-02 0. -1.
       -1   -1    0    0    0  501  0.00000000000E+00  0.00000000000E+00 -0.76615533982E+03  0.76615533984E+03  0.50400001928E-02 0.  1.
    10030    2    1    2    0    0  0.00000000000E+00  0.00000000000E+00  0.17932475597E+04  0.33255582393E+04  0.28006429249E+04 0.  0.
        2    1    3    3  502    0 -0.78204772599E+03 -0.10206032538E+04  0.15552663263E+04  0.20179402848E+04  0.25500000920E-02 0. -1.
       -2    1    3    3    0  502  0.78204772599E+03  0.10206032538E+04  0.23798123339E+03  0.13076179545E+04  0.25500000920E-02 0.  1.
</event>
<event>
 5   0  0.1366235E-07  0.2799191E+04  0.7818609E-02  0.8303519E-01
       -1   -1    0    0    0  501  0.00000000000E+00  0.00000000000E+00  0.26653792422E+04  0.26653792423E+04  0.50400001928E-02 0.  1.
        1   -1    0    0  501    0  0.00000000000E+00  0.00000000000E+00 -0.73493036910E+03  0.73493036912E+03  0.50400001928E-02 0. -1.
    10030    2    1    2    0    0  0.00000000000E+00  0.00000000000E+00  0.19304488732E+04  0.34003096114E+04  0.27991914192E+04 0.  0.
        2    1    3    3  502    0 -0.10708423155E+04  0.22024860707E+03  0.20267600988E+04  0.23028176680E+04  0.25500000920E-02 0.  1.
       -2    1    3    3    0  502  0.10708423155E+04 -0.22024860707E+03 -0.96311225674E+02  0.10974919434E+04  0.25500000920E-02 0. -1.
</event>
<event>
 5   0  0.3557628E-07  0.2795856E+04  0.7818609E-02  0.8304556E-01
       -2   -1    0    0    0  501  0.00000000000E+00  0.00000000000E+00  0.20589413233E+04  0.20589413233E+04  0.25500000920E-02 0. -1.
        2   -1    0    0  501    0  0.00000000000E+00  0.00000000000E+00 -0.94912971880E+03  0.94912971880E+03  0.25500000920E-02 0.  1.
    10030    2    1    2    0    0  0.00000000000E+00  0.00000000000E+00  0.11098116045E+04  0.30080710421E+04  0.27958557897E+04 0.  0.
        5    1    3    3  502    0 -0.14247925431E+03  0.37782690574E+03  0.19948195833E+04  0.20352839528E+04  0.46999998093E+01 0. -1.
       -5    1    3    3    0  502  0.14247925431E+03 -0.37782690574E+03 -0.88500797879E+03  0.97278708931E+03  0.46999998093E+01 0.  1.
</event>
<event>
 5   0  0.3406920E-07  0.2800697E+04  0.7818609E-02  0.8303052E-01
        2   -1    0    0  501    0  0.00000000000E+00  0.00000000000E+00  0.13500063657E+04  0.13500063657E+04  0.25500000920E-02 0. -1.
       -2   -1    0    0    0  501  0.00000000000E+00  0.00000000000E+00 -0.14525674910E+04  0.14525674911E+04  0.25500000920E-02 0.  1.
    10030    2    1    2    0    0  0.00000000000E+00  0.00000000000E+00 -0.10256112537E+03  0.28025738567E+04  0.28006965987E+04 0.  0.
        4    1    3    3  502    0  0.25109192678E+03 -0.43245915319E+03  0.12576121070E+04  0.13533875644E+04  0.12699999809E+01 0. -1.
       -4    1    3    3    0  502 -0.25109192678E+03  0.43245915319E+03 -0.13601732324E+04  0.14491862923E+04  0.12699999809E+01 0.  1.
</event>
<event>
 5   0  0.1366235E-07  0.2799947E+04  0.7818609E-02  0.8303285E-01
       -1   -1    0    0    0  501  0.00000000000E+00  0.00000000000E+00  0.10282229324E+04  0.10282229324E+04  0.50400001928E-02 0.  1.
        1   -1    0    0  501    0  0.00000000000E+00  0.00000000000E+00 -0.19061297496E+04  0.19061297496E+04  0.50400001928E-02 0. -1.
    10030    2    1    2    0    0  0.00000000000E+00  0.00000000000E+00 -0.87790681721E+03  0.29343526821E+04  0.27999473715E+04 0.  0.
        2    1    3    3  502    0 -0.35281481572E+03  0.24195771758E+02  0.98064078960E+03  0.10424586744E+04  0.25500000920E-02 0.  1.
       -2    1    3    3    0  502  0.35281481572E+03 -0.24195771758E+02 -0.18585476068E+04  0.18918940077E+04  0.25500000920E-02 0. -1.
</event>
<event>
 5   0  0.1374680E-07  0.2799610E+04  0.7818609E-02  0.8303389E-01
        1   -1    0    0  501    0  0.00000000000E+00  0.00000000000E+00  0.13330036893E+04  0.13330036893E+04  0.50400001928E-02 0.  1.
       -1   -1    0    0    0  501  0.00000000000E+00  0.00000000000E+00 -0.14699542325E+04  0.14699542325E+04  0.50400001928E-02 0. -1.
    10030    2    1    2    0    0  0.00000000000E+00  0.00000000000E+00 -0.13695054316E+03  0.28029579218E+04  0.27996102693E+04 0.  0.
        3    1    3    3  502    0  0.48580276835E+03  0.68048436866E+03 -0.11924891252E+04  0.14563974834E+04  0.10100000352E+00 0. -1.
       -3    1    3    3    0  502 -0.48580276835E+03 -0.68048436866E+03  0.10555385821E+04  0.13465604384E+04  0.10100000352E+00 0.  1.
</event>
<event>
 5   0  0.1374680E-07  0.2799151E+04  0.7818609E-02  0.8303532E-01
        1   -1    0    0  501    0  0.00000000000E+00  0.00000000000E+00  0.10438119687E+04  0.10438119687E+04  0.50400001928E-02 0. -1.
       -1   -1    0    0    0  501  0.00000000000E+00  0.00000000000E+00 -0.18765942500E+04  0.18765942500E+04  0.50400001928E-02 0.  1.
    10030    2    1    2    0    0  0.00000000000E+00  0.00000000000E+00 -0.83278228136E+03  0.29204062187E+04  0.27991509702E+04 0.  0.
        3    1    3    3  502    0 -0.37578661396E+03 -0.54215549324E+03 -0.17042297930E+04  0.18274428461E+04  0.10100000352E+00 0.  1.
       -3    1    3    3    0  502  0.37578661396E+03  0.54215549324E+03  0.87144751166E+03  0.10929633726E+04  0.10100000352E+00 0. -1.
</event>
<event>
 5   0  0.3571498E-07  0.2800332E+04  0.7818609E-02  0.8303165E-01
        2   -1    0    0  501    0  0.00000000000E+00  0.00000000000E+00  0.14248142690E+04  0.14248142690E+04  0.25500000920E-02 0.  1.
       -2   -1    0    0    0  501  0.00000000000E+00  0.00000000000E+00 -0.13759445825E+04  0.13759445825E+04  0.25500000920E-02 0. -1.
    10030    2    1    2    0    0  0.00000000000E+00  0.00000000000E+00  0.48869686483E+02  0.28007588515E+04  0.28003324620E+04 0.  0.
        2    1    3    3  502    0  0.39024054614E+02  0.88549397718E+03 -0.10596319506E+04  0.13814638364E+04  0.25500000920E-02 0. -1.
       -2    1    3    3    0  502 -0.39024054614E+02 -0.88549397718E+03  0.11085016371E+04  0.14192950151E+04  0.25500000920E-02 0.  1.
</event>
<event>
 5   0  0.1346049E-07  0.2799656E+04  0.7818609E-02  0.8303375E-01
       -1   -1    0    0    0  501  0.00000000000E+00  0.00000000000E+00  0.11868241244E+04  0.11868241244E+04  0.50400001928E-02 0.  1.
        1   -1    0    0  501    0  0.00000000000E+00  0.00000000000E+00 -0.16510609897E+04  0.16510609897E+04  0.50400001928E-02 0. -1.
    10030    2    1    2    0    0  0.00000000000E+00  0.00000000000E+00 -0.46423686532E+03  0.28378851141E+04  0.27996564170E+04 0.  0.
        1    1    3    3  502    0 -0.11288401370E+04  0.26314190559E+03  0.56345225105E+03  0.12887987262E+04  0.50400001928E-02 0.  1.
       -1    1    3    3    0  502  0.11288401370E+04 -0.26314190559E+03 -0.10276891164E+04  0.15490863879E+04  0.50400001928E-02 0. -1.
</event>
<event>
 5   0  0.3557628E-07  0.2791773E+04  0.7818609E-02  0.8305827E-01
       -2   -1    0    0    0  501  0.00000000000E+00  0.00000000000E+00  0.10553220374E+04  0.10553220374E+04  0.25500000920E-02 0.  1.
        2   -1    0    0  501    0  0.00000000000E+00  0.00000000000E+00 -0.18463547772E+04  0.18463547772E+04  0.25500000920E-02 0. -1.
    10030    2    1    2    0    0  0.00000000000E+00  0.00000000000E+00 -0.79103273980E+03  0.29016768146E+04  0.27917728312E+04 0.  0.
        5    1    3    3  502    0  0.22562922198E+02  0.83415508674E+03 -0.15585644332E+04  0.17678995946E+04  0.46999998093E+01 0. -1.
       -5    1    3    3    0  502 -0.22562922198E+02 -0.83415508674E+03  0.76753169340E+03  0.11337772200E+04  0.46999998093E+01 0.  1.
</event>
<event>
 5   0  0.1374680E-07  0.2800799E+04  0.7818609E-02  0.8303020E-01
        1   -1    0    0  501    0  0.00000000000E+00  0.00000000000E+00  0.15531015870E+04  0.15531015870E+04  0.50400001928E-02 0. -1.
       -1   -1    0    0    0  501  0.00000000000E+00  0.00000000000E+00 -0.12627110281E+04  0.12627110281E+04  0.50400001928E-02 0.  1.
    10030    2    1    2    0    0  0.00000000000E+00  0.00000000000E+00  0.29039055883E+03  0.28158126151E+04  0.28007988158E+04 0.  0.
        3    1    3    3  502    0  0.12119727133E+03  0.10218082887E+04 -0.80981126474E+03  0.13094179058E+04  0.10100000352E+00 0.  1.
       -3    1    3    3    0  502 -0.12119727133E+03 -0.10218082887E+04  0.11002018236E+04  0.15063947093E+04  0.10100000352E+00 0. -1.
</event>
<event>
 5   0  0.3571498E-07  0.2800335E+04  0.7818609E-02  0.8303164E-01
       -2   -1    0    0    0  501  0.00000000000E+00  0.00000000000E+00  0.13856903453E+04  0.13856903453E+04  0.25500000920E-02 0.  1.
        2   -1    0    0  501    0  0.00000000000E+00  0.00000000000E+00 -0.14147961493E+04  0.14147961493E+04  0.25500000920E-02 0. -1.
    10030    2    1    2    0    0  0.00000000000E+00  0.00000000000E+00 -0.29105804025E+02  0.28004864947E+04  0.28003352405E+04 0.  0.
        2    1    3    3  502    0 -0.58233168117E+03 -0.10911389181E+04  0.64181709680E+03  0.13934215124E+04  0.25500000920E-02 0.  1.
       -2    1    3    3    0  502  0.58233168117E+03  0.10911389181E+04 -0.67092290082E+03  0.14070649823E+04  0.25500000920E-02 0. -1.
</event>
<event>
 5   0  0.3557628E-07  0.2800501E+04  0.7818609E-02  0.8303113E-01
        2   -1    0    0  501    0  0.00000000000E+00  0.00000000000E+00  0.17179423080E+04  0.17179423080E+04  0.25500000920E-02 0.  1.
       -2   -1    0    0    0  501  0.00000000000E+00  0.00000000000E+00 -0.11413078138E+04  0.11413078138E+04  0.25500000920E-02 0. -1.
    10030    2    1    2    0    0  0.00000000000E+00  0.00000000000E+00  0.57663449415E+03  0.28592501218E+04  0.28005006551E+04 0.  0.
        5    1    3    3  502    0 -0.10328701255E+04  0.86743945603E+03  0.67224711458E+03  0.15070534759E+04  0.46999998093E+01 0.  1.
       -5    1    3    3    0  502  0.10328701255E+04 -0.86743945603E+03 -0.95612620431E+02  0.13521966459E+04  0.46999998093E+01 0. -1.
</event>
<event>
 5   0  0.1346049E-07  0.2799822E+04  0.7818609E-02  0.8303324E-01
        1   -1    0    0  501    0  0.00000000000E+00  0.00000000000E+00  0.13452757292E+04  0.13452757292E+04  0.50400001928E-02 0. -1.
       -1   -1    0    0    0  501  0.00000000000E+00  0.00000000000E+00 -0.14567648955E+04  0.14567648955E+04  0.50400001928E-02 0.  1.
    10030    2    1    2    0    0  0.00000000000E+00  0.00000000000E+00 -0.11148916630E+03  0.28020406246E+04  0.27998217493E+04 0.  0.
        1    1    3    3  502    0 -0.44590524028E+03 -0.12755988960E+04  0.31028620202E+03  0.13864564738E+04  0.50400001928E-02 0. -1.
       -1    1    3    3    0  502  0.44590524028E+03  0.12755988960E+04 -0.42177536832E+03  0.14155841508E+04  0.50400001928E-02 0.  1.
</event>
<event>
 5   0  0.1357902E-07  0.2801841E+04  0.7818609E-02  0.8302697E-01
        1   -1    0    0  501    0  0.00000000000E+00  0.00000000000E+00  0.25330900543E+04  0.25330900543E+04  0.50400001928E-02 0. -1.
       -1   -1    0    0    0  501  0.00000000000E+00  0.00000000000E+00 -0.77477611523E+03  0.77477611524E+03  0.50400001928E-02 0.  1.
    10030    2    1    2    0    0  0.00000000000E+00  0.00000000000E+00  0.17583139390E+04  0.33078661695E+04  0.28018405892E+04 0.  0.
        4    1    3    3  502    0  0.75961238641E+03  0.48544989685E+03 -0.38684739219E+03  0.98098170099E+03  0.12699999809E+01 0.  1.
       -4    1    3    3    0  502 -0.75961238641E+03 -0.48544989685E+03  0.21451613312E+04  0.23268844685E+04  0.12699999809E+01 0. -1.
</event>
<event>
 5   0  0.3502141E-07  0.2802888E+04  0.7818609E-02  0.8302372E-01
        2   -1    0    0  501    0  0.00000000000E+00  0.00000000000E+00  0.16162136642E+04  0.16162136642E+04  0.25500000920E-02 0.  1.
       -2   -1    0    0    0  501  0.00000000000E+00  0.00000000000E+00 -0.12152136035E+04  0.12152136035E+04  0.25500000920E-02 0. -1.
    10030    2    1    2    0    0  0.00000000000E+00  0.00000000000E+00  0.40100006064E+03  0.28314272677E+04  0.28028876759E+04 0.  0.
        3    1    3    3  502    0  0.28613904158E+03  0.12106222851E+04  0.85248868333E+03  0.15080513366E+04  0.10100000352E+00 0.  1.
       -3    1    3    3    0  502 -0.28613904158E+03 -0.12106222851E+04 -0.45148862270E+03  0.13233759311E+04  0.10100000352E+00 0. -1.
</event>
<event>
 5   0  0.1361741E-07  0.2798557E+04  0.7818609E-02  0.8303717E-01
        1   -1    0    0  501    0  0.00000000000E+00  0.00000000000E+00  0.13350438472E+04  0.13350438472E+04  0.50400001928E-02 0. -1.
       -1   -1    0    0    0  501  0.00000000000E+00  0.00000000000E+00 -0.14666033662E+04  0.14666033662E+04  0.50400001928E-02 0.  1.
    10030    2    1    2    0    0  0.00000000000E+00  0.00000000000E+00 -0.13155951908E+03  0.28016472134E+04  0.27985566282E+04 0.  0.
        5    1    3    3  502    0  0.11674332836E+04  0.68509148833E+03  0.28916346607E+03  0.13841562120E+04  0.46999998093E+01 0. -1.
       -5    1    3    3    0  502 -0.11674332836E+04 -0.68509148833E+03 -0.42072298514E+03  0.14174910015E+04  0.46999998093E+01 0.  1.
</event>
<event>
 5   0  0.3522569E-07  0.2801208E+04  0.7818609E-02  0.8302894E-01
       -2   -1    0    0    0  501  0.00000000000E+00  0.00000000000E+00  0.74602373620E+03  0.74602373620E+03  0.25500000920E-02 0.  1.
        2   -1    0    0  501    0  0.00000000000E+00  0.00000000000E+00 -0.26295292097E+04  0.26295292097E+04  0.25500000920E-02 0. -1.
    10030    2    1    2    0    0  0.00000000000E+00  0.00000000000E+00 -0.18835054735E+04  0.33755529459E+04  0.28012077434E+04 0.  0.
        1    1    3    3  502    0  0.31001845017E+03  0.12780504786E+04 -0.15223829195E+04  0.20117589863E+04  0.50400001928E-02 0. -1.
       -1    1    3    3    0  502 -0.31001845017E+03 -0.12780504786E+04 -0.36112255394E+03  0.13637939596E+04  0.50400001928E-02 0.  1.
</event>
<event>
 5   0  0.1346049E-07  0.2798759E+04  0.7818609E-02  0.8303654E-01
        1   -1    0    0  501    0  0.00000000000E+00  0.00000000000E+00  0.82870158529E+03  0.82870158530E+03  0.50400001928E-02 0.  1.
       -1   -1    0    0    0  501  0.00000000000E+00  0.00000000000E+00 -0.23630502430E+04  0.23630502430E+04  0.50400001928E-02 0. -1.
    10030    2    1    2    0    0  0.00000000000E+00  0.00000000000E+00 -0.15343486577E+04  0.31917518283E+04  0.27987593555E+04 0.  0.
        1    1    3    3  502    0  0.75036371518E+03 -0.21107245874E+03  0.55819700345E+03  0.95873937156E+03  0.50400001928E-02 0.  1.
       -1    1    3    3    0  502 -0.75036371518E+03  0.21107245874E+03 -0.20925456612E+04  0.22330124568E+04  0.50400001928E-02 0. -1.
</event>
<event>
 5   0  0.3571498E-07  0.2801188E+04  0.7818609E-02  0.8302900E-01
       -2   -1    0    0    0  501  0.00000000000E+00  0.00000000000E+00  0.15985000759E+04  0.15985000759E+04  0.25500000920E-02 0.  1.
        2   -1    0    0  501    0  0.00000000000E+00  0.00000000000E+00 -0.12271904882E+04  0.12271904882E+04  0.25500000920E-02 0. -1.
    10030    2    1    2    0    0  0.00000000000E+00  0.00000000000E+00  0.37130958770E+03  0.28256905642E+04  0.28011883826E+04 0.  0.
        2    1    3    3  502    0  0.39315952322E+03 -0.67202082153E+03  0.13600884063E+04  0.15671716142E+04  0.25500000920E-02 0.  1.
       -2    1    3    3    0  502 -0.39315952322E+03  0.67202082153E+03 -0.98877881864E+03  0.12585189500E+04  0.25500000920E-02 0. -1.
</event>
<event>
 5   0  0.1374680E-07  0.2797344E+04  0.7818609E-02  0.8304093E-01
       -1   -1    0    0    0  501  0.00000000000E+00  0.00000000000E+00  0.21331828446E+04  0.21331828446E+04  0.50400001928E-02 0.  1.
        1   -1    0    0  501    0  0.00000000000E+00  0.00000000000E+00 -0.91707246107E+03  0.91707246108E+03  0.50400001928E-02 0. -1.
    10030    2    1    2    0    0  0.00000000000E+00  0.00000000000E+00  0.12161103835E+04  0.30502553057E+04  0.27973439125E+04 0.  0.
        3    1    3    3  502    0  0.14203685086E+03  0.13814317286E+04  0.78971634386E+03  0.15975543815E+04  0.10100000352E+00 0.  1.
       -3    1    3    3    0  502 -0.14203685086E+03 -0.13814317286E+04  0.42639403966E+03  0.14527009242E+04  0.10100000352E+00 0. -1.
</event>
<event>
 5   0  0.3406920E-07  0.2802467E+04  0.7818609E-02  0.8302503E-01
       -2   -1    0    0    0  501  0.00000000000E+00  0.00000000000E+00  0.84496590569E+03  0.84496590570E+03  0.25500000920E-02 0.  1.
        2   -1    0    0  501    0  0.00000000000E+00  0.00000000000E+00 -0.23237101393E+04  0.23237101393E+04  0.25500000920E-02 0. -1.
    10030    2    1    2    0    0  0.00000000000E+00  0.00000000000E+00 -0.14787442336E+04  0.31686760450E+04  0.28024673717E+04 0.  0.
        4    1    3    3  502    0 -0.60004407475E+01 -0.42524071013E+03  0.77023117280E+03  0.87984279237E+03  0.12699999809E+01 0.  1.
       -4    1    3    3    0  502  0.60004407475E+01  0.42524071013E+03 -0.22489754064E+04  0.22888332526E+04  0.12699999809E+01 0. -1.
</event>
<event>
 5   0  0.3522569E-07  0.2799057E+04  0.7818609E-02  0.8303561E-01
       -2   -1    0    0    0  501  0.00000000000E+00  0.00000000000E+00  0.79244484932E+03  0.79244484933E+03  0.25500000920E-02 0.  1.
        2   -1    0    0  501    0  0.00000000000E+00  0.00000000000E+00 -0.24716930975E+04  0.24716930975E+04  0.25500000920E-02 0. -1.
    10030    2    1    2    0    0  0.00000000000E+00  0.00000000000E+00 -0.16792482482E+04  0.32641379469E+04  0.27990573158E+04 0.  0.
        1    1    3    3  502    0  0.62726001094E+03 -0.61972315811E+03  0.42777280435E+03  0.98005177730E+03  0.50400001928E-02 0.  1.
       -1    1    3    3    0  502 -0.62726001094E+03  0.61972315811E+03 -0.21070210526E+04  0.22840861696E+04  0.50400001928E-02 0. -1.
</event>
<event>
 5   0  0.1374680E-07  0.2798225E+04  0.7818609E-02  0.8303820E-01
        1   -1    0    0  501    0  0.00000000000E+00  0.00000000000E+00  0.25690575349E+04  0.25690575349E+04  0.50400001928E-02 0.  1.
       -1   -1    0    0    0  501  0.00000000000E+00  0.00000000000E+00 -0.76195887626E+03  0.76195887627E+03  0.50400001928E-02 0. -1.
    10030    2    1    2    0    0  0.00000000000E+00  0.00000000000E+00  0.18070986586E+04  0.33310164111E+04  0.27982252892E+04 0.  0.
        3    1    3    3  502    0 -0.71710849510E+03  0.92179011933E+03  0.18206810959E+04  0.21630583166E+04  0.10100000352E+00 0.  1.
       -3    1    3    3    0  502  0.71710849510E+03 -0.92179011933E+03 -0.13582437276E+02  0.11679580946E+04  0.10100000352E+00 0. -1.
</event>
<event>
 5   0  0.1361741E-07  0.2799701E+04  0.7818609E-02  0.8303361E-01
       -1   -1    0    0    0  501  0.00000000000E+00  0.00000000000E+00  0.12362434737E+04  0.12362434737E+04  0.50400001928E-02 0.  1.
        1   -1    0    0  501    0  0.00000000000E+00  0.00000000000E+00 -0.15851092921E+04  0.15851092921E+04  0.50400001928E-02 0. -1.
    10030    2    1    2    0    0  0.00000000000E+00  0.00000000000E+00 -0.34886581844E+03  0.28213527658E+04  0.27997007108E+04 0.  0.
        5    1    3    3  502    0 -0.13402709339E+04  0.30176800006E+03  0.96287253426E+02  0.13772013024E+04  0.46999998093E+01 0.  1.
       -5    1    3    3    0  502  0.13402709339E+04 -0.30176800006E+03 -0.44515307186E+03  0.14441514635E+04  0.46999998093E+01 0. -1.
</event>
<event>
 5   0  0.1374680E-07  0.2798662E+04  0.7818609E-02  0.8303684E-01
       -1   -1    0    0    0  501  0.00000000000E+00  0.00000000000E+00  0.12007393955E+04  0.12007393955E+04  0.50400001928E-02 0. -1.
        1   -1    0    0  501    0  0.00000000000E+00  0.00000000000E+00 -0.16307674096E+04  0.16307674096E+04  0.50400001928E-02 0.  1.
    10030    2    1    2    0    0  0.00000000000E+00  0.00000000000E+00 -0.43002801410E+03  0.28315068050E+04  0.27986615898E+04 0.  0.
        3    1    3    3  502    0  0.19149380877E+03  0.83463072880E+03 -0.13347312851E+04  0.15858076636E+04  0.10100000352E+00 0.  1.
       -3    1    3    3    0  502 -0.19149380877E+03 -0.83463072880E+03  0.90470327100E+03  0.12456991415E+04  0.10100000352E+00 0. -1.
</event>
<event>
 5   0  0.1173363E-07  0.2799203E+04  0.7818609E-02  0.8303516E-01
        3   -1    0    0  501    0  0.00000000000E+00  0.00000000000E+00  0.13812625484E+04  0.13812625521E+04  0.10100000352E+00 0. -1.
       -3   -1    0    0    0  501  0.00000000000E+00  0.00000000000E+00 -0.14181834379E+04  0.14181834415E+04  0.10100000352E+00 0.  1.
    10030    2    1    2    0    0  0.00000000000E+00  0.00000000000E+00 -0.36920889503E+02  0.27994459936E+04  0.27992025148E+04 0.  0.
        2    1    3    3  502    0  0.18084906639E+03 -0.68701313755E+03  0.11875425528E+04  0.13838174557E+04  0.25500000920E-02 0. -1.
       -2    1    3    3    0  502 -0.18084906639E+03  0.68701313755E+03 -0.12244634423E+04  0.14156285379E+04  0.25500000920E-02 0.  1.
</event>
<event>
 5   0  0.3571498E-07  0.2804900E+04  0.7818609E-02  0.8301749E-01
       -2   -1    0    0    0  501  0.00000000000E+00  0.00000000000E+00  0.21923366849E+04  0.21923366849E+04  0.25500000920E-02 0.  1.
        2   -1    0    0  501    0  0.00000000000E+00  0.00000000000E+00 -0.89715519801E+03  0.89715519801E+03  0.25500000920E-02 0. -1.
    10030    2    1    2    0    0  0.00000000000E+00  0.00000000000E+00  0.12951814869E+04  0.30894918829E+04  0.28049001784E+04 0.  0.
        2    1    3    3  502    0 -0.94379454169E+03  0.90852181042E+03  0.96082235528E+02  0.13135417058E+04  0.25500000920E-02 0. -1.
       -2    1    3    3    0  502  0.94379454169E+03 -0.90852181042E+03  0.11990992514E+04  0.17759501771E+04  0.25500000920E-02 0.  1.
</event>
<event>
 5   0  0.1374680E-07  0.2799841E+04  0.7818609E-02  0.8303318E-01
       -1   -1    0    0    0  501  0.00000000000E+00  0.00000000000E+00  0.15851864458E+04  0.15851864458E+04  0.50400001928E-02 0. -1.
        1   -1    0    0  501    0  0.00000000000E+00  0.00000000000E+00 -0.12363075283E+04  0.12363075283E+04  0.50400001928E-02 0.  1.
    10030    2    1    2    0    0  0.00000000000E+00  0.00000000000E+00  0.34887891751E+03  0.28214939741E+04  0.27998413789E+04 0.  0.
        3    1    3    3  502    0  0.62524448683E+03 -0.84567505588E+03 -0.75665447367E+03  0.12956168304E+04  0.10100000352E+00 0.  1.
       -3    1    3    3    0  502 -0.62524448683E+03  0.84567505588E+03  0.11055333912E+04  0.15258771437E+04  0.10100000352E+00 0. -1.
</event>
<event>
 5   0  0.3522569E-07  0.2800005E+04  0.7818609E-02  0.8303267E-01
       -2   -1    0    0    0  501  0.00000000000E+00  0.00000000000E+00  0.10831238631E+04  0.10831238631E+04  0.25500000920E-02 0.  1.
        2   -1    0    0  501    0  0.00000000000E+00  0.00000000000E+00 -0.18095871608E+04  0.18095871608E+04  0.25500000920E-02 0. -1.
    10030    2    1    2    0    0  0.00000000000E+00  0.00000000000E+00 -0.72646329762E+03  0.28927110239E+04  0.28000050259E+04 0.  0.
        1    1    3    3  502    0  0.27137128094E+03  0.31462586451E+03  0.10179605198E+04  0.10994887115E+04  0.50400001928E-02 0.  1.
       -1    1    3    3    0  502 -0.27137128094E+03 -0.31462586451E+03 -0.17444238175E+04  0.17932223124E+04  0.50400001928E-02 0. -1.
</event>
<event>
 5   0  0.3406920E-07  0.2799639E+04  0.7818609E-02  0.8303380E-01
        2   -1    0    0  501    0  0.00000000000E+00  0.00000000000E+00  0.18069999518E+04  0.18069999518E+04  0.25500000920E-02 0. -1.
       -2   -1    0    0    0  501  0.00000000000E+00  0.00000000000E+00 -0.10843911946E+04  0.10843911946E+04  0.25500000920E-02 0.  1.
    10030    2    1    2    0    0  0.00000000000E+00  0.00000000000E+00  0.72260875718E+03  0.28913911463E+04  0.27996391455E+04 0.  0.
        4    1    3    3  502    0  0.27478856362E+03 -0.12259745570E+04 -0.27615228502E+03  0.12863841054E+04  0.12699999809E+01 0. -1.
       -4    1    3    3    0  502 -0.27478856362E+03  0.12259745570E+04  0.99876104220E+03  0.16050070410E+04  0.12699999809E+01 0.  1.
</event>
<event>
 5   0  0.1361741E-07  0.2800519E+04  0.7818609E-02  0.8303107E-01
        1   -1    0    0  501    0  0.00000000000E+00  0.00000000000E+00  0.13476629102E+04  0.13476629103E+04  0.50400001928E-02 0. -1.
       -1   -1    0    0    0  501  0.00000000000E+00  0.00000000000E+00 -0.14549084610E+04  0.14549084611E+04  0.50400001928E-02 0.  1.
    10030    2    1    2    0    0  0.00000000000E+00  0.00000000000E+00 -0.10724555080E+03  0.28025713713E+04  0.28005186454E+04 0.  0.
        5    1    3    3  502    0 -0.65514049500E+03  0.25404159253E+03  0.11584453635E+04  0.13549036679E+04  0.46999998093E+01 0. -1.
       -5    1    3    3    0  502  0.65514049500E+03 -0.25404159253E+03 -0.12656909143E+04  0.14476677034E+04  0.46999998093E+01 0.  1.
</event>
<event>
 5   0  0.3502141E-07  0.2800695E+04  0.7818609E-02  0.8303053E-01
        2   -1    0    0  501    0  0.00000000000E+00  0.00000000000E+00  0.17031681575E+04  0.17031681575E+04  0.25500000920E-02 0. -1.
       -2   -1    0    0    0  501  0.00000000000E+00  0.00000000000E+00 -0.11513675361E+04  0.11513675362E+04  0.25500000920E-02 0.  1.
    10030    2    1    2    0    0  0.00000000000E+00  0.00000000000E+00  0.55180062135E+03  0.28545356937E+04  0.28006945747E+04 0.  0.
        3    1    3    3  502    0  0.61408244307E+03  0.12553054389E+04  0.36753714303E+03  0.14449818523E+04  0.10100000352E+00 0. -1.
       -3    1    3    3    0  502 -0.61408244307E+03 -0.12553054389E+04  0.18426347832E+03  0.14095538413E+04  0.10100000352E+00 0.  1.
</event>
<event>
 5   0  0.3502141E-07  0.2800250E+04  0.7818609E-02  0.8303191E-01
        2   -1    0    0  501    0  0.00000000000E+00  0.00000000000E+00  0.15620485308E+04  0.15620485308E+04  0.25500000920E-02 0.  1.
       -2   -1    0    0    0  501  0.00000000000E+00  0.00000000000E+00 -0.12549868709E+04  0.12549868709E+04  0.25500000920E-02 0. -1.
    10030    2    1    2    0    0  0.00000000000E+00  0.00000000000E+00  0.30706165989E+03  0.28170354017E+04  0.28002502730E+04 0.  0.
        3    1    3    3  502    0 -0.21426495283E+03  0.46479508518E+03  0.14645718233E+04  0.15514234036E+04  0.10100000352E+00 0.  1.
       -3    1    3    3    0  502  0.21426495283E+03 -0.46479508518E+03 -0.11575101634E+04  0.12656119982E+04  0.10100000352E+00 0. -1.
</event>
<event>
 5   0  0.1366235E-07  0.2801730E+04  0.7818609E-02  0.8302731E-01
       -1   -1    0    0    0  501  0.00000000000E+00  0.00000000000E+00  0.90038655263E+03  0.90038655264E+03  0.50400001928E-02 0. -1.
        1   -1    0    0  501    0  0.00000000000E+00  0.00000000000E+00 -0.21795334428E+04  0.21795334428E+04  0.50400001928E-02 0.  1.
    10030    2    1    2    0    0  0.00000000000E+00  0.00000000000E+00 -0.12791468902E+04  0.30799199955E+04  0.28017298963E+04 0.  0.
        2    1    3    3  502    0  0.32415545018E+03  0.87100798789E+03 -0.17918346528E+04  0.20185150715E+04  0.25500000920E-02 0.  1.
       -2    1    3    3    0  502 -0.32415545018E+03 -0.87100798789E+03  0.51268776256E+03  0.10614049240E+04  0.25500000920E-02 0. -1.
</event>
<event>
 5   0  0.1361741E-07  0.2799500E+04  0.7818609E-02  0.8303424E-01
       -1   -1    0    0    0  501  0.00000000000E+00  0.00000000000E+00  0.25123179134E+04  0.25123179134E+04  0.50400001928E-02 0.  1.
        1   -1    0    0  501    0  0.00000000000E+00  0.00000000000E+00 -0.77987753650E+03  0.77987753651E+03  0.50400001928E-02 0. -1.
    10030    2    1    2    0    0  0.00000000000E+00  0.00000000000E+00  0.17324403769E+04  0.32921954499E+04  0.27995001734E+04 0.  0.
        5    1    3    3  502    0  0.13768705603E+03 -0.11400924024E+04  0.18073900300E+04  0.21413662045E+04  0.46999998093E+01 0.  1.
       -5    1    3    3    0  502 -0.13768705603E+03  0.11400924024E+04 -0.74949653109E+02  0.11508292454E+04  0.46999998093E+01 0. -1.
</event>
<event>
 5   0  0.1346049E-07  0.2799342E+04  0.7818609E-02  0.8303473E-01
       -1   -1    0    0    0  501  0.00000000000E+00  0.00000000000E+00  0.11364151001E+04  0.11364151001E+04  0.50400001928E-02 0. -1.
        1   -1    0    0  501    0  0.00000000000E+00  0.00000000000E+00 -0.17239116895E+04  0.17239116895E+04  0.50400001928E-02 0.  1.
    10030    2    1    2    0    0  0.00000000000E+00  0.00000000000E+00 -0.58749658934E+03  0.28603267896E+04  0.27993422622E+04 0.  0.
        1    1    3    3  502    0  0.98183996652E+03 -0.40071393362E+03  0.63966133404E+03  0.12384457997E+04  0.50400001928E-02 0. -1.
       -1    1    3    3    0  502 -0.98183996652E+03  0.40071393362E+03 -0.12271579234E+04  0.16218809899E+04  0.50400001928E-02 0.  1.
</event>
<event>
 5   0  0.3557628E-07  0.2800869E+04  0.7818609E-02  0.8302999E-01
       -2   -1    0    0    0  501  0.00000000000E+00  0.00000000000E+00  0.14108699918E+04  0.14108699918E+04  0.25500000920E-02 0.  1.
        2   -1    0    0  501    0  0.00000000000E+00  0.00000000000E+00 -0.13900761013E+04  0.13900761013E+04  0.25500000920E-02 0. -1.
    10030    2    1    2    0    0  0.00000000000E+00  0.00000000000E+00  0.20793890492E+02  0.28009460930E+04  0.28008689063E+04 0.  0.
        5    1    3    3  502    0  0.10065858738E+04 -0.97003853902E+03  0.94093212631E+02  0.14010943976E+04  0.46999998093E+01 0.  1.
       -5    1    3    3    0  502 -0.10065858738E+04  0.97003853902E+03 -0.73299322139E+02  0.13998516954E+04  0.46999998093E+01 0. -1.
</event>
<event>
 5   0  0.3502141E-07  0.2801292E+04  0.7818609E-02  0.8302867E-01
        2   -1    0    0  501    0  0.00000000000E+00  0.00000000000E+00  0.14595587793E+04  0.14595587793E+04  0.25500000920E-02 0.  1.
       -2   -1    0    0    0  501  0.00000000000E+00  0.00000000000E+00 -0.13441113005E+04  0.13441113005E+04  0.25500000920E-02 0. -1.
    10030    2    1    2    0    0  0.00000000000E+00  0.00000000000E+00  0.11544747880E+03  0.28036700797E+04  0.28012921654E+04 0.  0.
        3    1    3    3  502    0  0.18337546664E+03 -0.13879129483E+04  0.14321909217E+02  0.14000478710E+04  0.10100000352E+00 0. -1.
       -3    1    3    3    0  502 -0.18337546664E+03  0.13879129483E+04  0.10112556958E+03  0.14036222087E+04  0.10100000352E+00 0.  1.
</event>
<event>
 5   0  0.3406920E-07  0.2800194E+04  0.7818609E-02  0.8303208E-01
        2   -1    0    0  501    0  0.00000000000E+00  0.00000000000E+00  0.86671039378E+03  0.86671039379E+03  0.25500000920E-02 0.  1.
       -2   -1    0    0    0  501  0.00000000000E+00  0.00000000000E+00 -0.22617380469E+04  0.22617380469E+04  0.25500000920E-02 0. -1.
    10030    2    1    2    0    0  0.00000000000E+00  0.00000000000E+00 -0.13950276531E+04  0.31284484407E+04  0.28001941885E+04 0.  0.
        4    1    3    3  502    0 -0.12031222108E+03 -0.74331528606E+02  0.85870957725E+03  0.87027809213E+03  0.12699999809E+01 0.  1.
       -4    1    3    3    0  502  0.12031222108E+03  0.74331528606E+02 -0.22537372304E+04  0.22581703486E+04  0.12699999809E+01 0. -1.
</event>
<event>
 5   0  0.3502141E-07  0.2799336E+04  0.7818609E-02  0.8303475E-01
        2   -1    0    0  501    0  0.00000000000E+00  0.00000000000E+00  0.18028413206E+04  0.18028413206E+04  0.25500000920E-02 0.  1.
       -2   -1    0    0    0  501  0.00000000000E+00  0.00000000000E+00 -0.10866571236E+04  0.10866571236E+04  0.25500000920E-02 0. -1.
    10030    2    1    2    0    0  0.00000000000E+00  0.00000000000E+00  0.71618419708E+03  0.28894984442E+04  0.27993358953E+04 0.  0.
        3    1    3    3  502    0 -0.13693370520E+04 -0.28746395613E+03  0.39603001811E+03  0.14541524244E+04  0.10100000352E+00 0. -1.
       -3    1    3    3    0  502  0.13693370520E+04  0.28746395613E+03  0.32015417897E+03  0.14353460198E+04  0.10100000352E+00 0.  1.
</event>
<event>
 5   0  0.1361741E-07  0.2799761E+04  0.7818609E-02  0.8303343E-01
        1   -1    0    0  501    0  0.00000000000E+00  0.00000000000E+00  0.32037062118E+04  0.32037062118E+04  0.50400001928E-02 0.  1.
       -1   -1    0    0    0  501  0.00000000000E+00  0.00000000000E+00 -0.61168699681E+03  0.61168699683E+03  0.50400001928E-02 0. -1.
    10030    2    1    2    0    0  0.00000000000E+00  0.00000000000E+00  0.25920192150E+04  0.38153932086E+04  0.27997610122E+04 0.  0.
        5    1    3    3  502    0 -0.14085730362E+03 -0.10183727863E+04  0.12333239726E+01  0.10280795315E+04  0.46999998093E+01 0. -1.
       -5    1    3    3    0  502  0.14085730362E+03  0.10183727863E+04  0.25907858910E+04  0.27873136772E+04  0.46999998093E+01 0.  1.
</event>
<event>
 5   0  0.1357902E-07  0.2799576E+04  0.7818609E-02  0.8303400E-01
        1   -1    0    0  501    0  0.00000000000E+00  0.00000000000E+00  0.19264503950E+04  0.19264503950E+04  0.50400001928E-02 0.  1.
       -1   -1    0    0    0  501  0.00000000000E+00  0.00000000000E+00 -0.10171069458E+04  0.10171069458E+04  0.50400001928E-02 0. -1.
    10030    2    1    2    0    0  0.00000000000E+00  0.00000000000E+00  0.90934344925E+03  0.29435573408E+04  0.27995757375E+04 0.  0.
        4    1    3    3  502    0 -0.45469143936E+03  0.90171759873E+03 -0.56449167159E+03  0.11569318878E+04  0.12699999809E+01 0. -1.
       -4    1    3    3    0  502  0.45469143936E+03 -0.90171759873E+03  0.14738351208E+04  0.17866254530E+04  0.12699999809E+01 0.  1.
</event>
<event>
 5   0  0.1361741E-07  0.2797179E+04  0.7818609E-02  0.8304145E-01
       -1   -1    0    0    0  501  0.00000000000E+00  0.00000000000E+00  0.12041139850E+04  0.12041139850E+04  0.50400001928E-02 0. -1.
        1   -1    0    0  501    0  0.00000000000E+00  0.00000000000E+00 -0.16244746206E+04  0.16244746206E+04  0.50400001928E-02 0.  1.
    10030    2    1    2    0    0  0.00000000000E+00  0.00000000000E+00 -0.42036063563E+03  0.28285886056E+04  0.27971790138E+04 0.  0.
        5    1    3    3  502    0  0.57668129805E+03 -0.97411447916E+03 -0.10407251801E+04  0.15377227736E+04  0.46999998093E+01 0.  1.
       -5    1    3    3    0  502 -0.57668129805E+03  0.97411447916E+03  0.62036454446E+03  0.12908658319E+04  0.46999998093E+01 0. -1.
</event>
<event>
 5   0  0.1357902E-07  0.2800031E+04  0.7818609E-02  0.8303259E-01
       -1   -1    0    0    0  501  0.00000000000E+00  0.00000000000E+00  0.17109842475E+04  0.17109842475E+04  0.50400001928E-02 0. -1.
        1   -1    0    0  501    0  0.00000000000E+00  0.00000000000E+00 -0.11455647067E+04  0.11455647067E+04  0.50400001928E-02 0.  1.
    10030    2    1    2    0    0  0.00000000000E+00  0.00000000000E+00  0.56541954081E+03  0.28565489543E+04  0.28000308340E+04 0.  0.
        4    1    3    3  502    0 -0.85687552191E+02 -0.19776239743E+03  0.16939573714E+04  0.17076139820E+04  0.12699999809E+01 0. -1.
       -4    1    3    3    0  502  0.85687552191E+02  0.19776239743E+03 -0.11285378306E+04  0.11489349723E+04  0.12699999809E+01 0.  1.
</event>
<event>
 5   0  0.3502141E-07  0.2800368E+04  0.7818609E-02  0.8303154E-01
       -2   -1    0    0    0  501  0.00000000000E+00  0.00000000000E+00  0.12235632251E+04  0.12235632251E+04  0.25500000920E-02 0.  1.
        2   -1    0    0  501    0  0.00000000000E+00  0.00000000000E+00 -0.16023002153E+04  0.16023002153E+04  0.25500000920E-02 0. -1.
    10030    2    1    2    0    0  0.00000000000E+00  0.00000000000E+00 -0.37873699024E+03  0.28258634404E+04  0.28003682750E+04 0.  0.
        3    1    3    3  502    0  0.10493217207E+04  0.90431602438E+03  0.16577941420E+02  0.13853297022E+04  0.10100000352E+00 0.  1.
       -3    1    3    3    0  502 -0.10493217207E+04 -0.90431602438E+03 -0.39531493166E+03  0.14405337382E+04  0.10100000352E+00 0. -1.
</event>
<event>
 5   0  0.1374680E-07  0.2799176E+04  0.7818609E-02  0.8303524E-01
        1   -1    0    0  501    0  0.00000000000E+00  0.00000000000E+00  0.11606524170E+04  0.11606524170E+04  0.50400001928E-02 0. -1.
       -1   -1    0    0    0  501  0.00000000000E+00  0.00000000000E+00 -0.16877120593E+04  0.16877120593E+04  0.50400001928E-02 0.  1.
    10030    2    1    2    0    0  0.00000000000E+00  0.00000000000E+00 -0.52705964232E+03  0.28483644764E+04  0.27991763652E+04 0.  0.
        3    1    3    3  502    0 -0.54770446693E+03  0.12861861900E+04 -0.33248468929E+03  0.14369416053E+04  0.10100000352E+00 0. -1.
       -3    1    3    3    0  502  0.54770446693E+03 -0.12861861900E+04 -0.19457495303E+03  0.14114228710E+04  0.10100000352E+00 0.  1.
</event>
<event>
 5   0  0.3557628E-07  0.2789590E+04  0.7818609E-02  0.8306507E-01
       -2   -1    0    0    0  501  0.00000000000E+00  0.00000000000E+00  0.77362636841E+03  0.77362636841E+03  0.25500000920E-02 0.  1.
        2   -1    0    0  501    0  0.00000000000E+00  0.00000000000E+00 -0.25147195781E+04  0.25147195781E+04  0.25500000920E-02 0. -1.
    10030    2    1    2    0    0  0.00000000000E+00  0.00000000000E+00 -0.17410932097E+04  0.32883459465E+04  0.27895902027E+04 0.  0.
        5    1    3    3  502    0 -0.11798190773E+04 -0.71611636182E+03 -0.11081706337E+04  0.17699886842E+04  0.46999998093E+01 0.  1.
       -5    1    3    3    0  502  0.11798190773E+04  0.71611636182E+03 -0.63292257598E+03  0.15183572623E+04  0.46999998093E+01 0. -1.
</event>
<event>
 5   0  0.3502141E-07  0.2799894E+04  0.7818609E-02  0.8303301E-01
        2   -1    0    0  501    0  0.00000000000E+00  0.00000000000E+00  0.25972085525E+04  0.25972085525E+04  0.25500000920E-02 0. -1.
       -2   -1    0    0    0  501  0.00000000000E+00  0.00000000000E+00 -0.75459950789E+03  0.75459950790E+03  0.25500000920E-02 0.  1.
    10030    2    1    2    0    0  0.00000000000E+00  0.00000000000E+00  0.18426090446E+04  0.33518080604E+04  0.27998944949E+04 0.  0.
        3    1    3    3  502    0 -0.57218523782E+03  0.10895481450E+04  0.17201888504E+04  0.21150793833E+04  0.10100000352E+00 0. -1.
       -3    1    3    3    0  502  0.57218523782E+03 -0.10895481450E+04  0.12242019422E+03  0.12367286771E+04  0.10100000352E+00 0.  1.
</event>
<event>
 5   0  0.1374680E-07  0.2800331E+04  0.7818609E-02  0.8303166E-01
        1   -1    0    0  501    0  0.00000000000E+00  0.00000000000E+00  0.17929654569E+04  0.17929654569E+04  0.50400001928E-02 0.  1.
       -1   -1    0    0    0  501  0.00000000000E+00  0.00000000000E+00 -0.10934194692E+04  0.10934194692E+04  0.50400001928E-02 0. -1.
    10030    2    1    2    0    0  0.00000000000E+00  0.00000000000E+00  0.69954598771E+03  0.28863849261E+04  0.28003309363E+04 0.  0.
        3    1    3    3  502    0 -0.73774261861E+03 -0.95527202872E+03 -0.38172182135E+03  0.12659069394E+04  0.10100000352E+00 0. -1.
       -3    1    3    3    0  502  0.73774261861E+03  0.95527202872E+03  0.10812678091E+04  0.16204779867E+04  0.10100000352E+00 0.  1.
</event>
<event>
 5   0  0.3406920E-07  0.2800630E+04  0.7818609E-02  0.8303073E-01
        2   -1    0    0  501    0  0.00000000000E+00  0.00000000000E+00  0.22448095858E+04  0.22448095858E+04  0.25500000920E-02 0.  1.
       -2   -1    0    0    0  501  0.00000000000E+00  0.00000000000E+00 -0.87351852647E+03  0.87351852648E+03  0.25500000920E-02 0. -1.
    10030    2    1    2    0    0  0.00000000000E+00  0.00000000000E+00  0.13712910594E+04  0.31183281123E+04  0.28006304730E+04 0.  0.
        4    1    3    3  502    0  0.36065592483E+03 -0.10752028483E+04 -0.22896579344E+03  0.11569618872E+04  0.12699999809E+01 0. -1.
       -4    1    3    3    0  502 -0.36065592483E+03  0.10752028483E+04  0.16002568528E+04  0.19613662251E+04  0.12699999809E+01 0.  1.
</event>
<event>
 5   0  0.3557628E-07  0.2800635E+04  0.7818609E-02  0.8303071E-01
        2   -1    0    0  501    0  0.00000000000E+00  0.00000000000E+00  0.12342909474E+04  0.12342909474E+04  0.25500000920E-02 0.  1.
       -2   -1    0    0    0  501  0.00000000000E+00  0.00000000000E+00 -0.15886762457E+04  0.15886762457E+04  0.25500000920E-02 0. -1.
    10030    2    1    2    0    0  0.00000000000E+00  0.00000000000E+00 -0.35438529827E+03  0.28229671932E+04  0.28006347199E+04 0.  0.
        5    1    3    3  502    0 -0.50035173766E+01  0.79817443528E+03  0.98252923047E+03  0.12658962213E+04  0.46999998093E+01 0.  1.
       -5    1    3    3    0  502  0.50035173766E+01 -0.79817443528E+03 -0.13369145287E+04  0.15570709719E+04  0.46999998093E+01 0. -1.
</event>
<event>
 5   0  0.1366235E-07  0.2800029E+04  0.7818609E-02  0.8303259E-01
        1   -1    0    0  501    0  0.00000000000E+00  0.00000000000E+00  0.18426505108E+04  0.18426505108E+04  0.50400001928E-02 0. -1.
       -1   -1    0    0    0  501  0.00000000000E+00  0.00000000000E+00 -0.10637072519E+04  0.10637072519E+04  0.50400001928E-02 0.  1.
    10030    2    1    2    0    0  0.00000000000E+00  0.00000000000E+00  0.77894325887E+03  0.29063577627E+04  0.28000290792E+04 0.  0.
        2    1    3    3  502    0  0.52075078927E+03 -0.55725633058E+03  0.16080747967E+04  0.17797810412E+04  0.25500000920E-02 0. -1.
       -2    1    3    3    0  502 -0.52075078927E+03  0.55725633058E+03 -0.82913153788E+03  0.11265767216E+04  0.25500000920E-02 0.  1.
</event>
<event>
 5   0  0.1357902E-07  0.2796680E+04  0.7818609E-02  0.8304300E-01
        1   -1    0    0  501    0  0.00000000000E+00  0.00000000000E+00  0.10194502094E+04  0.10194502094E+04  0.50400001928E-02 0.  1.
       -1   -1    0    0    0  501  0.00000000000E+00  0.00000000000E+00 -0.19180477763E+04  0.19180477763E+04  0.50400001928E-02 0. -1.
    10030    2    1    2    0    0  0.00000000000E+00  0.00000000000E+00 -0.89859756688E+03  0.29374979857E+04  0.27966796078E+04 0.  0.
        4    1    3    3  502    0 -0.81233708884E+02  0.10222259419E+04 -0.14478558855E+04  0.17742133665E+04  0.12699999809E+01 0. -1.
       -4    1    3    3    0  502  0.81233708884E+02 -0.10222259419E+04  0.54925831865E+03  0.11632846192E+04  0.12699999809E+01 0.  1.
</event>
<event>
 5   0  0.1374680E-07  0.2805351E+04  0.7818609E-02  0.8301609E-01
        1   -1    0    0  501    0  0.00000000000E+00  0.00000000000E+00  0.13592683862E+04  0.13592683862E+04  0.50400001928E-02 0.  1.
       -1   -1    0    0    0  501  0.00000000000E+00  0.00000000000E+00 -0.14474683581E+04  0.14474683581E+04  0.50400001928E-02 0. -1.
    10030    2    1    2    0    0  0.00000000000E+00  0.00000000000E+00 -0.88199971964E+02  0.28067367443E+04  0.28053505872E+04 0.  0.
        3    1    3    3  502    0 -0.41725290375E+03 -0.10370489919E+04 -0.89182459923E+03  0.14300075955E+04  0.10100000352E+00 0. -1.
       -3    1    3    3    0  502  0.41725290375E+03  0.10370489919E+04  0.80362462727E+03  0.13767291488E+04  0.10100000352E+00 0.  1.
</event>
<event>
 5   0  0.1361741E-07  0.2800102E+04  0.7818609E-02  0.8303237E-01
       -1   -1    0    0    0  501  0.00000000000E+00  0.00000000000E+00  0.17621138904E+04  0.17621138904E+04  0.50400001928E-02 0. -1.
        1   -1    0    0  501    0  0.00000000000E+00  0.00000000000E+00 -0.11123815955E+04  0.11123815955E+04  0.50400001928E-02 0.  1.
    10030    2    1    2    0    0  0.00000000000E+00  0.00000000000E+00  0.64973229489E+03  0.28744954860E+04  0.28001021845E+04 0.  0.
        5    1    3    3  502    0 -0.85288773345E+03 -0.69909839233E+03  0.12103160212E+04  0.16373890830E+04  0.46999998093E+01 0. -1.
       -5    1    3    3    0  502  0.85288773345E+03  0.69909839233E+03 -0.56058372630E+03  0.12371064030E+04  0.46999998093E+01 0.  1.
</event>
<event>
 5   0  0.3522569E-07  0.2799856E+04  0.7818609E-02  0.8303313E-01
        2   -1    0    0  501    0  0.00000000000E+00  0.00000000000E+00  0.21998062130E+04  0.21998062130E+04  0.25500000920E-02 0.  1.
       -2   -1    0    0    0  501  0.00000000000E+00  0.00000000000E+00 -0.89089601119E+03  0.89089601119E+03  0.25500000920E-02 0. -1.
    10030    2    1    2    0    0  0.00000000000E+00  0.00000000000E+00  0.13089102018E+04  0.30907022242E+04  0.27998561253E+04 0.  0.
        1    1    3    3  502    0 -0.30802754722E+03  0.34002300803E+03 -0.80554821313E+03  0.92704074319E+03  0.50400001928E-02 0. -1.
       -1    1    3    3    0  502  0.30802754722E+03 -0.34002300803E+03  0.21144584150E+04  0.21636614810E+04  0.50400001928E-02 0.  1.
</event>
<event>
 5   0  0.1346049E-07  0.2798496E+04  0.7818609E-02  0.8303735E-01
       -1   -1    0    0    0  501  0.00000000000E+00  0.00000000000E+00  0.27581344789E+04  0.27581344789E+04  0.50400001928E-02 0. -1.
        1   -1    0    0  501    0  0.00000000000E+00  0.00000000000E+00 -0.70986221052E+03  0.70986221053E+03  0.50400001928E-02 0.  1.
    10030    2    1    2    0    0  0.00000000000E+00  0.00000000000E+00  0.20482722683E+04  0.34679966894E+04  0.27984963378E+04 0.  0.
        1    1    3    3  502    0  0.50410957823E+03 -0.10605442557E+04  0.19671081043E+04  0.22909375546E+04  0.50400001928E-02 0. -1.
       -1    1    3    3    0  502 -0.50410957823E+03  0.10605442557E+04  0.81164164073E+02  0.11770591348E+04  0.50400001928E-02 0.  1.
</event>
<event>
 5   0  0.3522569E-07  0.2799511E+04  0.7818609E-02  0.8303420E-01
        2   -1    0    0  501    0  0.00000000000E+00  0.00000000000E+00  0.26688253720E+04  0.26688253720E+04  0.25500000920E-02 0.  1.
       -2   -1    0    0    0  501  0.00000000000E+00  0.00000000000E+00 -0.73414874522E+03  0.73414874523E+03  0.25500000920E-02 0. -1.
    10030    2    1    2    0    0  0.00000000000E+00  0.00000000000E+00  0.19346766268E+04  0.34029741172E+04  0.27995105273E+04 0.  0.
        1    1    3    3  502    0  0.12967918224E+04 -0.25110903732E+03  0.40424379458E+03  0.13813536204E+04  0.50400001928E-02 0. -1.
       -1    1    3    3    0  502 -0.12967918224E+04  0.25110903732E+03  0.15304328322E+04  0.20216204968E+04  0.50400001928E-02 0.  1.
</event>
<event>
 5   0  0.1374680E-07  0.2799840E+04  0.7818609E-02  0.8303318E-01
       -1   -1    0    0    0  501  0.00000000000E+00  0.00000000000E+00  0.11448766847E+04  0.11448766847E+04  0.50400001928E-02 0.  1.
        1   -1    0    0  501    0  0.00000000000E+00  0.00000000000E+00 -0.17117795067E+04  0.17117795067E+04  0.50400001928E-02 0. -1.
    10030    2    1    2    0    0  0.00000000000E+00  0.00000000000E+00 -0.56690282197E+03  0.28566561914E+04  0.27998403144E+04 0.  0.
        3    1    3    3  502    0 -0.93245144414E+03  0.55500522907E+03 -0.11858653770E+04  0.16074119580E+04  0.10100000352E+00 0. -1.
       -3    1    3    3    0  502  0.93245144414E+03 -0.55500522907E+03  0.61896255504E+03  0.12492442334E+04  0.10100000352E+00 0.  1.
</event>
<event>
 5   0  0.1366235E-07  0.2799835E+04  0.7818609E-02  0.8303320E-01
       -1   -1    0    0    0  501  0.00000000000E+00  0.00000000000E+00  0.88680540909E+03  0.88680540911E+03  0.50400001928E-02 0.  1.
        1   -1    0    0  501    0  0.00000000000E+00  0.00000000000E+00 -0.22099199625E+04  0.22099199625E+04  0.50400001928E-02 0. -1.
    10030    2    1    2    0    0  0.00000000000E+00  0.00000000000E+00 -0.13231145534E+04  0.30967253717E+04  0.27998349783E+04 0.  0.
        2    1    3    3  502    0 -0.32857457329E+03 -0.91060719447E+01 -0.21666334470E+04  0.21914252587E+04  0.25500000920E-02 0. -1.
       -2    1    3    3    0  502  0.32857457329E+03  0.91060719447E+01  0.84351889355E+03  0.90530011297E+03  0.25500000920E-02 0.  1.
</event>
<event>
 5   0  0.1361741E-07  0.2800014E+04  0.7818609E-02  0.8303264E-01
       -1   -1    0    0    0  501  0.00000000000E+00  0.00000000000E+00  0.11046106776E+04  0.11046106776E+04  0.50400001928E-02 0. -1.
        1   -1    0    0  501    0  0.00000000000E+00  0.00000000000E+00 -0.17743981208E+04  0.17743981208E+04  0.50400001928E-02 0.  1.
    10030    2    1    2    0    0  0.00000000000E+00  0.00000000000E+00 -0.66978744322E+03  0.28790087985E+04  0.28000136504E+04 0.  0.
        5    1    3    3  502    0  0.52751262413E+03 -0.10224627261E+04  0.48529336377E+03  0.12486918490E+04  0.46999998093E+01 0. -1.
       -5    1    3    3    0  502 -0.52751262413E+03  0.10224627261E+04 -0.11550808070E+04  0.16303169494E+04  0.46999998093E+01 0.  1.
</event>
<event>
 5   0  0.3557628E-07  0.2800692E+04  0.7818609E-02  0.8303054E-01
        2   -1    0    0  501    0  0.00000000000E+00  0.00000000000E+00  0.14169013026E+04  0.14169013026E+04  0.25500000920E-02 0.  1.
       -2   -1    0    0    0  501  0.00000000000E+00  0.00000000000E+00 -0.13839841019E+04  0.13839841019E+04  0.25500000920E-02 0. -1.
    10030    2    1    2    0    0  0.00000000000E+00  0.00000000000E+00  0.32917200704E+02  0.28008854045E+04  0.28006919693E+04 0.  0.
        5    1    3    3  502    0  0.13783192891E+04 -0.21199293220E+03 -0.11099321200E+03  0.13989448342E+04  0.46999998093E+01 0.  1.
       -5    1    3    3    0  502 -0.13783192891E+04  0.21199293220E+03  0.14391041270E+03  0.14019405703E+04  0.46999998093E+01 0. -1.
</event>
<event>
 5   0  0.3557628E-07  0.2797937E+04  0.7818609E-02  0.8303909E-01
       -2   -1    0    0    0  501  0.00000000000E+00  0.00000000000E+00  0.10377013714E+04  0.10377013714E+04  0.25500000920E-02 0. -1.
        2   -1    0    0  501    0  0.00000000000E+00  0.00000000000E+00 -0.18860071304E+04  0.18860071304E+04  0.25500000920E-02 0.  1.
    10030    2    1    2    0    0  0.00000000000E+00  0.00000000000E+00 -0.84830575902E+03  0.29237085017E+04  0.27979365151E+04 0.  0.
        5    1    3    3  502    0 -0.56923390097E+03  0.11872040059E+04 -0.91828302452E+03  0.16052247160E+04  0.46999998093E+01 0.  1.
       -5    1    3    3    0  502  0.56923390097E+03 -0.11872040059E+04  0.69977265505E+02  0.13184837858E+04  0.46999998093E+01 0. -1.
</event>
<event>
 5   0  0.3557628E-07  0.2800581E+04  0.7818609E-02  0.8303088E-01
        2   -1    0    0  501    0  0.00000000000E+00  0.00000000000E+00  0.23589660660E+04  0.23589660660E+04  0.25500000920E-02 0.  1.
       -2   -1    0    0    0  501  0.00000000000E+00  0.00000000000E+00 -0.83121754288E+03  0.83121754288E+03  0.25500000920E-02 0. -1.
    10030    2    1    2    0    0  0.00000000000E+00  0.00000000000E+00  0.15277485231E+04  0.31901836089E+04  0.28005813519E+04 0.  0.
        5    1    3    3  502    0  0.33096868048E+03 -0.97055143879E+03  0.18500914480E+04  0.21152708617E+04  0.46999998093E+01 0.  1.
       -5    1    3    3    0  502 -0.33096868048E+03  0.97055143879E+03 -0.32234292482E+03  0.10749127471E+04  0.46999998093E+01 0. -1.
</event>
<event>
 5   0  0.1357902E-07  0.2806155E+04  0.7818609E-02  0.8301360E-01
        1   -1    0    0  501    0  0.00000000000E+00  0.00000000000E+00  0.29846817633E+04  0.29846817633E+04  0.50400001928E-02 0.  1.
       -1   -1    0    0    0  501  0.00000000000E+00  0.00000000000E+00 -0.65957661274E+03  0.65957661276E+03  0.50400001928E-02 0. -1.
    10030    2    1    2    0    0  0.00000000000E+00  0.00000000000E+00  0.23251051505E+04  0.36442583760E+04  0.28061548693E+04 0.  0.
        4    1    3    3  502    0 -0.95284127192E+02 -0.78155764449E+03  0.26707470253E+04  0.27843855162E+04  0.12699999809E+01 0.  1.
       -4    1    3    3    0  502  0.95284127192E+02  0.78155764449E+03 -0.34564187482E+03  0.85987285983E+03  0.12699999809E+01 0. -1.
</event>
<event>
 5   0  0.3571498E-07  0.2800450E+04  0.7818609E-02  0.8303129E-01
        2   -1    0    0  501    0  0.00000000000E+00  0.00000000000E+00  0.16791835886E+04  0.16791835886E+04  0.25500000920E-02 0. -1.
       -2   -1    0    0    0  501  0.00000000000E+00  0.00000000000E+00 -0.11676093985E+04  0.11676093985E+04  0.25500000920E-02 0.  1.
    10030    2    1    2    0    0  0.00000000000E+00  0.00000000000E+00  0.51157419009E+03  0.28467929870E+04  0.28004503493E+04 0.  0.
        2    1    3    3  502    0 -0.10513524125E+04 -0.62068500278E+03  0.95272622911E+03  0.15486378000E+04  0.25500000920E-02 0. -1.
       -2    1    3    3    0  502  0.10513524125E+04  0.62068500278E+03 -0.44115203902E+03  0.12981551870E+04  0.25500000920E-02 0.  1.
</event>
<event>
 5   0  0.3502141E-07  0.2799020E+04  0.7818609E-02  0.8303573E-01
       -2   -1    0    0    0  501  0.00000000000E+00  0.00000000000E+00  0.18376854186E+04  0.18376854186E+04  0.25500000920E-02 0.  1.
        2   -1    0    0  501    0  0.00000000000E+00  0.00000000000E+00 -0.10658126869E+04  0.10658126870E+04  0.25500000920E-02 0. -1.
    10030    2    1    2    0    0  0.00000000000E+00  0.00000000000E+00  0.77187273162E+03  0.29034981055E+04  0.27990201384E+04 0.  0.
        3    1    3    3  502    0  0.80153897221E+03 -0.57376647216E+03 -0.64460246659E+03  0.11777881977E+04  0.10100000352E+00 0. -1.
       -3    1    3    3    0  502 -0.80153897221E+03  0.57376647216E+03  0.14164751982E+04  0.17257099078E+04  0.10100000352E+00 0.  1.
</event>
<event>
 5   0  0.1374680E-07  0.2800196E+04  0.7818609E-02  0.8303207E-01
        1   -1    0    0  501    0  0.00000000000E+00  0.00000000000E+00  0.21779582967E+04  0.21779582967E+04  0.50400001928E-02 0.  1.
       -1   -1    0    0    0  501  0.00000000000E+00  0.00000000000E+00 -0.90005166211E+03  0.90005166213E+03  0.50400001928E-02 0. -1.
    10030    2    1    2    0    0  0.00000000000E+00  0.00000000000E+00  0.12779066346E+04  0.30780099588E+04  0.28001964110E+04 0.  0.
        3    1    3    3  502    0 -0.79172384677E+03 -0.70495104473E+03 -0.36638564178E+03  0.11216153858E+04  0.10100000352E+00 0. -1.
       -3    1    3    3    0  502  0.79172384677E+03  0.70495104473E+03  0.16442922764E+04  0.19563945730E+04  0.10100000352E+00 0.  1.
</event>
<event>
 5   0  0.3502141E-07  0.2798090E+04  0.7818609E-02  0.8303862E-01
        2   -1    0    0  501    0  0.00000000000E+00  0.00000000000E+00  0.94059878910E+03  0.94059878910E+03  0.25500000920E-02 0. -1.
       -2   -1    0    0    0  501  0.00000000000E+00  0.00000000000E+00 -0.20809370703E+04  0.20809370703E+04  0.25500000920E-02 0.  1.
    10030    2    1    2    0    0  0.00000000000E+00  0.00000000000E+00 -0.11403382812E+04  0.30215358594E+04  0.27980899832E+04 0.  0.
        3    1    3    3  502    0 -0.12466600142E+03  0.11683983466E+04 -0.13901711327E+04  0.18202395712E+04  0.10100000352E+00 0.  1.
       -3    1    3    3    0  502  0.12466600142E+03 -0.11683983466E+04  0.24983285144E+03  0.12012962882E+04  0.10100000352E+00 0. -1.
</event>
<event>
 5   0  0.1357902E-07  0.2799187E+04  0.7818609E-02  0.8303521E-01
       -1   -1    0    0    0  501  0.00000000000E+00  0.00000000000E+00  0.75717250419E+03  0.75717250420E+03  0.50400001928E-02 0.  1.
        1   -1    0    0  501    0  0.00000000000E+00  0.00000000000E+00 -0.25870751159E+04  0.25870751159E+04  0.50400001928E-02 0. -1.
    10030    2    1    2    0    0  0.00000000000E+00  0.00000000000E+00 -0.18299026117E+04  0.33442476201E+04  0.27991871278E+04 0.  0.
        4    1    3    3  502    0 -0.84923951390E+03 -0.11079969095E+04 -0.10343972835E+04  0.17374821601E+04  0.12699999809E+01 0.  1.
       -4    1    3    3    0  502  0.84923951390E+03  0.11079969095E+04 -0.79550532819E+03  0.16067654600E+04  0.12699999809E+01 0. -1.
</event>
<event>
 5   0  0.3557628E-07  0.2802452E+04  0.7818609E-02  0.8302508E-01
       -2   -1    0    0    0  501  0.00000000000E+00  0.00000000000E+00  0.15590160143E+04  0.15590160143E+04  0.25500000920E-02 0. -1.
        2   -1    0    0  501    0  0.00000000000E+00  0.00000000000E+00 -0.12594060214E+04  0.12594060214E+04  0.25500000920E-02 0.  1.
    10030    2    1    2    0    0  0.00000000000E+00  0.00000000000E+00  0.29960999292E+03  0.28184220357E+04  0.28024518949E+04 0.  0.
        5    1    3    3  502    0  0.53054132286E+03 -0.71812498897E+03 -0.93627245229E+03  0.12937564647E+04  0.46999998093E+01 0.  1.
       -5    1    3    3    0  502 -0.53054132286E+03  0.71812498897E+03  0.12358824452E+04  0.15246655710E+04  0.46999998093E+01 0. -1.
</event>
<event>
 5   0  0.1374680E-07  0.2800268E+04  0.7818609E-02  0.8303185E-01
        1   -1    0    0  501    0  0.00000000000E+00  0.00000000000E+00  0.13194086025E+04  0.13194086025E+04  0.50400001928E-02 0.  1.
       -1   -1    0    0    0  501  0.00000000000E+00  0.00000000000E+00 -0.14857988802E+04  0.14857988802E+04  0.50400001928E-02 0. -1.
    10030    2    1    2    0    0  0.00000000000E+00  0.00000000000E+00 -0.16639027766E+03  0.28052074827E+04  0.28002684329E+04 0.  0.
        3    1    3    3  502    0  0.97303728646E+03 -0.90781677226E+03 -0.51921328152E+03  0.14284660636E+04  0.10100000352E+00 0. -1.
       -3    1    3    3    0  502 -0.97303728646E+03  0.90781677226E+03  0.35282300386E+03  0.13767414191E+04  0.10100000352E+00 0.  1.
</event>
<event>
 5   0  0.3571498E-07  0.2800040E+04  0.7818609E-02  0.8303256E-01
        2   -1    0    0  501    0  0.00000000000E+00  0.00000000000E+00  0.18252991345E+04  0.18252991345E+04  0.25500000920E-02 0. -1.
       -2   -1    0    0    0  501  0.00000000000E+00  0.00000000000E+00 -0.10738276568E+04  0.10738276568E+04  0.25500000920E-02 0.  1.
    10030    2    1    2    0    0  0.00000000000E+00  0.00000000000E+00  0.75147147766E+03  0.28991267912E+04  0.28000404944E+04 0.  0.
        2    1    3    3  502    0  0.71053201574E+03 -0.28076698041E+03  0.15904402104E+04  0.17644222583E+04  0.25500000920E-02 0. -1.
       -2    1    3    3    0  502 -0.71053201574E+03  0.28076698041E+03 -0.83896873272E+03  0.11347045330E+04  0.25500000920E-02 0.  1.
</event>
<event>
 5   0  0.1361741E-07  0.2799904E+04  0.7818609E-02  0.8303298E-01
       -1   -1    0    0    0  501  0.00000000000E+00  0.00000000000E+00  0.96167546079E+03  0.96167546080E+03  0.50400001928E-02 0. -1.
        1   -1    0    0  501    0  0.00000000000E+00  0.00000000000E+00 -0.20379692896E+04  0.20379692896E+04  0.50400001928E-02 0.  1.
    10030    2    1    2    0    0  0.00000000000E+00  0.00000000000E+00 -0.10762938288E+04  0.29996447504E+04  0.27999036096E+04 0.  0.
        5    1    3    3  502    0  0.34775949929E+03 -0.28907778074E+03  0.88126161142E+03  0.99052852075E+03  0.46999998093E+01 0. -1.
       -5    1    3    3    0  502 -0.34775949929E+03  0.28907778074E+03 -0.19575554403E+04  0.20091162297E+04  0.46999998093E+01 0.  1.
</event>
<event>
 5   0  0.1366235E-07  0.2799503E+04  0.7818609E-02  0.8303423E-01
       -1   -1    0    0    0  501  0.00000000000E+00  0.00000000000E+00  0.18001620219E+04  0.18001620219E+04  0.50400001928E-02 0.  1.
        1   -1    0    0  501    0  0.00000000000E+00  0.00000000000E+00 -0.10884042488E+04  0.10884042488E+04  0.50400001928E-02 0. -1.
    10030    2    1    2    0    0  0.00000000000E+00  0.00000000000E+00  0.71175777311E+03  0.28885662706E+04  0.27995028081E+04 0.  0.
        2    1    3    3  502    0 -0.11101551918E+04 -0.64296164061E+03  0.93356554130E+03  0.15866281357E+04  0.25500000920E-02 0.  1.
       -2    1    3    3    0  502  0.11101551918E+04  0.64296164061E+03 -0.22180776820E+03  0.13019381349E+04  0.25500000920E-02 0. -1.
</event>
<event>
 5   0  0.1361741E-07  0.2802542E+04  0.7818609E-02  0.8302480E-01
       -1   -1    0    0    0  501  0.00000000000E+00  0.00000000000E+00  0.73845684744E+03  0.73845684745E+03  0.50400001928E-02 0. -1.
        1   -1    0    0  501    0  0.00000000000E+00  0.00000000000E+00 -0.26590040868E+04  0.26590040868E+04  0.50400001928E-02 0.  1.
    10030    2    1    2    0    0  0.00000000000E+00  0.00000000000E+00 -0.19205472393E+04  0.33974609342E+04  0.28025415431E+04 0.  0.
        5    1    3    3  502    0 -0.46459958405E+03 -0.59170757845E+03  0.47286678282E+03  0.88859198521E+03  0.46999998093E+01 0. -1.
       -5    1    3    3    0  502  0.46459958405E+03  0.59170757845E+03 -0.23934140221E+04  0.25088689490E+04  0.46999998093E+01 0.  1.
</event>
<event>
 5   0  0.3557628E-07  0.2799871E+04  0.7818609E-02  0.8303308E-01
       -2   -1    0    0    0  501  0.00000000000E+00  0.00000000000E+00  0.11441361464E+04  0.11441361464E+04  0.25500000920E-02 0.  1.
        2   -1    0    0  501    0  0.00000000000E+00  0.00000000000E+00 -0.17129252274E+04  0.17129252274E+04  0.25500000920E-02 0. -1.
    10030    2    1    2    0    0  0.00000000000E+00  0.00000000000E+00 -0.56878908098E+03  0.28570613737E+04  0.27998711890E+04 0.  0.
        5    1    3    3  502    0  0.47977743419E+03 -0.47538050136E+03 -0.15356650964E+04  0.16776359515E+04  0.46999998093E+01 0. -1.
       -5    1    3    3    0  502 -0.47977743419E+03  0.47538050136E+03  0.96687601543E+03  0.11794254222E+04  0.46999998093E+01 0.  1.
</event>
<event>
 5   0  0.1361741E-07  0.2799151E+04  0.7818609E-02  0.8303532E-01
       -1   -1    0    0    0  501  0.00000000000E+00  0.00000000000E+00  0.11030615281E+04  0.11030615281E+04  0.50400001928E-02 0. -1.
        1   -1    0    0  501    0  0.00000000000E+00  0.00000000000E+00 -0.17757948236E+04  0.17757948236E+04  0.50400001928E-02 0.  1.
    10030    2    1    2    0    0  0.00000000000E+00  0.00000000000E+00 -0.67273329550E+03  0.28788563517E+04  0.27991505510E+04 0.  0.
        5    1    3    3  502    0  0.93330147247E+03 -0.29781723940E+03 -0.13643489454E+04  0.16796478445E+04  0.46999998093E+01 0.  1.
       -5    1    3    3    0  502 -0.93330147247E+03  0.29781723940E+03  0.69161564994E+03  0.11992085072E+04  0.46999998093E+01 0. -1.
</event>
<event>
 5   0  0.3522569E-07  0.2796946E+04  0.7818609E-02  0.8304217E-01
        2   -1    0    0  501    0  0.00000000000E+00  0.00000000000E+00  0.12812065333E+04  0.12812065333E+04  0.25500000920E-02 0. -1.
       -2   -1    0    0    0  501  0.00000000000E+00  0.00000000000E+00 -0.15264728681E+04  0.15264728681E+04  0.25500000920E-02 0.  1.
    10030    2    1    2    0    0  0.00000000000E+00  0.00000000000E+00 -0.24526633485E+03  0.28076794014E+04  0.27969462001E+04 0.  0.
        1    1    3    3  502    0  0.97002954263E+02  0.13462430586E+04  0.24475909471E+03  0.13717459533E+04  0.50400001928E-02 0.  1.
       -1    1    3    3    0  502 -0.97002954263E+02 -0.13462430586E+04 -0.49002542956E+03  0.14359334481E+04  0.50400001928E-02 0. -1.
</event>
<event>
 5   0  0.3557628E-07  0.2796879E+04  0.7818609E-02  0.8304238E-01
       -2   -1    0    0    0  501  0.00000000000E+00  0.00000000000E+00  0.10495550226E+04  0.10495550226E+04  0.25500000920E-02 0.  1.
        2   -1    0    0  501    0  0.00000000000E+00  0.00000000000E+00 -0.18632979109E+04  0.18632979109E+04  0.25500000920E-02 0. -1.
    10030    2    1    2    0    0  0.00000000000E+00  0.00000000000E+00 -0.81374288827E+03  0.29128529335E+04  0.27968794618E+04 0.  0.
        5    1    3    3  502    0 -0.87871107938E+03  0.61516333436E+02 -0.15380457325E+04  0.17724345364E+04  0.46999998093E+01 0. -1.
       -5    1    3    3    0  502  0.87871107938E+03 -0.61516333436E+02  0.72430284426E+03  0.11404183971E+04  0.46999998093E+01 0.  1.
</event>
<event>
 5   0  0.3557628E-07  0.2798776E+04  0.7818609E-02  0.8303649E-01
       -2   -1    0    0    0  501  0.00000000000E+00  0.00000000000E+00  0.16220138150E+04  0.16220138150E+04  0.25500000920E-02 0.  1.
        2   -1    0    0  501    0  0.00000000000E+00  0.00000000000E+00 -0.12073179740E+04  0.12073179740E+04  0.25500000920E-02 0. -1.
    10030    2    1    2    0    0  0.00000000000E+00  0.00000000000E+00  0.41469584104E+03  0.28293317890E+04  0.27987757559E+04 0.  0.
        5    1    3    3  502    0  0.98366394156E+03 -0.27333912920E+03 -0.76015641330E+03  0.12728585515E+04  0.46999998093E+01 0. -1.
       -5    1    3    3    0  502 -0.98366394156E+03  0.27333912920E+03  0.11748522543E+04  0.15564732375E+04  0.46999998093E+01 0.  1.
</event>
<event>
 5   0  0.1361741E-07  0.2800895E+04  0.7818609E-02  0.8302991E-01
        1   -1    0    0  501    0  0.00000000000E+00  0.00000000000E+00  0.12927132166E+04  0.12927132166E+04  0.50400001928E-02 0. -1.
       -1   -1    0    0    0  501  0.00000000000E+00  0.00000000000E+00 -0.15171599415E+04  0.15171599416E+04  0.50400001928E-02 0.  1.
    10030    2    1    2    0    0  0.00000000000E+00  0.00000000000E+00 -0.22444672492E+03  0.28098731582E+04  0.28008946486E+04 0.  0.
        5    1    3    3  502    0 -0.72606201874E+03  0.60285797865E+03  0.92580447705E+03  0.13220211107E+04  0.46999998093E+01 0. -1.
       -5    1    3    3    0  502  0.72606201874E+03 -0.60285797865E+03 -0.11502512020E+04  0.14878520475E+04  0.46999998093E+01 0.  1.
</event>
<event>
 5   0  0.1361741E-07  0.2796770E+04  0.7818609E-02  0.8304272E-01
        1   -1    0    0  501    0  0.00000000000E+00  0.00000000000E+00  0.10048506058E+04  0.10048506058E+04  0.50400001928E-02 0. -1.
       -1   -1    0    0    0  501  0.00000000000E+00  0.00000000000E+00 -0.19460416698E+04  0.19460416698E+04  0.50400001928E-02 0.  1.
    10030    2    1    2    0    0  0.00000000000E+00  0.00000000000E+00 -0.94119106399E+03  0.29508922756E+04  0.27967703880E+04 0.  0.
        5    1    3    3  502    0 -0.61870576007E+03 -0.66388911093E+03  0.65194792049E+03  0.11174093924E+04  0.46999998093E+01 0. -1.
       -5    1    3    3    0  502  0.61870576007E+03  0.66388911093E+03 -0.15931389845E+04  0.18334828832E+04  0.46999998093E+01 0.  1.
</event>
<event>
 5   0  0.3557628E-07  0.2797030E+04  0.7818609E-02  0.8304191E-01
       -2   -1    0    0    0  501  0.00000000000E+00  0.00000000000E+00  0.15007750084E+04  0.15007750084E+04  0.25500000920E-02 0. -1.
        2   -1    0    0  501    0  0.00000000000E+00  0.00000000000E+00 -0.13032227730E+04  0.13032227731E+04  0.25500000920E-02 0.  1.
    10030    2    1    2    0    0  0.00000000000E+00  0.00000000000E+00  0.19755223531E+03  0.28039977814E+04  0.27970299735E+04 0.  0.
        5    1    3    3  502    0  0.72314986984E+03 -0.74386312394E+03  0.10389524834E+04  0.14682378670E+04  0.46999998093E+01 0. -1.
       -5    1    3    3    0  502 -0.72314986984E+03  0.74386312394E+03 -0.84140024809E+03  0.13357599144E+04  0.46999998093E+01 0.  1.
</event>
<event>
 5   0  0.1357902E-07  0.2797376E+04  0.7818609E-02  0.8304083E-01
        1   -1    0    0  501    0  0.00000000000E+00  0.00000000000E+00  0.11432245904E+04  0.11432245904E+04  0.50400001928E-02 0.  1.
       -1   -1    0    0    0  501  0.00000000000E+00  0.00000000000E+00 -0.17112368708E+04  0.17112368708E+04  0.50400001928E-02 0. -1.
    10030    2    1    2    0    0  0.00000000000E+00  0.00000000000E+00 -0.56801228033E+03  0.28544614612E+04  0.27973759638E+04 0.  0.
        4    1    3    3  502    0 -0.98985882812E+03  0.64249725424E+03  0.48211705124E+03  0.12747790731E+04  0.12699999809E+01 0.  1.
       -4    1    3    3    0  502  0.98985882812E+03 -0.64249725424E+03 -0.10501293316E+04  0.15796823881E+04  0.12699999809E+01 0. -1.
</event>
<event>
 5   0  0.3522569E-07  0.2801134E+04  0.7818609E-02  0.8302916E-01
        2   -1    0    0  501    0  0.00000000000E+00  0.00000000000E+00  0.22228799200E+04  0.22228799200E+04  0.25500000920E-02 0.  1.
       -2   -1    0    0    0  501  0.00000000000E+00  0.00000000000E+00 -0.88245345593E+03  0.88245345594E+03  0.25500000920E-02 0. -1.
    10030    2    1    2    0    0  0.00000000000E+00  0.00000000000E+00  0.13404264641E+04  0.31053333760E+04  0.28011341043E+04 0.  0.
        1    1    3    3  502    0  0.15385503425E+03  0.13920696981E+04  0.67870335494E+03  0.15563314750E+04  0.50400001928E-02 0. -1.
       -1    1    3    3    0  502 -0.15385503425E+03 -0.13920696981E+04  0.66172310915E+03  0.15490019010E+04  0.50400001928E-02 0.  1.
</event>
<event>
 5   0  0.1361741E-07  0.2800606E+04  0.7818609E-02  0.8303080E-01
       -1   -1    0    0    0  501  0.00000000000E+00  0.00000000000E+00  0.71386174605E+03  0.71386174607E+03  0.50400001928E-02 0.  1.
        1   -1    0    0  501    0  0.00000000000E+00  0.00000000000E+00 -0.27468181748E+04  0.27468181748E+04  0.50400001928E-02 0. -1.
    10030    2    1    2    0    0  0.00000000000E+00  0.00000000000E+00 -0.20329564288E+04  0.34606799209E+04  0.28006059476E+04 0.  0.
        5    1    3    3  502    0 -0.46363951901E+03  0.38816254642E+03 -0.25771668092E+04  0.26471574601E+04  0.46999998093E+01 0. -1.
       -5    1    3    3    0  502  0.46363951901E+03 -0.38816254642E+03  0.54421038045E+03  0.81352246079E+03  0.46999998093E+01 0.  1.
</event>
<event>
 5   0  0.1346049E-07  0.2799986E+04  0.7818609E-02  0.8303273E-01
        1   -1    0    0  501    0  0.00000000000E+00  0.00000000000E+00  0.11855007195E+04  0.11855007195E+04  0.50400001928E-02 0. -1.
       -1   -1    0    0    0  501  0.00000000000E+00  0.00000000000E+00 -0.16532938502E+04  0.16532938502E+04  0.50400001928E-02 0.  1.
    10030    2    1    2    0    0  0.00000000000E+00  0.00000000000E+00 -0.46779313068E+03  0.28387945696E+04  0.27999864635E+04 0.  0.
        1    1    3    3  502    0  0.12958069258E+03 -0.13306659795E+04 -0.65500619335E+03  0.14887901861E+04  0.50400001928E-02 0.  1.
       -1    1    3    3    0  502 -0.12958069258E+03  0.13306659795E+04  0.18721306267E+03  0.13500043836E+04  0.50400001928E-02 0. -1.
</event>
<event>
 5   0  0.1346049E-07  0.2799461E+04  0.7818609E-02  0.8303436E-01
       -1   -1    0    0    0  501  0.00000000000E+00  0.00000000000E+00  0.12210269985E+04  0.12210269985E+04  0.50400001928E-02 0. -1.
        1   -1    0    0  501    0  0.00000000000E+00  0.00000000000E+00 -0.16045883665E+04  0.16045883665E+04  0.50400001928E-02 0.  1.
    10030    2    1    2    0    0  0.00000000000E+00  0.00000000000E+00 -0.38356136797E+03  0.28256153651E+04  0.27994611746E+04 0.  0.
        1    1    3    3  502    0  0.69558268926E+03  0.37137836146E+03  0.97552239627E+03  0.12543528653E+04  0.50400001928E-02 0. -1.
       -1    1    3    3    0  502 -0.69558268926E+03 -0.37137836146E+03 -0.13590837642E+04  0.15712624998E+04  0.50400001928E-02 0.  1.
</event>
<event>
 5   0  0.1357902E-07  0.2798256E+04  0.7818609E-02  0.8303810E-01
       -1   -1    0    0    0  501  0.00000000000E+00  0.00000000000E+00  0.17608942894E+04  0.17608942894E+04  0.50400001928E-02 0. -1.
        1   -1    0    0  501    0  0.00000000000E+00  0.00000000000E+00 -0.11116849369E+04  0.11116849369E+04  0.50400001928E-02 0.  1.
    10030    2    1    2    0    0  0.00000000000E+00  0.00000000000E+00  0.64920935246E+03  0.28725792263E+04  0.27982563549E+04 0.  0.
        4    1    3    3  502    0 -0.25686157948E+03  0.13752814767E+04  0.33841689316E+03  0.14394112052E+04  0.12699999809E+01 0.  1.
       -4    1    3    3    0  502  0.25686157948E+03 -0.13752814767E+04  0.31079245929E+03  0.14331680211E+04  0.12699999809E+01 0. -1.
</event>
<event>
 5   0  0.3406920E-07  0.2800495E+04  0.7818609E-02  0.8303115E-01
       -2   -1    0    0    0  501  0.00000000000E+00  0.00000000000E+00  0.71661419122E+03  0.71661419123E+03  0.25500000920E-02 0.  1.
        2   -1    0    0  501    0  0.00000000000E+00  0.00000000000E+00 -0.27360518704E+04  0.27360518704E+04  0.25500000920E-02 0. -1.
    10030    2    1    2    0    0  0.00000000000E+00  0.00000000000E+00 -0.20194376792E+04  0.34526660616E+04  0.28004953835E+04 0.  0.
        4    1    3    3  502    0  0.67937059536E+03 -0.93149331526E+03 -0.30013863621E+02  0.11533111667E+04  0.12699999809E+01 0.  1.
       -4    1    3    3    0  502 -0.67937059536E+03  0.93149331526E+03 -0.19894238155E+04  0.22993548950E+04  0.12699999809E+01 0. -1.
</event>
<event>
 5   0  0.3522569E-07  0.2799358E+04  0.7818609E-02  0.8303468E-01
       -2   -1    0    0    0  501  0.00000000000E+00  0.00000000000E+00  0.10043601607E+04  0.10043601607E+04  0.25500000920E-02 0. -1.
        2   -1    0    0  501    0  0.00000000000E+00  0.00000000000E+00 -0.19505968956E+04  0.19505968956E+04  0.25500000920E-02 0.  1.
    10030    2    1    2    0    0  0.00000000000E+00  0.00000000000E+00 -0.94623673494E+03  0.29549570563E+04  0.27993583632E+04 0.  0.
        1    1    3    3  502    0 -0.11058217742E+04  0.39386457913E+03 -0.12778101895E+04  0.17351570486E+04  0.50400001928E-02 0.  1.
       -1    1    3    3    0  502  0.11058217742E+04 -0.39386457913E+03  0.33157345451E+03  0.12198000077E+04  0.50400001928E-02 0. -1.
</event>
<event>
 5   0  0.1357902E-07  0.2799572E+04  0.7818609E-02  0.8303401E-01
       -1   -1    0    0    0  501  0.00000000000E+00  0.00000000000E+00  0.20963872241E+04  0.20963872241E+04  0.50400001928E-02 0.  1.
        1   -1    0    0  501    0  0.00000000000E+00  0.00000000000E+00 -0.93465596663E+03  0.93465596665E+03  0.50400001928E-02 0. -1.
    10030    2    1    2    0    0  0.00000000000E+00  0.00000000000E+00  0.11617312574E+04  0.30310431907E+04  0.27995719868E+04 0.  0.
        4    1    3    3  502    0 -0.73883866919E+03 -0.46089461953E+03  0.17674230631E+04  0.19703025977E+04  0.12699999809E+01 0.  1.
       -4    1    3    3    0  502  0.73883866919E+03  0.46089461953E+03 -0.60569180568E+03  0.10607405931E+04  0.12699999809E+01 0. -1.
</event>
<event>
 5   0  0.3557628E-07  0.2799630E+04  0.7818609E-02  0.8303383E-01
       -2   -1    0    0    0  501  0.00000000000E+00  0.00000000000E+00  0.10768474668E+04  0.10768474668E+04  0.25500000920E-02 0.  1.
        2   -1    0    0  501    0  0.00000000000E+00  0.00000000000E+00 -0.18196464819E+04  0.18196464819E+04  0.25500000920E-02 0. -1.
    10030    2    1    2    0    0  0.00000000000E+00  0.00000000000E+00 -0.74279901510E+03  0.28964939488E+04  0.27996297645E+04 0.  0.
        5    1    3    3  502    0  0.60415682954E+03 -0.12609842013E+04 -0.43981602631E+03  0.14657922286E+04  0.46999998093E+01 0. -1.
       -5    1    3    3    0  502 -0.60415682954E+03  0.12609842013E+04 -0.30298298879E+03  0.14307017201E+04  0.46999998093E+01 0.  1.
</event>
<event>
 5   0  0.3502141E-07  0.2800149E+04  0.7818609E-02  0.8303222E-01
        2   -1    0    0  501    0  0.00000000000E+00  0.00000000000E+00  0.24644651722E+04  0.24644651722E+04  0.25500000920E-02 0.  1.
       -2   -1    0    0    0  501  0.00000000000E+00  0.00000000000E+00 -0.79538932522E+03  0.79538932523E+03  0.25500000920E-02 0. -1.
    10030    2    1    2    0    0  0.00000000000E+00  0.00000000000E+00  0.16690758470E+04  0.32598544974E+04  0.28001494891E+04 0.  0.
        3    1    3    3  502    0 -0.39795194400E+03 -0.89988683341E+02  0.23937221014E+04  0.24282440615E+04  0.10100000352E+00 0.  1.
       -3    1    3    3    0  502  0.39795194400E+03  0.89988683341E+02 -0.72464625448E+03  0.83161043596E+03  0.10100000352E+00 0. -1.
</event>
<event>
 5   0  0.3406920E-07  0.2798126E+04  0.7818609E-02  0.8303850E-01
        2   -1    0    0  501    0  0.00000000000E+00  0.00000000000E+00  0.15762052901E+04  0.15762052901E+04  0.25500000920E-02 0.  1.
       -2   -1    0    0    0  501  0.00000000000E+00  0.00000000000E+00 -0.12418289499E+04  0.12418289499E+04  0.25500000920E-02 0. -1.
    10030    2    1    2    0    0  0.00000000000E+00  0.00000000000E+00  0.33437634026E+03  0.28180342400E+04  0.27981260588E+04 0.  0.
        4    1    3    3  502    0 -0.56138496898E+02  0.32639940762E+03  0.15361560763E+04  0.15714532153E+04  0.12699999809E+01 0.  1.
       -4    1    3    3    0  502  0.56138496898E+02 -0.32639940762E+03 -0.12017797361E+04  0.12465810247E+04  0.12699999809E+01 0. -1.
</event>
<event>
 5   0  0.3571498E-07  0.2797703E+04  0.7818609E-02  0.8303982E-01
        2   -1    0    0  501    0  0.00000000000E+00  0.00000000000E+00  0.13970262014E+04  0.13970262014E+04  0.25500000920E-02 0. -1.
       -2   -1    0    0    0  501  0.00000000000E+00  0.00000000000E+00 -0.14006796758E+04  0.14006796758E+04  0.25500000920E-02 0.  1.
    10030    2    1    2    0    0  0.00000000000E+00  0.00000000000E+00 -0.36534744185E+01  0.27977058772E+04  0.27977034917E+04 0.  0.
        2    1    3    3  502    0  0.22604455981E+03 -0.69653648956E+03  0.11900329043E+04  0.13972965103E+04  0.25500000920E-02 0. -1.
       -2    1    3    3    0  502 -0.22604455981E+03  0.69653648956E+03 -0.11936863787E+04  0.14004093669E+04  0.25500000920E-02 0.  1.
</event>
<event>
 5   0  0.3571498E-07  0.2799183E+04  0.7818609E-02  0.8303522E-01
        2   -1    0    0  501    0  0.00000000000E+00  0.00000000000E+00  0.14566547512E+04  0.14566547512E+04  0.25500000920E-02 0. -1.
       -2   -1    0    0    0  501  0.00000000000E+00  0.00000000000E+00 -0.13447638425E+04  0.13447638425E+04  0.25500000920E-02 0.  1.
    10030    2    1    2    0    0  0.00000000000E+00  0.00000000000E+00  0.11189090864E+03  0.28014185937E+04  0.27991831955E+04 0.  0.
        2    1    3    3  502    0  0.11806408171E+04 -0.73676315789E+03 -0.92914549223E+02  0.13947637088E+04  0.25500000920E-02 0.  1.
       -2    1    3    3    0  502 -0.11806408171E+04  0.73676315789E+03  0.20480545786E+03  0.14066548850E+04  0.25500000920E-02 0. -1.
</event>
<event>
 5   0  0.3571498E-07  0.2809116E+04  0.7818609E-02  0.8300444E-01
        2   -1    0    0  501    0  0.00000000000E+00  0.00000000000E+00  0.13796068614E+04  0.13796068614E+04  0.25500000920E-02 0.  1.
       -2   -1    0    0    0  501  0.00000000000E+00  0.00000000000E+00 -0.14299603036E+04  0.14299603036E+04  0.25500000920E-02 0. -1.
    10030    2    1    2    0    0  0.00000000000E+00  0.00000000000E+00 -0.50353442185E+02  0.28095671651E+04  0.28091159082E+04 0.  0.
        2    1    3    3  502    0  0.23501760548E+03 -0.46693591297E+03  0.12786893346E+04  0.13814155190E+04  0.25500000920E-02 0.  1.
       -2    1    3    3    0  502 -0.23501760548E+03  0.46693591297E+03 -0.13290427768E+04  0.14281516461E+04  0.25500000920E-02 0. -1.
</event>
<event>
 5   0  0.3502141E-07  0.2800100E+04  0.7818609E-02  0.8303237E-01
        2   -1    0    0  501    0  0.00000000000E+00  0.00000000000E+00  0.10215531872E+04  0.10215531872E+04  0.25500000920E-02 0.  1.
       -2   -1    0    0    0  501  0.00000000000E+00  0.00000000000E+00 -0.19187834796E+04  0.19187834796E+04  0.25500000920E-02 0. -1.
    10030    2    1    2    0    0  0.00000000000E+00  0.00000000000E+00 -0.89723029236E+03  0.29403366669E+04  0.28000995548E+04 0.  0.
        3    1    3    3  502    0  0.20543471246E+03  0.98808429759E+03  0.57035782077E+03  0.11592333907E+04  0.10100000352E+00 0.  1.
       -3    1    3    3    0  502 -0.20543471246E+03 -0.98808429759E+03 -0.14675881131E+04  0.17811032761E+04  0.10100000352E+00 0. -1.
</event>
<event>
 5   0  0.3406920E-07  0.2797394E+04  0.7818609E-02  0.8304078E-01
        2   -1    0    0  501    0  0.00000000000E+00  0.00000000000E+00  0.14634946012E+04  0.14634946012E+04  0.25500000920E-02 0. -1.
       -2   -1    0    0    0  501  0.00000000000E+00  0.00000000000E+00 -0.13367680243E+04  0.13367680243E+04  0.25500000920E-02 0.  1.
    10030    2    1    2    0    0  0.00000000000E+00  0.00000000000E+00  0.12672657684E+03  0.28002626255E+04  0.27973936345E+04 0.  0.
        4    1    3    3  502    0  0.53143879068E+03 -0.29783703951E+03 -0.11969820333E+04  0.13430940739E+04  0.12699999809E+01 0.  1.
       -4    1    3    3    0  502 -0.53143879068E+03  0.29783703951E+03  0.13237086102E+04  0.14571685516E+04  0.12699999809E+01 0. -1.
</event>
<event>
 5   0  0.3522569E-07  0.2797771E+04  0.7818609E-02  0.8303961E-01
        2   -1    0    0  501    0  0.00000000000E+00  0.00000000000E+00  0.15677492771E+04  0.15677492771E+04  0.25500000920E-02 0.  1.
       -2   -1    0    0    0  501  0.00000000000E+00  0.00000000000E+00 -0.12482103715E+04  0.12482103715E+04  0.25500000920E-02 0. -1.
    10030    2    1    2    0    0  0.00000000000E+00  0.00000000000E+00  0.31953890558E+03  0.28159596486E+04  0.27977711898E+04 0.  0.
        1    1    3    3  502    0 -0.53011651251E+03  0.82883703330E+03  0.11606620369E+04  0.15215553583E+04  0.50400001928E-02 0.  1.
       -1    1    3    3    0  502  0.53011651251E+03 -0.82883703330E+03 -0.84112313129E+03  0.12944042903E+04  0.50400001928E-02 0. -1.
</event>
<event>
 5   0  0.1346049E-07  0.2800244E+04  0.7818609E-02  0.8303193E-01
        1   -1    0    0  501    0  0.00000000000E+00  0.00000000000E+00  0.21053101837E+04  0.21053101837E+04  0.50400001928E-02 0.  1.
       -1   -1    0    0    0  501  0.00000000000E+00  0.00000000000E+00 -0.93114149595E+03  0.93114149596E+03  0.50400001928E-02 0. -1.
    10030    2    1    2    0    0  0.00000000000E+00  0.00000000000E+00  0.11741686877E+04  0.30364516796E+04  0.28002440421E+04 0.  0.
        1    1    3    3  502    0  0.13142910361E+03 -0.76631976888E+03  0.18497019562E+04  0.20064687699E+04  0.50400001928E-02 0.  1.
       -1    1    3    3    0  502 -0.13142910361E+03  0.76631976888E+03 -0.67553326855E+03  0.10299829098E+04  0.50400001928E-02 0. -1.
</event>
<event>
 5   0  0.1374680E-07  0.2799683E+04  0.7818609E-02  0.8303367E-01
       -1   -1    0    0    0  501  0.00000000000E+00  0.00000000000E+00  0.14162793488E+04  0.14162793488E+04  0.50400001928E-02 0. -1.
        1   -1    0    0  501    0  0.00000000000E+00  0.00000000000E+00 -0.13835946380E+04  0.13835946380E+04  0.50400001928E-02 0.  1.
    10030    2    1    2    0    0  0.00000000000E+00  0.00000000000E+00  0.32684710777E+02  0.27998739868E+04  0.27996832056E+04 0.  0.
        3    1    3    3  502    0 -0.95949148634E+02 -0.78579094568E+03  0.11709264862E+04  0.14134151887E+04  0.10100000352E+00 0. -1.
       -3    1    3    3    0  502  0.95949148634E+02  0.78579094568E+03 -0.11382417754E+04  0.13864587981E+04  0.10100000352E+00 0.  1.
</event>
<event>
 5   0  0.1346049E-07  0.2801181E+04  0.7818609E-02  0.8302902E-01
        1   -1    0    0  501    0  0.00000000000E+00  0.00000000000E+00  0.15764903323E+04  0.15764903324E+04  0.50400001928E-02 0.  1.
       -1   -1    0    0    0  501  0.00000000000E+00  0.00000000000E+00 -0.12443165735E+04  0.12443165735E+04  0.50400001928E-02 0. -1.
    10030    2    1    2    0    0  0.00000000000E+00  0.00000000000E+00  0.33217375886E+03  0.28208069059E+04  0.28011805001E+04 0.  0.
        1    1    3    3  502    0  0.39182779498E+03 -0.12548625705E+04  0.65263251535E+03  0.14676982973E+04  0.50400001928E-02 0.  1.
       -1    1    3    3    0  502 -0.39182779498E+03  0.12548625705E+04 -0.32045875649E+03  0.13531086085E+04  0.50400001928E-02 0. -1.
</event>
<event>
 5   0  0.3406920E-07  0.2801829E+04  0.7818609E-02  0.8302701E-01
       -2   -1    0    0    0  501  0.00000000000E+00  0.00000000000E+00  0.96420591095E+03  0.96420591095E+03  0.25500000920E-02 0. -1.
        2   -1    0    0  501    0  0.00000000000E+00  0.00000000000E+00 -0.20354175569E+04  0.20354175569E+04  0.25500000920E-02 0.  1.
    10030    2    1    2    0    0  0.00000000000E+00  0.00000000000E+00 -0.10712116459E+04  0.29996234678E+04  0.28018291451E+04 0.  0.
        4    1    3    3  502    0 -0.61356752063E+03  0.79863655513E+03  0.50693278694E+03  0.11275051720E+04  0.12699999809E+01 0. -1.
       -4    1    3    3    0  502  0.61356752063E+03 -0.79863655513E+03 -0.15781444329E+04  0.18721182958E+04  0.12699999809E+01 0.  1.
</event>
<event>
 5   0  0.3571498E-07  0.2795638E+04  0.7818609E-02  0.8304624E-01
        2   -1    0    0  501    0  0.00000000000E+00  0.00000000000E+00  0.20261916203E+04  0.20261916203E+04  0.25500000920E-02 0. -1.
       -2   -1    0    0    0  501  0.00000000000E+00  0.00000000000E+00 -0.96432026656E+03  0.96432026656E+03  0.25500000920E-02 0.  1.
    10030    2    1    2    0    0  0.00000000000E+00  0.00000000000E+00  0.10618713537E+04  0.29905118869E+04  0.27956377758E+04 0.  0.
        2    1    3    3  502    0 -0.50334420501E+03  0.52340486865E+03  0.18085923257E+04  0.19489264342E+04  0.25500000920E-02 0. -1.
       -2    1    3    3    0  502  0.50334420501E+03 -0.52340486865E+03 -0.74672097197E+03  0.10415854527E+04  0.25500000920E-02 0.  1.
</event>
<event>
 5   0  0.3571498E-07  0.2800398E+04  0.7818609E-02  0.8303145E-01
        2   -1    0    0  501    0  0.00000000000E+00  0.00000000000E+00  0.22377990157E+04  0.22377990157E+04  0.25500000920E-02 0.  1.
       -2   -1    0    0    0  501  0.00000000000E+00  0.00000000000E+00 -0.87610953638E+03  0.87610953639E+03  0.25500000920E-02 0. -1.
    10030    2    1    2    0    0  0.00000000000E+00  0.00000000000E+00  0.13616894793E+04  0.31139085521E+04  0.28003978704E+04 0.  0.
        2    1    3    3  502    0 -0.13643451506E+04  0.24386888635E+03  0.45943683973E+03  0.14601342176E+04  0.25500000920E-02 0. -1.
       -2    1    3    3    0  502  0.13643451506E+04 -0.24386888635E+03  0.90225263961E+03  0.16537743345E+04  0.25500000920E-02 0.  1.
</event>
<event>
 5   0  0.3522569E-07  0.2800107E+04  0.7818609E-02  0.8303235E-01
       -2   -1    0    0    0  501  0.00000000000E+00  0.00000000000E+00  0.13323265747E+04  0.13323265747E+04  0.25500000920E-02 0. -1.
        2   -1    0    0  501    0  0.00000000000E+00  0.00000000000E+00 -0.14712229712E+04  0.14712229712E+04  0.25500000920E-02 0.  1.
    10030    2    1    2    0    0  0.00000000000E+00  0.00000000000E+00 -0.13889639648E+03  0.28035495458E+04  0.28001067564E+04 0.  0.
        1    1    3    3  502    0  0.47082339682E+03 -0.45050602224E+03 -0.13101324213E+04  0.14632420539E+04  0.50400001928E-02 0.  1.
       -1    1    3    3    0  502 -0.47082339682E+03  0.45050602224E+03  0.11712360248E+04  0.13403074919E+04  0.50400001928E-02 0. -1.
</event>
<event>
 5   0  0.3557628E-07  0.2795797E+04  0.7818609E-02  0.8304574E-01
       -2   -1    0    0    0  501  0.00000000000E+00  0.00000000000E+00  0.11165864109E+04  0.11165864109E+04  0.25500000920E-02 0. -1.
        2   -1    0    0  501    0  0.00000000000E+00  0.00000000000E+00 -0.17500842538E+04  0.17500842538E+04  0.25500000920E-02 0.  1.
    10030    2    1    2    0    0  0.00000000000E+00  0.00000000000E+00 -0.63349784291E+03  0.28666706647E+04  0.27957970568E+04 0.  0.
        5    1    3    3  502    0 -0.36123209665E+03  0.25539994082E+03 -0.16764034763E+04  0.17338017369E+04  0.46999998093E+01 0.  1.
       -5    1    3    3    0  502  0.36123209665E+03 -0.25539994082E+03  0.10429056334E+04  0.11328689278E+04  0.46999998093E+01 0. -1.
</event>
<event>
 5   0  0.1366235E-07  0.2800424E+04  0.7818609E-02  0.8303137E-01
       -1   -1    0    0    0  501  0.00000000000E+00  0.00000000000E+00  0.14844073620E+04  0.14844073620E+04  0.50400001928E-02 0.  1.
        1   -1    0    0  501    0  0.00000000000E+00  0.00000000000E+00 -0.13207923108E+04  0.13207923108E+04  0.50400001928E-02 0. -1.
    10030    2    1    2    0    0  0.00000000000E+00  0.00000000000E+00  0.16361505117E+03  0.28051996728E+04  0.28004241320E+04 0.  0.
        2    1    3    3  502    0  0.99099169817E+03 -0.68090093763E+03 -0.63698369234E+03  0.13606758824E+04  0.25500000920E-02 0. -1.
       -2    1    3    3    0  502 -0.99099169817E+03  0.68090093763E+03  0.80059874351E+03  0.14445237903E+04  0.25500000920E-02 0.  1.
</event>
<event>
 5   0  0.1374680E-07  0.2799853E+04  0.7818609E-02  0.8303314E-01
        1   -1    0    0  501    0  0.00000000000E+00  0.00000000000E+00  0.90872336852E+03  0.90872336854E+03  0.50400001928E-02 0.  1.
       -1   -1    0    0    0  501  0.00000000000E+00  0.00000000000E+00 -0.21566456281E+04  0.21566456281E+04  0.50400001928E-02 0. -1.
    10030    2    1    2    0    0  0.00000000000E+00  0.00000000000E+00 -0.12479222596E+04  0.30653689967E+04  0.27998530532E+04 0.  0.
        3    1    3    3  502    0 -0.43635215359E+03 -0.33577337456E+03  0.78520615391E+03  0.95900765135E+03  0.10100000352E+00 0.  1.
       -3    1    3    3    0  502  0.43635215359E+03  0.33577337456E+03 -0.20331284135E+04  0.21063613453E+04  0.10100000352E+00 0. -1.
</event>
<event>
 5   0  0.1346049E-07  0.2801481E+04  0.7818609E-02  0.8302809E-01
       -1   -1    0    0    0  501  0.00000000000E+00  0.00000000000E+00  0.99008324150E+03  0.99008324151E+03  0.50400001928E-02 0. -1.
        1   -1    0    0  501    0  0.00000000000E+00  0.00000000000E+00 -0.19817262638E+04  0.19817262638E+04  0.50400001928E-02 0.  1.
    10030    2    1    2    0    0  0.00000000000E+00  0.00000000000E+00 -0.99164302227E+03  0.29718095053E+04  0.28014810105E+04 0.  0.
        1    1    3    3  502    0  0.85179772466E+03  0.10286331751E+04 -0.47731499288E+02  0.13363846260E+04  0.50400001928E-02 0.  1.
       -1    1    3    3    0  502 -0.85179772466E+03 -0.10286331751E+04 -0.94391152299E+03  0.16354248793E+04  0.50400001928E-02 0. -1.
</event>
<event>
 5   0  0.1366235E-07  0.2800016E+04  0.7818609E-02  0.8303263E-01
        1   -1    0    0  501    0  0.00000000000E+00  0.00000000000E+00  0.17377848396E+04  0.17377848396E+04  0.50400001928E-02 0. -1.
       -1   -1    0    0    0  501  0.00000000000E+00  0.00000000000E+00 -0.11278859141E+04  0.11278859141E+04  0.50400001928E-02 0.  1.
    10030    2    1    2    0    0  0.00000000000E+00  0.00000000000E+00  0.60989892554E+03  0.28656707537E+04  0.28000164588E+04 0.  0.
        2    1    3    3  502    0 -0.11129937219E+04  0.67894672246E+02 -0.56145720137E+03  0.12484385850E+04  0.25500000920E-02 0.  1.
       -2    1    3    3    0  502  0.11129937219E+04 -0.67894672246E+02  0.11713561269E+04  0.16172321687E+04  0.25500000920E-02 0. -1.
</event>
<event>
 5   0  0.3502141E-07  0.2800630E+04  0.7818609E-02  0.8303073E-01
       -2   -1    0    0    0  501  0.00000000000E+00  0.00000000000E+00  0.17414540222E+04  0.17414540222E+04  0.25500000920E-02 0.  1.
        2   -1    0    0  501    0  0.00000000000E+00  0.00000000000E+00 -0.11260027868E+04  0.11260027868E+04  0.25500000920E-02 0. -1.
    10030    2    1    2    0    0  0.00000000000E+00  0.00000000000E+00  0.61545123539E+03  0.28674568090E+04  0.28006299877E+04 0.  0.
        3    1    3    3  502    0 -0.24223017029E+03 -0.13784145704E+04  0.25992227139E+03  0.14234682226E+04  0.10100000352E+00 0.  1.
       -3    1    3    3    0  502  0.24223017029E+03  0.13784145704E+04  0.35552896400E+03  0.14439885864E+04  0.10100000352E+00 0. -1.
</event>
<event>
 5   0  0.1366235E-07  0.2800210E+04  0.7818609E-02  0.8303203E-01
       -1   -1    0    0    0  501  0.00000000000E+00  0.00000000000E+00  0.98561060362E+03  0.98561060363E+03  0.50400001928E-02 0.  1.
        1   -1    0    0  501    0  0.00000000000E+00  0.00000000000E+00 -0.19889138565E+04  0.19889138565E+04  0.50400001928E-02 0. -1.
    10030    2    1    2    0    0  0.00000000000E+00  0.00000000000E+00 -0.10033032529E+04  0.29745244601E+04  0.28002104111E+04 0.  0.
        2    1    3    3  502    0  0.83516665646E+02  0.26182380641E+03 -0.19599816294E+04  0.19791550537E+04  0.25500000920E-02 0. -1.
       -2    1    3    3    0  502 -0.83516665646E+02 -0.26182380641E+03  0.95667837655E+03  0.99536940640E+03  0.25500000920E-02 0.  1.
</event>
<event>
 5   0  0.3557628E-07  0.2799945E+04  0.7818609E-02  0.8303285E-01
        2   -1    0    0  501    0  0.00000000000E+00  0.00000000000E+00  0.11613435849E+04  0.11613435849E+04  0.25500000920E-02 0. -1.
       -2   -1    0    0    0  501  0.00000000000E+00  0.00000000000E+00 -0.16876343786E+04  0.16876343786E+04  0.25500000920E-02 0.  1.
    10030    2    1    2    0    0  0.00000000000E+00  0.00000000000E+00 -0.52629079367E+03  0.28489779635E+04  0.27999452560E+04 0.  0.
        5    1    3    3  502    0  0.79476457379E+02 -0.80971785867E+03 -0.14223688289E+04  0.16386319579E+04  0.46999998093E+01 0.  1.
       -5    1    3    3    0  502 -0.79476457379E+02  0.80971785867E+03  0.89607803526E+03  0.12103460056E+04  0.46999998093E+01 0. -1.
</event>
<event>
 5   0  0.3406920E-07  0.2799072E+04  0.7818609E-02  0.8303557E-01
        2   -1    0    0  501    0  0.00000000000E+00  0.00000000000E+00  0.24512092655E+04  0.24512092655E+04  0.25500000920E-02 0. -1.
       -2   -1    0    0    0  501  0.00000000000E+00  0.00000000000E+00 -0.79907542988E+03  0.79907542989E+03  0.25500000920E-02 0.  1.
    10030    2    1    2    0    0  0.00000000000E+00  0.00000000000E+00  0.16521338356E+04  0.32502846954E+04  0.27990720588E+04 0.  0.
        4    1    3    3  502    0 -0.60928684188E+02  0.13893261723E+04  0.64334848799E+03  0.15322657758E+04  0.12699999809E+01 0.  1.
       -4    1    3    3    0  502  0.60928684188E+02 -0.13893261723E+04  0.10087853476E+04  0.17180189196E+04  0.12699999809E+01 0. -1.
</event>
<event>
 5   0  0.1361741E-07  0.2801517E+04  0.7818609E-02  0.8302798E-01
       -1   -1    0    0    0  501  0.00000000000E+00  0.00000000000E+00  0.14378222873E+04  0.14378222873E+04  0.50400001928E-02 0.  1.
        1   -1    0    0  501    0  0.00000000000E+00  0.00000000000E+00 -0.13646500415E+04  0.13646500415E+04  0.50400001928E-02 0. -1.
    10030    2    1    2    0    0  0.00000000000E+00  0.00000000000E+00  0.73172245759E+02  0.28024723288E+04  0.28015169063E+04 0.  0.
        5    1    3    3  502    0  0.69281740798E+03  0.11591048049E+04  0.40897944213E+03  0.14109593132E+04  0.46999998093E+01 0.  1.
       -5    1    3    3    0  502 -0.69281740798E+03 -0.11591048049E+04 -0.33580719637E+03  0.13915130156E+04  0.46999998093E+01 0. -1.
</event>
<event>
 5   0  0.1374680E-07  0.2797135E+04  0.7818609E-02  0.8304158E-01
        1   -1    0    0  501    0  0.00000000000E+00  0.00000000000E+00  0.14608778371E+04  0.14608778371E+04  0.50400001928E-02 0. -1.
       -1   -1    0    0    0  501  0.00000000000E+00  0.00000000000E+00 -0.13389144924E+04  0.13389144924E+04  0.50400001928E-02 0.  1.
    10030    2    1    2    0    0  0.00000000000E+00  0.00000000000E+00  0.12196334464E+03  0.27997923295E+04  0.27971346108E+04 0.  0.
        3    1    3    3  502    0 -0.12984989361E+04 -0.37014129326E+03 -0.30390060956E+03  0.13840013203E+04  0.10100000352E+00 0.  1.
       -3    1    3    3    0  502  0.12984989361E+04  0.37014129326E+03  0.42586395420E+03  0.14157910092E+04  0.10100000352E+00 0. -1.
</event>
<event>
 5   0  0.1346049E-07  0.2799019E+04  0.7818609E-02  0.8303573E-01
        1   -1    0    0  501    0  0.00000000000E+00  0.00000000000E+00  0.21433964939E+04  0.21433964939E+04  0.50400001928E-02 0. -1.
       -1   -1    0    0    0  501  0.00000000000E+00  0.00000000000E+00 -0.91379592672E+03  0.91379592673E+03  0.50400001928E-02 0.  1.
    10030    2    1    2    0    0  0.00000000000E+00  0.00000000000E+00  0.12296005672E+04  0.30571924206E+04  0.27990191035E+04 0.  0.
        1    1    3    3  502    0 -0.10140077272E+03  0.66885257388E+03 -0.72334887077E+03  0.99039359407E+03  0.50400001928E-02 0.  1.
       -1    1    3    3    0  502  0.10140077272E+03 -0.66885257388E+03  0.19529494380E+04  0.20667988266E+04  0.50400001928E-02 0. -1.
</event>
<event>
 5   0  0.1361741E-07  0.2799881E+04  0.7818609E-02  0.8303305E-01
        1   -1    0    0  501    0  0.00000000000E+00  0.00000000000E+00  0.17316495567E+04  0.17316495567E+04  0.50400001928E-02 0. -1.
       -1   -1    0    0    0  501  0.00000000000E+00  0.00000000000E+00 -0.11317726468E+04  0.11317726468E+04  0.50400001928E-02 0.  1.
    10030    2    1    2    0    0  0.00000000000E+00  0.00000000000E+00  0.59987690990E+03  0.28634222035E+04  0.27998811419E+04 0.  0.
        5    1    3    3  502    0  0.60769661864E+03 -0.43473014658E+03 -0.91078896193E+03  0.11780679538E+04  0.46999998093E+01 0.  1.
       -5    1    3    3    0  502 -0.60769661864E+03  0.43473014658E+03  0.15106658718E+04  0.16853542497E+04  0.46999998093E+01 0. -1.
</event>
<event>
 5   0  0.3571498E-07  0.2799967E+04  0.7818609E-02  0.8303279E-01
       -2   -1    0    0    0  501  0.00000000000E+00  0.00000000000E+00  0.15590413011E+04  0.15590413011E+04  0.25500000920E-02 0.  1.
        2   -1    0    0  501    0  0.00000000000E+00  0.00000000000E+00 -0.12571534383E+04  0.12571534383E+04  0.25500000920E-02 0. -1.
    10030    2    1    2    0    0  0.00000000000E+00  0.00000000000E+00  0.30188786283E+03  0.28161947395E+04  0.27999672371E+04 0.  0.
        2    1    3    3  502    0  0.10709438238E+03  0.75105942876E+03  0.13343660741E+04  0.15349567721E+04  0.25500000920E-02 0.  1.
       -2    1    3    3    0  502 -0.10709438238E+03 -0.75105942876E+03 -0.10324782113E+04  0.12812379674E+04  0.25500000920E-02 0. -1.
</event>
<event>
 5   0  0.1366235E-07  0.2800524E+04  0.7818609E-02  0.8303106E-01
       -1   -1    0    0    0  501  0.00000000000E+00  0.00000000000E+00  0.79916543328E+03  0.79916543329E+03  0.50400001928E-02 0. -1.
        1   -1    0    0  501    0  0.00000000000E+00  0.00000000000E+00 -0.24534765996E+04  0.24534765996E+04  0.50400001928E-02 0.  1.
    10030    2    1    2    0    0  0.00000000000E+00  0.00000000000E+00 -0.16543111663E+04  0.32526420329E+04  0.28005240151E+04 0.  0.
        2    1    3    3  502    0 -0.12083181075E+03  0.29267567563E+03  0.75704003527E+03  0.82059063644E+03  0.25500000920E-02 0. -1.
       -2    1    3    3    0  502  0.12083181075E+03 -0.29267567563E+03 -0.24113512016E+04  0.24320513965E+04  0.25500000920E-02 0.  1.
</event>
<event>
 5   0  0.3557628E-07  0.2799529E+04  0.7818609E-02  0.8303415E-01
        2   -1    0    0  501    0  0.00000000000E+00  0.00000000000E+00  0.22599545039E+04  0.22599545039E+04  0.25500000920E-02 0.  1.
       -2   -1    0    0    0  501  0.00000000000E+00  0.00000000000E+00 -0.86698208574E+03  0.86698208574E+03  0.25500000920E-02 0. -1.
    10030    2    1    2    0    0  0.00000000000E+00  0.00000000000E+00  0.13929724181E+04  0.31269365896E+04  0.27995285814E+04 0.  0.
        5    1    3    3  502    0  0.10404077138E+03  0.13883205824E+04  0.85857678403E+03  0.16356756114E+04  0.46999998093E+01 0.  1.
       -5    1    3    3    0  502 -0.10404077138E+03 -0.13883205824E+04  0.53439563411E+03  0.14912609783E+04  0.46999998093E+01 0. -1.
</event>
<event>
 5   0  0.1346049E-07  0.2803573E+04  0.7818609E-02  0.8302160E-01
       -1   -1    0    0    0  501  0.00000000000E+00  0.00000000000E+00  0.97862487007E+03  0.97862487009E+03  0.50400001928E-02 0. -1.
        1   -1    0    0  501    0  0.00000000000E+00  0.00000000000E+00 -0.20079257502E+04  0.20079257502E+04  0.50400001928E-02 0.  1.
    10030    2    1    2    0    0  0.00000000000E+00  0.00000000000E+00 -0.10293008801E+04  0.29865506203E+04  0.28035734886E+04 0.  0.
        1    1    3    3  502    0 -0.10091275585E+03  0.57027634130E+03  0.84522601546E+03  0.10246001693E+04  0.50400001928E-02 0. -1.
       -1    1    3    3    0  502  0.10091275585E+03 -0.57027634130E+03 -0.18745268956E+04  0.19619504510E+04  0.50400001928E-02 0.  1.
</event>
<event>
 5   0  0.3502141E-07  0.2800400E+04  0.7818609E-02  0.8303144E-01
       -2   -1    0    0    0  501  0.00000000000E+00  0.00000000000E+00  0.18938288097E+04  0.18938288097E+04  0.25500000920E-02 0. -1.
        2   -1    0    0  501    0  0.00000000000E+00  0.00000000000E+00 -0.10352358000E+04  0.10352358000E+04  0.25500000920E-02 0.  1.
    10030    2    1    2    0    0  0.00000000000E+00  0.00000000000E+00  0.85859300974E+03  0.29290646097E+04  0.28003995307E+04 0.  0.
        3    1    3    3  502    0 -0.13999861787E+04 -0.89669914114E+00  0.45485843197E+03  0.14720252403E+04  0.10100000352E+00 0. -1.
       -3    1    3    3    0  502  0.13999861787E+04  0.89669914114E+00  0.40373457777E+03  0.14570393694E+04  0.10100000352E+00 0.  1.
</event>
<event>
 5   0  0.3557628E-07  0.2800525E+04  0.7818609E-02  0.8303105E-01
       -2   -1    0    0    0  501  0.00000000000E+00  0.00000000000E+00  0.10463230240E+04  0.10463230240E+04  0.25500000920E-02 0. -1.
        2   -1    0    0  501    0  0.00000000000E+00  0.00000000000E+00 -0.18739295927E+04  0.18739295927E+04  0.25500000920E-02 0.  1.
    10030    2    1    2    0    0  0.00000000000E+00  0.00000000000E+00 -0.82760656877E+03  0.29202526167E+04  0.28005254351E+04 0.  0.
        5    1    3    3  502    0  0.12529550530E+04  0.14303891844E+03 -0.10483903744E+04  0.16399698058E+04  0.46999998093E+01 0. -1.
       -5    1    3    3    0  502 -0.12529550530E+04 -0.14303891844E+03  0.22078380564E+03  0.12802828109E+04  0.46999998093E+01 0.  1.
</event>
<event>
 5   0  0.3557628E-07  0.2795201E+04  0.7818609E-02  0.8304760E-01
        2   -1    0    0  501    0  0.00000000000E+00  0.00000000000E+00  0.16245095907E+04  0.16245095907E+04  0.25500000920E-02 0. -1.
       -2   -1    0    0    0  501  0.00000000000E+00  0.00000000000E+00 -0.12023853227E+04  0.12023853227E+04  0.25500000920E-02 0.  1.
    10030    2    1    2    0    0  0.00000000000E+00  0.00000000000E+00  0.42212426807E+03  0.28268949134E+04  0.27952005212E+04 0.  0.
        5    1    3    3  502    0  0.10485977048E+04 -0.81649597605E+03  0.64844903151E+03  0.14787599744E+04  0.46999998093E+01 0. -1.
       -5    1    3    3    0  502 -0.10485977048E+04  0.81649597605E+03 -0.22632476344E+03  0.13481349391E+04  0.46999998093E+01 0.  1.
</event>
<event>
 5   0  0.3502141E-07  0.2800265E+04  0.7818609E-02  0.8303186E-01
        2   -1    0    0  501    0  0.00000000000E+00  0.00000000000E+00  0.10971244765E+04  0.10971244765E+04  0.25500000920E-02 0.  1.
       -2   -1    0    0    0  501  0.00000000000E+00  0.00000000000E+00 -0.17868265884E+04  0.17868265884E+04  0.25500000920E-02 0. -1.
    10030    2    1    2    0    0  0.00000000000E+00  0.00000000000E+00 -0.68970211181E+03  0.28839510649E+04  0.28002651199E+04 0.  0.
        3    1    3    3  502    0 -0.13498257725E+04  0.15289240872E+03 -0.69404961772E+03  0.15254869999E+04  0.10100000352E+00 0. -1.
       -3    1    3    3    0  502  0.13498257725E+04 -0.15289240872E+03  0.43475059032E+01  0.13584640650E+04  0.10100000352E+00 0.  1.
</event>
<event>
 5   0  0.1346049E-07  0.2800382E+04  0.7818609E-02  0.8303150E-01
       -1   -1    0    0    0  501  0.00000000000E+00  0.00000000000E+00  0.14261333232E+04  0.14261333232E+04  0.50400001928E-02 0. -1.
        1   -1    0    0  501    0  0.00000000000E+00  0.00000000000E+00 -0.13747202193E+04  0.13747202193E+04  0.50400001928E-02 0.  1.
    10030    2    1    2    0    0  0.00000000000E+00  0.00000000000E+00  0.51413103932E+02  0.28008535425E+04  0.28003816274E+04 0.  0.
        1    1    3    3  502    0  0.10887386506E+04 -0.19652364596E+03 -0.83266935095E+03  0.13846702281E+04  0.50400001928E-02 0.  1.
       -1    1    3    3    0  502 -0.10887386506E+04  0.19652364596E+03  0.88408245488E+03  0.14161833143E+04  0.50400001928E-02 0. -1.
</event>
<event>
 5   0  0.1357902E-07  0.2802114E+04  0.7818609E-02  0.8302612E-01
       -1   -1    0    0    0  501  0.00000000000E+00  0.00000000000E+00  0.99801711594E+03  0.99801711596E+03  0.50400001928E-02 0.  1.
        1   -1    0    0  501    0  0.00000000000E+00  0.00000000000E+00 -0.19668612874E+04  0.19668612874E+04  0.50400001928E-02 0. -1.
    10030    2    1    2    0    0  0.00000000000E+00  0.00000000000E+00 -0.96884417148E+03  0.29648784034E+04  0.28021143657E+04 0.  0.
        4    1    3    3  502    0 -0.94602796351E+02  0.12063369749E+04 -0.12316744311E+04  0.17266215866E+04  0.12699999809E+01 0. -1.
       -4    1    3    3    0  502  0.94602796351E+02 -0.12063369749E+04  0.26283025957E+03  0.12382568168E+04  0.12699999809E+01 0.  1.
</event>
<event>
 5   0  0.1361741E-07  0.2799354E+04  0.7818609E-02  0.8303469E-01
        1   -1    0    0  501    0  0.00000000000E+00  0.00000000000E+00  0.20642336824E+04  0.20642336824E+04  0.50400001928E-02 0.  1.
       -1   -1    0    0    0  501  0.00000000000E+00  0.00000000000E+00 -0.94906705900E+03  0.94906705901E+03  0.50400001928E-02 0. -1.
    10030    2    1    2    0    0  0.00000000000E+00  0.00000000000E+00  0.11151666234E+04  0.30133007414E+04  0.27993543470E+04 0.  0.
        5    1    3    3  502    0 -0.69586005017E+02  0.91941384125E+02  0.20591040051E+04  0.20623352841E+04  0.46999998093E+01 0.  1.
       -5    1    3    3    0  502  0.69586005017E+02 -0.91941384125E+02 -0.94393738176E+03  0.95096545726E+03  0.46999998093E+01 0. -1.
</event>
<event>
 5   0  0.3571498E-07  0.2798576E+04  0.7818609E-02  0.8303711E-01
       -2   -1    0    0    0  501  0.00000000000E+00  0.00000000000E+00  0.11208008272E+04  0.11208008272E+04  0.25500000920E-02 0. -1.
        2   -1    0    0  501    0  0.00000000000E+00  0.00000000000E+00 -0.17469715787E+04  0.17469715787E+04  0.25500000920E-02 0.  1.
    10030    2    1    2    0    0  0.00000000000E+00  0.00000000000E+00 -0.62617075146E+03  0.28677724059E+04  0.27985762027E+04 0.  0.
        2    1    3    3  502    0  0.13445684663E+04 -0.12932512589E+01 -0.71014655169E+03  0.15205834926E+04  0.25500000920E-02 0.  1.
       -2    1    3    3    0  502 -0.13445684663E+04  0.12932512589E+01  0.83975800223E+02  0.13471889133E+04  0.25500000920E-02 0. -1.
</event>
<event>
 5   0  0.1374680E-07  0.2815158E+04  0.7818609E-02  0.8298578E-01
        1   -1    0    0  501    0  0.00000000000E+00  0.00000000000E+00  0.34993756528E+04  0.34993756528E+04  0.50400001928E-02 0.  1.
       -1   -1    0    0    0  501  0.00000000000E+00  0.00000000000E+00 -0.56618041409E+03  0.56618041412E+03  0.50400001928E-02 0. -1.
    10030    2    1    2    0    0  0.00000000000E+00  0.00000000000E+00  0.29331952387E+04  0.40655560669E+04  0.28151575133E+04 0.  0.
        3    1    3    3  502    0  0.11494695800E+04  0.31890951298E+03  0.25456657664E+04  0.28112982405E+04  0.10100000352E+00 0.  1.
       -3    1    3    3    0  502 -0.11494695800E+04 -0.31890951298E+03  0.38752947228E+03  0.12542578264E+04  0.10100000352E+00 0. -1.
</event>
<event>
 5   0  0.1357902E-07  0.2800911E+04  0.7818609E-02  0.8302985E-01
       -1   -1    0    0    0  501  0.00000000000E+00  0.00000000000E+00  0.13601723519E+04  0.13601723519E+04  0.50400001928E-02 0.  1.
        1   -1    0    0  501    0  0.00000000000E+00  0.00000000000E+00 -0.14419320161E+04  0.14419320161E+04  0.50400001928E-02 0. -1.
    10030    2    1    2    0    0  0.00000000000E+00  0.00000000000E+00 -0.81759664269E+02  0.28021043680E+04  0.28009113243E+04 0.  0.
        4    1    3    3  502    0 -0.97563115819E+02  0.74567580973E+03  0.11410307988E+04  0.13665664534E+04  0.12699999809E+01 0.  1.
       -4    1    3    3    0  502  0.97563115819E+02 -0.74567580973E+03 -0.12227904631E+04  0.14355379146E+04  0.12699999809E+01 0. -1.
</event>
<event>
 5   0  0.3406920E-07  0.2801963E+04  0.7818609E-02  0.8302659E-01
        2   -1    0    0  501    0  0.00000000000E+00  0.00000000000E+00  0.14928449153E+04  0.14928449153E+04  0.25500000920E-02 0. -1.
       -2   -1    0    0    0  501  0.00000000000E+00  0.00000000000E+00 -0.13147712991E+04  0.13147712991E+04  0.25500000920E-02 0.  1.
    10030    2    1    2    0    0  0.00000000000E+00  0.00000000000E+00  0.17807361617E+03  0.28076162144E+04  0.28019633464E+04 0.  0.
        4    1    3    3  502    0 -0.39183119830E+03  0.54260332761E+03 -0.11442175255E+04  0.13255887061E+04  0.12699999809E+01 0.  1.
       -4    1    3    3    0  502  0.39183119830E+03 -0.54260332761E+03  0.13222911417E+04  0.14820275083E+04  0.12699999809E+01 0. -1.
</event>
<event>
 5   0  0.1357902E-07  0.2793270E+04  0.7818609E-02  0.8305361E-01
        1   -1    0    0  501    0  0.00000000000E+00  0.00000000000E+00  0.12136444547E+04  0.12136444547E+04  0.50400001928E-02 0. -1.
       -1   -1    0    0    0  501  0.00000000000E+00  0.00000000000E+00 -0.16072163616E+04  0.16072163616E+04  0.50400001928E-02 0.  1.
    10030    2    1    2    0    0  0.00000000000E+00  0.00000000000E+00 -0.39357190689E+03  0.28208608164E+04  0.27932699296E+04 0.  0.
        4    1    3    3  502    0 -0.13381851916E+03 -0.13123582648E+04  0.26643424932E+03  0.13458010378E+04  0.12699999809E+01 0. -1.
       -4    1    3    3    0  502  0.13381851916E+03  0.13123582648E+04 -0.66000615621E+03  0.14750597786E+04  0.12699999809E+01 0.  1.
</event>
<event>
 5   0  0.1357902E-07  0.2796198E+04  0.7818609E-02  0.8304450E-01
        1   -1    0    0  501    0  0.00000000000E+00  0.00000000000E+00  0.16932654386E+04  0.16932654386E+04  0.50400001928E-02 0.  1.
       -1   -1    0    0    0  501  0.00000000000E+00  0.00000000000E+00 -0.11543849831E+04  0.11543849831E+04  0.50400001928E-02 0. -1.
    10030    2    1    2    0    0  0.00000000000E+00  0.00000000000E+00  0.53888045555E+03  0.28476504217E+04  0.27961975572E+04 0.  0.
        4    1    3    3  502    0  0.10289886760E+04  0.70190745470E+03 -0.37721379113E+03  0.13014544277E+04  0.12699999809E+01 0. -1.
       -4    1    3    3    0  502 -0.10289886760E+04 -0.70190745470E+03  0.91609424667E+03  0.15461959940E+04  0.12699999809E+01 0.  1.
</event>
<event>
 5   0  0.1346049E-07  0.2797346E+04  0.7818609E-02  0.8304093E-01
        1   -1    0    0  501    0  0.00000000000E+00  0.00000000000E+00  0.15305648176E+04  0.15305648176E+04  0.50400001928E-02 0.  1.
       -1   -1    0    0    0  501  0.00000000000E+00  0.00000000000E+00 -0.12781467773E+04  0.12781467773E+04  0.50400001928E-02 0. -1.
    10030    2    1    2    0    0  0.00000000000E+00  0.00000000000E+00  0.25241804032E+03  0.28087115948E+04  0.27973462346E+04 0.  0.
        1    1    3    3  502    0 -0.37205904582E+03  0.79948106632E+03 -0.96387622573E+03  0.13063901743E+04  0.50400001928E-02 0. -1.
       -1    1    3    3    0  502  0.37205904582E+03 -0.79948106632E+03  0.12162942660E+04  0.15023214205E+04  0.50400001928E-02 0.  1.
</event>
<event>
 5   0  0.3522569E-07  0.2797168E+04  0.7818609E-02  0.8304148E-01
       -2   -1    0    0    0  501  0.00000000000E+00  0.00000000000E+00  0.16994558371E+04  0.16994558371E+04  0.25500000920E-02 0.  1.
        2   -1    0    0  501    0  0.00000000000E+00  0.00000000000E+00 -0.11509785391E+04  0.11509785391E+04  0.25500000920E-02 0. -1.
    10030    2    1    2    0    0  0.00000000000E+00  0.00000000000E+00  0.54847729800E+03  0.28504343762E+04  0.27971679940E+04 0.  0.
        1    1    3    3  502    0  0.44141241365E+03  0.10094516905E+03 -0.10742144982E+04  0.11657493874E+04  0.50400001928E-02 0. -1.
       -1    1    3    3    0  502 -0.44141241365E+03 -0.10094516905E+03  0.16226917962E+04  0.16846849888E+04  0.50400001928E-02 0.  1.
</event>
<event>
 5   0  0.1374680E-07  0.2798461E+04  0.7818609E-02  0.8303746E-01
       -1   -1    0    0    0  501  0.00000000000E+00  0.00000000000E+00  0.14905508000E+04  0.14905508000E+04  0.50400001928E-02 0. -1.
        1   -1    0    0  501    0  0.00000000000E+00  0.00000000000E+00 -0.13135054784E+04  0.13135054784E+04  0.50400001928E-02 0.  1.
    10030    2    1    2    0    0  0.00000000000E+00  0.00000000000E+00  0.17704532164E+03  0.28040562784E+04  0.27984614642E+04 0.  0.
        3    1    3    3  502    0  0.33706958285E+03 -0.12256162911E+04  0.67458124856E+03  0.14390312950E+04  0.10100000352E+00 0. -1.
       -3    1    3    3    0  502 -0.33706958285E+03  0.12256162911E+04 -0.49753592692E+03  0.13650249835E+04  0.10100000352E+00 0.  1.
</event>
<event>
 5   0  0.3571498E-07  0.2799846E+04  0.7818609E-02  0.8303316E-01
        2   -1    0    0  501    0  0.00000000000E+00  0.00000000000E+00  0.20393289534E+04  0.20393289534E+04  0.25500000920E-02 0. -1.
       -2   -1    0    0    0  501  0.00000000000E+00  0.00000000000E+00 -0.96099500786E+03  0.96099500786E+03  0.25500000920E-02 0.  1.
    10030    2    1    2    0    0  0.00000000000E+00  0.00000000000E+00  0.10783339455E+04  0.30003239613E+04  0.27998463841E+04 0.  0.
        2    1    3    3  502    0 -0.33500422528E+03 -0.75526255993E+03  0.17501901308E+04  0.19354107728E+04  0.25500000920E-02 0. -1.
       -2    1    3    3    0  502  0.33500422528E+03  0.75526255993E+03 -0.67185618525E+03  0.10649131885E+04  0.25500000920E-02 0.  1.
</event>
<event>
 5   0  0.3502141E-07  0.2799887E+04  0.7818609E-02  0.8303303E-01
        2   -1    0    0  501    0  0.00000000000E+00  0.00000000000E+00  0.23117010211E+04  0.23117010211E+04  0.25500000920E-02 0.  1.
       -2   -1    0    0    0  501  0.00000000000E+00  0.00000000000E+00 -0.84779203038E+03  0.84779203038E+03  0.25500000920E-02 0. -1.
    10030    2    1    2    0    0  0.00000000000E+00  0.00000000000E+00  0.14639089907E+04  0.31594930515E+04  0.27998869280E+04 0.  0.
        3    1    3    3  502    0 -0.81247691997E+03  0.11288626051E+04  0.55213913737E+03  0.14964314765E+04  0.10100000352E+00 0. -1.
       -3    1    3    3    0  502  0.81247691997E+03 -0.11288626051E+04  0.91176985338E+03  0.16630615750E+04  0.10100000352E+00 0.  1.
</event>
<event>
 5   0  0.1361741E-07  0.2801111E+04  0.7818609E-02  0.8302923E-01
        1   -1    0    0  501    0  0.00000000000E+00  0.00000000000E+00  0.13185610107E+04  0.13185610107E+04  0.50400001928E-02 0.  1.
       -1   -1    0    0    0  501  0.00000000000E+00  0.00000000000E+00 -0.14876489819E+04  0.14876489819E+04  0.50400001928E-02 0. -1.
    10030    2    1    2    0    0  0.00000000000E+00  0.00000000000E+00 -0.16908797124E+03  0.28062099926E+04  0.28011111689E+04 0.  0.
        5    1    3    3  502    0 -0.15848570233E+03  0.42593407166E+03 -0.14117181677E+04  0.14830737764E+04  0.46999998093E+01 0. -1.
       -5    1    3    3    0  502  0.15848570233E+03 -0.42593407166E+03  0.12426301965E+04  0.13231362161E+04  0.46999998093E+01 0.  1.
</event>
<event>
 5   0  0.3406920E-07  0.2814316E+04  0.7818609E-02  0.8298838E-01
        2   -1    0    0  501    0  0.00000000000E+00  0.00000000000E+00  0.11742386525E+04  0.11742386525E+04  0.25500000920E-02 0.  1.
       -2   -1    0    0    0  501  0.00000000000E+00  0.00000000000E+00 -0.16862782574E+04  0.16862782574E+04  0.25500000920E-02 0. -1.
    10030    2    1    2    0    0  0.00000000000E+00  0.00000000000E+00 -0.51203960489E+03  0.28605169099E+04  0.28143156246E+04 0.  0.
        4    1    3    3  502    0  0.58562777196E+03 -0.85411327422E+03  0.71231213124E+03  0.12569246428E+04  0.12699999809E+01 0.  1.
       -4    1    3    3    0  502 -0.58562777196E+03  0.85411327422E+03 -0.12243517361E+04  0.16035922671E+04  0.12699999809E+01 0. -1.
</event>
<event>
 5   0  0.3406920E-07  0.2801034E+04  0.7818609E-02  0.8302947E-01
        2   -1    0    0  501    0  0.00000000000E+00  0.00000000000E+00  0.19911069514E+04  0.19911069514E+04  0.25500000920E-02 0. -1.
       -2   -1    0    0    0  501  0.00000000000E+00  0.00000000000E+00 -0.98510450838E+03  0.98510450838E+03  0.25500000920E-02 0.  1.
    10030    2    1    2    0    0  0.00000000000E+00  0.00000000000E+00  0.10060024430E+04  0.29762114597E+04  0.28010344050E+04 0.  0.
        4    1    3    3  502    0  0.28332906922E+03  0.11933063511E+04  0.12214476223E+04  0.17309509861E+04  0.12699999809E+01 0. -1.
       -4    1    3    3    0  502 -0.28332906922E+03 -0.11933063511E+04 -0.21544517933E+03  0.12452604737E+04  0.12699999809E+01 0.  1.
</event>
<event>
 5   0  0.3571498E-07  0.2797911E+04  0.7818609E-02  0.8303917E-01
       -2   -1    0    0    0  501  0.00000000000E+00  0.00000000000E+00  0.89167146466E+03  0.89167146467E+03  0.25500000920E-02 0. -1.
        2   -1    0    0  501    0  0.00000000000E+00  0.00000000000E+00 -0.21948410748E+04  0.21948410748E+04  0.25500000920E-02 0.  1.
    10030    2    1    2    0    0  0.00000000000E+00  0.00000000000E+00 -0.13031696102E+04  0.30865125395E+04  0.27979114753E+04 0.  0.
        2    1    3    3  502    0  0.33220703591E+03  0.27766038822E+03  0.81590174044E+03  0.92366252277E+03  0.25500000920E-02 0. -1.
       -2    1    3    3    0  502 -0.33220703591E+03 -0.27766038822E+03 -0.21190713506E+04  0.21628500167E+04  0.25500000920E-02 0.  1.
</event>
<event>
 5   0  0.1361741E-07  0.2815228E+04  0.7818609E-02  0.8298556E-01
        1   -1    0    0  501    0  0.00000000000E+00  0.00000000000E+00  0.13350222319E+04  0.13350222319E+04  0.50400001928E-02 0. -1.
       -1   -1    0    0    0  501  0.00000000000E+00  0.00000000000E+00 -0.14841530912E+04  0.14841530912E+04  0.50400001928E-02 0.  1.
    10030    2    1    2    0    0  0.00000000000E+00  0.00000000000E+00 -0.14913085934E+03  0.28191753231E+04  0.28152281416E+04 0.  0.
        5    1    3    3  502    0 -0.10420690050E+04 -0.70969544326E+03 -0.70136622285E+03  0.14427446419E+04  0.46999998093E+01 0.  1.
       -5    1    3    3    0  502  0.10420690050E+04  0.70969544326E+03  0.55223536351E+03  0.13764306811E+04  0.46999998093E+01 0. -1.
</event>
<event>
 5   0  0.3502141E-07  0.2798873E+04  0.7818609E-02  0.8303618E-01
       -2   -1    0    0    0  501  0.00000000000E+00  0.00000000000E+00  0.10637000405E+04  0.10637000405E+04  0.25500000920E-02 0.  1.
        2   -1    0    0  501    0  0.00000000000E+00  0.00000000000E+00 -0.18411418360E+04  0.18411418360E+04  0.25500000920E-02 0. -1.
    10030    2    1    2    0    0  0.00000000000E+00  0.00000000000E+00 -0.77744179546E+03  0.29048418765E+04  0.27988730915E+04 0.  0.
        3    1    3    3  502    0 -0.53425501369E+03 -0.10507480892E+04 -0.11715481015E+04  0.16619340934E+04  0.10100000352E+00 0. -1.
       -3    1    3    3    0  502  0.53425501369E+03  0.10507480892E+04  0.39410630600E+03  0.12429077831E+04  0.10100000352E+00 0.  1.
</event>
<event>
 5   0  0.1173363E-07  0.2800910E+04  0.7818609E-02  0.8302986E-01
        3   -1    0    0  501    0  0.00000000000E+00  0.00000000000E+00  0.11281154741E+04  0.11281154786E+04  0.10100000352E+00 0. -1.
       -3   -1    0    0    0  501  0.00000000000E+00  0.00000000000E+00 -0.17385400257E+04  0.17385400286E+04  0.10100000352E+00 0.  1.
    10030    2    1    2    0    0  0.00000000000E+00  0.00000000000E+00 -0.61042455156E+03  0.28666555072E+04  0.28009097922E+04 0.  0.
        3    1    3    3  502    0  0.13410856940E+04 -0.40293644908E+03 -0.32581652196E+03  0.14377152141E+04  0.10100000352E+00 0.  1.
       -3    1    3    3    0  502 -0.13410856940E+04  0.40293644908E+03 -0.28460802959E+03  0.14289402931E+04  0.10100000352E+00 0. -1.
</event>
<event>
 5   0  0.1374680E-07  0.2800406E+04  0.7818609E-02  0.8303142E-01
        1   -1    0    0  501    0  0.00000000000E+00  0.00000000000E+00  0.14537046249E+04  0.14537046249E+04  0.50400001928E-02 0.  1.
       -1   -1    0    0    0  501  0.00000000000E+00  0.00000000000E+00 -0.13486704882E+04  0.13486704882E+04  0.50400001928E-02 0. -1.
    10030    2    1    2    0    0  0.00000000000E+00  0.00000000000E+00  0.10503413669E+03  0.28023751131E+04  0.28004060607E+04 0.  0.
        3    1    3    3  502    0  0.76912748787E+03 -0.10438351621E+04  0.58149027477E+03  0.14210136833E+04  0.10100000352E+00 0.  1.
       -3    1    3    3    0  502 -0.76912748787E+03  0.10438351621E+04 -0.47645613808E+03  0.13813614299E+04  0.10100000352E+00 0. -1.
</event>
<event>
 5   0  0.1173363E-07  0.2799991E+04  0.7818609E-02  0.8303271E-01
        3   -1    0    0  501    0  0.00000000000E+00  0.00000000000E+00  0.98483742229E+03  0.98483742747E+03  0.10100000352E+00 0.  1.
       -3   -1    0    0    0  501  0.00000000000E+00  0.00000000000E+00 -0.19901636249E+04  0.19901636274E+04  0.10100000352E+00 0. -1.
    10030    2    1    2    0    0  0.00000000000E+00  0.00000000000E+00 -0.10053262026E+04  0.29750010549E+04  0.27999911613E+04 0.  0.
        5    1    3    3  502    0 -0.84948764691E+01 -0.70509838211E+03  0.78236461590E+03  0.10532579805E+04  0.46999998093E+01 0.  1.
       -5    1    3    3    0  502  0.84948764691E+01  0.70509838211E+03 -0.17876908185E+04  0.19217430744E+04  0.46999998093E+01 0. -1.
</event>
<event>
 5   0  0.3406920E-07  0.2798335E+04  0.7818609E-02  0.8303786E-01
       -2   -1    0    0    0  501  0.00000000000E+00  0.00000000000E+00  0.90965342916E+03  0.90965342916E+03  0.25500000920E-02 0.  1.
        2   -1    0    0  501    0  0.00000000000E+00  0.00000000000E+00 -0.21521047864E+04  0.21521047864E+04  0.25500000920E-02 0. -1.
    10030    2    1    2    0    0  0.00000000000E+00  0.00000000000E+00 -0.12424513572E+04  0.30617582155E+04  0.27983348612E+04 0.  0.
        4    1    3    3  502    0  0.69900900120E+03  0.98721319777E+03  0.14815048204E+03  0.12186688065E+04  0.12699999809E+01 0. -1.
       -4    1    3    3    0  502 -0.69900900120E+03 -0.98721319777E+03 -0.13906018392E+04  0.18430894091E+04  0.12699999809E+01 0.  1.
</event>
<event>
 5   0  0.1357902E-07  0.2799647E+04  0.7818609E-02  0.8303378E-01
       -1   -1    0    0    0  501  0.00000000000E+00  0.00000000000E+00  0.11193612618E+04  0.11193612618E+04  0.50400001928E-02 0. -1.
        1   -1    0    0  501    0  0.00000000000E+00  0.00000000000E+00 -0.17505572156E+04  0.17505572156E+04  0.50400001928E-02 0.  1.
    10030    2    1    2    0    0  0.00000000000E+00  0.00000000000E+00 -0.63119595380E+03  0.28699184774E+04  0.27996470732E+04 0.  0.
        4    1    3    3  502    0 -0.49046522662E+03 -0.25757997236E+03 -0.16334002269E+04  0.17247902756E+04  0.12699999809E+01 0.  1.
       -4    1    3    3    0  502  0.49046522662E+03  0.25757997236E+03  0.10022042731E+04  0.11451282018E+04  0.12699999809E+01 0. -1.
</event>
<event>
 5   0  0.1374680E-07  0.2800834E+04  0.7818609E-02  0.8303010E-01
        1   -1    0    0  501    0  0.00000000000E+00  0.00000000000E+00  0.78446279961E+03  0.78446279963E+03  0.50400001928E-02 0. -1.
       -1   -1    0    0    0  501  0.00000000000E+00  0.00000000000E+00 -0.25000131505E+04  0.25000131505E+04  0.50400001928E-02 0.  1.
    10030    2    1    2    0    0  0.00000000000E+00  0.00000000000E+00 -0.17155503509E+04  0.32844759501E+04  0.28008336724E+04 0.  0.
        3    1    3    3  502    0  0.92839133236E+03  0.42951664110E+03 -0.19793681193E+04  0.22280693825E+04  0.10100000352E+00 0.  1.
       -3    1    3    3    0  502 -0.92839133236E+03 -0.42951664110E+03  0.26381776848E+03  0.10564065676E+04  0.10100000352E+00 0. -1.
</event>
<event>
 5   0  0.3571498E-07  0.2799769E+04  0.7818609E-02  0.8303340E-01
        2   -1    0    0  501    0  0.00000000000E+00  0.00000000000E+00  0.12081831718E+04  0.12081831718E+04  0.25500000920E-02 0. -1.
       -2   -1    0    0    0  501  0.00000000000E+00  0.00000000000E+00 -0.16220027624E+04  0.16220027624E+04  0.25500000920E-02 0.  1.
    10030    2    1    2    0    0  0.00000000000E+00  0.00000000000E+00 -0.41381959068E+03  0.28301859342E+04  0.27997688777E+04 0.  0.
        2    1    3    3  502    0 -0.10438679514E+04  0.24952968203E+02 -0.11494523755E+04  0.15529081474E+04  0.25500000920E-02 0.  1.
       -2    1    3    3    0  502  0.10438679514E+04 -0.24952968203E+02  0.73563278482E+03  0.12772777868E+04  0.25500000920E-02 0. -1.
</event>
<event>
 5   0  0.1374680E-07  0.2800637E+04  0.7818609E-02  0.8303071E-01
       -1   -1    0    0    0  501  0.00000000000E+00  0.00000000000E+00  0.12970033439E+04  0.12970033439E+04  0.50400001928E-02 0. -1.
        1   -1    0    0  501    0  0.00000000000E+00  0.00000000000E+00 -0.15118629756E+04  0.15118629756E+04  0.50400001928E-02 0.  1.
    10030    2    1    2    0    0  0.00000000000E+00  0.00000000000E+00 -0.21485963170E+03  0.28088663195E+04  0.28006365954E+04 0.  0.
        3    1    3    3  502    0 -0.29777085613E+03 -0.81215992514E+03 -0.12118559942E+04  0.14889144326E+04  0.10100000352E+00 0.  1.
       -3    1    3    3    0  502  0.29777085613E+03  0.81215992514E+03  0.99699636248E+03  0.13199518869E+04  0.10100000352E+00 0. -1.
</event>
<event>
 5   0  0.3406920E-07  0.2802842E+04  0.7818609E-02  0.8302387E-01
        2   -1    0    0  501    0  0.00000000000E+00  0.00000000000E+00  0.86290466917E+03  0.86290466917E+03  0.25500000920E-02 0. -1.
       -2   -1    0    0    0  501  0.00000000000E+00  0.00000000000E+00 -0.22760109512E+04  0.22760109512E+04  0.25500000920E-02 0.  1.
    10030    2    1    2    0    0  0.00000000000E+00  0.00000000000E+00 -0.14131062820E+04  0.31389156204E+04  0.28028417557E+04 0.  0.
        4    1    3    3  502    0  0.11353112369E+04 -0.20012257474E+03 -0.15989690719E+04  0.19712139294E+04  0.12699999809E+01 0.  1.
       -4    1    3    3    0  502 -0.11353112369E+04  0.20012257474E+03  0.18586278990E+03  0.11677016910E+04  0.12699999809E+01 0. -1.
</event>
<event>
 5   0  0.3522569E-07  0.2801229E+04  0.7818609E-02  0.8302887E-01
       -2   -1    0    0    0  501  0.00000000000E+00  0.00000000000E+00  0.11152604973E+04  0.11152604973E+04  0.25500000920E-02 0.  1.
        2   -1    0    0  501    0  0.00000000000E+00  0.00000000000E+00 -0.17589804397E+04  0.17589804397E+04  0.25500000920E-02 0. -1.
    10030    2    1    2    0    0  0.00000000000E+00  0.00000000000E+00 -0.64371994245E+03  0.28742409370E+04  0.28012293015E+04 0.  0.
        1    1    3    3  502    0 -0.32827730987E+03 -0.12384344249E+04 -0.90250311677E+03  0.15671623058E+04  0.50400001928E-02 0. -1.
       -1    1    3    3    0  502  0.32827730987E+03  0.12384344249E+04  0.25878317432E+03  0.13070786312E+04  0.50400001928E-02 0.  1.
</event>
<event>
 5   0  0.3522569E-07  0.2797988E+04  0.7818609E-02  0.8303893E-01
       -2   -1    0    0    0  501  0.00000000000E+00  0.00000000000E+00  0.18933418182E+04  0.18933418182E+04  0.25500000920E-02 0. -1.
        2   -1    0    0  501    0  0.00000000000E+00  0.00000000000E+00 -0.10337194895E+04  0.10337194895E+04  0.25500000920E-02 0.  1.
    10030    2    1    2    0    0  0.00000000000E+00  0.00000000000E+00  0.85962232869E+03  0.29270613077E+04  0.27979880899E+04 0.  0.
        1    1    3    3  502    0  0.49954791263E+03 -0.45714838054E+03 -0.85085606072E+03  0.10874230064E+04  0.50400001928E-02 0.  1.
       -1    1    3    3    0  502 -0.49954791263E+03  0.45714838054E+03  0.17104783894E+04  0.18396383013E+04  0.50400001928E-02 0. -1.
</event>
<event>
 5   0  0.3502141E-07  0.2800755E+04  0.7818609E-02  0.8303034E-01
       -2   -1    0    0    0  501  0.00000000000E+00  0.00000000000E+00  0.17644667414E+04  0.17644667414E+04  0.25500000920E-02 0.  1.
        2   -1    0    0  501    0  0.00000000000E+00  0.00000000000E+00 -0.11114159374E+04  0.11114159374E+04  0.25500000920E-02 0. -1.
    10030    2    1    2    0    0  0.00000000000E+00  0.00000000000E+00  0.65305080405E+03  0.28758826788E+04  0.28007545108E+04 0.  0.
        3    1    3    3  502    0 -0.80884476089E+03  0.41305735309E+03  0.14210498515E+04  0.16864841875E+04  0.10100000352E+00 0.  1.
       -3    1    3    3    0  502  0.80884476089E+03 -0.41305735309E+03 -0.76799904741E+03  0.11893984913E+04  0.10100000352E+00 0. -1.
</event>
<event>
 5   0  0.3557628E-07  0.2800462E+04  0.7818609E-02  0.8303125E-01
        2   -1    0    0  501    0  0.00000000000E+00  0.00000000000E+00  0.20070917694E+04  0.20070917694E+04  0.25500000920E-02 0.  1.
       -2   -1    0    0    0  501  0.00000000000E+00  0.00000000000E+00 -0.97685936845E+03  0.97685936845E+03  0.25500000920E-02 0. -1.
    10030    2    1    2    0    0  0.00000000000E+00  0.00000000000E+00  0.10302324010E+04  0.29839511379E+04  0.28004616750E+04 0.  0.
        5    1    3    3  502    0 -0.24428049905E+03 -0.11965352204E+04 -0.21478897198E+03  0.12399701159E+04  0.46999998093E+01 0. -1.
       -5    1    3    3    0  502  0.24428049905E+03  0.11965352204E+04  0.12450213730E+04  0.17439810220E+04  0.46999998093E+01 0.  1.
</event>
<event>
 5   0  0.1374680E-07  0.2800085E+04  0.7818609E-02  0.8303242E-01
        1   -1    0    0  501    0  0.00000000000E+00  0.00000000000E+00  0.13145492670E+04  0.13145492670E+04  0.50400001928E-02 0.  1.
       -1   -1    0    0    0  501  0.00000000000E+00  0.00000000000E+00 -0.14910957154E+04  0.14910957154E+04  0.50400001928E-02 0. -1.
    10030    2    1    2    0    0  0.00000000000E+00  0.00000000000E+00 -0.17654644842E+03  0.28056449823E+04  0.28000848413E+04 0.  0.
        3    1    3    3  502    0  0.89722168425E+03  0.11909770876E+03 -0.11585364367E+04  0.14701692760E+04  0.10100000352E+00 0. -1.
       -3    1    3    3    0  502 -0.89722168425E+03 -0.11909770876E+03  0.98198998824E+03  0.13354757063E+04  0.10100000352E+00 0.  1.
</event>
<event>
 5   0  0.1357902E-07  0.2799989E+04  0.7818609E-02  0.8303272E-01
        1   -1    0    0  501    0  0.00000000000E+00  0.00000000000E+00  0.16435961726E+04  0.16435961726E+04  0.50400001928E-02 0.  1.
       -1   -1    0    0    0  501  0.00000000000E+00  0.00000000000E+00 -0.11924973884E+04  0.11924973885E+04  0.50400001928E-02 0. -1.
    10030    2    1    2    0    0  0.00000000000E+00  0.00000000000E+00  0.45109878410E+03  0.28360935610E+04  0.27999886739E+04 0.  0.
        4    1    3    3  502    0  0.79024717118E+03 -0.10510352095E+04  0.71217852704E+03  0.14954482507E+04  0.12699999809E+01 0.  1.
       -4    1    3    3    0  502 -0.79024717118E+03  0.10510352095E+04 -0.26107974294E+03  0.13406453104E+04  0.12699999809E+01 0. -1.
</event>
<event>
 5   0  0.3406920E-07  0.2804120E+04  0.7818609E-02  0.8301990E-01
       -2   -1    0    0    0  501  0.00000000000E+00  0.00000000000E+00  0.14851819683E+04  0.14851819683E+04  0.25500000920E-02 0. -1.
        2   -1    0    0  501    0  0.00000000000E+00  0.00000000000E+00 -0.13235899898E+04  0.13235899898E+04  0.25500000920E-02 0.  1.
    10030    2    1    2    0    0  0.00000000000E+00  0.00000000000E+00  0.16159197858E+03  0.28087719581E+04  0.28041198165E+04 0.  0.
        4    1    3    3  502    0  0.60555980460E+03  0.63187531277E+02 -0.11842621134E+04  0.13316056876E+04  0.12699999809E+01 0.  1.
       -4    1    3    3    0  502 -0.60555980460E+03 -0.63187531277E+02  0.13458540920E+04  0.14771662705E+04  0.12699999809E+01 0. -1.
</event>
<event>
 5   0  0.1374680E-07  0.2802500E+04  0.7818609E-02  0.8302493E-01
       -1   -1    0    0    0  501  0.00000000000E+00  0.00000000000E+00  0.11460174382E+04  0.11460174382E+04  0.50400001928E-02 0. -1.
        1   -1    0    0  501    0  0.00000000000E+00  0.00000000000E+00 -0.17133265691E+04  0.17133265691E+04  0.50400001928E-02 0.  1.
    10030    2    1    2    0    0  0.00000000000E+00  0.00000000000E+00 -0.56730913095E+03  0.28593440073E+04  0.28025004018E+04 0.  0.
        3    1    3    3  502    0 -0.45597367085E+03 -0.76050191382E+03 -0.13906627344E+04  0.16493083401E+04  0.10100000352E+00 0.  1.
       -3    1    3    3    0  502  0.45597367085E+03  0.76050191382E+03  0.82335360349E+03  0.12100356672E+04  0.10100000352E+00 0. -1.
</event>
<event>
 5   0  0.1366235E-07  0.2797665E+04  0.7818609E-02  0.8303994E-01
       -1   -1    0    0    0  501  0.00000000000E+00  0.00000000000E+00  0.22742130743E+04  0.22742130743E+04  0.50400001928E-02 0. -1.
        1   -1    0    0  501    0  0.00000000000E+00  0.00000000000E+00 -0.86039992114E+03  0.86039992115E+03  0.50400001928E-02 0.  1.
    10030    2    1    2    0    0  0.00000000000E+00  0.00000000000E+00  0.14138131531E+04  0.31346129954E+04  0.27976652765E+04 0.  0.
        2    1    3    3  502    0 -0.10610355821E+04 -0.75433352158E+03  0.12803230581E+04  0.18259361164E+04  0.25500000920E-02 0. -1.
       -2    1    3    3    0  502  0.10610355821E+04  0.75433352158E+03  0.13349009504E+03  0.13086768790E+04  0.25500000920E-02 0.  1.
</event>
<event>
 5   0  0.1361741E-07  0.2804999E+04  0.7818609E-02  0.8301718E-01
        1   -1    0    0  501    0  0.00000000000E+00  0.00000000000E+00  0.17620866684E+04  0.17620866684E+04  0.50400001928E-02 0.  1.
       -1   -1    0    0    0  501  0.00000000000E+00  0.00000000000E+00 -0.11162926564E+04  0.11162926564E+04  0.50400001928E-02 0. -1.
    10030    2    1    2    0    0  0.00000000000E+00  0.00000000000E+00  0.64579401196E+03  0.28783793248E+04  0.28049986866E+04 0.  0.
        5    1    3    3  502    0  0.11444526015E+04  0.57476728663E+03 -0.26377002984E+03  0.13075648778E+04  0.46999998093E+01 0. -1.
       -5    1    3    3    0  502 -0.11444526015E+04 -0.57476728663E+03  0.90956404180E+03  0.15708144471E+04  0.46999998093E+01 0.  1.
</event>
<event>
 5   0  0.1374680E-07  0.2797843E+04  0.7818609E-02  0.8303938E-01
       -1   -1    0    0    0  501  0.00000000000E+00  0.00000000000E+00  0.12577877625E+04  0.12577877625E+04  0.50400001928E-02 0. -1.
        1   -1    0    0  501    0  0.00000000000E+00  0.00000000000E+00 -0.15558916694E+04  0.15558916694E+04  0.50400001928E-02 0.  1.
    10030    2    1    2    0    0  0.00000000000E+00  0.00000000000E+00 -0.29810390694E+03  0.28136794319E+04  0.27978430989E+04 0.  0.
        3    1    3    3  502    0 -0.11759458006E+04  0.34629057693E+03  0.52871810510E+03  0.13350312859E+04  0.10100000352E+00 0. -1.
       -3    1    3    3    0  502  0.11759458006E+04 -0.34629057693E+03 -0.82682201204E+03  0.14786481459E+04  0.10100000352E+00 0.  1.
</event>
<event>
 5   0  0.1361741E-07  0.2799599E+04  0.7818609E-02  0.8303393E-01
        1   -1    0    0  501    0  0.00000000000E+00  0.00000000000E+00  0.16617197181E+04  0.16617197181E+04  0.50400001928E-02 0. -1.
       -1   -1    0    0    0  501  0.00000000000E+00  0.00000000000E+00 -0.11791633213E+04  0.11791633213E+04  0.50400001928E-02 0.  1.
    10030    2    1    2    0    0  0.00000000000E+00  0.00000000000E+00  0.48255639683E+03  0.28408830394E+04  0.27995992155E+04 0.  0.
        5    1    3    3  502    0 -0.96783186135E+03 -0.90001861092E+03  0.70925654459E+03  0.14999329811E+04  0.46999998093E+01 0. -1.
       -5    1    3    3    0  502  0.96783186135E+03  0.90001861092E+03 -0.22670014776E+03  0.13409500583E+04  0.46999998093E+01 0.  1.
</event>
<event>
 5   0  0.1366235E-07  0.2799027E+04  0.7818609E-02  0.8303570E-01
       -1   -1    0    0    0  501  0.00000000000E+00  0.00000000000E+00  0.17617736176E+04  0.17617736176E+04  0.50400001928E-02 0. -1.
        1   -1    0    0  501    0  0.00000000000E+00  0.00000000000E+00 -0.11117421917E+04  0.11117421917E+04  0.50400001928E-02 0.  1.
    10030    2    1    2    0    0  0.00000000000E+00  0.00000000000E+00  0.65003142587E+03  0.28735158093E+04  0.27990270187E+04 0.  0.
        2    1    3    3  502    0 -0.12271269202E+03 -0.70271291776E+03 -0.91109305101E+03  0.11571319705E+04  0.25500000920E-02 0.  1.
       -2    1    3    3    0  502  0.12271269202E+03  0.70271291776E+03  0.15611244769E+04  0.17163838387E+04  0.25500000920E-02 0. -1.
</event>
<event>
 5   0  0.1366235E-07  0.2800079E+04  0.7818609E-02  0.8303244E-01
        1   -1    0    0  501    0  0.00000000000E+00  0.00000000000E+00  0.11280571888E+04  0.11280571888E+04  0.50400001928E-02 0.  1.
       -1   -1    0    0    0  501  0.00000000000E+00  0.00000000000E+00 -0.17375980814E+04  0.17375980814E+04  0.50400001928E-02 0. -1.
    10030    2    1    2    0    0  0.00000000000E+00  0.00000000000E+00 -0.60954089264E+03  0.28656552703E+04  0.28000785753E+04 0.  0.
        2    1    3    3  502    0  0.19359938218E+03  0.38885978956E+03  0.10573458013E+04  0.11430978962E+04  0.25500000920E-02 0.  1.
       -2    1    3    3    0  502 -0.19359938218E+03 -0.38885978956E+03 -0.16668866939E+04  0.17225573741E+04  0.25500000920E-02 0. -1.
</event>
<event>
 5   0  0.3557628E-07  0.2798755E+04  0.7818609E-02  0.8303655E-01
       -2   -1    0    0    0  501  0.00000000000E+00  0.00000000000E+00  0.13683960667E+04  0.13683960667E+04  0.25500000920E-02 0. -1.
        2   -1    0    0  501    0  0.00000000000E+00  0.00000000000E+00 -0.14310607675E+04  0.14310607675E+04  0.25500000920E-02 0.  1.
    10030    2    1    2    0    0  0.00000000000E+00  0.00000000000E+00 -0.62664700817E+02  0.27994568342E+04  0.27987553844E+04 0.  0.
        5    1    3    3  502    0  0.11496050700E+03  0.12495763940E+04 -0.65082492409E+03  0.14135955060E+04  0.46999998093E+01 0.  1.
       -5    1    3    3    0  502 -0.11496050700E+03 -0.12495763940E+04  0.58816022327E+03  0.13858613282E+04  0.46999998093E+01 0. -1.
</event>
<event>
 5   0  0.1374680E-07  0.2800366E+04  0.7818609E-02  0.8303155E-01
        1   -1    0    0  501    0  0.00000000000E+00  0.00000000000E+00  0.19915634079E+04  0.19915634079E+04  0.50400001928E-02 0. -1.
       -1   -1    0    0    0  501  0.00000000000E+00  0.00000000000E+00 -0.98440855768E+03  0.98440855769E+03  0.50400001928E-02 0.  1.
    10030    2    1    2    0    0  0.00000000000E+00  0.00000000000E+00  0.10071548502E+04  0.29759719656E+04  0.28003657346E+04 0.  0.
        3    1    3    3  502    0  0.12820352748E+04  0.10197259282E+03 -0.84763082421E+02  0.12888745656E+04  0.10100000352E+00 0. -1.
       -3    1    3    3    0  502 -0.12820352748E+04 -0.10197259282E+03  0.10919179327E+04  0.16870974000E+04  0.10100000352E+00 0.  1.
</event>
<event>
 5   0  0.3557628E-07  0.2798912E+04  0.7818609E-02  0.8303606E-01
        2   -1    0    0  501    0  0.00000000000E+00  0.00000000000E+00  0.14312902011E+04  0.14312902011E+04  0.25500000920E-02 0. -1.
       -2   -1    0    0    0  501  0.00000000000E+00  0.00000000000E+00 -0.13683297638E+04  0.13683297638E+04  0.25500000920E-02 0.  1.
    10030    2    1    2    0    0  0.00000000000E+00  0.00000000000E+00  0.62960437330E+02  0.27996199649E+04  0.27989119191E+04 0.  0.
        5    1    3    3  502    0 -0.88191005584E+03 -0.97216280053E+03  0.51697815403E+03  0.14107283080E+04  0.46999998093E+01 0. -1.
       -5    1    3    3    0  502  0.88191005584E+03  0.97216280053E+03 -0.45401771670E+03  0.13888916568E+04  0.46999998093E+01 0.  1.
</event>
<event>
 5   0  0.1374680E-07  0.2800472E+04  0.7818609E-02  0.8303122E-01
        1   -1    0    0  501    0  0.00000000000E+00  0.00000000000E+00  0.98365874418E+03  0.98365874420E+03  0.50400001928E-02 0. -1.
       -1   -1    0    0    0  501  0.00000000000E+00  0.00000000000E+00 -0.19932321284E+04  0.19932321284E+04  0.50400001928E-02 0.  1.
    10030    2    1    2    0    0  0.00000000000E+00  0.00000000000E+00 -0.10095733842E+04  0.29768908726E+04  0.28004715405E+04 0.  0.
        3    1    3    3  502    0  0.13979925855E+04 -0.15571966540E+02 -0.42221133031E+03  0.14604410885E+04  0.10100000352E+00 0. -1.
       -3    1    3    3    0  502 -0.13979925855E+04  0.15571966540E+02 -0.58736205390E+03  0.15164497841E+04  0.10100000352E+00 0.  1.
</event>
<event>
 5   0  0.3406920E-07  0.2785820E+04  0.7818609E-02  0.8307684E-01
       -2   -1    0    0    0  501  0.00000000000E+00  0.00000000000E+00  0.15044941277E+04  0.15044941277E+04  0.25500000920E-02 0. -1.
        2   -1    0    0  501    0  0.00000000000E+00  0.00000000000E+00 -0.12896013983E+04  0.12896013983E+04  0.25500000920E-02 0.  1.
    10030    2    1    2    0    0  0.00000000000E+00  0.00000000000E+00  0.21489272943E+03  0.27940955261E+04  0.27858196143E+04 0.  0.
        4    1    3    3  502    0  0.82968435282E+03  0.16705658445E+03  0.12170385019E+04  0.14823860346E+04  0.12699999809E+01 0. -1.
       -4    1    3    3    0  502 -0.82968435282E+03 -0.16705658445E+03 -0.10021457724E+04  0.13117094914E+04  0.12699999809E+01 0.  1.
</event>
<event>
 5   0  0.1357902E-07  0.2800058E+04  0.7818609E-02  0.8303250E-01
        1   -1    0    0  501    0  0.00000000000E+00  0.00000000000E+00  0.14549588344E+04  0.14549588344E+04  0.50400001928E-02 0. -1.
       -1   -1    0    0    0  501  0.00000000000E+00  0.00000000000E+00 -0.13471731891E+04  0.13471731891E+04  0.50400001928E-02 0.  1.
    10030    2    1    2    0    0  0.00000000000E+00  0.00000000000E+00  0.10778564530E+03  0.28021320235E+04  0.28000582372E+04 0.  0.
        4    1    3    3  502    0 -0.81565463484E+03  0.95793588147E+03 -0.56068437891E+03  0.13774259407E+04  0.12699999809E+01 0.  1.
       -4    1    3    3    0  502  0.81565463484E+03 -0.95793588147E+03  0.66847002421E+03  0.14247060828E+04  0.12699999809E+01 0. -1.
</event>
<event>
 5   0  0.3406920E-07  0.2799468E+04  0.7818609E-02  0.8303434E-01
        2   -1    0    0  501    0  0.00000000000E+00  0.00000000000E+00  0.12282472808E+04  0.12282472808E+04  0.25500000920E-02 0. -1.
       -2   -1    0    0    0  501  0.00000000000E+00  0.00000000000E+00 -0.15951630183E+04  0.15951630183E+04  0.25500000920E-02 0.  1.
    10030    2    1    2    0    0  0.00000000000E+00  0.00000000000E+00 -0.36691573752E+03  0.28234102992E+04  0.27994675492E+04 0.  0.
        4    1    3    3  502    0  0.12303709082E+04 -0.18355508496E+02 -0.85632463184E+03  0.14991474192E+04  0.12699999809E+01 0.  1.
       -4    1    3    3    0  502 -0.12303709082E+04  0.18355508496E+02  0.48940889432E+03  0.13242628800E+04  0.12699999809E+01 0. -1.
</event>
<event>
 5   0  0.3571498E-07  0.2800157E+04  0.7818609E-02  0.8303219E-01
       -2   -1    0    0    0  501  0.00000000000E+00  0.00000000000E+00  0.17767122756E+04  0.17767122756E+04  0.25500000920E-02 0.  1.
        2   -1    0    0  501    0  0.00000000000E+00  0.00000000000E+00 -0.11032852335E+04  0.11032852335E+04  0.25500000920E-02 0. -1.
    10030    2    1    2    0    0  0.00000000000E+00  0.00000000000E+00  0.67342704208E+03  0.28799975091E+04  0.28001574369E+04 0.  0.
        2    1    3    3  502    0  0.12134152164E+03 -0.46708022243E+03  0.16884675165E+04  0.17560780886E+04  0.25500000920E-02 0.  1.
       -2    1    3    3    0  502 -0.12134152164E+03  0.46708022243E+03 -0.10150404744E+04  0.11239194205E+04  0.25500000920E-02 0. -1.
</event>
<event>
 5   0  0.1346049E-07  0.2799976E+04  0.7818609E-02  0.8303276E-01
       -1   -1    0    0    0  501  0.00000000000E+00  0.00000000000E+00  0.14976118624E+04  0.14976118624E+04  0.50400001928E-02 0. -1.
        1   -1    0    0  501    0  0.00000000000E+00  0.00000000000E+00 -0.13087280463E+04  0.13087280463E+04  0.50400001928E-02 0.  1.
    10030    2    1    2    0    0  0.00000000000E+00  0.00000000000E+00  0.18888381608E+03  0.28063399087E+04  0.27999761762E+04 0.  0.
        1    1    3    3  502    0 -0.54040174811E+03  0.80031462434E+03 -0.92148360563E+03  0.13347919624E+04  0.50400001928E-02 0.  1.
       -1    1    3    3    0  502  0.54040174811E+03 -0.80031462434E+03  0.11103674217E+04  0.14715479464E+04  0.50400001928E-02 0. -1.
</event>
<event>
 5   0  0.1346049E-07  0.2799666E+04  0.7818609E-02  0.8303372E-01
        1   -1    0    0  501    0  0.00000000000E+00  0.00000000000E+00  0.13508833964E+04  0.13508833964E+04  0.50400001928E-02 0.  1.
       -1   -1    0    0    0  501  0.00000000000E+00  0.00000000000E+00 -0.14505558321E+04  0.14505558321E+04  0.50400001928E-02 0. -1.
    10030    2    1    2    0    0  0.00000000000E+00  0.00000000000E+00 -0.99672435708E+02  0.28014392285E+04  0.27996655437E+04 0.  0.
        1    1    3    3  502    0 -0.14766654649E+03  0.48826001417E+03 -0.13542450447E+04  0.14471291896E+04  0.50400001928E-02 0. -1.
       -1    1    3    3    0  502  0.14766654649E+03 -0.48826001417E+03  0.12545726090E+04  0.13543100389E+04  0.50400001928E-02 0.  1.
</event>
<event>
 5   0  0.3557628E-07  0.2799118E+04  0.7818609E-02  0.8303542E-01
        2   -1    0    0  501    0  0.00000000000E+00  0.00000000000E+00  0.15219954921E+04  0.15219954921E+04  0.25500000920E-02 0. -1.
       -2   -1    0    0    0  501  0.00000000000E+00  0.00000000000E+00 -0.12869720624E+04  0.12869720624E+04  0.25500000920E-02 0.  1.
    10030    2    1    2    0    0  0.00000000000E+00  0.00000000000E+00  0.23502342967E+03  0.28089675545E+04  0.27991182021E+04 0.  0.
        5    1    3    3  502    0 -0.35664254734E+03 -0.10264457481E+04  0.10026350393E+04  0.14785411365E+04  0.46999998093E+01 0. -1.
       -5    1    3    3    0  502  0.35664254734E+03  0.10264457481E+04 -0.76761160962E+03  0.13304264179E+04  0.46999998093E+01 0.  1.
</event>
<event>
 5   0  0.3502141E-07  0.2800469E+04  0.7818609E-02  0.8303123E-01
       -2   -1    0    0    0  501  0.00000000000E+00  0.00000000000E+00  0.90613767226E+03  0.90613767227E+03  0.25500000920E-02 0. -1.
        2   -1    0    0  501    0  0.00000000000E+00  0.00000000000E+00 -0.21637510293E+04  0.21637510293E+04  0.25500000920E-02 0.  1.
    10030    2    1    2    0    0  0.00000000000E+00  0.00000000000E+00 -0.12576133570E+04  0.30698887015E+04  0.28004687615E+04 0.  0.
        3    1    3    3  502    0  0.75716292471E+03  0.17208622733E+03  0.64851803603E+03  0.10116743633E+04  0.10100000352E+00 0. -1.
       -3    1    3    3    0  502 -0.75716292471E+03 -0.17208622733E+03 -0.19061313930E+04  0.20582143382E+04  0.10100000352E+00 0.  1.
</event>
<event>
 5   0  0.3557628E-07  0.2795533E+04  0.7818609E-02  0.8304656E-01
       -2   -1    0    0    0  501  0.00000000000E+00  0.00000000000E+00  0.16582927577E+04  0.16582927577E+04  0.25500000920E-02 0.  1.
        2   -1    0    0  501    0  0.00000000000E+00  0.00000000000E+00 -0.11781704338E+04  0.11781704338E+04  0.25500000920E-02 0. -1.
    10030    2    1    2    0    0  0.00000000000E+00  0.00000000000E+00  0.48012232392E+03  0.28364631914E+04  0.27955332211E+04 0.  0.
        5    1    3    3  502    0  0.21798023130E+03  0.12714400784E+04  0.78613626287E+03  0.15106646113E+04  0.46999998093E+01 0.  1.
       -5    1    3    3    0  502 -0.21798023130E+03 -0.12714400784E+04 -0.30601393895E+03  0.13257985801E+04  0.46999998093E+01 0. -1.
</event>
<event>
 5   0  0.1366235E-07  0.2807532E+04  0.7818609E-02  0.8300934E-01
       -1   -1    0    0    0  501  0.00000000000E+00  0.00000000000E+00  0.21526486647E+04  0.21526486647E+04  0.50400001928E-02 0.  1.
        1   -1    0    0  501    0  0.00000000000E+00  0.00000000000E+00 -0.91541107513E+03  0.91541107515E+03  0.50400001928E-02 0. -1.
    10030    2    1    2    0    0  0.00000000000E+00  0.00000000000E+00  0.12372375895E+04  0.30680597398E+04  0.28075316052E+04 0.  0.
        2    1    3    3  502    0 -0.30988654961E+02  0.94208671169E+03 -0.51813650718E+03  0.10756175478E+04  0.25500000920E-02 0. -1.
       -2    1    3    3    0  502  0.30988654961E+02 -0.94208671169E+03  0.17553740967E+04  0.19924421920E+04  0.25500000920E-02 0.  1.
</event>
<event>
 5   0  0.3406920E-07  0.2803985E+04  0.7818609E-02  0.8302032E-01
        2   -1    0    0  501    0  0.00000000000E+00  0.00000000000E+00  0.23989762437E+04  0.23989762437E+04  0.25500000920E-02 0. -1.
       -2   -1    0    0    0  501  0.00000000000E+00  0.00000000000E+00 -0.81934264602E+03  0.81934264602E+03  0.25500000920E-02 0.  1.
    10030    2    1    2    0    0  0.00000000000E+00  0.00000000000E+00  0.15796335977E+04  0.32183188897E+04  0.28039854088E+04 0.  0.
        4    1    3    3  502    0 -0.14452814948E+03  0.83937155513E+02  0.23875004023E+04  0.23933436059E+04  0.12699999809E+01 0. -1.
       -4    1    3    3    0  502  0.14452814948E+03 -0.83937155513E+02 -0.80786680460E+03  0.82497528384E+03  0.12699999809E+01 0.  1.
</event>
<event>
 5   0  0.1346049E-07  0.2800883E+04  0.7818609E-02  0.8302994E-01
        1   -1    0    0  501    0  0.00000000000E+00  0.00000000000E+00  0.77356659740E+03  0.77356659741E+03  0.50400001928E-02 0.  1.
       -1   -1    0    0    0  501  0.00000000000E+00  0.00000000000E+00 -0.25353175846E+04  0.25353175846E+04  0.50400001928E-02 0. -1.
    10030    2    1    2    0    0  0.00000000000E+00  0.00000000000E+00 -0.17617509872E+04  0.33088841820E+04  0.28008834301E+04 0.  0.
        1    1    3    3  502    0 -0.51062120001E+03 -0.59042569922E+03 -0.22544711005E+04  0.23857863398E+04  0.50400001928E-02 0. -1.
       -1    1    3    3    0  502  0.51062120001E+03  0.59042569922E+03  0.49272011330E+03  0.92309784220E+03  0.50400001928E-02 0.  1.
</event>
<event>
 5   0  0.3502141E-07  0.2801906E+04  0.7818609E-02  0.8302677E-01
       -2   -1    0    0    0  501  0.00000000000E+00  0.00000000000E+00  0.17573968895E+04  0.17573968895E+04  0.25500000920E-02 0.  1.
        2   -1    0    0  501    0  0.00000000000E+00  0.00000000000E+00 -0.11168046401E+04  0.11168046401E+04  0.25500000920E-02 0. -1.
    10030    2    1    2    0    0  0.00000000000E+00  0.00000000000E+00  0.64059224942E+03  0.28742015295E+04  0.28019057804E+04 0.  0.
        3    1    3    3  502    0 -0.94543692048E+03  0.39191805686E+03  0.13016508689E+04  0.16558217684E+04  0.10100000352E+00 0.  1.
       -3    1    3    3    0  502  0.94543692048E+03 -0.39191805686E+03 -0.66105861947E+03  0.12183797612E+04  0.10100000352E+00 0. -1.
</event>
<event>
 5   0  0.1346049E-07  0.2797809E+04  0.7818609E-02  0.8303949E-01
        1   -1    0    0  501    0  0.00000000000E+00  0.00000000000E+00  0.21678214282E+04  0.21678214282E+04  0.50400001928E-02 0.  1.
       -1   -1    0    0    0  501  0.00000000000E+00  0.00000000000E+00 -0.90271894080E+03  0.90271894082E+03  0.50400001928E-02 0. -1.
    10030    2    1    2    0    0  0.00000000000E+00  0.00000000000E+00  0.12651024874E+04  0.30705403690E+04  0.27978087594E+04 0.  0.
        1    1    3    3  502    0  0.43637557516E+03  0.79787090535E+03 -0.53404094892E+03  0.10546190589E+04  0.50400001928E-02 0. -1.
       -1    1    3    3    0  502 -0.43637557516E+03 -0.79787090535E+03  0.17991434363E+04  0.20159213101E+04  0.50400001928E-02 0.  1.
</event>
<event>
 5   0  0.3557628E-07  0.2806188E+04  0.7818609E-02  0.8301350E-01
       -2   -1    0    0    0  501  0.00000000000E+00  0.00000000000E+00  0.11872174846E+04  0.11872174846E+04  0.25500000920E-02 0. -1.
        2   -1    0    0  501    0  0.00000000000E+00  0.00000000000E+00 -0.16582244231E+04  0.16582244231E+04  0.25500000920E-02 0.  1.
    10030    2    1    2    0    0  0.00000000000E+00  0.00000000000E+00 -0.47100693845E+03  0.28454419077E+04  0.28061881823E+04 0.  0.
        5    1    3    3  502    0  0.58760177831E+03  0.75338016894E+03  0.80638781633E+03  0.12502563454E+04  0.46999998093E+01 0. -1.
       -5    1    3    3    0  502 -0.58760177831E+03 -0.75338016894E+03 -0.12773947548E+04  0.15951855624E+04  0.46999998093E+01 0.  1.
</event>
<event>
 5   0  0.1357902E-07  0.2804345E+04  0.7818609E-02  0.8301921E-01
       -1   -1    0    0    0  501  0.00000000000E+00  0.00000000000E+00  0.10004858848E+04  0.10004858849E+04  0.50400001928E-02 0. -1.
        1   -1    0    0  501    0  0.00000000000E+00  0.00000000000E+00 -0.19651328234E+04  0.19651328234E+04  0.50400001928E-02 0.  1.
    10030    2    1    2    0    0  0.00000000000E+00  0.00000000000E+00 -0.96464693859E+03  0.29656187083E+04  0.28043449515E+04 0.  0.
        4    1    3    3  502    0 -0.57457928554E+03 -0.10223163499E+03 -0.18305922588E+04  0.19213699002E+04  0.12699999809E+01 0.  1.
       -4    1    3    3    0  502  0.57457928554E+03  0.10223163499E+03  0.86594532024E+03  0.10442488081E+04  0.12699999809E+01 0. -1.
</event>
<event>
 5   0  0.3571498E-07  0.2800420E+04  0.7818609E-02  0.8303138E-01
        2   -1    0    0  501    0  0.00000000000E+00  0.00000000000E+00  0.77576126293E+03  0.77576126294E+03  0.25500000920E-02 0. -1.
       -2   -1    0    0    0  501  0.00000000000E+00  0.00000000000E+00 -0.25273088821E+04  0.25273088821E+04  0.25500000920E-02 0.  1.
    10030    2    1    2    0    0  0.00000000000E+00  0.00000000000E+00 -0.17515476192E+04  0.33030701450E+04  0.28004202043E+04 0.  0.
        2    1    3    3  502    0 -0.76214236991E+03 -0.26263550007E+03 -0.22261492050E+04  0.23676103313E+04  0.25500000920E-02 0.  1.
       -2    1    3    3    0  502  0.76214236991E+03  0.26263550007E+03  0.47460158582E+03  0.93545981376E+03  0.25500000920E-02 0. -1.
</event>
<event>
 5   0  0.3502141E-07  0.2800856E+04  0.7818609E-02  0.8303003E-01
       -2   -1    0    0    0  501  0.00000000000E+00  0.00000000000E+00  0.81412501034E+03  0.81412501034E+03  0.25500000920E-02 0.  1.
        2   -1    0    0  501    0  0.00000000000E+00  0.00000000000E+00 -0.24089649255E+04  0.24089649255E+04  0.25500000920E-02 0. -1.
    10030    2    1    2    0    0  0.00000000000E+00  0.00000000000E+00 -0.15948399152E+04  0.32230899359E+04  0.28008560084E+04 0.  0.
        3    1    3    3  502    0  0.20292362283E+03 -0.12869586528E+03  0.79022462801E+03  0.82595132747E+03  0.10100000352E+00 0.  1.
       -3    1    3    3    0  502 -0.20292362283E+03  0.12869586528E+03 -0.23850645432E+04  0.23971386084E+04  0.10100000352E+00 0. -1.
</event>
<event>
 5   0  0.1361741E-07  0.2799983E+04  0.7818609E-02  0.8303274E-01
        1   -1    0    0  501    0  0.00000000000E+00  0.00000000000E+00  0.26891025510E+04  0.26891025510E+04  0.50400001928E-02 0. -1.
       -1   -1    0    0    0  501  0.00000000000E+00  0.00000000000E+00 -0.72885905148E+03  0.72885905150E+03  0.50400001928E-02 0.  1.
    10030    2    1    2    0    0  0.00000000000E+00  0.00000000000E+00  0.19602434995E+04  0.34179616025E+04  0.27999833819E+04 0.  0.
        5    1    3    3  502    0  0.27644163724E+03  0.87969485081E+03 -0.30578349683E+03  0.97149814528E+03  0.46999998093E+01 0.  1.
       -5    1    3    3    0  502 -0.27644163724E+03 -0.87969485081E+03  0.22660269963E+04  0.24464634572E+04  0.46999998093E+01 0. -1.
</event>
<event>
 5   0  0.1173363E-07  0.2800853E+04  0.7818609E-02  0.8303003E-01
        4   -1    0    0  501    0  0.00000000000E+00  0.00000000000E+00  0.11786142727E+04  0.11786149570E+04  0.12699999809E+01 0.  1.
       -4   -1    0    0    0  501  0.00000000000E+00  0.00000000000E+00 -0.16639823381E+04  0.16639828228E+04  0.12699999809E+01 0. -1.
    10030    2    1    2    0    0  0.00000000000E+00  0.00000000000E+00 -0.48536806542E+03  0.28425977797E+04  0.28008534375E+04 0.  0.
        1    1    3    3  502    0  0.28259970213E+03  0.11481415599E+04  0.51890220700E+03  0.12912595145E+04  0.50400001928E-02 0.  1.
       -1    1    3    3    0  502 -0.28259970213E+03 -0.11481415599E+04 -0.10042702724E+04  0.15513382653E+04  0.50400001928E-02 0. -1.
</event>
<event>
 5   0  0.3406920E-07  0.2800769E+04  0.7818609E-02  0.8303030E-01
       -2   -1    0    0    0  501  0.00000000000E+00  0.00000000000E+00  0.11699277762E+04  0.11699277762E+04  0.25500000920E-02 0.  1.
        2   -1    0    0  501    0  0.00000000000E+00  0.00000000000E+00 -0.16762370837E+04  0.16762370837E+04  0.25500000920E-02 0. -1.
    10030    2    1    2    0    0  0.00000000000E+00  0.00000000000E+00 -0.50630930756E+03  0.28461648599E+04  0.28007686971E+04 0.  0.
        4    1    3    3  502    0 -0.16908333769E+03 -0.11044159865E+04 -0.11110843187E+04  0.15757010575E+04  0.12699999809E+01 0. -1.
       -4    1    3    3    0  502  0.16908333769E+03  0.11044159865E+04  0.60477501114E+03  0.12704638024E+04  0.12699999809E+01 0.  1.
</event>
<event>
 5   0  0.3571498E-07  0.2799365E+04  0.7818609E-02  0.8303466E-01
        2   -1    0    0  501    0  0.00000000000E+00  0.00000000000E+00  0.23621822756E+04  0.23621822756E+04  0.25500000920E-02 0.  1.
       -2   -1    0    0    0  501  0.00000000000E+00  0.00000000000E+00 -0.82936476359E+03  0.82936476359E+03  0.25500000920E-02 0. -1.
    10030    2    1    2    0    0  0.00000000000E+00  0.00000000000E+00  0.15328175120E+04  0.31915470392E+04  0.27993647455E+04 0.  0.
        2    1    3    3  502    0 -0.46524525776E+03  0.12972574553E+04  0.48765404234E+03  0.14618948390E+04  0.25500000920E-02 0. -1.
       -2    1    3    3    0  502  0.46524525776E+03 -0.12972574553E+04  0.10451634696E+04  0.17296522002E+04  0.25500000920E-02 0.  1.
</event>
<event>
 5   0  0.1366235E-07  0.2800284E+04  0.7818609E-02  0.8303180E-01
        1   -1    0    0  501    0  0.00000000000E+00  0.00000000000E+00  0.15446398052E+04  0.15446398052E+04  0.50400001928E-02 0.  1.
       -1   -1    0    0    0  501  0.00000000000E+00  0.00000000000E+00 -0.12691616162E+04  0.12691616162E+04  0.50400001928E-02 0. -1.
    10030    2    1    2    0    0  0.00000000000E+00  0.00000000000E+00  0.27547818900E+03  0.28138014214E+04  0.28002839511E+04 0.  0.
        2    1    3    3  502    0 -0.10239036223E+04  0.35813329805E+03  0.10273145107E+04  0.14939923664E+04  0.25500000920E-02 0.  1.
       -2    1    3    3    0  502  0.10239036223E+04 -0.35813329805E+03 -0.75183632171E+03  0.13198090550E+04  0.25500000920E-02 0. -1.
</event>
<event>
 5   0  0.3406920E-07  0.2801377E+04  0.7818609E-02  0.8302841E-01
        2   -1    0    0  501    0  0.00000000000E+00  0.00000000000E+00  0.11679850057E+04  0.11679850057E+04  0.25500000920E-02 0. -1.
       -2   -1    0    0    0  501  0.00000000000E+00  0.00000000000E+00 -0.16797544471E+04  0.16797544471E+04  0.25500000920E-02 0.  1.
    10030    2    1    2    0    0  0.00000000000E+00  0.00000000000E+00 -0.51176944138E+03  0.28477394528E+04  0.28013768097E+04 0.  0.
        4    1    3    3  502    0  0.13419020680E+04 -0.50656073451E+02  0.14902793258E+03  0.13511025629E+04  0.12699999809E+01 0. -1.
       -4    1    3    3    0  502 -0.13419020680E+04  0.50656073451E+02 -0.66079737396E+03  0.14966368899E+04  0.12699999809E+01 0.  1.
</event>
<event>
 5   0  0.3557628E-07  0.2801293E+04  0.7818609E-02  0.8302867E-01
       -2   -1    0    0    0  501  0.00000000000E+00  0.00000000000E+00  0.88658798910E+03  0.88658798910E+03  0.25500000920E-02 0. -1.
        2   -1    0    0  501    0  0.00000000000E+00  0.00000000000E+00 -0.22127640442E+04  0.22127640442E+04  0.25500000920E-02 0.  1.
    10030    2    1    2    0    0  0.00000000000E+00  0.00000000000E+00 -0.13261760551E+04  0.30993520333E+04  0.28012925762E+04 0.  0.
        5    1    3    3  502    0 -0.10765454896E+04  0.86776430730E+03 -0.41612796802E+03  0.14440047299E+04  0.46999998093E+01 0.  1.
       -5    1    3    3    0  502  0.10765454896E+04 -0.86776430730E+03 -0.91004808709E+03  0.16553473034E+04  0.46999998093E+01 0. -1.
</event>
<event>
 5   0  0.3406920E-07  0.2791100E+04  0.7818609E-02  0.8306037E-01
       -2   -1    0    0    0  501  0.00000000000E+00  0.00000000000E+00  0.86490295354E+03  0.86490295355E+03  0.25500000920E-02 0. -1.
        2   -1    0    0  501    0  0.00000000000E+00  0.00000000000E+00 -0.22517671860E+04  0.22517671860E+04  0.25500000920E-02 0.  1.
    10030    2    1    2    0    0  0.00000000000E+00  0.00000000000E+00 -0.13868642324E+04  0.31166701395E+04  0.27911002059E+04 0.  0.
        4    1    3    3  502    0  0.43333091239E+03 -0.84374160574E+03 -0.18364993820E+04  0.20669802055E+04  0.12699999809E+01 0.  1.
       -4    1    3    3    0  502 -0.43333091239E+03  0.84374160574E+03  0.44963514960E+03  0.10496899340E+04  0.12699999809E+01 0. -1.
</event>
<event>
 5   0  0.3571498E-07  0.2799261E+04  0.7818609E-02  0.8303498E-01
       -2   -1    0    0    0  501  0.00000000000E+00  0.00000000000E+00  0.12026432851E+04  0.12026432851E+04  0.25500000920E-02 0.  1.
        2   -1    0    0  501    0  0.00000000000E+00  0.00000000000E+00 -0.16288837855E+04  0.16288837855E+04  0.25500000920E-02 0. -1.
    10030    2    1    2    0    0  0.00000000000E+00  0.00000000000E+00 -0.42624050046E+03  0.28315270706E+04  0.27992614360E+04 0.  0.
        2    1    3    3  502    0  0.72149484404E+02  0.39752352001E+03 -0.15686169332E+04  0.16198115878E+04  0.25500000920E-02 0. -1.
       -2    1    3    3    0  502 -0.72149484404E+02 -0.39752352001E+03  0.11423764327E+04  0.12117154827E+04  0.25500000920E-02 0.  1.
</event>
<event>
 5   0  0.3557628E-07  0.2800187E+04  0.7818609E-02  0.8303210E-01
        2   -1    0    0  501    0  0.00000000000E+00  0.00000000000E+00  0.21560282199E+04  0.21560282199E+04  0.25500000920E-02 0. -1.
       -2   -1    0    0    0  501  0.00000000000E+00  0.00000000000E+00 -0.90920070112E+03  0.90920070112E+03  0.25500000920E-02 0.  1.
    10030    2    1    2    0    0  0.00000000000E+00  0.00000000000E+00  0.12468275188E+04  0.30652289210E+04  0.28001874003E+04 0.  0.
        5    1    3    3  502    0 -0.56559342737E+03  0.11822144824E+04  0.84123495648E+02  0.13132501133E+04  0.46999998093E+01 0.  1.
       -5    1    3    3    0  502  0.56559342737E+03 -0.11822144824E+04  0.11627040232E+04  0.17519788078E+04  0.46999998093E+01 0. -1.
</event>
<event>
 5   0  0.1346049E-07  0.2799790E+04  0.7818609E-02  0.8303334E-01
       -1   -1    0    0    0  501  0.00000000000E+00  0.00000000000E+00  0.82773874347E+03  0.82773874348E+03  0.50400001928E-02 0. -1.
        1   -1    0    0  501    0  0.00000000000E+00  0.00000000000E+00 -0.23675417217E+04  0.23675417217E+04  0.50400001928E-02 0.  1.
    10030    2    1    2    0    0  0.00000000000E+00  0.00000000000E+00 -0.15398029783E+04  0.31952804652E+04  0.27997899992E+04 0.  0.
        1    1    3    3  502    0  0.10824906249E+04  0.92685120840E+02  0.23759627590E+03  0.11121279040E+04  0.50400001928E-02 0. -1.
       -1    1    3    3    0  502 -0.10824906249E+04 -0.92685120840E+02 -0.17773992542E+04  0.20831525612E+04  0.50400001928E-02 0.  1.
</event>
<event>
 5   0  0.3502141E-07  0.2799948E+04  0.7818609E-02  0.8303284E-01
       -2   -1    0    0    0  501  0.00000000000E+00  0.00000000000E+00  0.10931188457E+04  0.10931188457E+04  0.25500000920E-02 0. -1.
        2   -1    0    0  501    0  0.00000000000E+00  0.00000000000E+00 -0.17929684899E+04  0.17929684899E+04  0.25500000920E-02 0.  1.
    10030    2    1    2    0    0  0.00000000000E+00  0.00000000000E+00 -0.69984964418E+03  0.28860873356E+04  0.27999483182E+04 0.  0.
        3    1    3    3  502    0 -0.59844250035E+03 -0.11568055514E+04 -0.87913494361E+03  0.15713722567E+04  0.10100000352E+00 0.  1.
       -3    1    3    3    0  502  0.59844250035E+03  0.11568055514E+04  0.17928529944E+03  0.13147150789E+04  0.10100000352E+00 0. -1.
</event>
<event>
 5   0  0.1346049E-07  0.2800773E+04  0.7818609E-02  0.8303028E-01
        1   -1    0    0  501    0  0.00000000000E+00  0.00000000000E+00  0.27836562430E+04  0.27836562430E+04  0.50400001928E-02 0.  1.
       -1   -1    0    0    0  501  0.00000000000E+00  0.00000000000E+00 -0.70449885511E+03  0.70449885512E+03  0.50400001928E-02 0. -1.
    10030    2    1    2    0    0  0.00000000000E+00  0.00000000000E+00  0.20791573879E+04  0.34881550982E+04  0.28007732049E+04 0.  0.
        1    1    3    3  502    0  0.12524032265E+04 -0.60914894460E+03  0.85693643223E+03  0.16352114015E+04  0.50400001928E-02 0. -1.
       -1    1    3    3    0  502 -0.12524032265E+04  0.60914894460E+03  0.12222209557E+04  0.18529436967E+04  0.50400001928E-02 0.  1.
</event>
<event>
 5   0  0.3571498E-07  0.2805832E+04  0.7818609E-02  0.8301460E-01
        2   -1    0    0  501    0  0.00000000000E+00  0.00000000000E+00  0.19487605959E+04  0.19487605959E+04  0.25500000920E-02 0. -1.
       -2   -1    0    0    0  501  0.00000000000E+00  0.00000000000E+00 -0.10099618476E+04  0.10099618476E+04  0.25500000920E-02 0.  1.
    10030    2    1    2    0    0  0.00000000000E+00  0.00000000000E+00  0.93879874830E+03  0.29587224436E+04  0.28058323913E+04 0.  0.
        2    1    3    3  502    0 -0.23640270655E+03 -0.40254944591E+03  0.18644549110E+04  0.19220105127E+04  0.25500000920E-02 0. -1.
       -2    1    3    3    0  502  0.23640270655E+03  0.40254944591E+03 -0.92565616266E+03  0.10367119308E+04  0.25500000920E-02 0.  1.
</event>
<event>
 5   0  0.3557628E-07  0.2800774E+04  0.7818609E-02  0.8303028E-01
        2   -1    0    0  501    0  0.00000000000E+00  0.00000000000E+00  0.15115865755E+04  0.15115865756E+04  0.25500000920E-02 0.  1.
       -2   -1    0    0    0  501  0.00000000000E+00  0.00000000000E+00 -0.12973680797E+04  0.12973680797E+04  0.25500000920E-02 0. -1.
    10030    2    1    2    0    0  0.00000000000E+00  0.00000000000E+00  0.21421849588E+03  0.28089546552E+04  0.28007743021E+04 0.  0.
        5    1    3    3  502    0  0.97592975213E+03  0.77694817021E+03  0.74534420057E+03  0.14531508551E+04  0.46999998093E+01 0.  1.
       -5    1    3    3    0  502 -0.97592975213E+03 -0.77694817021E+03 -0.53112570469E+03  0.13558038001E+04  0.46999998093E+01 0. -1.
</event>
<event>
 5   0  0.1374680E-07  0.2801094E+04  0.7818609E-02  0.8302929E-01
        1   -1    0    0  501    0  0.00000000000E+00  0.00000000000E+00  0.13196080071E+04  0.13196080071E+04  0.50400001928E-02 0. -1.
       -1   -1    0    0    0  501  0.00000000000E+00  0.00000000000E+00 -0.14864499158E+04  0.14864499158E+04  0.50400001928E-02 0.  1.
    10030    2    1    2    0    0  0.00000000000E+00  0.00000000000E+00 -0.16684190876E+03  0.28060579229E+04  0.28010935087E+04 0.  0.
        3    1    3    3  502    0 -0.26452369603E+03  0.13401633669E+04 -0.39303272735E+03  0.14214377829E+04  0.10100000352E+00 0.  1.
       -3    1    3    3    0  502  0.26452369603E+03 -0.13401633669E+04  0.22619081859E+03  0.13846201401E+04  0.10100000352E+00 0. -1.
</event>
<event>
 5   0  0.1346049E-07  0.2799473E+04  0.7818609E-02  0.8303432E-01
       -1   -1    0    0    0  501  0.00000000000E+00  0.00000000000E+00  0.99850248790E+03  0.99850248791E+03  0.50400001928E-02 0. -1.
        1   -1    0    0  501    0  0.00000000000E+00  0.00000000000E+00 -0.19622009749E+04  0.19622009749E+04  0.50400001928E-02 0.  1.
    10030    2    1    2    0    0  0.00000000000E+00  0.00000000000E+00 -0.96369848697E+03  0.29607034628E+04  0.27994732041E+04 0.  0.
        1    1    3    3  502    0  0.29982802815E+03  0.76894314801E+03  0.71378867390E+03  0.10911758256E+04  0.50400001928E-02 0. -1.
       -1    1    3    3    0  502 -0.29982802815E+03 -0.76894314801E+03 -0.16774871609E+04  0.18695276372E+04  0.50400001928E-02 0.  1.
</event>
<event>
 5   0  0.1361741E-07  0.2800322E+04  0.7818609E-02  0.8303168E-01
       -1   -1    0    0    0  501  0.00000000000E+00  0.00000000000E+00  0.11749536542E+04  0.11749536542E+04  0.50400001928E-02 0.  1.
        1   -1    0    0  501    0  0.00000000000E+00  0.00000000000E+00 -0.16685342521E+04  0.16685342521E+04  0.50400001928E-02 0. -1.
    10030    2    1    2    0    0  0.00000000000E+00  0.00000000000E+00 -0.49358059789E+03  0.28434879064E+04  0.28003217078E+04 0.  0.
        5    1    3    3  502    0 -0.71263439051E+03 -0.10902736698E+04 -0.76840507649E+03  0.15122873078E+04  0.46999998093E+01 0. -1.
       -5    1    3    3    0  502  0.71263439051E+03  0.10902736698E+04  0.27482447860E+03  0.13312005986E+04  0.46999998093E+01 0.  1.
</event>
<event>
 5   0  0.1173363E-07  0.2799906E+04  0.7818609E-02  0.8303298E-01
        3   -1    0    0  501    0  0.00000000000E+00  0.00000000000E+00  0.95319734065E+03  0.95319734600E+03  0.10100000352E+00 0. -1.
       -3   -1    0    0    0  501  0.00000000000E+00  0.00000000000E+00 -0.20560991780E+04  0.20560991805E+04  0.10100000352E+00 0.  1.
    10030    2    1    2    0    0  0.00000000000E+00  0.00000000000E+00 -0.11029018374E+04  0.30092965265E+04  0.27999059130E+04 0.  0.
        3    1    3    3  502    0  0.10828642157E+02  0.12034759357E+04  0.21714929246E+03  0.12229576496E+04  0.10100000352E+00 0. -1.
       -3    1    3    3    0  502 -0.10828642157E+02 -0.12034759357E+04 -0.13200511298E+04  0.17863388769E+04  0.10100000352E+00 0.  1.
</event>
<event>
 5   0  0.1374680E-07  0.2799779E+04  0.7818609E-02  0.8303337E-01
        1   -1    0    0  501    0  0.00000000000E+00  0.00000000000E+00  0.10991194068E+04  0.10991194068E+04  0.50400001928E-02 0. -1.
       -1   -1    0    0    0  501  0.00000000000E+00  0.00000000000E+00 -0.17829646919E+04  0.17829646919E+04  0.50400001928E-02 0.  1.
    10030    2    1    2    0    0  0.00000000000E+00  0.00000000000E+00 -0.68384528507E+03  0.28820840987E+04  0.27997793446E+04 0.  0.
        3    1    3    3  502    0 -0.36663830009E+03 -0.87227028953E+02 -0.17297614783E+04  0.17703409219E+04  0.10100000352E+00 0.  1.
       -3    1    3    3    0  502  0.36663830009E+03  0.87227028953E+02  0.10459161933E+04  0.11117431768E+04  0.10100000352E+00 0. -1.
</event>
<event>
 5   0  0.3557628E-07  0.2801184E+04  0.7818609E-02  0.8302901E-01
       -2   -1    0    0    0  501  0.00000000000E+00  0.00000000000E+00  0.13999262823E+04  0.13999262823E+04  0.25500000920E-02 0.  1.
        2   -1    0    0  501    0  0.00000000000E+00  0.00000000000E+00 -0.14012585045E+04  0.14012585045E+04  0.25500000920E-02 0. -1.
    10030    2    1    2    0    0  0.00000000000E+00  0.00000000000E+00 -0.13322222346E+01  0.28011847868E+04  0.28011844700E+04 0.  0.
        5    1    3    3  502    0  0.78601732651E+03  0.26456719319E+03 -0.11293014683E+04  0.14011291638E+04  0.46999998093E+01 0. -1.
       -5    1    3    3    0  502 -0.78601732651E+03 -0.26456719319E+03  0.11279692461E+04  0.14000556230E+04  0.46999998093E+01 0.  1.
</event>
<event>
 5   0  0.1173363E-07  0.2798694E+04  0.7818609E-02  0.8303674E-01
        3   -1    0    0  501    0  0.00000000000E+00  0.00000000000E+00  0.28646022348E+04  0.28646022366E+04  0.10100000352E+00 0.  1.
       -3   -1    0    0    0  501  0.00000000000E+00  0.00000000000E+00 -0.68357533492E+03  0.68357534238E+03  0.10100000352E+00 0. -1.
    10030    2    1    2    0    0  0.00000000000E+00  0.00000000000E+00  0.21810268999E+04  0.35481775790E+04  0.27986935870E+04 0.  0.
        3    1    3    3  502    0  0.94443977276E+03 -0.10304229715E+04  0.10060981672E+04  0.17221996159E+04  0.10100000352E+00 0.  1.
       -3    1    3    3    0  502 -0.94443977276E+03  0.10304229715E+04  0.11749287327E+04  0.18259779631E+04  0.10100000352E+00 0. -1.
</event>
<event>
 5   0  0.3557628E-07  0.2799658E+04  0.7818609E-02  0.8303375E-01
       -2   -1    0    0    0  501  0.00000000000E+00  0.00000000000E+00  0.11895424054E+04  0.11895424054E+04  0.25500000920E-02 0.  1.
        2   -1    0    0  501    0  0.00000000000E+00  0.00000000000E+00 -0.16472896406E+04  0.16472896406E+04  0.25500000920E-02 0. -1.
    10030    2    1    2    0    0  0.00000000000E+00  0.00000000000E+00 -0.45774723517E+03  0.28368320460E+04  0.27996577516E+04 0.  0.
        5    1    3    3  502    0  0.15543521902E+03  0.39958320428E+03 -0.15791107507E+04  0.16362883907E+04  0.46999998093E+01 0. -1.
       -5    1    3    3    0  502 -0.15543521902E+03 -0.39958320428E+03  0.11213635155E+04  0.12005436554E+04  0.46999998093E+01 0.  1.
</event>
<event>
 5   0  0.1346049E-07  0.2800308E+04  0.7818609E-02  0.8303173E-01
       -1   -1    0    0    0  501  0.00000000000E+00  0.00000000000E+00  0.11188797355E+04  0.11188797355E+04  0.50400001928E-02 0. -1.
        1   -1    0    0  501    0  0.00000000000E+00  0.00000000000E+00 -0.17521374273E+04  0.17521374273E+04  0.50400001928E-02 0.  1.
    10030    2    1    2    0    0  0.00000000000E+00  0.00000000000E+00 -0.63325769186E+03  0.28710171628E+04  0.28003078839E+04 0.  0.
        1    1    3    3  502    0 -0.30282499110E+03  0.13043637409E+04 -0.73605947645E+03  0.15280220210E+04  0.50400001928E-02 0.  1.
       -1    1    3    3    0  502  0.30282499110E+03 -0.13043637409E+04  0.10280178459E+03  0.13429951418E+04  0.50400001928E-02 0. -1.
</event>
<event>
 5   0  0.1361741E-07  0.2800725E+04  0.7818609E-02  0.8303043E-01
        1   -1    0    0  501    0  0.00000000000E+00  0.00000000000E+00  0.92302126265E+03  0.92302126266E+03  0.50400001928E-02 0. -1.
       -1   -1    0    0    0  501  0.00000000000E+00  0.00000000000E+00 -0.21245618110E+04  0.21245618110E+04  0.50400001928E-02 0.  1.
    10030    2    1    2    0    0  0.00000000000E+00  0.00000000000E+00 -0.12015405484E+04  0.30475830737E+04  0.28007254242E+04 0.  0.
        5    1    3    3  502    0  0.85209615875E+03 -0.45868024314E+03 -0.17021804846E+04  0.19580336875E+04  0.46999998093E+01 0.  1.
       -5    1    3    3    0  502 -0.85209615875E+03  0.45868024314E+03  0.50063993624E+03  0.10895493862E+04  0.46999998093E+01 0. -1.
</event>
<event>
 5   0  0.3502141E-07  0.2800430E+04  0.7818609E-02  0.8303135E-01
       -2   -1    0    0    0  501  0.00000000000E+00  0.00000000000E+00  0.89752988524E+03  0.89752988525E+03  0.25500000920E-02 0.  1.
        2   -1    0    0  501    0  0.00000000000E+00  0.00000000000E+00 -0.21844417691E+04  0.21844417691E+04  0.25500000920E-02 0. -1.
    10030    2    1    2    0    0  0.00000000000E+00  0.00000000000E+00 -0.12869118839E+04  0.30819716544E+04  0.28004298030E+04 0.  0.
        3    1    3    3  502    0  0.59084690599E+03 -0.37926158339E+03 -0.19767226204E+04  0.20977063053E+04  0.10100000352E+00 0. -1.
       -3    1    3    3    0  502 -0.59084690599E+03  0.37926158339E+03  0.68981073654E+03  0.98426534908E+03  0.10100000352E+00 0.  1.
</event>
<event>
 5   0  0.3557628E-07  0.2799020E+04  0.7818609E-02  0.8303573E-01
       -2   -1    0    0    0  501  0.00000000000E+00  0.00000000000E+00  0.18102987735E+04  0.18102987735E+04  0.25500000920E-02 0.  1.
        2   -1    0    0  501    0  0.00000000000E+00  0.00000000000E+00 -0.10819366514E+04  0.10819366514E+04  0.25500000920E-02 0. -1.
    10030    2    1    2    0    0  0.00000000000E+00  0.00000000000E+00  0.72836212214E+03  0.28922354249E+04  0.27990202522E+04 0.  0.
        5    1    3    3  502    0  0.85138565415E+03 -0.10668141325E+04  0.68376505509E+03  0.15265997071E+04  0.46999998093E+01 0. -1.
       -5    1    3    3    0  502 -0.85138565415E+03  0.10668141325E+04  0.44597067047E+02  0.13656357178E+04  0.46999998093E+01 0.  1.
</event>
<event>
 5   0  0.3406920E-07  0.2799177E+04  0.7818609E-02  0.8303524E-01
       -2   -1    0    0    0  501  0.00000000000E+00  0.00000000000E+00  0.10221330725E+04  0.10221330725E+04  0.25500000920E-02 0.  1.
        2   -1    0    0  501    0  0.00000000000E+00  0.00000000000E+00 -0.19164320085E+04  0.19164320085E+04  0.25500000920E-02 0. -1.
    10030    2    1    2    0    0  0.00000000000E+00  0.00000000000E+00 -0.89429893603E+03  0.29385650810E+04  0.27991774057E+04 0.  0.
        4    1    3    3  502    0 -0.81229614663E+03 -0.10074933835E+04  0.11228340758E+03  0.12990293007E+04  0.12699999809E+01 0.  1.
       -4    1    3    3    0  502  0.81229614663E+03  0.10074933835E+04 -0.10065823436E+04  0.16395357803E+04  0.12699999809E+01 0. -1.
</event>
<event>
 5   0  0.1374680E-07  0.2798730E+04  0.7818609E-02  0.8303663E-01
       -1   -1    0    0    0  501  0.00000000000E+00  0.00000000000E+00  0.14036622441E+04  0.14036622441E+04  0.50400001928E-02 0.  1.
        1   -1    0    0  501    0  0.00000000000E+00  0.00000000000E+00 -0.13950806970E+04  0.13950806970E+04  0.50400001928E-02 0. -1.
    10030    2    1    2    0    0  0.00000000000E+00  0.00000000000E+00  0.85815471470E+01  0.27987429411E+04  0.27987297846E+04 0.  0.
        3    1    3    3  502    0  0.35652785029E+03 -0.85874079244E+03  0.10500844996E+04  0.14025780988E+04  0.10100000352E+00 0.  1.
       -3    1    3    3    0  502 -0.35652785029E+03  0.85874079244E+03 -0.10415029525E+04  0.13961648423E+04  0.10100000352E+00 0. -1.
</event>
<event>
 5   0  0.1357902E-07  0.2799642E+04  0.7818609E-02  0.8303379E-01
        1   -1    0    0  501    0  0.00000000000E+00  0.00000000000E+00  0.21267146777E+04  0.21267146777E+04  0.50400001928E-02 0. -1.
       -1   -1    0    0    0  501  0.00000000000E+00  0.00000000000E+00 -0.92137389362E+03  0.92137389363E+03  0.50400001928E-02 0.  1.
    10030    2    1    2    0    0  0.00000000000E+00  0.00000000000E+00  0.12053407841E+04  0.30480885714E+04  0.27996423938E+04 0.  0.
        4    1    3    3  502    0 -0.23139253099E+03 -0.16555777354E+03 -0.88956015394E+03  0.93395436727E+03  0.12699999809E+01 0.  1.
       -4    1    3    3    0  502  0.23139253099E+03  0.16555777354E+03  0.20949009380E+04  0.21141342041E+04  0.12699999809E+01 0. -1.
</event>
<event>
 5   0  0.1357902E-07  0.2799989E+04  0.7818609E-02  0.8303272E-01
       -1   -1    0    0    0  501  0.00000000000E+00  0.00000000000E+00  0.80608113844E+03  0.80608113846E+03  0.50400001928E-02 0. -1.
        1   -1    0    0  501    0  0.00000000000E+00  0.00000000000E+00 -0.24314985700E+04  0.24314985700E+04  0.50400001928E-02 0.  1.
    10030    2    1    2    0    0  0.00000000000E+00  0.00000000000E+00 -0.16254174315E+04  0.32375797084E+04  0.27999893824E+04 0.  0.
        4    1    3    3  502    0 -0.13500753861E+04  0.34528707880E+03 -0.96808494190E+03  0.16967960345E+04  0.12699999809E+01 0. -1.
       -4    1    3    3    0  502  0.13500753861E+04 -0.34528707880E+03 -0.65733248965E+03  0.15407836739E+04  0.12699999809E+01 0.  1.
</event>
<event>
 5   0  0.1357902E-07  0.2800657E+04  0.7818609E-02  0.8303064E-01
        1   -1    0    0  501    0  0.00000000000E+00  0.00000000000E+00  0.10094298571E+04  0.10094298571E+04  0.50400001928E-02 0.  1.
       -1   -1    0    0    0  501  0.00000000000E+00  0.00000000000E+00 -0.19426014141E+04  0.19426014141E+04  0.50400001928E-02 0. -1.
    10030    2    1    2    0    0  0.00000000000E+00  0.00000000000E+00 -0.93317155701E+03  0.29520312711E+04  0.28006569713E+04 0.  0.
        4    1    3    3  502    0  0.11220835364E+04  0.35879970579E+03 -0.12645434647E+04  0.17282593783E+04  0.12699999809E+01 0. -1.
       -4    1    3    3    0  502 -0.11220835364E+04 -0.35879970579E+03  0.33137190770E+03  0.12237718928E+04  0.12699999809E+01 0.  1.
</event>
<event>
 5   0  0.1346049E-07  0.2795052E+04  0.7818609E-02  0.8304806E-01
        1   -1    0    0  501    0  0.00000000000E+00  0.00000000000E+00  0.17072536069E+04  0.17072536069E+04  0.50400001928E-02 0. -1.
       -1   -1    0    0    0  501  0.00000000000E+00  0.00000000000E+00 -0.11439888569E+04  0.11439888569E+04  0.50400001928E-02 0.  1.
    10030    2    1    2    0    0  0.00000000000E+00  0.00000000000E+00  0.56326475009E+03  0.28512424638E+04  0.27950521299E+04 0.  0.
        1    1    3    3  502    0 -0.50795326442E+03 -0.12926902769E+04  0.12355111378E+03  0.13943921789E+04  0.50400001928E-02 0.  1.
       -1    1    3    3    0  502  0.50795326442E+03  0.12926902769E+04  0.43971363631E+03  0.14568502849E+04  0.50400001928E-02 0. -1.
</event>
<event>
 5   0  0.1361741E-07  0.2799666E+04  0.7818609E-02  0.8303372E-01
       -1   -1    0    0    0  501  0.00000000000E+00  0.00000000000E+00  0.10879333029E+04  0.10879333029E+04  0.50400001928E-02 0. -1.
        1   -1    0    0  501    0  0.00000000000E+00  0.00000000000E+00 -0.18011515369E+04  0.18011515369E+04  0.50400001928E-02 0.  1.
    10030    2    1    2    0    0  0.00000000000E+00  0.00000000000E+00 -0.71321823402E+03  0.28890848398E+04  0.27996662233E+04 0.  0.
        5    1    3    3  502    0 -0.11030897885E+04 -0.83402836203E+03 -0.58056665861E+03  0.14998300321E+04  0.46999998093E+01 0.  1.
       -5    1    3    3    0  502  0.11030897885E+04  0.83402836203E+03 -0.13265157541E+03  0.13892548077E+04  0.46999998093E+01 0. -1.
</event>
<event>
 5   0  0.3406920E-07  0.2801564E+04  0.7818609E-02  0.8302783E-01
       -2   -1    0    0    0  501  0.00000000000E+00  0.00000000000E+00  0.13786203616E+04  0.13786203616E+04  0.25500000920E-02 0. -1.
        2   -1    0    0  501    0  0.00000000000E+00  0.00000000000E+00 -0.14233000382E+04  0.14233000382E+04  0.25500000920E-02 0.  1.
    10030    2    1    2    0    0  0.00000000000E+00  0.00000000000E+00 -0.44679676596E+02  0.28019203997E+04  0.28015641440E+04 0.  0.
        4    1    3    3  502    0  0.11299717112E+04  0.99043785156E+02 -0.84435862164E+03  0.14140681859E+04  0.12699999809E+01 0.  1.
       -4    1    3    3    0  502 -0.11299717112E+04 -0.99043785156E+02  0.79967894505E+03  0.13878522139E+04  0.12699999809E+01 0. -1.
</event>
<event>
 5   0  0.1361741E-07  0.2800204E+04  0.7818609E-02  0.8303205E-01
       -1   -1    0    0    0  501  0.00000000000E+00  0.00000000000E+00  0.14137962069E+04  0.14137962069E+04  0.50400001928E-02 0.  1.
        1   -1    0    0  501    0  0.00000000000E+00  0.00000000000E+00 -0.13865403320E+04  0.13865403320E+04  0.50400001928E-02 0. -1.
    10030    2    1    2    0    0  0.00000000000E+00  0.00000000000E+00  0.27255874950E+02  0.28003365389E+04  0.28002038941E+04 0.  0.
        5    1    3    3  502    0 -0.83749733711E+03  0.10732391430E+04 -0.31352564049E+03  0.13969840604E+04  0.46999998093E+01 0.  1.
       -5    1    3    3    0  502  0.83749733711E+03 -0.10732391430E+04  0.34078151544E+03  0.14033524785E+04  0.46999998093E+01 0. -1.
</event>
<event>
 5   0  0.3406920E-07  0.2800184E+04  0.7818609E-02  0.8303211E-01
       -2   -1    0    0    0  501  0.00000000000E+00  0.00000000000E+00  0.12381724333E+04  0.12381724333E+04  0.25500000920E-02 0. -1.
        2   -1    0    0  501    0  0.00000000000E+00  0.00000000000E+00 -0.15831863807E+04  0.15831863808E+04  0.25500000920E-02 0.  1.
    10030    2    1    2    0    0  0.00000000000E+00  0.00000000000E+00 -0.34501394746E+03  0.28213588140E+04  0.28001840892E+04 0.  0.
        4    1    3    3  502    0 -0.10838044436E+04 -0.29837245172E+03  0.66842880016E+03  0.13078443584E+04  0.12699999809E+01 0. -1.
       -4    1    3    3    0  502  0.10838044436E+04  0.29837245172E+03 -0.10134427476E+04  0.15135144557E+04  0.12699999809E+01 0.  1.
</event>
<event>
 5   0  0.1346049E-07  0.2799716E+04  0.7818609E-02  0.8303357E-01
        1   -1    0    0  501    0  0.00000000000E+00  0.00000000000E+00  0.11294899513E+04  0.11294899513E+04  0.50400001928E-02 0. -1.
       -1   -1    0    0    0  501  0.00000000000E+00  0.00000000000E+00 -0.17349439973E+04  0.17349439973E+04  0.50400001928E-02 0.  1.
    10030    2    1    2    0    0  0.00000000000E+00  0.00000000000E+00 -0.60545404596E+03  0.28644339486E+04  0.27997155649E+04 0.  0.
        1    1    3    3  502    0  0.74310721951E+03  0.83692182568E+03 -0.11629695069E+04  0.16140460204E+04  0.50400001928E-02 0.  1.
       -1    1    3    3    0  502 -0.74310721951E+03 -0.83692182568E+03  0.55751546090E+03  0.12503879283E+04  0.50400001928E-02 0. -1.
</event>
<event>
 5   0  0.3522569E-07  0.2797101E+04  0.7818609E-02  0.8304169E-01
        2   -1    0    0  501    0  0.00000000000E+00  0.00000000000E+00  0.11540085595E+04  0.11540085595E+04  0.25500000920E-02 0.  1.
       -2   -1    0    0    0  501  0.00000000000E+00  0.00000000000E+00 -0.16949129730E+04  0.16949129730E+04  0.25500000920E-02 0. -1.
    10030    2    1    2    0    0  0.00000000000E+00  0.00000000000E+00 -0.54090441343E+03  0.28489215325E+04  0.27971014129E+04 0.  0.
        1    1    3    3  502    0  0.55990462366E+03  0.11722256191E+04  0.25715820268E+03  0.13242871406E+04  0.50400001928E-02 0. -1.
       -1    1    3    3    0  502 -0.55990462366E+03 -0.11722256191E+04 -0.79806261611E+03  0.15246343919E+04  0.50400001928E-02 0.  1.
</event>
<event>
 5   0  0.1374680E-07  0.2796317E+04  0.7818609E-02  0.8304413E-01
        1   -1    0    0  501    0  0.00000000000E+00  0.00000000000E+00  0.31306491600E+04  0.31306491600E+04  0.50400001928E-02 0. -1.
       -1   -1    0    0    0  501  0.00000000000E+00  0.00000000000E+00 -0.62442214470E+03  0.62442214472E+03  0.50400001928E-02 0.  1.
    10030    2    1    2    0    0  0.00000000000E+00  0.00000000000E+00  0.25062270153E+04  0.37550713047E+04  0.27963166221E+04 0.  0.
        3    1    3    3  502    0 -0.82923826766E+03  0.24573049996E+01 -0.25855024268E+03  0.86861405762E+03  0.10100000352E+00 0.  1.
       -3    1    3    3    0  502  0.82923826766E+03 -0.24573049996E+01  0.27647772580E+04  0.28864572471E+04  0.10100000352E+00 0. -1.
</event>
<event>
 5   0  0.3571498E-07  0.2800451E+04  0.7818609E-02  0.8303128E-01
       -2   -1    0    0    0  501  0.00000000000E+00  0.00000000000E+00  0.19436045379E+04  0.19436045379E+04  0.25500000920E-02 0. -1.
        2   -1    0    0  501    0  0.00000000000E+00  0.00000000000E+00 -0.10087608384E+04  0.10087608384E+04  0.25500000920E-02 0.  1.
    10030    2    1    2    0    0  0.00000000000E+00  0.00000000000E+00  0.93484369948E+03  0.29523653763E+04  0.28004514944E+04 0.  0.
        2    1    3    3  502    0 -0.10837050721E+04  0.10367468336E+03 -0.46095374429E+03  0.11822197248E+04  0.25500000920E-02 0.  1.
       -2    1    3    3    0  502  0.10837050721E+04 -0.10367468336E+03  0.13957974438E+04  0.17701456515E+04  0.25500000920E-02 0. -1.
</event>
<event>
 5   0  0.1346049E-07  0.2795119E+04  0.7818609E-02  0.8304785E-01
        1   -1    0    0  501    0  0.00000000000E+00  0.00000000000E+00  0.15890399033E+04  0.15890399034E+04  0.50400001928E-02 0. -1.
       -1   -1    0    0    0  501  0.00000000000E+00  0.00000000000E+00 -0.12291528130E+04  0.12291528130E+04  0.50400001928E-02 0.  1.
    10030    2    1    2    0    0  0.00000000000E+00  0.00000000000E+00  0.35988709032E+03  0.28181927164E+04  0.27951192227E+04 0.  0.
        1    1    3    3  502    0  0.13605557800E+04  0.22911689132E+03  0.40441625235E+03  0.14377618320E+04  0.50400001928E-02 0.  1.
       -1    1    3    3    0  502 -0.13605557800E+04 -0.22911689132E+03 -0.44529162036E+02  0.13804308844E+04  0.50400001928E-02 0. -1.
</event>
<event>
 5   0  0.1374680E-07  0.2792668E+04  0.7818609E-02  0.8305548E-01
       -1   -1    0    0    0  501  0.00000000000E+00  0.00000000000E+00  0.16255180809E+04  0.16255180809E+04  0.50400001928E-02 0. -1.
        1   -1    0    0  501    0  0.00000000000E+00  0.00000000000E+00 -0.11994628288E+04  0.11994628289E+04  0.50400001928E-02 0.  1.
    10030    2    1    2    0    0  0.00000000000E+00  0.00000000000E+00  0.42605525207E+03  0.28249809098E+04  0.27926679113E+04 0.  0.
        3    1    3    3  502    0  0.38657057674E+03  0.12339790221E+03  0.15645574403E+04  0.16163241777E+04  0.10100000352E+00 0. -1.
       -3    1    3    3    0  502 -0.38657057674E+03 -0.12339790221E+03 -0.11385021883E+04  0.12086567321E+04  0.10100000352E+00 0.  1.
</event>
<event>
 5   0  0.1346049E-07  0.2800077E+04  0.7818609E-02  0.8303245E-01
       -1   -1    0    0    0  501  0.00000000000E+00  0.00000000000E+00  0.12245073733E+04  0.12245073734E+04  0.50400001928E-02 0.  1.
        1   -1    0    0  501    0  0.00000000000E+00  0.00000000000E+00 -0.16007312402E+04  0.16007312402E+04  0.50400001928E-02 0. -1.
    10030    2    1    2    0    0  0.00000000000E+00  0.00000000000E+00 -0.37622386686E+03  0.28252386136E+04  0.28000765750E+04 0.  0.
        1    1    3    3  502    0 -0.13443095717E+04 -0.36206899399E+03 -0.38983140732E+02  0.13927605201E+04  0.50400001928E-02 0.  1.
       -1    1    3    3    0  502  0.13443095717E+04  0.36206899399E+03 -0.33724072613E+03  0.14324780935E+04  0.50400001928E-02 0. -1.
</event>
<event>
 5   0  0.3557628E-07  0.2808226E+04  0.7818609E-02  0.8300719E-01
        2   -1    0    0  501    0  0.00000000000E+00  0.00000000000E+00  0.16196836009E+04  0.16196836009E+04  0.25500000920E-02 0. -1.
       -2   -1    0    0    0  501  0.00000000000E+00  0.00000000000E+00 -0.12172334717E+04  0.12172334717E+04  0.25500000920E-02 0.  1.
    10030    2    1    2    0    0  0.00000000000E+00  0.00000000000E+00  0.40245012927E+03  0.28369170726E+04  0.28082258403E+04 0.  0.
        5    1    3    3  502    0  0.83649599042E+03  0.70283714692E+03  0.10921684096E+04  0.15448493525E+04  0.46999998093E+01 0. -1.
       -5    1    3    3    0  502 -0.83649599042E+03 -0.70283714692E+03 -0.68971828031E+03  0.12920677201E+04  0.46999998093E+01 0.  1.
</event>
<event>
 5   0  0.3502141E-07  0.2799686E+04  0.7818609E-02  0.8303366E-01
        2   -1    0    0  501    0  0.00000000000E+00  0.00000000000E+00  0.15555266006E+04  0.15555266006E+04  0.25500000920E-02 0.  1.
       -2   -1    0    0    0  501  0.00000000000E+00  0.00000000000E+00 -0.12597410709E+04  0.12597410709E+04  0.25500000920E-02 0. -1.
    10030    2    1    2    0    0  0.00000000000E+00  0.00000000000E+00  0.29578552965E+03  0.28152676715E+04  0.27996862293E+04 0.  0.
        3    1    3    3  502    0 -0.95833755546E+03 -0.60009731223E+03  0.97773290103E+03  0.14948208221E+04  0.10100000352E+00 0.  1.
       -3    1    3    3    0  502  0.95833755546E+03  0.60009731223E+03 -0.68194737137E+03  0.13204468493E+04  0.10100000352E+00 0. -1.
</event>
<event>
 5   0  0.3522569E-07  0.2796682E+04  0.7818609E-02  0.8304299E-01
        2   -1    0    0  501    0  0.00000000000E+00  0.00000000000E+00  0.17629624368E+04  0.17629624368E+04  0.25500000920E-02 0.  1.
       -2   -1    0    0    0  501  0.00000000000E+00  0.00000000000E+00 -0.11091320435E+04  0.11091320435E+04  0.25500000920E-02 0. -1.
    10030    2    1    2    0    0  0.00000000000E+00  0.00000000000E+00  0.65383039336E+03  0.28720944803E+04  0.27966824132E+04 0.  0.
        1    1    3    3  502    0  0.39454405103E+03  0.10140248290E+04  0.12289193825E+04  0.16413878916E+04  0.50400001928E-02 0.  1.
       -1    1    3    3    0  502 -0.39454405103E+03 -0.10140248290E+04 -0.57508898910E+03  0.12307065887E+04  0.50400001928E-02 0. -1.
</event>
<event>
 5   0  0.1366235E-07  0.2799074E+04  0.7818609E-02  0.8303556E-01
       -1   -1    0    0    0  501  0.00000000000E+00  0.00000000000E+00  0.90196199827E+03  0.90196199828E+03  0.50400001928E-02 0.  1.
        1   -1    0    0  501    0  0.00000000000E+00  0.00000000000E+00 -0.21716036890E+04  0.21716036890E+04  0.50400001928E-02 0. -1.
    10030    2    1    2    0    0  0.00000000000E+00  0.00000000000E+00 -0.12696416907E+04  0.30735656873E+04  0.27990741346E+04 0.  0.
        2    1    3    3  502    0  0.51222346317E+03  0.29258817328E+03  0.75878053200E+03  0.96110801220E+03  0.25500000920E-02 0.  1.
       -2    1    3    3    0  502 -0.51222346317E+03 -0.29258817328E+03 -0.20284222227E+04  0.21124576751E+04  0.25500000920E-02 0. -1.
</event>
<event>
 5   0  0.1346049E-07  0.2797689E+04  0.7818609E-02  0.8303986E-01
       -1   -1    0    0    0  501  0.00000000000E+00  0.00000000000E+00  0.90372346362E+03  0.90372346364E+03  0.50400001928E-02 0. -1.
        1   -1    0    0  501    0  0.00000000000E+00  0.00000000000E+00 -0.21652270634E+04  0.21652270634E+04  0.50400001928E-02 0.  1.
    10030    2    1    2    0    0  0.00000000000E+00  0.00000000000E+00 -0.12615035998E+04  0.30689505270E+04  0.27976894047E+04 0.  0.
        1    1    3    3  502    0  0.71135642075E+03  0.36408204830E+03  0.62869031179E+03  0.10167768700E+04  0.50400001928E-02 0. -1.
       -1    1    3    3    0  502 -0.71135642075E+03 -0.36408204830E+03 -0.18901939116E+04  0.20521736570E+04  0.50400001928E-02 0.  1.
</event>
<event>
 5   0  0.3557628E-07  0.2798982E+04  0.7818609E-02  0.8303585E-01
        2   -1    0    0  501    0  0.00000000000E+00  0.00000000000E+00  0.19455261246E+04  0.19455261246E+04  0.25500000920E-02 0. -1.
       -2   -1    0    0    0  501  0.00000000000E+00  0.00000000000E+00 -0.10067069226E+04  0.10067069226E+04  0.25500000920E-02 0.  1.
    10030    2    1    2    0    0  0.00000000000E+00  0.00000000000E+00  0.93881920200E+03  0.29522330471E+04  0.27989816846E+04 0.  0.
        5    1    3    3  502    0 -0.78470948263E+03  0.70830289360E+03  0.14367335981E+04  0.17837285341E+04  0.46999998093E+01 0. -1.
       -5    1    3    3    0  502  0.78470948263E+03 -0.70830289360E+03 -0.49791439613E+03  0.11685045131E+04  0.46999998093E+01 0.  1.
</event>
<event>
 5   0  0.1361741E-07  0.2798061E+04  0.7818609E-02  0.8303871E-01
       -1   -1    0    0    0  501  0.00000000000E+00  0.00000000000E+00  0.18299501384E+04  0.18299501384E+04  0.50400001928E-02 0. -1.
        1   -1    0    0  501    0  0.00000000000E+00  0.00000000000E+00 -0.10695844347E+04  0.10695844347E+04  0.50400001928E-02 0.  1.
    10030    2    1    2    0    0  0.00000000000E+00  0.00000000000E+00  0.76036570371E+03  0.28995345731E+04  0.27980608888E+04 0.  0.
        5    1    3    3  502    0  0.62404239412E+03 -0.44835622199E+03  0.15916886681E+04  0.17674691278E+04  0.46999998093E+01 0. -1.
       -5    1    3    3    0  502 -0.62404239412E+03  0.44835622199E+03 -0.83132296437E+03  0.11320654453E+04  0.46999998093E+01 0.  1.
</event>
<event>
 5   0  0.1357902E-07  0.2798868E+04  0.7818609E-02  0.8303620E-01
       -1   -1    0    0    0  501  0.00000000000E+00  0.00000000000E+00  0.11150043558E+04  0.11150043558E+04  0.50400001928E-02 0. -1.
        1   -1    0    0  501    0  0.00000000000E+00  0.00000000000E+00 -0.17564193891E+04  0.17564193891E+04  0.50400001928E-02 0.  1.
    10030    2    1    2    0    0  0.00000000000E+00  0.00000000000E+00 -0.64141503328E+03  0.28714237449E+04  0.27988678207E+04 0.  0.
        4    1    3    3  502    0  0.10284493673E+04  0.89665911145E+03 -0.63974821281E+03  0.15069787828E+04  0.12699999809E+01 0.  1.
       -4    1    3    3    0  502 -0.10284493673E+04 -0.89665911145E+03 -0.16668204673E+01  0.13644449620E+04  0.12699999809E+01 0. -1.
</event>
<event>
 5   0  0.3557628E-07  0.2800070E+04  0.7818609E-02  0.8303247E-01
        2   -1    0    0  501    0  0.00000000000E+00  0.00000000000E+00  0.20765681774E+04  0.20765681774E+04  0.25500000920E-02 0. -1.
       -2   -1    0    0    0  501  0.00000000000E+00  0.00000000000E+00 -0.94391184884E+03  0.94391184884E+03  0.25500000920E-02 0.  1.
    10030    2    1    2    0    0  0.00000000000E+00  0.00000000000E+00  0.11326563285E+04  0.30204800262E+04  0.28000695045E+04 0.  0.
        5    1    3    3  502    0  0.22119157670E+03 -0.49918643577E+03 -0.82432156106E+03  0.98875726914E+03  0.46999998093E+01 0.  1.
       -5    1    3    3    0  502 -0.22119157670E+03  0.49918643577E+03  0.19569778896E+04  0.20317227571E+04  0.46999998093E+01 0. -1.
</event>
<event>
 5   0  0.1173363E-07  0.2799721E+04  0.7818609E-02  0.8303355E-01
        3   -1    0    0  501    0  0.00000000000E+00  0.00000000000E+00  0.10916940175E+04  0.10916940222E+04  0.10100000352E+00 0.  1.
       -3   -1    0    0    0  501  0.00000000000E+00  0.00000000000E+00 -0.17950167157E+04  0.17950167185E+04  0.10100000352E+00 0. -1.
    10030    2    1    2    0    0  0.00000000000E+00  0.00000000000E+00 -0.70332269819E+03  0.28867107407E+04  0.27997207151E+04 0.  0.
        4    1    3    3  502    0  0.81212624018E+03 -0.14608654252E+03 -0.15176002537E+04  0.17274265399E+04  0.12699999809E+01 0. -1.
       -4    1    3    3    0  502 -0.81212624018E+03  0.14608654252E+03  0.81427755550E+03  0.11592842008E+04  0.12699999809E+01 0.  1.
</event>
<event>
 5   0  0.3557628E-07  0.2799538E+04  0.7818609E-02  0.8303412E-01
        2   -1    0    0  501    0  0.00000000000E+00  0.00000000000E+00  0.19544676805E+04  0.19544676805E+04  0.25500000920E-02 0.  1.
       -2   -1    0    0    0  501  0.00000000000E+00  0.00000000000E+00 -0.10024998321E+04  0.10024998321E+04  0.25500000920E-02 0. -1.
    10030    2    1    2    0    0  0.00000000000E+00  0.00000000000E+00  0.95196784840E+03  0.29569675127E+04  0.27995381917E+04 0.  0.
        5    1    3    3  502    0 -0.18900422609E+03  0.49412888221E+02 -0.98802167682E+03  0.10071609379E+04  0.46999998093E+01 0. -1.
       -5    1    3    3    0  502  0.18900422609E+03 -0.49412888221E+02  0.19399895252E+04  0.19498065748E+04  0.46999998093E+01 0.  1.
</event>
<event>
 5   0  0.3406920E-07  0.2799128E+04  0.7818609E-02  0.8303539E-01
       -2   -1    0    0    0  501  0.00000000000E+00  0.00000000000E+00  0.19380544324E+04  0.19380544325E+04  0.25500000920E-02 0.  1.
        2   -1    0    0  501    0  0.00000000000E+00  0.00000000000E+00 -0.10106939955E+04  0.10106939955E+04  0.25500000920E-02 0. -1.
    10030    2    1    2    0    0  0.00000000000E+00  0.00000000000E+00  0.92736043697E+03  0.29487484279E+04  0.27991284199E+04 0.  0.
        4    1    3    3  502    0  0.48963085871E+03  0.87536526993E+03 -0.56459701177E+03  0.11509883284E+04  0.12699999809E+01 0. -1.
       -4    1    3    3    0  502 -0.48963085871E+03 -0.87536526993E+03  0.14919574487E+04  0.17977600995E+04  0.12699999809E+01 0.  1.
</event>
<event>
 5   0  0.3522569E-07  0.2799678E+04  0.7818609E-02  0.8303368E-01
       -2   -1    0    0    0  501  0.00000000000E+00  0.00000000000E+00  0.72621657003E+03  0.72621657003E+03  0.25500000920E-02 0.  1.
        2   -1    0    0  501    0  0.00000000000E+00  0.00000000000E+00 -0.26982988321E+04  0.26982988321E+04  0.25500000920E-02 0. -1.
    10030    2    1    2    0    0  0.00000000000E+00  0.00000000000E+00 -0.19720822620E+04  0.34245154021E+04  0.27996780692E+04 0.  0.
        1    1    3    3  502    0 -0.65509989710E+03  0.12115240760E+04 -0.67999413675E+03  0.15360138306E+04  0.50400001928E-02 0. -1.
       -1    1    3    3    0  502  0.65509989710E+03 -0.12115240760E+04 -0.12920881253E+04  0.18885015715E+04  0.50400001928E-02 0.  1.
</event>
<event>
 5   0  0.3522569E-07  0.2797659E+04  0.7818609E-02  0.8303995E-01
        2   -1    0    0  501    0  0.00000000000E+00  0.00000000000E+00  0.25056447902E+04  0.25056447902E+04  0.25500000920E-02 0. -1.
       -2   -1    0    0    0  501  0.00000000000E+00  0.00000000000E+00 -0.78092652932E+03  0.78092652932E+03  0.25500000920E-02 0.  1.
    10030    2    1    2    0    0  0.00000000000E+00  0.00000000000E+00  0.17247182609E+04  0.32865713195E+04  0.27976593715E+04 0.  0.
        1    1    3    3  502    0  0.48050454512E+03  0.19674112731E+03  0.23882478399E+04  0.24440375271E+04  0.50400001928E-02 0. -1.
       -1    1    3    3    0  502 -0.48050454512E+03 -0.19674112731E+03 -0.66352957904E+03  0.84253379240E+03  0.50400001928E-02 0.  1.
</event>
<event>
 5   0  0.1366235E-07  0.2800839E+04  0.7818609E-02  0.8303008E-01
       -1   -1    0    0    0  501  0.00000000000E+00  0.00000000000E+00  0.84910796516E+03  0.84910796518E+03  0.50400001928E-02 0. -1.
        1   -1    0    0  501    0  0.00000000000E+00  0.00000000000E+00 -0.23096881436E+04  0.23096881436E+04  0.50400001928E-02 0.  1.
    10030    2    1    2    0    0  0.00000000000E+00  0.00000000000E+00 -0.14605801785E+04  0.31587961088E+04  0.28008388742E+04 0.  0.
        2    1    3    3  502    0  0.98583497941E+03 -0.88984083492E+03 -0.22909935337E+03  0.13476549380E+04  0.25500000920E-02 0. -1.
       -2    1    3    3    0  502 -0.98583497941E+03  0.88984083492E+03 -0.12314808251E+04  0.18111411708E+04  0.25500000920E-02 0.  1.
</event>
<event>
 5   0  0.3522569E-07  0.2792152E+04  0.7818609E-02  0.8305709E-01
        2   -1    0    0  501    0  0.00000000000E+00  0.00000000000E+00  0.19672218603E+04  0.19672218603E+04  0.25500000920E-02 0.  1.
       -2   -1    0    0    0  501  0.00000000000E+00  0.00000000000E+00 -0.99075188937E+03  0.99075188937E+03  0.25500000920E-02 0. -1.
    10030    2    1    2    0    0  0.00000000000E+00  0.00000000000E+00  0.97646997090E+03  0.29579737496E+04  0.27921524134E+04 0.  0.
        1    1    3    3  502    0 -0.73101525730E+02 -0.11993306216E+04  0.12412887375E+04  0.17275808238E+04  0.50400001928E-02 0.  1.
       -1    1    3    3    0  502  0.73101525730E+02  0.11993306216E+04 -0.26481876656E+03  0.12303929259E+04  0.50400001928E-02 0. -1.
</event>
<event>
 5   0  0.1361741E-07  0.2799509E+04  0.7818609E-02  0.8303421E-01
        1   -1    0    0  501    0  0.00000000000E+00  0.00000000000E+00  0.12285660706E+04  0.12285660706E+04  0.50400001928E-02 0. -1.
       -1   -1    0    0    0  501  0.00000000000E+00  0.00000000000E+00 -0.15947968479E+04  0.15947968479E+04  0.50400001928E-02 0.  1.
    10030    2    1    2    0    0  0.00000000000E+00  0.00000000000E+00 -0.36623077730E+03  0.28233629184E+04  0.27995094547E+04 0.  0.
        5    1    3    3  502    0  0.32333398970E+03 -0.10280906293E+02 -0.15565710822E+04  0.15898384163E+04  0.46999998093E+01 0.  1.
       -5    1    3    3    0  502 -0.32333398970E+03  0.10280906293E+02  0.11903403049E+04  0.12335245022E+04  0.46999998093E+01 0. -1.
</event>
<event>
 5   0  0.1374680E-07  0.2800580E+04  0.7818609E-02  0.8303088E-01
       -1   -1    0    0    0  501  0.00000000000E+00  0.00000000000E+00  0.94330911658E+03  0.94330911659E+03  0.50400001928E-02 0. -1.
        1   -1    0    0  501    0  0.00000000000E+00  0.00000000000E+00 -0.20786525111E+04  0.20786525111E+04  0.50400001928E-02 0.  1.
    10030    2    1    2    0    0  0.00000000000E+00  0.00000000000E+00 -0.11353433945E+04  0.30219616277E+04  0.28005798428E+04 0.  0.
        3    1    3    3  502    0 -0.13474526318E+03  0.12933508772E+04 -0.11282569723E+04  0.17215912939E+04  0.10100000352E+00 0. -1.
       -3    1    3    3    0  502  0.13474526318E+03 -0.12933508772E+04 -0.70864222175E+01  0.13003703338E+04  0.10100000352E+00 0.  1.
</event>
<event>
 5   0  0.3406920E-07  0.2799532E+04  0.7818609E-02  0.8303414E-01
        2   -1    0    0  501    0  0.00000000000E+00  0.00000000000E+00  0.21048889262E+04  0.21048889262E+04  0.25500000920E-02 0. -1.
       -2   -1    0    0    0  501  0.00000000000E+00  0.00000000000E+00 -0.93085450953E+03  0.93085450954E+03  0.25500000920E-02 0.  1.
    10030    2    1    2    0    0  0.00000000000E+00  0.00000000000E+00  0.11740344167E+04  0.30357434357E+04  0.27995323531E+04 0.  0.
        4    1    3    3  502    0  0.25901469637E+03  0.86495843782E+02 -0.90168957713E+03  0.94213366903E+03  0.12699999809E+01 0.  1.
       -4    1    3    3    0  502 -0.25901469637E+03 -0.86495843782E+02  0.20757239938E+04  0.20936097667E+04  0.12699999809E+01 0. -1.
</event>
<event>
 5   0  0.1346049E-07  0.2795985E+04  0.7818609E-02  0.8304516E-01
        1   -1    0    0  501    0  0.00000000000E+00  0.00000000000E+00  0.31422995301E+04  0.31422995301E+04  0.50400001928E-02 0.  1.
       -1   -1    0    0    0  501  0.00000000000E+00  0.00000000000E+00 -0.62195957053E+03  0.62195957055E+03  0.50400001928E-02 0. -1.
    10030    2    1    2    0    0  0.00000000000E+00  0.00000000000E+00  0.25203399596E+04  0.37642591007E+04  0.27959851690E+04 0.  0.
        1    1    3    3  502    0  0.26466114628E+03 -0.12952357808E+04  0.18722624005E+04  0.22919528238E+04  0.50400001928E-02 0. -1.
       -1    1    3    3    0  502 -0.26466114628E+03  0.12952357808E+04  0.64807755909E+03  0.14723062769E+04  0.50400001928E-02 0.  1.
</event>
<event>
 5   0  0.3502141E-07  0.2800571E+04  0.7818609E-02  0.8303091E-01
        2   -1    0    0  501    0  0.00000000000E+00  0.00000000000E+00  0.16167348614E+04  0.16167348614E+04  0.25500000920E-02 0. -1.
       -2   -1    0    0    0  501  0.00000000000E+00  0.00000000000E+00 -0.12128142145E+04  0.12128142145E+04  0.25500000920E-02 0.  1.
    10030    2    1    2    0    0  0.00000000000E+00  0.00000000000E+00  0.40392064685E+03  0.28295490759E+04  0.28005706711E+04 0.  0.
        3    1    3    3  502    0  0.11337625704E+04  0.49644937299E+03 -0.45973577236E+03  0.13203168319E+04  0.10100000352E+00 0.  1.
       -3    1    3    3    0  502 -0.11337625704E+04 -0.49644937299E+03  0.86365641921E+03  0.15092322441E+04  0.10100000352E+00 0. -1.
</event>
<event>
 5   0  0.3502141E-07  0.2800618E+04  0.7818609E-02  0.8303076E-01
        2   -1    0    0  501    0  0.00000000000E+00  0.00000000000E+00  0.14451841279E+04  0.14451841279E+04  0.25500000920E-02 0.  1.
       -2   -1    0    0    0  501  0.00000000000E+00  0.00000000000E+00 -0.13568274841E+04  0.13568274841E+04  0.25500000920E-02 0. -1.
    10030    2    1    2    0    0  0.00000000000E+00  0.00000000000E+00  0.88356643862E+02  0.28020116120E+04  0.28006181777E+04 0.  0.
        3    1    3    3  502    0 -0.18548144058E+03  0.13868715368E+04  0.99428162896E+02  0.14027480152E+04  0.10100000352E+00 0. -1.
       -3    1    3    3    0  502  0.18548144058E+03 -0.13868715368E+04 -0.11071519035E+02  0.13992635968E+04  0.10100000352E+00 0.  1.
</event>
<event>
 5   0  0.3502141E-07  0.2802452E+04  0.7818609E-02  0.8302507E-01
        2   -1    0    0  501    0  0.00000000000E+00  0.00000000000E+00  0.15780596454E+04  0.15780596454E+04  0.25500000920E-02 0. -1.
       -2   -1    0    0    0  501  0.00000000000E+00  0.00000000000E+00 -0.12442083553E+04  0.12442083553E+04  0.25500000920E-02 0.  1.
    10030    2    1    2    0    0  0.00000000000E+00  0.00000000000E+00  0.33385129013E+03  0.28222680007E+04  0.28024524945E+04 0.  0.
        3    1    3    3  502    0  0.10322119140E+03 -0.13960910293E+04  0.10558346497E+03  0.14038777207E+04  0.10100000352E+00 0. -1.
       -3    1    3    3    0  502 -0.10322119140E+03  0.13960910293E+04  0.22826782515E+03  0.14183902801E+04  0.10100000352E+00 0.  1.
</event>
<event>
 5   0  0.1366235E-07  0.2794543E+04  0.7818609E-02  0.8304964E-01
        1   -1    0    0  501    0  0.00000000000E+00  0.00000000000E+00  0.22005851587E+04  0.22005851587E+04  0.50400001928E-02 0. -1.
       -1   -1    0    0    0  501  0.00000000000E+00  0.00000000000E+00 -0.88720405793E+03  0.88720405795E+03  0.50400001928E-02 0.  1.
    10030    2    1    2    0    0  0.00000000000E+00  0.00000000000E+00  0.13133811007E+04  0.30877892166E+04  0.27945433134E+04 0.  0.
        2    1    3    3  502    0 -0.13701844832E+04 -0.27286269024E+03  0.63177390951E+03  0.15332963962E+04  0.25500000920E-02 0.  1.
       -2    1    3    3    0  502  0.13701844832E+04  0.27286269024E+03  0.68160719123E+03  0.15544928205E+04  0.25500000920E-02 0. -1.
</event>
<event>
 5   0  0.3557628E-07  0.2799309E+04  0.7818609E-02  0.8303483E-01
       -2   -1    0    0    0  501  0.00000000000E+00  0.00000000000E+00  0.11396265154E+04  0.11396265154E+04  0.25500000920E-02 0.  1.
        2   -1    0    0  501    0  0.00000000000E+00  0.00000000000E+00 -0.17190125630E+04  0.17190125630E+04  0.25500000920E-02 0. -1.
    10030    2    1    2    0    0  0.00000000000E+00  0.00000000000E+00 -0.57938604761E+03  0.28586390784E+04  0.27993086983E+04 0.  0.
        5    1    3    3  502    0 -0.13681493843E+04 -0.28021417947E+03 -0.19467535930E+03  0.14100614560E+04  0.46999998093E+01 0.  1.
       -5    1    3    3    0  502  0.13681493843E+04  0.28021417947E+03 -0.38471068831E+03  0.14485776223E+04  0.46999998093E+01 0. -1.
</event>
<event>
 5   0  0.3557628E-07  0.2800068E+04  0.7818609E-02  0.8303247E-01
        2   -1    0    0  501    0  0.00000000000E+00  0.00000000000E+00  0.20778334987E+04  0.20778334987E+04  0.25500000920E-02 0. -1.
       -2   -1    0    0    0  501  0.00000000000E+00  0.00000000000E+00 -0.94333576622E+03  0.94333576622E+03  0.25500000920E-02 0.  1.
    10030    2    1    2    0    0  0.00000000000E+00  0.00000000000E+00  0.11344977325E+04  0.30211692649E+04  0.28000676103E+04 0.  0.
        5    1    3    3  502    0  0.41166759504E+03 -0.54612314570E+03 -0.75083230591E+03  0.10156239169E+04  0.46999998093E+01 0.  1.
       -5    1    3    3    0  502 -0.41166759504E+03  0.54612314570E+03  0.18853300384E+04  0.20055453479E+04  0.46999998093E+01 0. -1.
</event>
<event>
 5   0  0.3406920E-07  0.2800656E+04  0.7818609E-02  0.8303065E-01
        2   -1    0    0  501    0  0.00000000000E+00  0.00000000000E+00  0.16371510356E+04  0.16371510356E+04  0.25500000920E-02 0. -1.
       -2   -1    0    0    0  501  0.00000000000E+00  0.00000000000E+00 -0.11977625400E+04  0.11977625400E+04  0.25500000920E-02 0.  1.
    10030    2    1    2    0    0  0.00000000000E+00  0.00000000000E+00  0.43938849559E+03  0.28349135756E+04  0.28006557680E+04 0.  0.
        4    1    3    3  502    0 -0.46818007396E+03 -0.10943547314E+04  0.96635638239E+03  0.15331833323E+04  0.12699999809E+01 0. -1.
       -4    1    3    3    0  502  0.46818007396E+03  0.10943547314E+04 -0.52696788680E+03  0.13017302433E+04  0.12699999809E+01 0.  1.
</event>
<event>
 5   0  0.3406920E-07  0.2800542E+04  0.7818609E-02  0.8303100E-01
        2   -1    0    0  501    0  0.00000000000E+00  0.00000000000E+00  0.22131539904E+04  0.22131539904E+04  0.25500000920E-02 0. -1.
       -2   -1    0    0    0  501  0.00000000000E+00  0.00000000000E+00 -0.88595673354E+03  0.88595673354E+03  0.25500000920E-02 0.  1.
    10030    2    1    2    0    0  0.00000000000E+00  0.00000000000E+00  0.13271972569E+04  0.30991107240E+04  0.28005418620E+04 0.  0.
        4    1    3    3  502    0  0.12028196511E+04 -0.26013619168E+03  0.14028870013E+04  0.18661563446E+04  0.12699999809E+01 0. -1.
       -4    1    3    3    0  502 -0.12028196511E+04  0.26013619168E+03 -0.75689744439E+02  0.12329543793E+04  0.12699999809E+01 0.  1.
</event>
<event>
 5   0  0.1366235E-07  0.2800247E+04  0.7818609E-02  0.8303192E-01
        1   -1    0    0  501    0  0.00000000000E+00  0.00000000000E+00  0.14577372545E+04  0.14577372545E+04  0.50400001928E-02 0. -1.
       -1   -1    0    0    0  501  0.00000000000E+00  0.00000000000E+00 -0.13447864119E+04  0.13447864119E+04  0.50400001928E-02 0.  1.
    10030    2    1    2    0    0  0.00000000000E+00  0.00000000000E+00  0.11295084263E+03  0.28025236664E+04  0.28002465977E+04 0.  0.
        2    1    3    3  502    0  0.10266781180E+04 -0.87689476599E+02 -0.89223414872E+03  0.13630257438E+04  0.25500000920E-02 0. -1.
       -2    1    3    3    0  502 -0.10266781180E+04  0.87689476599E+02  0.10051849913E+04  0.14394979225E+04  0.25500000920E-02 0.  1.
</event>
<event>
 5   0  0.3502141E-07  0.2800095E+04  0.7818609E-02  0.8303239E-01
        2   -1    0    0  501    0  0.00000000000E+00  0.00000000000E+00  0.83026621703E+03  0.83026621703E+03  0.25500000920E-02 0.  1.
       -2   -1    0    0    0  501  0.00000000000E+00  0.00000000000E+00 -0.23608485883E+04  0.23608485883E+04  0.25500000920E-02 0. -1.
    10030    2    1    2    0    0  0.00000000000E+00  0.00000000000E+00 -0.15305823713E+04  0.31911148053E+04  0.28000948744E+04 0.  0.
        3    1    3    3  502    0  0.27565083226E+02  0.80965384155E+03 -0.20666012036E+04  0.22197161355E+04  0.10100000352E+00 0. -1.
       -3    1    3    3    0  502 -0.27565083226E+02 -0.80965384155E+03  0.53601883238E+03  0.97139866986E+03  0.10100000352E+00 0.  1.
</event>
<event>
 5   0  0.1357902E-07  0.2800918E+04  0.7818609E-02  0.8302984E-01
       -1   -1    0    0    0  501  0.00000000000E+00  0.00000000000E+00  0.11462545902E+04  0.11462545902E+04  0.50400001928E-02 0. -1.
        1   -1    0    0  501    0  0.00000000000E+00  0.00000000000E+00 -0.17110377223E+04  0.17110377223E+04  0.50400001928E-02 0.  1.
    10030    2    1    2    0    0  0.00000000000E+00  0.00000000000E+00 -0.56478313215E+03  0.28572923126E+04  0.28009175948E+04 0.  0.
        4    1    3    3  502    0 -0.84419595500E+03 -0.11173036111E+04 -0.26629227443E+03  0.14254639098E+04  0.12699999809E+01 0. -1.
       -4    1    3    3    0  502  0.84419595500E+03  0.11173036111E+04 -0.29849085772E+03  0.14318284027E+04  0.12699999809E+01 0.  1.
</event>
<event>
 5   0  0.3522569E-07  0.2800647E+04  0.7818609E-02  0.8303067E-01
        2   -1    0    0  501    0  0.00000000000E+00  0.00000000000E+00  0.71994410762E+03  0.71994410763E+03  0.25500000920E-02 0.  1.
       -2   -1    0    0    0  501  0.00000000000E+00  0.00000000000E+00 -0.27236925453E+04  0.27236925453E+04  0.25500000920E-02 0. -1.
    10030    2    1    2    0    0  0.00000000000E+00  0.00000000000E+00 -0.20037484376E+04  0.34436366529E+04  0.28006473530E+04 0.  0.
        1    1    3    3  502    0  0.88522499753E+03 -0.57643393588E+03  0.12841361414E+03  0.10641378835E+04  0.50400001928E-02 0.  1.
       -1    1    3    3    0  502 -0.88522499753E+03  0.57643393588E+03 -0.21321620518E+04  0.23794987694E+04  0.50400001928E-02 0. -1.
</event>
<event>
 5   0  0.3571498E-07  0.2800515E+04  0.7818609E-02  0.8303108E-01
        2   -1    0    0  501    0  0.00000000000E+00  0.00000000000E+00  0.19431616267E+04  0.19431616267E+04  0.25500000920E-02 0. -1.
       -2   -1    0    0    0  501  0.00000000000E+00  0.00000000000E+00 -0.10090366497E+04  0.10090366497E+04  0.25500000920E-02 0.  1.
    10030    2    1    2    0    0  0.00000000000E+00  0.00000000000E+00  0.93412497699E+03  0.29521982765E+04  0.28005151653E+04 0.  0.
        2    1    3    3  502    0 -0.39707944088E+03 -0.73143415769E+02 -0.94634085039E+03  0.10288746507E+04  0.25500000920E-02 0.  1.
       -2    1    3    3    0  502  0.39707944088E+03  0.73143415769E+02  0.18804658274E+04  0.19233236258E+04  0.25500000920E-02 0. -1.
</event>
<event>
 5   0  0.1357902E-07  0.2800246E+04  0.7818609E-02  0.8303192E-01
       -1   -1    0    0    0  501  0.00000000000E+00  0.00000000000E+00  0.14479925398E+04  0.14479925398E+04  0.50400001928E-02 0. -1.
        1   -1    0    0  501    0  0.00000000000E+00  0.00000000000E+00 -0.13538362680E+04  0.13538362680E+04  0.50400001928E-02 0.  1.
    10030    2    1    2    0    0  0.00000000000E+00  0.00000000000E+00  0.94156271794E+02  0.28018288078E+04  0.28002462864E+04 0.  0.
        4    1    3    3  502    0 -0.46413352980E+03 -0.10776027505E+02  0.13687361146E+04  0.14453291046E+04  0.12699999809E+01 0. -1.
       -4    1    3    3    0  502  0.46413352980E+03  0.10776027505E+02 -0.12745798428E+04  0.13564997032E+04  0.12699999809E+01 0.  1.
</event>
<event>
 5   0  0.1366235E-07  0.2799772E+04  0.7818609E-02  0.8303339E-01
       -1   -1    0    0    0  501  0.00000000000E+00  0.00000000000E+00  0.10173405911E+04  0.10173405911E+04  0.50400001928E-02 0. -1.
        1   -1    0    0  501    0  0.00000000000E+00  0.00000000000E+00 -0.19262778964E+04  0.19262778964E+04  0.50400001928E-02 0.  1.
    10030    2    1    2    0    0  0.00000000000E+00  0.00000000000E+00 -0.90893730530E+03  0.29436184875E+04  0.27997719148E+04 0.  0.
        2    1    3    3  502    0  0.13279508462E+04 -0.23540761137E+03 -0.84899534357E+03  0.15936321053E+04  0.25500000920E-02 0.  1.
       -2    1    3    3    0  502 -0.13279508462E+04  0.23540761137E+03 -0.59941961722E+02  0.13499863823E+04  0.25500000920E-02 0. -1.
</event>
<event>
 5   0  0.3406920E-07  0.2799727E+04  0.7818609E-02  0.8303353E-01
        2   -1    0    0  501    0  0.00000000000E+00  0.00000000000E+00  0.16397567820E+04  0.16397567820E+04  0.25500000920E-02 0.  1.
       -2   -1    0    0    0  501  0.00000000000E+00  0.00000000000E+00 -0.11950657936E+04  0.11950657936E+04  0.25500000920E-02 0. -1.
    10030    2    1    2    0    0  0.00000000000E+00  0.00000000000E+00  0.44469098837E+03  0.28348225756E+04  0.27997265867E+04 0.  0.
        4    1    3    3  502    0 -0.13053090366E+04  0.43084615130E+03 -0.45843682714E+02  0.13753411734E+04  0.12699999809E+01 0.  1.
       -4    1    3    3    0  502  0.13053090366E+04 -0.43084615130E+03  0.49053467108E+03  0.14594814022E+04  0.12699999809E+01 0. -1.
</event>
<event>
 5   0  0.3406920E-07  0.2802046E+04  0.7818609E-02  0.8302633E-01
        2   -1    0    0  501    0  0.00000000000E+00  0.00000000000E+00  0.19530850349E+04  0.19530850349E+04  0.25500000920E-02 0. -1.
       -2   -1    0    0    0  501  0.00000000000E+00  0.00000000000E+00 -0.10050080182E+04  0.10050080182E+04  0.25500000920E-02 0.  1.
    10030    2    1    2    0    0  0.00000000000E+00  0.00000000000E+00  0.94807701672E+03  0.29580930530E+04  0.28020464808E+04 0.  0.
        4    1    3    3  502    0  0.84618765022E+03  0.83316458002E+02 -0.70147590546E+03  0.11022909010E+04  0.12699999809E+01 0.  1.
       -4    1    3    3    0  502 -0.84618765022E+03 -0.83316458002E+02  0.16495529222E+04  0.18558021520E+04  0.12699999809E+01 0. -1.
</event>
<event>
 5   0  0.1357902E-07  0.2798357E+04  0.7818609E-02  0.8303779E-01
        1   -1    0    0  501    0  0.00000000000E+00  0.00000000000E+00  0.21415978157E+04  0.21415978157E+04  0.50400001928E-02 0.  1.
       -1   -1    0    0    0  501  0.00000000000E+00  0.00000000000E+00 -0.91413100386E+03  0.91413100387E+03  0.50400001928E-02 0. -1.
    10030    2    1    2    0    0  0.00000000000E+00  0.00000000000E+00  0.12274668119E+04  0.30557288196E+04  0.27983573476E+04 0.  0.
        4    1    3    3  502    0 -0.52757005619E+03  0.86023892928E+03 -0.44461155334E+03  0.11027339778E+04  0.12699999809E+01 0.  1.
       -4    1    3    3    0  502  0.52757005619E+03 -0.86023892928E+03  0.16720783652E+04  0.19529948418E+04  0.12699999809E+01 0. -1.
</event>
<event>
 5   0  0.1366235E-07  0.2797817E+04  0.7818609E-02  0.8303946E-01
       -1   -1    0    0    0  501  0.00000000000E+00  0.00000000000E+00  0.81848719282E+03  0.81848719283E+03  0.50400001928E-02 0. -1.
        1   -1    0    0  501    0  0.00000000000E+00  0.00000000000E+00 -0.23909297857E+04  0.23909297857E+04  0.50400001928E-02 0.  1.
    10030    2    1    2    0    0  0.00000000000E+00  0.00000000000E+00 -0.15724425929E+04  0.32094169785E+04  0.27978172982E+04 0.  0.
        2    1    3    3  502    0 -0.25645788002E+03 -0.49608012640E+03 -0.22575178242E+04  0.23255650630E+04  0.25500000920E-02 0.  1.
       -2    1    3    3    0  502  0.25645788002E+03  0.49608012640E+03  0.68507523127E+03  0.88385191550E+03  0.25500000920E-02 0. -1.
</event>
<event>
 5   0  0.3557628E-07  0.2800115E+04  0.7818609E-02  0.8303233E-01
       -2   -1    0    0    0  501  0.00000000000E+00  0.00000000000E+00  0.15498756056E+04  0.15498756056E+04  0.25500000920E-02 0. -1.
        2   -1    0    0  501    0  0.00000000000E+00  0.00000000000E+00 -0.12647218622E+04  0.12647218622E+04  0.25500000920E-02 0.  1.
    10030    2    1    2    0    0  0.00000000000E+00  0.00000000000E+00  0.28515374343E+03  0.28145974679E+04  0.28001153992E+04 0.  0.
        5    1    3    3  502    0  0.82365894591E+03 -0.10361682060E+04 -0.31594117290E+03  0.13608451510E+04  0.46999998093E+01 0. -1.
       -5    1    3    3    0  502 -0.82365894591E+03  0.10361682060E+04  0.60109491633E+03  0.14537523169E+04  0.46999998093E+01 0.  1.
</event>
<event>
 5   0  0.3557628E-07  0.2797789E+04  0.7818609E-02  0.8303955E-01
       -2   -1    0    0    0  501  0.00000000000E+00  0.00000000000E+00  0.12678282060E+04  0.12678282060E+04  0.25500000920E-02 0.  1.
        2   -1    0    0  501    0  0.00000000000E+00  0.00000000000E+00 -0.15435098942E+04  0.15435098942E+04  0.25500000920E-02 0. -1.
    10030    2    1    2    0    0  0.00000000000E+00  0.00000000000E+00 -0.27568168825E+03  0.28113381002E+04  0.27977886841E+04 0.  0.
        5    1    3    3  502    0  0.50442076859E+03 -0.43780436104E+03 -0.13729273909E+04  0.15267824603E+04  0.46999998093E+01 0. -1.
       -5    1    3    3    0  502 -0.50442076859E+03  0.43780436104E+03  0.10972457026E+04  0.12845556400E+04  0.46999998093E+01 0.  1.
</event>
<event>
 5   0  0.1361741E-07  0.2800130E+04  0.7818609E-02  0.8303228E-01
       -1   -1    0    0    0  501  0.00000000000E+00  0.00000000000E+00  0.15127288738E+04  0.15127288738E+04  0.50400001928E-02 0.  1.
        1   -1    0    0  501    0  0.00000000000E+00  0.00000000000E+00 -0.12957920861E+04  0.12957920861E+04  0.50400001928E-02 0. -1.
    10030    2    1    2    0    0  0.00000000000E+00  0.00000000000E+00  0.21693678764E+03  0.28085209599E+04  0.28001300706E+04 0.  0.
        5    1    3    3  502    0  0.78419729849E+02  0.15064164565E+03  0.15023513139E+04  0.15119272865E+04  0.46999998093E+01 0.  1.
       -5    1    3    3    0  502 -0.78419729849E+02 -0.15064164565E+03 -0.12854145263E+04  0.12965936733E+04  0.46999998093E+01 0. -1.
</event>
<event>
 5   0  0.3571498E-07  0.2799344E+04  0.7818609E-02  0.8303472E-01
       -2   -1    0    0    0  501  0.00000000000E+00  0.00000000000E+00  0.10672343949E+04  0.10672343949E+04  0.25500000920E-02 0.  1.
        2   -1    0    0  501    0  0.00000000000E+00  0.00000000000E+00 -0.18356615647E+04  0.18356615647E+04  0.25500000920E-02 0. -1.
    10030    2    1    2    0    0  0.00000000000E+00  0.00000000000E+00 -0.76842716986E+03  0.29028959596E+04  0.27993436082E+04 0.  0.
        2    1    3    3  502    0 -0.30897330694E+03 -0.39898371561E+03 -0.17380452698E+04  0.18098215022E+04  0.25500000920E-02 0. -1.
       -2    1    3    3    0  502  0.30897330694E+03  0.39898371561E+03  0.96961809997E+03  0.10930744574E+04  0.25500000920E-02 0.  1.
</event>
<event>
 5   0  0.1357902E-07  0.2792829E+04  0.7818609E-02  0.8305498E-01
       -1   -1    0    0    0  501  0.00000000000E+00  0.00000000000E+00  0.13662096257E+04  0.13662096258E+04  0.50400001928E-02 0. -1.
        1   -1    0    0  501    0  0.00000000000E+00  0.00000000000E+00 -0.14272873865E+04  0.14272873865E+04  0.50400001928E-02 0.  1.
    10030    2    1    2    0    0  0.00000000000E+00  0.00000000000E+00 -0.61077760772E+02  0.27934970123E+04  0.27928292223E+04 0.  0.
        4    1    3    3  502    0  0.93964778099E+03  0.10119295355E+04 -0.23803200720E+03  0.14012851910E+04  0.12699999809E+01 0. -1.
       -4    1    3    3    0  502 -0.93964778099E+03 -0.10119295355E+04  0.17695424643E+03  0.13922118213E+04  0.12699999809E+01 0.  1.
</event>
<event>
 5   0  0.3502141E-07  0.2800549E+04  0.7818609E-02  0.8303098E-01
        2   -1    0    0  501    0  0.00000000000E+00  0.00000000000E+00  0.17415801583E+04  0.17415801583E+04  0.25500000920E-02 0. -1.
       -2   -1    0    0    0  501  0.00000000000E+00  0.00000000000E+00 -0.11258562925E+04  0.11258562925E+04  0.25500000920E-02 0.  1.
    10030    2    1    2    0    0  0.00000000000E+00  0.00000000000E+00  0.61572386576E+03  0.28674364508E+04  0.28005492177E+04 0.  0.
        3    1    3    3  502    0 -0.26384763360E+03 -0.11818134689E+04  0.10278423877E+04  0.15883194368E+04  0.10100000352E+00 0. -1.
       -3    1    3    3    0  502  0.26384763360E+03  0.11818134689E+04 -0.41211852199E+03  0.12791170140E+04  0.10100000352E+00 0.  1.
</event>
<event>
 5   0  0.1173363E-07  0.2800093E+04  0.7818609E-02  0.8303240E-01
        4   -1    0    0  501    0  0.00000000000E+00  0.00000000000E+00  0.12379448862E+04  0.12379455376E+04  0.12699999809E+01 0.  1.
       -4   -1    0    0    0  501  0.00000000000E+00  0.00000000000E+00 -0.15833729835E+04  0.15833734928E+04  0.12699999809E+01 0. -1.
    10030    2    1    2    0    0  0.00000000000E+00  0.00000000000E+00 -0.34542809732E+03  0.28213190304E+04  0.28000929451E+04 0.  0.
        2    1    3    3  502    0 -0.31007208716E+03  0.13641512249E+04 -0.22860400100E+03  0.14175023996E+04  0.25500000920E-02 0. -1.
       -2    1    3    3    0  502  0.31007208716E+03 -0.13641512249E+04 -0.11682409631E+03  0.14038166308E+04  0.25500000920E-02 0.  1.
</event>
<event>
 5   0  0.3571498E-07  0.2799555E+04  0.7818609E-02  0.8303406E-01
       -2   -1    0    0    0  501  0.00000000000E+00  0.00000000000E+00  0.99160290286E+03  0.99160290286E+03  0.25500000920E-02 0. -1.
        2   -1    0    0  501    0  0.00000000000E+00  0.00000000000E+00 -0.19759700664E+04  0.19759700664E+04  0.25500000920E-02 0.  1.
    10030    2    1    2    0    0  0.00000000000E+00  0.00000000000E+00 -0.98436716350E+03  0.29675729692E+04  0.27995554317E+04 0.  0.
        2    1    3    3  502    0  0.28026618950E+02  0.34101824027E+03  0.94658968899E+03  0.10065341380E+04  0.25500000920E-02 0. -1.
       -2    1    3    3    0  502 -0.28026618950E+02 -0.34101824027E+03 -0.19309568525E+04  0.19610388313E+04  0.25500000920E-02 0.  1.
</event>
<event>
 5   0  0.1374680E-07  0.2801170E+04  0.7818609E-02  0.8302905E-01
        1   -1    0    0  501    0  0.00000000000E+00  0.00000000000E+00  0.22295440388E+04  0.22295440388E+04  0.50400001928E-02 0. -1.
       -1   -1    0    0    0  501  0.00000000000E+00  0.00000000000E+00 -0.87983847168E+03  0.87983847170E+03  0.50400001928E-02 0.  1.
    10030    2    1    2    0    0  0.00000000000E+00  0.00000000000E+00  0.13497055671E+04  0.31093825105E+04  0.28011701981E+04 0.  0.
        3    1    3    3  502    0 -0.10134324024E+04  0.38064485581E+03 -0.31157776226E+03  0.11265063038E+04  0.10100000352E+00 0. -1.
       -3    1    3    3    0  502  0.10134324024E+04 -0.38064485581E+03  0.16612833294E+04  0.19828762067E+04  0.10100000352E+00 0.  1.
</event>
<event>
 5   0  0.3571498E-07  0.2798621E+04  0.7818609E-02  0.8303696E-01
       -2   -1    0    0    0  501  0.00000000000E+00  0.00000000000E+00  0.17678141406E+04  0.17678141406E+04  0.25500000920E-02 0.  1.
        2   -1    0    0  501    0  0.00000000000E+00  0.00000000000E+00 -0.11076223331E+04  0.11076223331E+04  0.25500000920E-02 0. -1.
    10030    2    1    2    0    0  0.00000000000E+00  0.00000000000E+00  0.66019180753E+03  0.28754364737E+04  0.27986213913E+04 0.  0.
        2    1    3    3  502    0  0.20612493629E+03 -0.79291765156E+03  0.14956328466E+04  0.17053221113E+04  0.25500000920E-02 0.  1.
       -2    1    3    3    0  502 -0.20612493629E+03  0.79291765156E+03 -0.83544103903E+03  0.11701143625E+04  0.25500000920E-02 0. -1.
</event>
<event>
 5   0  0.1361741E-07  0.2801169E+04  0.7818609E-02  0.8302905E-01
       -1   -1    0    0    0  501  0.00000000000E+00  0.00000000000E+00  0.97863198262E+03  0.97863198263E+03  0.50400001928E-02 0.  1.
        1   -1    0    0  501    0  0.00000000000E+00  0.00000000000E+00 -0.20044687951E+04  0.20044687951E+04  0.50400001928E-02 0. -1.
    10030    2    1    2    0    0  0.00000000000E+00  0.00000000000E+00 -0.10258368125E+04  0.29831007778E+04  0.28011692352E+04 0.  0.
        5    1    3    3  502    0  0.90071040763E+03 -0.76238581912E+03 -0.13163045226E+04  0.17678209926E+04  0.46999998093E+01 0. -1.
       -5    1    3    3    0  502 -0.90071040763E+03  0.76238581912E+03  0.29046771011E+03  0.12152797852E+04  0.46999998093E+01 0.  1.
</event>
<event>
 5   0  0.1357902E-07  0.2801292E+04  0.7818609E-02  0.8302867E-01
        1   -1    0    0  501    0  0.00000000000E+00  0.00000000000E+00  0.15334965671E+04  0.15334965671E+04  0.50400001928E-02 0.  1.
       -1   -1    0    0    0  501  0.00000000000E+00  0.00000000000E+00 -0.12793050089E+04  0.12793050089E+04  0.50400001928E-02 0. -1.
    10030    2    1    2    0    0  0.00000000000E+00  0.00000000000E+00  0.25419155826E+03  0.28128015760E+04  0.28012924441E+04 0.  0.
        4    1    3    3  502    0 -0.10676864026E+04 -0.60105112198E+03 -0.55436147070E+03  0.13448178162E+04  0.12699999809E+01 0. -1.
       -4    1    3    3    0  502  0.10676864026E+04  0.60105112198E+03  0.80855302896E+03  0.14679837598E+04  0.12699999809E+01 0.  1.
</event>
<event>
 5   0  0.3502141E-07  0.2794705E+04  0.7818609E-02  0.8304914E-01
        2   -1    0    0  501    0  0.00000000000E+00  0.00000000000E+00  0.31584334087E+04  0.31584334087E+04  0.25500000920E-02 0.  1.
       -2   -1    0    0    0  501  0.00000000000E+00  0.00000000000E+00 -0.61821579783E+03  0.61821579784E+03  0.25500000920E-02 0. -1.
    10030    2    1    2    0    0  0.00000000000E+00  0.00000000000E+00  0.25402176109E+04  0.37766492066E+04  0.27947045852E+04 0.  0.
        3    1    3    3  502    0 -0.79153866433E+03 -0.10942624110E+03  0.28192200664E+04  0.29302746206E+04  0.10100000352E+00 0.  1.
       -3    1    3    3    0  502  0.79153866433E+03  0.10942624110E+03 -0.27900245549E+03  0.84637458595E+03  0.10100000352E+00 0. -1.
</event>
<event>
 5   0  0.1374680E-07  0.2798549E+04  0.7818609E-02  0.8303719E-01
        1   -1    0    0  501    0  0.00000000000E+00  0.00000000000E+00  0.12013654340E+04  0.12013654340E+04  0.50400001928E-02 0.  1.
       -1   -1    0    0    0  501  0.00000000000E+00  0.00000000000E+00 -0.16297859566E+04  0.16297859566E+04  0.50400001928E-02 0. -1.
    10030    2    1    2    0    0  0.00000000000E+00  0.00000000000E+00 -0.42842052263E+03  0.28311513906E+04  0.27985485617E+04 0.  0.
        3    1    3    3  502    0  0.51107528065E+03  0.12000245544E+04  0.29835954188E+03  0.13380116965E+04  0.10100000352E+00 0. -1.
       -3    1    3    3    0  502 -0.51107528065E+03 -0.12000245544E+04 -0.72678006452E+03  0.14931396941E+04  0.10100000352E+00 0.  1.
</event>
<event>
 5   0  0.1366235E-07  0.2800278E+04  0.7818609E-02  0.8303182E-01
        1   -1    0    0  501    0  0.00000000000E+00  0.00000000000E+00  0.30717613859E+04  0.30717613859E+04  0.50400001928E-02 0.  1.
       -1   -1    0    0    0  501  0.00000000000E+00  0.00000000000E+00 -0.63819711178E+03  0.63819711180E+03  0.50400001928E-02 0. -1.
    10030    2    1    2    0    0  0.00000000000E+00  0.00000000000E+00  0.24335642741E+04  0.37099584977E+04  0.28002780181E+04 0.  0.
        2    1    3    3  502    0  0.77202260562E+03  0.24374787639E+03 -0.29666080703E+03  0.86222941568E+03  0.25500000920E-02 0. -1.
       -2    1    3    3    0  502 -0.77202260562E+03 -0.24374787639E+03  0.27302250811E+04  0.28477290820E+04  0.25500000920E-02 0.  1.
</event>
<event>
 5   0  0.1366235E-07  0.2799840E+04  0.7818609E-02  0.8303318E-01
        1   -1    0    0  501    0  0.00000000000E+00  0.00000000000E+00  0.14290144912E+04  0.14290144912E+04  0.50400001928E-02 0. -1.
       -1   -1    0    0    0  501  0.00000000000E+00  0.00000000000E+00 -0.13714180538E+04  0.13714180538E+04  0.50400001928E-02 0.  1.
    10030    2    1    2    0    0  0.00000000000E+00  0.00000000000E+00  0.57596437372E+02  0.28004325451E+04  0.27998401900E+04 0.  0.
        2    1    3    3  502    0 -0.37622096200E+03  0.60266551781E+03 -0.11777025365E+04  0.13754021968E+04  0.25500000920E-02 0.  1.
       -2    1    3    3    0  502  0.37622096200E+03 -0.60266551781E+03  0.12352989738E+04  0.14250303482E+04  0.25500000920E-02 0. -1.
</event>
<event>
 5   0  0.3406920E-07  0.2798912E+04  0.7818609E-02  0.8303606E-01
        2   -1    0    0  501    0  0.00000000000E+00  0.00000000000E+00  0.13721467275E+04  0.13721467275E+04  0.25500000920E-02 0.  1.
       -2   -1    0    0    0  501  0.00000000000E+00  0.00000000000E+00 -0.14273091809E+04  0.14273091809E+04  0.25500000920E-02 0. -1.
    10030    2    1    2    0    0  0.00000000000E+00  0.00000000000E+00 -0.55162453441E+02  0.27994559084E+04  0.27989123757E+04 0.  0.
        4    1    3    3  502    0 -0.13619462048E+04 -0.31999137159E+03 -0.61998171427E+02  0.14004061300E+04  0.12699999809E+01 0. -1.
       -4    1    3    3    0  502  0.13619462048E+04  0.31999137159E+03  0.68357179856E+01  0.13990497785E+04  0.12699999809E+01 0.  1.
</event>
<event>
 5   0  0.1346049E-07  0.2799780E+04  0.7818609E-02  0.8303337E-01
       -1   -1    0    0    0  501  0.00000000000E+00  0.00000000000E+00  0.13247082058E+04  0.13247082058E+04  0.50400001928E-02 0. -1.
        1   -1    0    0  501    0  0.00000000000E+00  0.00000000000E+00 -0.14793390476E+04  0.14793390476E+04  0.50400001928E-02 0.  1.
    10030    2    1    2    0    0  0.00000000000E+00  0.00000000000E+00 -0.15463084184E+03  0.28040472534E+04  0.27997804025E+04 0.  0.
        1    1    3    3  502    0  0.13882396461E+04 -0.15969533328E+03 -0.16099310171E+03  0.14066380818E+04  0.50400001928E-02 0.  1.
       -1    1    3    3    0  502 -0.13882396461E+04  0.15969533328E+03  0.63622598720E+01  0.13974091716E+04  0.50400001928E-02 0. -1.
</event>
<event>
 5   0  0.1346049E-07  0.2799570E+04  0.7818609E-02  0.8303402E-01
       -1   -1    0    0    0  501  0.00000000000E+00  0.00000000000E+00  0.29738988615E+04  0.29738988615E+04  0.50400001928E-02 0.  1.
        1   -1    0    0  501    0  0.00000000000E+00  0.00000000000E+00 -0.65886524152E+03  0.65886524154E+03  0.50400001928E-02 0. -1.
    10030    2    1    2    0    0  0.00000000000E+00  0.00000000000E+00  0.23150336200E+04  0.36327641031E+04  0.27995703897E+04 0.  0.
        1    1    3    3  502    0  0.95544248496E+03  0.10064628426E+04  0.91979888368E+03  0.16648927239E+04  0.50400001928E-02 0.  1.
       -1    1    3    3    0  502 -0.95544248496E+03 -0.10064628426E+04  0.13952347363E+04  0.19678713792E+04  0.50400001928E-02 0. -1.
</event>
<event>
 5   0  0.3557628E-07  0.2800054E+04  0.7818609E-02  0.8303252E-01
        2   -1    0    0  501    0  0.00000000000E+00  0.00000000000E+00  0.14405083270E+04  0.14405083270E+04  0.25500000920E-02 0. -1.
       -2   -1    0    0    0  501  0.00000000000E+00  0.00000000000E+00 -0.13606830212E+04  0.13606830212E+04  0.25500000920E-02 0.  1.
    10030    2    1    2    0    0  0.00000000000E+00  0.00000000000E+00  0.79825305829E+02  0.28011913482E+04  0.28000537298E+04 0.  0.
        5    1    3    3  502    0 -0.34466929240E+03 -0.80685269349E+03 -0.10515140716E+04  0.13694933818E+04  0.46999998093E+01 0.  1.
       -5    1    3    3    0  502  0.34466929240E+03  0.80685269349E+03  0.11313393774E+04  0.14316979664E+04  0.46999998093E+01 0. -1.
</event>
<event>
 5   0  0.3522569E-07  0.2781639E+04  0.7818609E-02  0.8308991E-01
        2   -1    0    0  501    0  0.00000000000E+00  0.00000000000E+00  0.26513439405E+04  0.26513439405E+04  0.25500000920E-02 0.  1.
       -2   -1    0    0    0  501  0.00000000000E+00  0.00000000000E+00 -0.72958444376E+03  0.72958444376E+03  0.25500000920E-02 0. -1.
    10030    2    1    2    0    0  0.00000000000E+00  0.00000000000E+00  0.19217594968E+04  0.33809283843E+04  0.27816392966E+04 0.  0.
        1    1    3    3  502    0  0.82968544978E+03  0.98205232546E+03  0.16058384104E+04  0.20570662886E+04  0.50400001928E-02 0.  1.
       -1    1    3    3    0  502 -0.82968544978E+03 -0.98205232546E+03  0.31592108640E+03  0.13238620957E+04  0.50400001928E-02 0. -1.
</event>
<event>
 5   0  0.3522569E-07  0.2803188E+04  0.7818609E-02  0.8302279E-01
       -2   -1    0    0    0  501  0.00000000000E+00  0.00000000000E+00  0.10468498612E+04  0.10468498612E+04  0.25500000920E-02 0. -1.
        2   -1    0    0  501    0  0.00000000000E+00  0.00000000000E+00 -0.18765495858E+04  0.18765495858E+04  0.25500000920E-02 0.  1.
    10030    2    1    2    0    0  0.00000000000E+00  0.00000000000E+00 -0.82969972464E+03  0.29233994470E+04  0.28031879519E+04 0.  0.
        1    1    3    3  502    0 -0.95201729322E+03  0.60877789450E+03 -0.12795749303E+04  0.17071202224E+04  0.50400001928E-02 0.  1.
       -1    1    3    3    0  502  0.95201729322E+03 -0.60877789450E+03  0.44987520566E+03  0.12162792246E+04  0.50400001928E-02 0. -1.
</event>
<event>
 5   0  0.1374680E-07  0.2799687E+04  0.7818609E-02  0.8303366E-01
        1   -1    0    0  501    0  0.00000000000E+00  0.00000000000E+00  0.25454623994E+04  0.25454623994E+04  0.50400001928E-02 0.  1.
       -1   -1    0    0    0  501  0.00000000000E+00  0.00000000000E+00 -0.76982526807E+03  0.76982526808E+03  0.50400001928E-02 0. -1.
    10030    2    1    2    0    0  0.00000000000E+00  0.00000000000E+00  0.17756371313E+04  0.33152876674E+04  0.27996866067E+04 0.  0.
        3    1    3    3  502    0 -0.57808590385E+03  0.31035960175E+03 -0.57645874671E+03  0.87339057213E+03  0.10100000352E+00 0. -1.
       -3    1    3    3    0  502  0.57808590385E+03 -0.31035960175E+03  0.23520958780E+04  0.24418970953E+04  0.10100000352E+00 0.  1.
</event>
<event>
 5   0  0.3557628E-07  0.2801938E+04  0.7818609E-02  0.8302667E-01
        2   -1    0    0  501    0  0.00000000000E+00  0.00000000000E+00  0.94560123230E+03  0.94560123231E+03  0.25500000920E-02 0. -1.
       -2   -1    0    0    0  501  0.00000000000E+00  0.00000000000E+00 -0.20756250114E+04  0.20756250114E+04  0.25500000920E-02 0.  1.
    10030    2    1    2    0    0  0.00000000000E+00  0.00000000000E+00 -0.11300237791E+04  0.30212262437E+04  0.28019375929E+04 0.  0.
        5    1    3    3  502    0  0.28062448318E+03  0.18195072490E+03  0.90191570696E+03  0.96194085022E+03  0.46999998093E+01 0. -1.
       -5    1    3    3    0  502 -0.28062448318E+03 -0.18195072490E+03 -0.20319394860E+04  0.20592853935E+04  0.46999998093E+01 0.  1.
</event>
<event>
 5   0  0.3571498E-07  0.2800735E+04  0.7818609E-02  0.8303040E-01
       -2   -1    0    0    0  501  0.00000000000E+00  0.00000000000E+00  0.10746872815E+04  0.10746872815E+04  0.25500000920E-02 0. -1.
        2   -1    0    0  501    0  0.00000000000E+00  0.00000000000E+00 -0.18247437729E+04  0.18247437729E+04  0.25500000920E-02 0.  1.
    10030    2    1    2    0    0  0.00000000000E+00  0.00000000000E+00 -0.75005649137E+03  0.28994310544E+04  0.28007348498E+04 0.  0.
        2    1    3    3  502    0 -0.10939891820E+04 -0.86765047322E+03 -0.48555793367E+03  0.14783085540E+04  0.25500000920E-02 0.  1.
       -2    1    3    3    0  502  0.10939891820E+04  0.86765047322E+03 -0.26449855770E+03  0.14211225004E+04  0.25500000920E-02 0. -1.
</event>
<event>
 5   0  0.1361741E-07  0.2802483E+04  0.7818609E-02  0.8302498E-01
        1   -1    0    0  501    0  0.00000000000E+00  0.00000000000E+00  0.19090149912E+04  0.19090149912E+04  0.50400001928E-02 0.  1.
       -1   -1    0    0    0  501  0.00000000000E+00  0.00000000000E+00 -0.10285293433E+04  0.10285293433E+04  0.50400001928E-02 0. -1.
    10030    2    1    2    0    0  0.00000000000E+00  0.00000000000E+00  0.88048564786E+03  0.29375443345E+04  0.28024831384E+04 0.  0.
        5    1    3    3  502    0  0.44368844476E+03 -0.30658962087E+03  0.17958609454E+04  0.18750987326E+04  0.46999998093E+01 0.  1.
       -5    1    3    3    0  502 -0.44368844476E+03  0.30658962087E+03 -0.91537529758E+03  0.10624456019E+04  0.46999998093E+01 0. -1.
</event>
<event>
 5   0  0.3522569E-07  0.2801004E+04  0.7818609E-02  0.8302957E-01
        2   -1    0    0  501    0  0.00000000000E+00  0.00000000000E+00  0.16993002265E+04  0.16993002265E+04  0.25500000920E-02 0.  1.
       -2   -1    0    0    0  501  0.00000000000E+00  0.00000000000E+00 -0.11542432425E+04  0.11542432425E+04  0.25500000920E-02 0. -1.
    10030    2    1    2    0    0  0.00000000000E+00  0.00000000000E+00  0.54505698406E+03  0.28535434690E+04  0.28010039653E+04 0.  0.
        1    1    3    3  502    0  0.10792636248E+04  0.30422450877E+03  0.11273401723E+04  0.15900498066E+04  0.50400001928E-02 0.  1.
       -1    1    3    3    0  502 -0.10792636248E+04 -0.30422450877E+03 -0.58228318824E+03  0.12634936624E+04  0.50400001928E-02 0. -1.
</event>
<event>
 5   0  0.3406920E-07  0.2796718E+04  0.7818609E-02  0.8304288E-01
        2   -1    0    0  501    0  0.00000000000E+00  0.00000000000E+00  0.14571055978E+04  0.14571055978E+04  0.25500000920E-02 0.  1.
       -2   -1    0    0    0  501  0.00000000000E+00  0.00000000000E+00 -0.13419809265E+04  0.13419809265E+04  0.25500000920E-02 0. -1.
    10030    2    1    2    0    0  0.00000000000E+00  0.00000000000E+00  0.11512467132E+03  0.27990865242E+04  0.27967180194E+04 0.  0.
        4    1    3    3  502    0 -0.93970267155E+03  0.68437907699E+03 -0.72026407947E+03  0.13675517500E+04  0.12699999809E+01 0. -1.
       -4    1    3    3    0  502  0.93970267155E+03 -0.68437907699E+03  0.83538875079E+03  0.14315347742E+04  0.12699999809E+01 0.  1.
</event>
<event>
 5   0  0.3522569E-07  0.2798681E+04  0.7818609E-02  0.8303678E-01
       -2   -1    0    0    0  501  0.00000000000E+00  0.00000000000E+00  0.95971986321E+03  0.95971986321E+03  0.25500000920E-02 0.  1.
        2   -1    0    0  501    0  0.00000000000E+00  0.00000000000E+00 -0.20403391818E+04  0.20403391818E+04  0.25500000920E-02 0. -1.
    10030    2    1    2    0    0  0.00000000000E+00  0.00000000000E+00 -0.10806193186E+04  0.30000590451E+04  0.27986811469E+04 0.  0.
        1    1    3    3  502    0  0.11425468595E+03  0.96306179325E+03 -0.16216626018E+04  0.18895321498E+04  0.50400001928E-02 0. -1.
       -1    1    3    3    0  502 -0.11425468595E+03 -0.96306179325E+03  0.54104328317E+03  0.11105268953E+04  0.50400001928E-02 0.  1.
</event>
<event>
 5   0  0.3571498E-07  0.2799865E+04  0.7818609E-02  0.8303310E-01
       -2   -1    0    0    0  501  0.00000000000E+00  0.00000000000E+00  0.15247340312E+04  0.15247340312E+04  0.25500000920E-02 0. -1.
        2   -1    0    0  501    0  0.00000000000E+00  0.00000000000E+00 -0.12853458670E+04  0.12853458670E+04  0.25500000920E-02 0.  1.
    10030    2    1    2    0    0  0.00000000000E+00  0.00000000000E+00  0.23938816415E+03  0.28100798982E+04  0.27998647005E+04 0.  0.
        2    1    3    3  502    0 -0.12555182791E+04 -0.76278465406E+02  0.73648161342E+03  0.14575835209E+04  0.25500000920E-02 0. -1.
       -2    1    3    3    0  502  0.12555182791E+04  0.76278465406E+02 -0.49709344927E+03  0.13524963773E+04  0.25500000920E-02 0.  1.
</event>
<event>
 5   0  0.1366235E-07  0.2798009E+04  0.7818609E-02  0.8303887E-01
       -1   -1    0    0    0  501  0.00000000000E+00  0.00000000000E+00  0.12331311632E+04  0.12331311632E+04  0.50400001928E-02 0.  1.
        1   -1    0    0  501    0  0.00000000000E+00  0.00000000000E+00 -0.15871899275E+04  0.15871899275E+04  0.50400001928E-02 0. -1.
    10030    2    1    2    0    0  0.00000000000E+00  0.00000000000E+00 -0.35405876424E+03  0.28203210907E+04  0.27980088360E+04 0.  0.
        2    1    3    3  502    0 -0.75513532626E+03  0.10553340570E+04  0.34987615239E+03  0.13440136364E+04  0.25500000920E-02 0.  1.
       -2    1    3    3    0  502  0.75513532626E+03 -0.10553340570E+04 -0.70393491663E+03  0.14763074543E+04  0.25500000920E-02 0. -1.
</event>
<event>
 5   0  0.1366235E-07  0.2799417E+04  0.7818609E-02  0.8303449E-01
        1   -1    0    0  501    0  0.00000000000E+00  0.00000000000E+00  0.14906032861E+04  0.14906032861E+04  0.50400001928E-02 0. -1.
       -1   -1    0    0    0  501  0.00000000000E+00  0.00000000000E+00 -0.13143562854E+04  0.13143562854E+04  0.50400001928E-02 0.  1.
    10030    2    1    2    0    0  0.00000000000E+00  0.00000000000E+00  0.17624700073E+03  0.28049595715E+04  0.27994169380E+04 0.  0.
        2    1    3    3  502    0  0.76892744787E+03 -0.10092681144E+04  0.68032012672E+03  0.14396899047E+04  0.25500000920E-02 0. -1.
       -2    1    3    3    0  502 -0.76892744787E+03  0.10092681144E+04 -0.50407312599E+03  0.13652696668E+04  0.25500000920E-02 0.  1.
</event>
<event>
 5   0  0.3522569E-07  0.2799132E+04  0.7818609E-02  0.8303538E-01
       -2   -1    0    0    0  501  0.00000000000E+00  0.00000000000E+00  0.12668713452E+04  0.12668713452E+04  0.25500000920E-02 0.  1.
        2   -1    0    0  501    0  0.00000000000E+00  0.00000000000E+00 -0.15461598636E+04  0.15461598636E+04  0.25500000920E-02 0. -1.
    10030    2    1    2    0    0  0.00000000000E+00  0.00000000000E+00 -0.27928851837E+03  0.28130312088E+04  0.27991324558E+04 0.  0.
        1    1    3    3  502    0  0.74605209228E+03 -0.45052624373E+03 -0.12401699134E+04  0.15157800087E+04  0.50400001928E-02 0. -1.
       -1    1    3    3    0  502 -0.74605209228E+03  0.45052624373E+03  0.96088139504E+03  0.12972512001E+04  0.50400001928E-02 0.  1.
</event>
<event>
 5   0  0.1346049E-07  0.2801287E+04  0.7818609E-02  0.8302869E-01
       -1   -1    0    0    0  501  0.00000000000E+00  0.00000000000E+00  0.13596980777E+04  0.13596980777E+04  0.50400001928E-02 0.  1.
        1   -1    0    0  501    0  0.00000000000E+00  0.00000000000E+00 -0.14428217608E+04  0.14428217608E+04  0.50400001928E-02 0. -1.
    10030    2    1    2    0    0  0.00000000000E+00  0.00000000000E+00 -0.83123683135E+02  0.28025198385E+04  0.28012868290E+04 0.  0.
        1    1    3    3  502    0 -0.11108181954E+04 -0.78658297950E+03  0.28899564928E+03  0.13914554726E+04  0.50400001928E-02 0. -1.
       -1    1    3    3    0  502  0.11108181954E+04  0.78658297950E+03 -0.37211933241E+03  0.14110643658E+04  0.50400001928E-02 0.  1.
</event>
<event>
 5   0  0.1361741E-07  0.2799760E+04  0.7818609E-02  0.8303343E-01
        1   -1    0    0  501    0  0.00000000000E+00  0.00000000000E+00  0.17200058629E+04  0.17200058629E+04  0.50400001928E-02 0.  1.
       -1   -1    0    0    0  501  0.00000000000E+00  0.00000000000E+00 -0.11393358217E+04  0.11393358217E+04  0.50400001928E-02 0. -1.
    10030    2    1    2    0    0  0.00000000000E+00  0.00000000000E+00  0.58067004113E+03  0.28593416846E+04  0.27997601991E+04 0.  0.
        5    1    3    3  502    0 -0.15460520721E+03  0.75507622823E+03  0.14837922692E+04  0.16720360250E+04  0.46999998093E+01 0.  1.
       -5    1    3    3    0  502  0.15460520721E+03 -0.75507622823E+03 -0.90312222809E+03  0.11873056596E+04  0.46999998093E+01 0. -1.
</event>
<event>
 5   0  0.3522569E-07  0.2800443E+04  0.7818609E-02  0.8303131E-01
        2   -1    0    0  501    0  0.00000000000E+00  0.00000000000E+00  0.13553470058E+04  0.13553470058E+04  0.25500000920E-02 0. -1.
       -2   -1    0    0    0  501  0.00000000000E+00  0.00000000000E+00 -0.14465820695E+04  0.14465820696E+04  0.25500000920E-02 0.  1.
    10030    2    1    2    0    0  0.00000000000E+00  0.00000000000E+00 -0.91235063758E+02  0.28019290753E+04  0.28004433053E+04 0.  0.
        1    1    3    3  502    0 -0.98233967904E+03 -0.27534823626E+03 -0.10051950687E+04  0.14322098388E+04  0.50400001928E-02 0.  1.
       -1    1    3    3    0  502  0.98233967904E+03  0.27534823626E+03  0.91396000495E+03  0.13697192365E+04  0.50400001928E-02 0. -1.
</event>
<event>
 5   0  0.1357902E-07  0.2799865E+04  0.7818609E-02  0.8303310E-01
       -1   -1    0    0    0  501  0.00000000000E+00  0.00000000000E+00  0.10061857651E+04  0.10061857651E+04  0.50400001928E-02 0. -1.
        1   -1    0    0  501    0  0.00000000000E+00  0.00000000000E+00 -0.19477623340E+04  0.19477623340E+04  0.50400001928E-02 0.  1.
    10030    2    1    2    0    0  0.00000000000E+00  0.00000000000E+00 -0.94157656891E+03  0.29539480991E+04  0.27998648070E+04 0.  0.
        4    1    3    3  502    0 -0.74911927510E+03 -0.24452981490E+03  0.74996882712E+03  0.10878554009E+04  0.12699999809E+01 0. -1.
       -4    1    3    3    0  502  0.74911927510E+03  0.24452981490E+03 -0.16915453960E+04  0.18660926982E+04  0.12699999809E+01 0.  1.
</event>
<event>
 5   0  0.3571498E-07  0.2798947E+04  0.7818609E-02  0.8303595E-01
        2   -1    0    0  501    0  0.00000000000E+00  0.00000000000E+00  0.22554038879E+04  0.22554038879E+04  0.25500000920E-02 0. -1.
       -2   -1    0    0    0  501  0.00000000000E+00  0.00000000000E+00 -0.86837022592E+03  0.86837022593E+03  0.25500000920E-02 0.  1.
    10030    2    1    2    0    0  0.00000000000E+00  0.00000000000E+00  0.13870336620E+04  0.31237741139E+04  0.27989466474E+04 0.  0.
        2    1    3    3  502    0 -0.89246167042E+03  0.60631167952E+03 -0.30122676419E+03  0.11201960763E+04  0.25500000920E-02 0.  1.
       -2    1    3    3    0  502  0.89246167042E+03 -0.60631167952E+03  0.16882604262E+04  0.20035780376E+04  0.25500000920E-02 0. -1.
</event>
<event>
 5   0  0.1357902E-07  0.2800292E+04  0.7818609E-02  0.8303178E-01
        1   -1    0    0  501    0  0.00000000000E+00  0.00000000000E+00  0.17864952718E+04  0.17864952718E+04  0.50400001928E-02 0.  1.
       -1   -1    0    0    0  501  0.00000000000E+00  0.00000000000E+00 -0.10973486977E+04  0.10973486978E+04  0.50400001928E-02 0. -1.
    10030    2    1    2    0    0  0.00000000000E+00  0.00000000000E+00  0.68914657407E+03  0.28838439696E+04  0.28002915992E+04 0.  0.
        4    1    3    3  502    0 -0.40624503728E+03  0.20378301129E+03  0.17084150807E+04  0.17678366007E+04  0.12699999809E+01 0.  1.
       -4    1    3    3    0  502  0.40624503728E+03 -0.20378301129E+03 -0.10192685066E+04  0.11160073689E+04  0.12699999809E+01 0. -1.
</event>
<event>
 5   0  0.1346049E-07  0.2799059E+04  0.7818609E-02  0.8303561E-01
       -1   -1    0    0    0  501  0.00000000000E+00  0.00000000000E+00  0.99252334470E+03  0.99252334471E+03  0.50400001928E-02 0.  1.
        1   -1    0    0  501    0  0.00000000000E+00  0.00000000000E+00 -0.19734368312E+04  0.19734368312E+04  0.50400001928E-02 0. -1.
    10030    2    1    2    0    0  0.00000000000E+00  0.00000000000E+00 -0.98091348650E+03  0.29659601759E+04  0.27990585019E+04 0.  0.
        1    1    3    3  502    0 -0.43705795558E+03 -0.12129235657E+04  0.86509266760E+02  0.12921637226E+04  0.50400001928E-02 0. -1.
       -1    1    3    3    0  502  0.43705795558E+03  0.12129235657E+04 -0.10674227533E+04  0.16737964533E+04  0.50400001928E-02 0.  1.
</event>
<event>
 5   0  0.3557628E-07  0.2803421E+04  0.7818609E-02  0.8302207E-01
       -2   -1    0    0    0  501  0.00000000000E+00  0.00000000000E+00  0.14512243007E+04  0.14512243008E+04  0.25500000920E-02 0. -1.
        2   -1    0    0  501    0  0.00000000000E+00  0.00000000000E+00 -0.13538856265E+04  0.13538856265E+04  0.25500000920E-02 0.  1.
    10030    2    1    2    0    0  0.00000000000E+00  0.00000000000E+00  0.97338674292E+02  0.28051099272E+04  0.28034205689E+04 0.  0.
        5    1    3    3  502    0 -0.58953716320E+03  0.99417199379E+02 -0.12199005445E+04  0.13585349738E+04  0.46999998093E+01 0.  1.
       -5    1    3    3    0  502  0.58953716320E+03 -0.99417199379E+02  0.13172392188E+04  0.14465749535E+04  0.46999998093E+01 0. -1.
</event>
<event>
 5   0  0.1374680E-07  0.2799766E+04  0.7818609E-02  0.8303341E-01
       -1   -1    0    0    0  501  0.00000000000E+00  0.00000000000E+00  0.12661869546E+04  0.12661869546E+04  0.50400001928E-02 0. -1.
        1   -1    0    0  501    0  0.00000000000E+00  0.00000000000E+00 -0.15476961530E+04  0.15476961530E+04  0.50400001928E-02 0.  1.
    10030    2    1    2    0    0  0.00000000000E+00  0.00000000000E+00 -0.28150919836E+03  0.28138831076E+04  0.27997661893E+04 0.  0.
        3    1    3    3  502    0  0.72235648118E+03 -0.31380646080E+03 -0.13039142263E+04  0.15233074872E+04  0.10100000352E+00 0.  1.
       -3    1    3    3    0  502 -0.72235648118E+03  0.31380646080E+03  0.10224050279E+04  0.12905756204E+04  0.10100000352E+00 0. -1.
</event>
<event>
 5   0  0.1361741E-07  0.2796598E+04  0.7818609E-02  0.8304325E-01
        1   -1    0    0  501    0  0.00000000000E+00  0.00000000000E+00  0.21862177810E+04  0.21862177810E+04  0.50400001928E-02 0.  1.
       -1   -1    0    0    0  501  0.00000000000E+00  0.00000000000E+00 -0.89434795586E+03  0.89434795588E+03  0.50400001928E-02 0. -1.
    10030    2    1    2    0    0  0.00000000000E+00  0.00000000000E+00  0.12918698251E+04  0.30805657368E+04  0.27965975066E+04 0.  0.
        5    1    3    3  502    0 -0.48768881332E+03  0.30709994514E+03  0.20492935741E+04  0.21287970777E+04  0.46999998093E+01 0.  1.
       -5    1    3    3    0  502  0.48768881332E+03 -0.30709994514E+03 -0.75742374904E+03  0.95176865916E+03  0.46999998093E+01 0. -1.
</event>
<event>
 5   0  0.3571498E-07  0.2798366E+04  0.7818609E-02  0.8303776E-01
        2   -1    0    0  501    0  0.00000000000E+00  0.00000000000E+00  0.23375359629E+04  0.23375359629E+04  0.25500000920E-02 0.  1.
       -2   -1    0    0    0  501  0.00000000000E+00  0.00000000000E+00 -0.83751146720E+03  0.83751146721E+03  0.25500000920E-02 0. -1.
    10030    2    1    2    0    0  0.00000000000E+00  0.00000000000E+00  0.15000244957E+04  0.31750474301E+04  0.27983660761E+04 0.  0.
        2    1    3    3  502    0  0.37674368054E+03 -0.11931327668E+04  0.39443843269E+02  0.12518216394E+04  0.25500000920E-02 0. -1.
       -2    1    3    3    0  502 -0.37674368054E+03  0.11931327668E+04  0.14605806524E+04  0.19232257908E+04  0.25500000920E-02 0.  1.
</event>
<event>
 5   0  0.3406920E-07  0.2798004E+04  0.7818609E-02  0.8303888E-01
       -2   -1    0    0    0  501  0.00000000000E+00  0.00000000000E+00  0.16352019161E+04  0.16352019161E+04  0.25500000920E-02 0.  1.
        2   -1    0    0  501    0  0.00000000000E+00  0.00000000000E+00 -0.11969207089E+04  0.11969207089E+04  0.25500000920E-02 0. -1.
    10030    2    1    2    0    0  0.00000000000E+00  0.00000000000E+00  0.43828120722E+03  0.28321226250E+04  0.27980043150E+04 0.  0.
        4    1    3    3  502    0 -0.12096918321E+04  0.26992534377E+03 -0.43760970826E+03  0.13144268293E+04  0.12699999809E+01 0. -1.
       -4    1    3    3    0  502  0.12096918321E+04 -0.26992534377E+03  0.87589091547E+03  0.15176957958E+04  0.12699999809E+01 0.  1.
</event>
<event>
 5   0  0.1374680E-07  0.2794687E+04  0.7818609E-02  0.8304920E-01
        1   -1    0    0  501    0  0.00000000000E+00  0.00000000000E+00  0.19638086972E+04  0.19638086973E+04  0.50400001928E-02 0. -1.
       -1   -1    0    0    0  501  0.00000000000E+00  0.00000000000E+00 -0.99427650038E+03  0.99427650039E+03  0.50400001928E-02 0.  1.
    10030    2    1    2    0    0  0.00000000000E+00  0.00000000000E+00  0.96953219687E+03  0.29580851976E+04  0.27946869871E+04 0.  0.
        3    1    3    3  502    0 -0.29593772984E+03 -0.89892720105E+03  0.15729404278E+04  0.18356990092E+04  0.10100000352E+00 0. -1.
       -3    1    3    3    0  502  0.29593772984E+03  0.89892720105E+03 -0.60340823092E+03  0.11223861885E+04  0.10100000352E+00 0.  1.
</event>
<event>
 5   0  0.3571498E-07  0.2801006E+04  0.7818609E-02  0.8302956E-01
        2   -1    0    0  501    0  0.00000000000E+00  0.00000000000E+00  0.20278204587E+04  0.20278204587E+04  0.25500000920E-02 0.  1.
       -2   -1    0    0    0  501  0.00000000000E+00  0.00000000000E+00 -0.96724963100E+03  0.96724963100E+03  0.25500000920E-02 0. -1.
    10030    2    1    2    0    0  0.00000000000E+00  0.00000000000E+00  0.10605708277E+04  0.29950700897E+04  0.28010059553E+04 0.  0.
        2    1    3    3  502    0 -0.80262570362E+03 -0.14440253247E+03 -0.68717216926E+03  0.10664266040E+04  0.25500000920E-02 0. -1.
       -2    1    3    3    0  502  0.80262570362E+03  0.14440253247E+03  0.17477429969E+04  0.19286434857E+04  0.25500000920E-02 0.  1.
</event>
<event>
 5   0  0.3406920E-07  0.2799486E+04  0.7818609E-02  0.8303428E-01
        2   -1    0    0  501    0  0.00000000000E+00  0.00000000000E+00  0.14623774933E+04  0.14623774933E+04  0.25500000920E-02 0. -1.
       -2   -1    0    0    0  501  0.00000000000E+00  0.00000000000E+00 -0.13397910824E+04  0.13397910824E+04  0.25500000920E-02 0.  1.
    10030    2    1    2    0    0  0.00000000000E+00  0.00000000000E+00  0.12258641088E+03  0.28021685758E+04  0.27994858990E+04 0.  0.
        4    1    3    3  502    0 -0.88080097321E+03  0.64455588469E+03 -0.81591185327E+03  0.13627092163E+04  0.12699999809E+01 0.  1.
       -4    1    3    3    0  502  0.88080097321E+03 -0.64455588469E+03  0.93849826415E+03  0.14394593595E+04  0.12699999809E+01 0. -1.
</event>
<event>
 5   0  0.3502141E-07  0.2800588E+04  0.7818609E-02  0.8303086E-01
        2   -1    0    0  501    0  0.00000000000E+00  0.00000000000E+00  0.16924182958E+04  0.16924182958E+04  0.25500000920E-02 0.  1.
       -2   -1    0    0    0  501  0.00000000000E+00  0.00000000000E+00 -0.11585928202E+04  0.11585928202E+04  0.25500000920E-02 0. -1.
    10030    2    1    2    0    0  0.00000000000E+00  0.00000000000E+00  0.53382547566E+03  0.28510111160E+04  0.28005882855E+04 0.  0.
        3    1    3    3  502    0 -0.12864529693E+04 -0.31110127581E+03  0.73239620217E+03  0.15126630336E+04  0.10100000352E+00 0. -1.
       -3    1    3    3    0  502  0.12864529693E+04  0.31110127581E+03 -0.19857072651E+03  0.13383480824E+04  0.10100000352E+00 0.  1.
</event>
<event>
 5   0  0.1361741E-07  0.2800206E+04  0.7818609E-02  0.8303205E-01
        1   -1    0    0  501    0  0.00000000000E+00  0.00000000000E+00  0.16273002250E+04  0.16273002250E+04  0.50400001928E-02 0. -1.
       -1   -1    0    0    0  501  0.00000000000E+00  0.00000000000E+00 -0.12046257530E+04  0.12046257530E+04  0.50400001928E-02 0.  1.
    10030    2    1    2    0    0  0.00000000000E+00  0.00000000000E+00  0.42267447200E+03  0.28319259781E+04  0.28002055346E+04 0.  0.
        5    1    3    3  502    0  0.13328701921E+04  0.16309110264E+03  0.61221620076E+03  0.14757955221E+04  0.46999998093E+01 0. -1.
       -5    1    3    3    0  502 -0.13328701921E+04 -0.16309110264E+03 -0.18954172876E+03  0.13561304560E+04  0.46999998093E+01 0.  1.
</event>
<event>
 5   0  0.3571498E-07  0.2800465E+04  0.7818609E-02  0.8303124E-01
       -2   -1    0    0    0  501  0.00000000000E+00  0.00000000000E+00  0.10928463734E+04  0.10928463735E+04  0.25500000920E-02 0.  1.
        2   -1    0    0  501    0  0.00000000000E+00  0.00000000000E+00 -0.17940778832E+04  0.17940778832E+04  0.25500000920E-02 0. -1.
    10030    2    1    2    0    0  0.00000000000E+00  0.00000000000E+00 -0.70123150972E+03  0.28869242566E+04  0.28004653244E+04 0.  0.
        2    1    3    3  502    0  0.76754986930E+03 -0.27560405003E+03 -0.15239834905E+04  0.17284721790E+04  0.25500000920E-02 0. -1.
       -2    1    3    3    0  502 -0.76754986930E+03  0.27560405003E+03  0.82275198078E+03  0.11584520776E+04  0.25500000920E-02 0.  1.
</event>
<event>
 5   0  0.1173363E-07  0.2799231E+04  0.7818609E-02  0.8303507E-01
        3   -1    0    0  501    0  0.00000000000E+00  0.00000000000E+00  0.12131882712E+04  0.12131882754E+04  0.10100000352E+00 0. -1.
       -3   -1    0    0    0  501  0.00000000000E+00  0.00000000000E+00 -0.16146900532E+04  0.16146900564E+04  0.10100000352E+00 0.  1.
    10030    2    1    2    0    0  0.00000000000E+00  0.00000000000E+00 -0.40150178202E+03  0.28278783317E+04  0.27992306404E+04 0.  0.
        1    1    3    3  502    0 -0.16321656726E+03 -0.12159435927E+04  0.47976352749E+03  0.13173198210E+04  0.50400001928E-02 0. -1.
       -1    1    3    3    0  502  0.16321656726E+03  0.12159435927E+04 -0.88126530951E+03  0.15105585107E+04  0.50400001928E-02 0.  1.
</event>
<event>
 5   0  0.1357902E-07  0.2800827E+04  0.7818609E-02  0.8303012E-01
       -1   -1    0    0    0  501  0.00000000000E+00  0.00000000000E+00  0.14932392459E+04  0.14932392459E+04  0.50400001928E-02 0. -1.
        1   -1    0    0  501    0  0.00000000000E+00  0.00000000000E+00 -0.13133579380E+04  0.13133579380E+04  0.50400001928E-02 0.  1.
    10030    2    1    2    0    0  0.00000000000E+00  0.00000000000E+00  0.17988130785E+03  0.28065971839E+04  0.28008267472E+04 0.  0.
        4    1    3    3  502    0  0.11479494292E+04  0.73944599099E+03  0.40136663318E+03  0.14232586036E+04  0.12699999809E+01 0.  1.
       -4    1    3    3    0  502 -0.11479494292E+04 -0.73944599099E+03 -0.22148532533E+03  0.13833385803E+04  0.12699999809E+01 0. -1.
</event>
<event>
 5   0  0.3571498E-07  0.2802262E+04  0.7818609E-02  0.8302566E-01
       -2   -1    0    0    0  501  0.00000000000E+00  0.00000000000E+00  0.12272379142E+04  0.12272379142E+04  0.25500000920E-02 0. -1.
        2   -1    0    0  501    0  0.00000000000E+00  0.00000000000E+00 -0.15996642762E+04  0.15996642762E+04  0.25500000920E-02 0.  1.
    10030    2    1    2    0    0  0.00000000000E+00  0.00000000000E+00 -0.37242636203E+03  0.28269021904E+04  0.28022624073E+04 0.  0.
        2    1    3    3  502    0 -0.30708225889E+03  0.27491496033E+03 -0.15371260973E+04  0.15914252694E+04  0.25500000920E-02 0.  1.
       -2    1    3    3    0  502  0.30708225889E+03 -0.27491496033E+03  0.11646997352E+04  0.12354769210E+04  0.25500000920E-02 0. -1.
</event>
<event>
 5   0  0.1361741E-07  0.2795965E+04  0.7818609E-02  0.8304522E-01
        1   -1    0    0  501    0  0.00000000000E+00  0.00000000000E+00  0.16067923179E+04  0.16067923179E+04  0.50400001928E-02 0. -1.
       -1   -1    0    0    0  501  0.00000000000E+00  0.00000000000E+00 -0.12163081065E+04  0.12163081065E+04  0.50400001928E-02 0.  1.
    10030    2    1    2    0    0  0.00000000000E+00  0.00000000000E+00  0.39048421141E+03  0.28231004244E+04  0.27959646076E+04 0.  0.
        5    1    3    3  502    0 -0.12332414220E+04 -0.65596763175E+03  0.25195207774E+03  0.14193941941E+04  0.46999998093E+01 0.  1.
       -5    1    3    3    0  502  0.12332414220E+04  0.65596763175E+03  0.13853213367E+03  0.14037062303E+04  0.46999998093E+01 0. -1.
</event>
<event>
 5   0  0.1361741E-07  0.2804357E+04  0.7818609E-02  0.8301917E-01
        1   -1    0    0  501    0  0.00000000000E+00  0.00000000000E+00  0.21157911918E+04  0.21157911918E+04  0.50400001928E-02 0. -1.
       -1   -1    0    0    0  501  0.00000000000E+00  0.00000000000E+00 -0.92925258200E+03  0.92925258201E+03  0.50400001928E-02 0.  1.
    10030    2    1    2    0    0  0.00000000000E+00  0.00000000000E+00  0.11865386098E+04  0.30450437738E+04  0.28043569159E+04 0.  0.
        5    1    3    3  502    0  0.72440448551E+03  0.11729415081E+04  0.87122528541E+03  0.16308308398E+04  0.46999998093E+01 0. -1.
       -5    1    3    3    0  502 -0.72440448551E+03 -0.11729415081E+04  0.31531332435E+03  0.14142129340E+04  0.46999998093E+01 0.  1.
</event>
<event>
 5   0  0.1374680E-07  0.2800499E+04  0.7818609E-02  0.8303114E-01
       -1   -1    0    0    0  501  0.00000000000E+00  0.00000000000E+00  0.14505920825E+04  0.14505920825E+04  0.50400001928E-02 0. -1.
        1   -1    0    0  501    0  0.00000000000E+00  0.00000000000E+00 -0.13516536873E+04  0.13516536873E+04  0.50400001928E-02 0.  1.
    10030    2    1    2    0    0  0.00000000000E+00  0.00000000000E+00  0.98938395161E+02  0.28022457698E+04  0.28004986250E+04 0.  0.
        3    1    3    3  502    0 -0.71521302157E+03 -0.12037883351E+04  0.41583611836E+02  0.14008444699E+04  0.10100000352E+00 0. -1.
       -3    1    3    3    0  502  0.71521302157E+03  0.12037883351E+04  0.57354783326E+02  0.14014012999E+04  0.10100000352E+00 0.  1.
</event>
<event>
 5   0  0.1366235E-07  0.2799418E+04  0.7818609E-02  0.8303449E-01
        1   -1    0    0  501    0  0.00000000000E+00  0.00000000000E+00  0.13593828992E+04  0.13593828992E+04  0.50400001928E-02 0.  1.
       -1   -1    0    0    0  501  0.00000000000E+00  0.00000000000E+00 -0.14412313621E+04  0.14412313622E+04  0.50400001928E-02 0. -1.
    10030    2    1    2    0    0  0.00000000000E+00  0.00000000000E+00 -0.81848462969E+02  0.28006142613E+04  0.27994179877E+04 0.  0.
        2    1    3    3  502    0 -0.27320881714E+03  0.49761133849E+03  0.12390462670E+04  0.13628997592E+04  0.25500000920E-02 0.  1.
       -2    1    3    3    0  502  0.27320881714E+03 -0.49761133849E+03 -0.13208947300E+04  0.14377145021E+04  0.25500000920E-02 0. -1.
</event>
<event>
 5   0  0.3557628E-07  0.2799768E+04  0.7818609E-02  0.8303340E-01
        2   -1    0    0  501    0  0.00000000000E+00  0.00000000000E+00  0.12191956131E+04  0.12191956131E+04  0.25500000920E-02 0.  1.
       -2   -1    0    0    0  501  0.00000000000E+00  0.00000000000E+00 -0.16073514621E+04  0.16073514621E+04  0.25500000920E-02 0. -1.
    10030    2    1    2    0    0  0.00000000000E+00  0.00000000000E+00 -0.38815584901E+03  0.28265470752E+04  0.27997684556E+04 0.  0.
        5    1    3    3  502    0 -0.12007002501E+04  0.30532783462E+03 -0.85203803586E+03  0.15036279732E+04  0.46999998093E+01 0. -1.
       -5    1    3    3    0  502  0.12007002501E+04 -0.30532783462E+03  0.46388218685E+03  0.13229191020E+04  0.46999998093E+01 0.  1.
</event>
<event>
 5   0  0.1357902E-07  0.2800568E+04  0.7818609E-02  0.8303092E-01
        1   -1    0    0  501    0  0.00000000000E+00  0.00000000000E+00  0.11962629866E+04  0.11962629866E+04  0.50400001928E-02 0.  1.
       -1   -1    0    0    0  501  0.00000000000E+00  0.00000000000E+00 -0.16391000744E+04  0.16391000744E+04  0.50400001928E-02 0. -1.
    10030    2    1    2    0    0  0.00000000000E+00  0.00000000000E+00 -0.44283708775E+03  0.28353630610E+04  0.28005676213E+04 0.  0.
        4    1    3    3  502    0 -0.56823291713E+03  0.46667841999E+03  0.98507356140E+03  0.12292473022E+04  0.12699999809E+01 0.  1.
       -4    1    3    3    0  502  0.56823291713E+03 -0.46667841999E+03 -0.14279106492E+04  0.16061157588E+04  0.12699999809E+01 0. -1.
</event>
<event>
 5   0  0.1361741E-07  0.2801879E+04  0.7818609E-02  0.8302685E-01
        1   -1    0    0  501    0  0.00000000000E+00  0.00000000000E+00  0.21105316210E+04  0.21105316210E+04  0.50400001928E-02 0.  1.
       -1   -1    0    0    0  501  0.00000000000E+00  0.00000000000E+00 -0.92992277381E+03  0.92992277383E+03  0.50400001928E-02 0. -1.
    10030    2    1    2    0    0  0.00000000000E+00  0.00000000000E+00  0.11806088472E+04  0.30404543948E+04  0.28018789547E+04 0.  0.
        5    1    3    3  502    0  0.13876428989E+04  0.16764660121E+03  0.48763808010E+03  0.14803618425E+04  0.46999998093E+01 0. -1.
       -5    1    3    3    0  502 -0.13876428989E+04 -0.16764660121E+03  0.69297076709E+03  0.15600925523E+04  0.46999998093E+01 0.  1.
</event>
<event>
 5   0  0.3571498E-07  0.2803094E+04  0.7818609E-02  0.8302309E-01
        2   -1    0    0  501    0  0.00000000000E+00  0.00000000000E+00  0.11361805419E+04  0.11361805419E+04  0.25500000920E-02 0. -1.
       -2   -1    0    0    0  501  0.00000000000E+00  0.00000000000E+00 -0.17288919046E+04  0.17288919046E+04  0.25500000920E-02 0.  1.
    10030    2    1    2    0    0  0.00000000000E+00  0.00000000000E+00 -0.59271136264E+03  0.28650724465E+04  0.28030935347E+04 0.  0.
        2    1    3    3  502    0 -0.80459735166E+03 -0.91616982399E+03  0.41000303854E+03  0.12864083863E+04  0.25500000920E-02 0. -1.
       -2    1    3    3    0  502  0.80459735166E+03  0.91616982399E+03 -0.10027144012E+04  0.15786640602E+04  0.25500000920E-02 0.  1.
</event>
<event>
 5   0  0.1366235E-07  0.2800119E+04  0.7818609E-02  0.8303232E-01
       -1   -1    0    0    0  501  0.00000000000E+00  0.00000000000E+00  0.29459954273E+04  0.29459954273E+04  0.50400001928E-02 0.  1.
        1   -1    0    0  501    0  0.00000000000E+00  0.00000000000E+00 -0.66536626193E+03  0.66536626195E+03  0.50400001928E-02 0. -1.
    10030    2    1    2    0    0  0.00000000000E+00  0.00000000000E+00  0.22806291654E+04  0.36113616893E+04  0.28001185441E+04 0.  0.
        2    1    3    3  502    0  0.13185020864E+04 -0.65366443044E+02  0.53890586016E+03  0.14258822005E+04  0.25500000920E-02 0. -1.
       -2    1    3    3    0  502 -0.13185020864E+04  0.65366443044E+02  0.17417233053E+04  0.21854794888E+04  0.25500000920E-02 0.  1.
</event>
<event>
 5   0  0.3557628E-07  0.2802879E+04  0.7818609E-02  0.8302375E-01
       -2   -1    0    0    0  501  0.00000000000E+00  0.00000000000E+00  0.12949481013E+04  0.12949481013E+04  0.25500000920E-02 0.  1.
        2   -1    0    0  501    0  0.00000000000E+00  0.00000000000E+00 -0.15166888260E+04  0.15166888260E+04  0.25500000920E-02 0. -1.
    10030    2    1    2    0    0  0.00000000000E+00  0.00000000000E+00 -0.22174072467E+03  0.28116369273E+04  0.28028794591E+04 0.  0.
        5    1    3    3  502    0 -0.96775835762E+03  0.95148684161E+02  0.90144162289E+03  0.13259821267E+04  0.46999998093E+01 0.  1.
       -5    1    3    3    0  502  0.96775835762E+03 -0.95148684161E+02 -0.11231823476E+04  0.14856548007E+04  0.46999998093E+01 0. -1.
</event>
<event>
 5   0  0.1346049E-07  0.2800016E+04  0.7818609E-02  0.8303263E-01
        1   -1    0    0  501    0  0.00000000000E+00  0.00000000000E+00  0.13173001262E+04  0.13173001262E+04  0.50400001928E-02 0. -1.
       -1   -1    0    0    0  501  0.00000000000E+00  0.00000000000E+00 -0.14879086681E+04  0.14879086681E+04  0.50400001928E-02 0.  1.
    10030    2    1    2    0    0  0.00000000000E+00  0.00000000000E+00 -0.17060854182E+03  0.28052087943E+04  0.28000159116E+04 0.  0.
        1    1    3    3  502    0 -0.78376831977E+03  0.10205072447E+04 -0.63795623240E+03  0.14362158508E+04  0.50400001928E-02 0.  1.
       -1    1    3    3    0  502  0.78376831977E+03 -0.10205072447E+04  0.46734769058E+03  0.13689929435E+04  0.50400001928E-02 0. -1.
</event>
<event>
 5   0  0.3502141E-07  0.2796497E+04  0.7818609E-02  0.8304357E-01
       -2   -1    0    0    0  501  0.00000000000E+00  0.00000000000E+00  0.97418997167E+03  0.97418997167E+03  0.25500000920E-02 0. -1.
        2   -1    0    0  501    0  0.00000000000E+00  0.00000000000E+00 -0.20068966885E+04  0.20068966885E+04  0.25500000920E-02 0.  1.
    10030    2    1    2    0    0  0.00000000000E+00  0.00000000000E+00 -0.10327067168E+04  0.29810866602E+04  0.27964968286E+04 0.  0.
        3    1    3    3  502    0 -0.27312870162E+03 -0.25960281566E+03  0.91904297528E+03  0.99329396966E+03  0.10100000352E+00 0. -1.
       -3    1    3    3    0  502  0.27312870162E+03  0.25960281566E+03 -0.19517496921E+04  0.19877926905E+04  0.10100000352E+00 0.  1.
</event>
<event>
 5   0  0.3557628E-07  0.2801832E+04  0.7818609E-02  0.8302700E-01
       -2   -1    0    0    0  501  0.00000000000E+00  0.00000000000E+00  0.14116391867E+04  0.14116391867E+04  0.25500000920E-02 0. -1.
        2   -1    0    0  501    0  0.00000000000E+00  0.00000000000E+00 -0.13902745487E+04  0.13902745487E+04  0.25500000920E-02 0.  1.
    10030    2    1    2    0    0  0.00000000000E+00  0.00000000000E+00  0.21364637973E+02  0.28019137355E+04  0.28018322814E+04 0.  0.
        5    1    3    3  502    0 -0.43428324317E+03  0.28605064787E+03 -0.12901694872E+04  0.13910378515E+04  0.46999998093E+01 0.  1.
       -5    1    3    3    0  502  0.43428324317E+03 -0.28605064787E+03  0.13115341252E+04  0.14108758840E+04  0.46999998093E+01 0. -1.
</event>
<event>
 5   0  0.1346049E-07  0.2799933E+04  0.7818609E-02  0.8303289E-01
        1   -1    0    0  501    0  0.00000000000E+00  0.00000000000E+00  0.15740922651E+04  0.15740922651E+04  0.50400001928E-02 0. -1.
       -1   -1    0    0    0  501  0.00000000000E+00  0.00000000000E+00 -0.12451026143E+04  0.12451026143E+04  0.50400001928E-02 0.  1.
    10030    2    1    2    0    0  0.00000000000E+00  0.00000000000E+00  0.32898965086E+03  0.28191948794E+04  0.27999331381E+04 0.  0.
        1    1    3    3  502    0 -0.97458123935E+03 -0.55055394864E+03  0.10111050422E+04  0.15083937314E+04  0.50400001928E-02 0. -1.
       -1    1    3    3    0  502  0.97458123935E+03  0.55055394864E+03 -0.68211539138E+03  0.13108011480E+04  0.50400001928E-02 0.  1.
</event>
<event>
 5   0  0.3571498E-07  0.2800165E+04  0.7818609E-02  0.8303217E-01
        2   -1    0    0  501    0  0.00000000000E+00  0.00000000000E+00  0.91764986148E+03  0.91764986148E+03  0.25500000920E-02 0.  1.
       -2   -1    0    0    0  501  0.00000000000E+00  0.00000000000E+00 -0.21361428523E+04  0.21361428523E+04  0.25500000920E-02 0. -1.
    10030    2    1    2    0    0  0.00000000000E+00  0.00000000000E+00 -0.12184929908E+04  0.30537927138E+04  0.28001651326E+04 0.  0.
        2    1    3    3  502    0 -0.48719186933E+03 -0.46392954965E+03  0.72983005918E+03  0.99259178914E+03  0.25500000920E-02 0.  1.
       -2    1    3    3    0  502  0.48719186933E+03  0.46392954965E+03 -0.19483230500E+04  0.20612009246E+04  0.25500000920E-02 0. -1.
</event>
<event>
 5   0  0.3557628E-07  0.2797012E+04  0.7818609E-02  0.8304197E-01
       -2   -1    0    0    0  501  0.00000000000E+00  0.00000000000E+00  0.10021940591E+04  0.10021940591E+04  0.25500000920E-02 0. -1.
        2   -1    0    0  501    0  0.00000000000E+00  0.00000000000E+00 -0.19515375288E+04  0.19515375288E+04  0.25500000920E-02 0.  1.
    10030    2    1    2    0    0  0.00000000000E+00  0.00000000000E+00 -0.94934346971E+03  0.29537315880E+04  0.27970122042E+04 0.  0.
        5    1    3    3  502    0 -0.11132349920E+04  0.33855289068E+03 -0.12939551342E+04  0.17401873999E+04  0.46999998093E+01 0.  1.
       -5    1    3    3    0  502  0.11132349920E+04 -0.33855289068E+03  0.34461166452E+03  0.12135441881E+04  0.46999998093E+01 0. -1.
</event>
<event>
 5   0  0.1366235E-07  0.2800852E+04  0.7818609E-02  0.8303004E-01
        1   -1    0    0  501    0  0.00000000000E+00  0.00000000000E+00  0.21543490469E+04  0.21543490469E+04  0.50400001928E-02 0.  1.
       -1   -1    0    0    0  501  0.00000000000E+00  0.00000000000E+00 -0.91034115495E+03  0.91034115496E+03  0.50400001928E-02 0. -1.
    10030    2    1    2    0    0  0.00000000000E+00  0.00000000000E+00  0.12440078919E+04  0.30646902019E+04  0.28008517273E+04 0.  0.
        2    1    3    3  502    0  0.31389740210E+03  0.68859320493E+03 -0.66734202892E+03  0.10089784757E+04  0.25500000920E-02 0. -1.
       -2    1    3    3    0  502 -0.31389740210E+03 -0.68859320493E+03  0.19113499209E+04  0.20557117261E+04  0.25500000920E-02 0.  1.
</event>
<event>
 5   0  0.3557628E-07  0.2800334E+04  0.7818609E-02  0.8303165E-01
       -2   -1    0    0    0  501  0.00000000000E+00  0.00000000000E+00  0.15782734839E+04  0.15782734839E+04  0.25500000920E-02 0. -1.
        2   -1    0    0  501    0  0.00000000000E+00  0.00000000000E+00 -0.12421593075E+04  0.12421593075E+04  0.25500000920E-02 0.  1.
    10030    2    1    2    0    0  0.00000000000E+00  0.00000000000E+00  0.33611417646E+03  0.28204327914E+04  0.28003336214E+04 0.  0.
        5    1    3    3  502    0 -0.96233347676E+03  0.35272573159E+03 -0.79269929068E+03  0.12957219677E+04  0.46999998093E+01 0.  1.
       -5    1    3    3    0  502  0.96233347676E+03 -0.35272573159E+03  0.11288134671E+04  0.15247108237E+04  0.46999998093E+01 0. -1.
</event>
<event>
 5   0  0.1357902E-07  0.2799586E+04  0.7818609E-02  0.8303397E-01
        1   -1    0    0  501    0  0.00000000000E+00  0.00000000000E+00  0.24319448961E+04  0.24319448961E+04  0.50400001928E-02 0. -1.
       -1   -1    0    0    0  501  0.00000000000E+00  0.00000000000E+00 -0.80570108963E+03  0.80570108964E+03  0.50400001928E-02 0.  1.
    10030    2    1    2    0    0  0.00000000000E+00  0.00000000000E+00  0.16262438065E+04  0.32376459858E+04  0.27995861500E+04 0.  0.
        4    1    3    3  502    0  0.71943526029E+03 -0.88150106887E+02 -0.57178127705E+03  0.92319714946E+03  0.12699999809E+01 0.  1.
       -4    1    3    3    0  502 -0.71943526029E+03  0.88150106887E+02  0.21980250836E+04  0.23144488363E+04  0.12699999809E+01 0. -1.
</event>
<event>
 5   0  0.1361741E-07  0.2798664E+04  0.7818609E-02  0.8303683E-01
        1   -1    0    0  501    0  0.00000000000E+00  0.00000000000E+00  0.11895960423E+04  0.11895960424E+04  0.50400001928E-02 0. -1.
       -1   -1    0    0    0  501  0.00000000000E+00  0.00000000000E+00 -0.16460458548E+04  0.16460458548E+04  0.50400001928E-02 0.  1.
    10030    2    1    2    0    0  0.00000000000E+00  0.00000000000E+00 -0.45644981240E+03  0.28356418971E+04  0.27986637057E+04 0.  0.
        5    1    3    3  502    0  0.36784163216E+03  0.41550179118E+03 -0.15297827629E+04  0.16273311269E+04  0.46999998093E+01 0.  1.
       -5    1    3    3    0  502 -0.36784163216E+03 -0.41550179118E+03  0.10733329505E+04  0.12083107702E+04  0.46999998093E+01 0. -1.
</event>
<event>
 5   0  0.1361741E-07  0.2798131E+04  0.7818609E-02  0.8303849E-01
       -1   -1    0    0    0  501  0.00000000000E+00  0.00000000000E+00  0.20094681210E+04  0.20094681211E+04  0.50400001928E-02 0.  1.
        1   -1    0    0  501    0  0.00000000000E+00  0.00000000000E+00 -0.97408104474E+03  0.97408104475E+03  0.50400001928E-02 0. -1.
    10030    2    1    2    0    0  0.00000000000E+00  0.00000000000E+00  0.10353870763E+04  0.29835491658E+04  0.27981313813E+04 0.  0.
        5    1    3    3  502    0  0.44069260551E+03  0.12519017051E+04  0.98962249174E+03  0.16555490382E+04  0.46999998093E+01 0.  1.
       -5    1    3    3    0  502 -0.44069260551E+03 -0.12519017051E+04  0.45764584573E+02  0.13280001276E+04  0.46999998093E+01 0. -1.
</event>
<event>
 5   0  0.1173363E-07  0.2801870E+04  0.7818609E-02  0.8302688E-01
        3   -1    0    0  501    0  0.00000000000E+00  0.00000000000E+00  0.11012807430E+04  0.11012807477E+04  0.10100000352E+00 0.  1.
       -3   -1    0    0    0  501  0.00000000000E+00  0.00000000000E+00 -0.17821242242E+04  0.17821242271E+04  0.10100000352E+00 0. -1.
    10030    2    1    2    0    0  0.00000000000E+00  0.00000000000E+00 -0.68084348118E+03  0.28834049747E+04  0.28018701616E+04 0.  0.
        3    1    3    3  502    0  0.52955905311E+03  0.53218984203E+03 -0.15576172119E+04  0.17291125492E+04  0.10100000352E+00 0. -1.
       -3    1    3    3    0  502 -0.52955905311E+03 -0.53218984203E+03  0.87677373071E+03  0.11542924256E+04  0.10100000352E+00 0.  1.
</event>
<event>
 5   0  0.3502141E-07  0.2799608E+04  0.7818609E-02  0.8303390E-01
       -2   -1    0    0    0  501  0.00000000000E+00  0.00000000000E+00  0.89788622618E+03  0.89788622618E+03  0.25500000920E-02 0. -1.
        2   -1    0    0  501    0  0.00000000000E+00  0.00000000000E+00 -0.21822928657E+04  0.21822928657E+04  0.25500000920E-02 0.  1.
    10030    2    1    2    0    0  0.00000000000E+00  0.00000000000E+00 -0.12844066395E+04  0.30801790919E+04  0.27996076194E+04 0.  0.
        3    1    3    3  502    0 -0.40171961779E+03  0.11060112865E+04 -0.14763479657E+04  0.18879202693E+04  0.10100000352E+00 0.  1.
       -3    1    3    3    0  502  0.40171961779E+03 -0.11060112865E+04  0.19194132620E+03  0.11922588226E+04  0.10100000352E+00 0. -1.
</event>
<event>
 5   0  0.1361741E-07  0.2800742E+04  0.7818609E-02  0.8303038E-01
       -1   -1    0    0    0  501  0.00000000000E+00  0.00000000000E+00  0.10748225161E+04  0.10748225161E+04  0.50400001928E-02 0.  1.
        1   -1    0    0  501    0  0.00000000000E+00  0.00000000000E+00 -0.18245232712E+04  0.18245232712E+04  0.50400001928E-02 0. -1.
    10030    2    1    2    0    0  0.00000000000E+00  0.00000000000E+00 -0.74970075508E+03  0.28993457873E+04  0.28007418253E+04 0.  0.
        5    1    3    3  502    0  0.11168300573E+04  0.83120000884E+03 -0.53121031254E+03  0.14901037943E+04  0.46999998093E+01 0.  1.
       -5    1    3    3    0  502 -0.11168300573E+04 -0.83120000884E+03 -0.21849044254E+03  0.14092419930E+04  0.46999998093E+01 0. -1.
</event>
<event>
 5   0  0.1361741E-07  0.2800164E+04  0.7818609E-02  0.8303217E-01
        1   -1    0    0  501    0  0.00000000000E+00  0.00000000000E+00  0.20113904157E+04  0.20113904157E+04  0.50400001928E-02 0. -1.
       -1   -1    0    0    0  501  0.00000000000E+00  0.00000000000E+00 -0.97456446875E+03  0.97456446877E+03  0.50400001928E-02 0.  1.
    10030    2    1    2    0    0  0.00000000000E+00  0.00000000000E+00  0.10368259470E+04  0.29859548845E+04  0.28001640180E+04 0.  0.
        5    1    3    3  502    0  0.10415203739E+04  0.93559153212E+03  0.52966474624E+03  0.14968844437E+04  0.46999998093E+01 0.  1.
       -5    1    3    3    0  502 -0.10415203739E+04 -0.93559153212E+03  0.50716120072E+03  0.14890704408E+04  0.46999998093E+01 0. -1.
</event>
<event>
 5   0  0.3502141E-07  0.2800036E+04  0.7818609E-02  0.8303257E-01
        2   -1    0    0  501    0  0.00000000000E+00  0.00000000000E+00  0.14906348538E+04  0.14906348538E+04  0.25500000920E-02 0.  1.
       -2   -1    0    0    0  501  0.00000000000E+00  0.00000000000E+00 -0.13149097583E+04  0.13149097583E+04  0.25500000920E-02 0. -1.
    10030    2    1    2    0    0  0.00000000000E+00  0.00000000000E+00  0.17572509550E+03  0.28055446120E+04  0.28000359392E+04 0.  0.
        3    1    3    3  502    0 -0.11058805918E+04 -0.84725802662E+03 -0.51090703141E+02  0.13940689786E+04  0.10100000352E+00 0. -1.
       -3    1    3    3    0  502  0.11058805918E+04  0.84725802662E+03  0.22681579865E+03  0.14114756334E+04  0.10100000352E+00 0.  1.
</event>
<event>
 5   0  0.3522569E-07  0.2800327E+04  0.7818609E-02  0.8303167E-01
        2   -1    0    0  501    0  0.00000000000E+00  0.00000000000E+00  0.21241331511E+04  0.21241331511E+04  0.25500000920E-02 0.  1.
       -2   -1    0    0    0  501  0.00000000000E+00  0.00000000000E+00 -0.92294456222E+03  0.92294456223E+03  0.25500000920E-02 0. -1.
    10030    2    1    2    0    0  0.00000000000E+00  0.00000000000E+00  0.12011885889E+04  0.30470777134E+04  0.28003265105E+04 0.  0.
        1    1    3    3  502    0  0.91849364958E+03  0.12627827741E+03  0.17422756783E+04  0.19736011063E+04  0.50400001928E-02 0.  1.
       -1    1    3    3    0  502 -0.91849364958E+03 -0.12627827741E+03 -0.54108708934E+03  0.10734766071E+04  0.50400001928E-02 0. -1.
</event>
<event>
 5   0  0.3406920E-07  0.2801047E+04  0.7818609E-02  0.8302943E-01
       -2   -1    0    0    0  501  0.00000000000E+00  0.00000000000E+00  0.18569056672E+04  0.18569056672E+04  0.25500000920E-02 0. -1.
        2   -1    0    0  501    0  0.00000000000E+00  0.00000000000E+00 -0.10563090052E+04  0.10563090052E+04  0.25500000920E-02 0.  1.
    10030    2    1    2    0    0  0.00000000000E+00  0.00000000000E+00  0.80059666201E+03  0.29132146724E+04  0.28010470743E+04 0.  0.
        4    1    3    3  502    0 -0.58093245128E+03  0.12123180045E+04  0.80879521706E+03  0.15688686283E+04  0.12699999809E+01 0. -1.
       -4    1    3    3    0  502  0.58093245128E+03 -0.12123180045E+04 -0.81985550501E+01  0.13443460441E+04  0.12699999809E+01 0.  1.
</event>
<event>
 5   0  0.1366235E-07  0.2800220E+04  0.7818609E-02  0.8303200E-01
        1   -1    0    0  501    0  0.00000000000E+00  0.00000000000E+00  0.17132215355E+04  0.17132215356E+04  0.50400001928E-02 0.  1.
       -1   -1    0    0    0  501  0.00000000000E+00  0.00000000000E+00 -0.11442229062E+04  0.11442229062E+04  0.50400001928E-02 0. -1.
    10030    2    1    2    0    0  0.00000000000E+00  0.00000000000E+00  0.56899862939E+03  0.28574444417E+04  0.28002195088E+04 0.  0.
        2    1    3    3  502    0  0.25497825648E+03  0.41952025871E+02 -0.11196788253E+04  0.11491103322E+04  0.25500000920E-02 0. -1.
       -2    1    3    3    0  502 -0.25497825648E+03 -0.41952025871E+02  0.16886774547E+04  0.17083341095E+04  0.25500000920E-02 0.  1.
</event>
<event>
 5   0  0.3557628E-07  0.2800116E+04  0.7818609E-02  0.8303232E-01
        2   -1    0    0  501    0  0.00000000000E+00  0.00000000000E+00  0.17164271191E+04  0.17164271191E+04  0.25500000920E-02 0.  1.
       -2   -1    0    0    0  501  0.00000000000E+00  0.00000000000E+00 -0.11420017142E+04  0.11420017142E+04  0.25500000920E-02 0. -1.
    10030    2    1    2    0    0  0.00000000000E+00  0.00000000000E+00  0.57442540484E+03  0.28584288333E+04  0.28001162207E+04 0.  0.
        5    1    3    3  502    0 -0.44179941711E+03  0.62090514750E+03 -0.91173784261E+03  0.11882751831E+04  0.46999998093E+01 0. -1.
       -5    1    3    3    0  502  0.44179941711E+03 -0.62090514750E+03  0.14861632474E+04  0.16701536502E+04  0.46999998093E+01 0.  1.
</event>
<event>
 5   0  0.1357902E-07  0.2799602E+04  0.7818609E-02  0.8303392E-01
        1   -1    0    0  501    0  0.00000000000E+00  0.00000000000E+00  0.20004338492E+04  0.20004338492E+04  0.50400001928E-02 0.  1.
       -1   -1    0    0    0  501  0.00000000000E+00  0.00000000000E+00 -0.97950902262E+03  0.97950902263E+03  0.50400001928E-02 0. -1.
    10030    2    1    2    0    0  0.00000000000E+00  0.00000000000E+00  0.10209248265E+04  0.29799428718E+04  0.27996021178E+04 0.  0.
        4    1    3    3  502    0  0.80913854459E+03 -0.33448050821E+03  0.16729977969E+04  0.18882546534E+04  0.12699999809E+01 0.  1.
       -4    1    3    3    0  502 -0.80913854459E+03  0.33448050821E+03 -0.65207297034E+03  0.10916882184E+04  0.12699999809E+01 0. -1.
</event>
<event>
 5   0  0.3522569E-07  0.2800333E+04  0.7818609E-02  0.8303165E-01
       -2   -1    0    0    0  501  0.00000000000E+00  0.00000000000E+00  0.90373873680E+03  0.90373873680E+03  0.25500000920E-02 0. -1.
        2   -1    0    0  501    0  0.00000000000E+00  0.00000000000E+00 -0.21692842114E+04  0.21692842114E+04  0.25500000920E-02 0.  1.
    10030    2    1    2    0    0  0.00000000000E+00  0.00000000000E+00 -0.12655454746E+04  0.30730229482E+04  0.28003329609E+04 0.  0.
        1    1    3    3  502    0  0.50675956749E+03 -0.90232821953E+03 -0.16677254071E+04  0.19627301160E+04  0.50400001928E-02 0.  1.
       -1    1    3    3    0  502 -0.50675956749E+03  0.90232821953E+03  0.40217993249E+03  0.11102928321E+04  0.50400001928E-02 0. -1.
</event>
<event>
 5   0  0.3557628E-07  0.2799558E+04  0.7818609E-02  0.8303406E-01
        2   -1    0    0  501    0  0.00000000000E+00  0.00000000000E+00  0.11342913815E+04  0.11342913815E+04  0.25500000920E-02 0. -1.
       -2   -1    0    0    0  501  0.00000000000E+00  0.00000000000E+00 -0.17274058752E+04  0.17274058752E+04  0.25500000920E-02 0.  1.
    10030    2    1    2    0    0  0.00000000000E+00  0.00000000000E+00 -0.59311449368E+03  0.28616972566E+04  0.27995582484E+04 0.  0.
        5    1    3    3  502    0 -0.84666267846E+03  0.10323646074E+04 -0.72629935582E+03  0.15199168457E+04  0.46999998093E+01 0.  1.
       -5    1    3    3    0  502  0.84666267846E+03 -0.10323646074E+04  0.13318486213E+03  0.13417804109E+04  0.46999998093E+01 0. -1.
</event>
<event>
 5   0  0.3571498E-07  0.2798234E+04  0.7818609E-02  0.8303817E-01
       -2   -1    0    0    0  501  0.00000000000E+00  0.00000000000E+00  0.11225474760E+04  0.11225474760E+04  0.25500000920E-02 0.  1.
        2   -1    0    0  501    0  0.00000000000E+00  0.00000000000E+00 -0.17438266554E+04  0.17438266554E+04  0.25500000920E-02 0. -1.
    10030    2    1    2    0    0  0.00000000000E+00  0.00000000000E+00 -0.62127917937E+03  0.28663741314E+04  0.27982338791E+04 0.  0.
        2    1    3    3  502    0 -0.78829401467E+03  0.98946311717E+03 -0.92275562238E+03  0.15658616326E+04  0.25500000920E-02 0. -1.
       -2    1    3    3    0  502  0.78829401467E+03 -0.98946311717E+03  0.30147644302E+03  0.13005124988E+04  0.25500000920E-02 0.  1.
</event>
<event>
 5   0  0.1346049E-07  0.2799520E+04  0.7818609E-02  0.8303417E-01
       -1   -1    0    0    0  501  0.00000000000E+00  0.00000000000E+00  0.91590831474E+03  0.91590831475E+03  0.50400001928E-02 0. -1.
        1   -1    0    0  501    0  0.00000000000E+00  0.00000000000E+00 -0.21392183534E+04  0.21392183534E+04  0.50400001928E-02 0.  1.
    10030    2    1    2    0    0  0.00000000000E+00  0.00000000000E+00 -0.12233100386E+04  0.30551266681E+04  0.27995198709E+04 0.  0.
        1    1    3    3  502    0 -0.13087265725E+03 -0.66798457743E+03 -0.19464390532E+04  0.20620271667E+04  0.50400001928E-02 0.  1.
       -1    1    3    3    0  502  0.13087265725E+03  0.66798457743E+03  0.72312901458E+03  0.99309950149E+03  0.50400001928E-02 0. -1.
</event>
<event>
 5   0  0.1357902E-07  0.2799647E+04  0.7818609E-02  0.8303378E-01
        1   -1    0    0  501    0  0.00000000000E+00  0.00000000000E+00  0.12515542740E+04  0.12515542740E+04  0.50400001928E-02 0.  1.
       -1   -1    0    0    0  501  0.00000000000E+00  0.00000000000E+00 -0.15656576102E+04  0.15656576102E+04  0.50400001928E-02 0. -1.
    10030    2    1    2    0    0  0.00000000000E+00  0.00000000000E+00 -0.31410333624E+03  0.28172118842E+04  0.27996467447E+04 0.  0.
        4    1    3    3  502    0  0.39363245693E+03 -0.54783215307E+03  0.10771988529E+04  0.12709939263E+04  0.12699999809E+01 0.  1.
       -4    1    3    3    0  502 -0.39363245693E+03  0.54783215307E+03 -0.13913021891E+04  0.15462179579E+04  0.12699999809E+01 0. -1.
</event>
<event>
 5   0  0.3571498E-07  0.2799913E+04  0.7818609E-02  0.8303295E-01
        2   -1    0    0  501    0  0.00000000000E+00  0.00000000000E+00  0.11701967967E+04  0.11701967967E+04  0.25500000920E-02 0. -1.
       -2   -1    0    0    0  501  0.00000000000E+00  0.00000000000E+00 -0.16748275533E+04  0.16748275533E+04  0.25500000920E-02 0.  1.
    10030    2    1    2    0    0  0.00000000000E+00  0.00000000000E+00 -0.50463075661E+03  0.28450243501E+04  0.27999127401E+04 0.  0.
        2    1    3    3  502    0  0.19405748020E+03  0.12630267323E+04  0.32872201403E+03  0.13194517781E+04  0.25500000920E-02 0. -1.
       -2    1    3    3    0  502 -0.19405748020E+03 -0.12630267323E+04 -0.83335277064E+03  0.15255725720E+04  0.25500000920E-02 0.  1.
</event>
<event>
 5   0  0.3557628E-07  0.2798656E+04  0.7818609E-02  0.8303686E-01
        2   -1    0    0  501    0  0.00000000000E+00  0.00000000000E+00  0.23417041267E+04  0.23417041267E+04  0.25500000920E-02 0.  1.
       -2   -1    0    0    0  501  0.00000000000E+00  0.00000000000E+00 -0.83619384134E+03  0.83619384135E+03  0.25500000920E-02 0. -1.
    10030    2    1    2    0    0  0.00000000000E+00  0.00000000000E+00  0.15055102853E+04  0.31778979680E+04  0.27986557980E+04 0.  0.
        5    1    3    3  502    0  0.11913481045E+04  0.51656028274E+03  0.16059890620E+03  0.13084184844E+04  0.46999998093E+01 0. -1.
       -5    1    3    3    0  502 -0.11913481045E+04 -0.51656028274E+03  0.13449113791E+04  0.18694794836E+04  0.46999998093E+01 0.  1.
</event>
<event>
 5   0  0.1357902E-07  0.2799984E+04  0.7818609E-02  0.8303273E-01
        1   -1    0    0  501    0  0.00000000000E+00  0.00000000000E+00  0.21456372494E+04  0.21456372494E+04  0.50400001928E-02 0. -1.
       -1   -1    0    0    0  501  0.00000000000E+00  0.00000000000E+00 -0.91347113434E+03  0.91347113435E+03  0.50400001928E-02 0.  1.
    10030    2    1    2    0    0  0.00000000000E+00  0.00000000000E+00  0.12321661151E+04  0.30591083838E+04  0.27999840658E+04 0.  0.
        4    1    3    3  502    0  0.31191407618E+03  0.37786428349E+03  0.20489024207E+04  0.21066738120E+04  0.12699999809E+01 0. -1.
       -4    1    3    3    0  502 -0.31191407618E+03 -0.37786428349E+03 -0.81673630564E+03  0.95243457177E+03  0.12699999809E+01 0.  1.
</event>
<event>
 5   0  0.1366235E-07  0.2800702E+04  0.7818609E-02  0.8303051E-01
        1   -1    0    0  501    0  0.00000000000E+00  0.00000000000E+00  0.14610996843E+04  0.14610996843E+04  0.50400001928E-02 0.  1.
       -1   -1    0    0    0  501  0.00000000000E+00  0.00000000000E+00 -0.13421276907E+04  0.13421276907E+04  0.50400001928E-02 0. -1.
    10030    2    1    2    0    0  0.00000000000E+00  0.00000000000E+00  0.11897199360E+03  0.28032273750E+04  0.28007015872E+04 0.  0.
        2    1    3    3  502    0  0.63313446303E+03 -0.14099505628E+03  0.13016707067E+04  0.14543333465E+04  0.25500000920E-02 0.  1.
       -2    1    3    3    0  502 -0.63313446303E+03  0.14099505628E+03 -0.11826987131E+04  0.13488940285E+04  0.25500000920E-02 0. -1.
</event>
<event>
 5   0  0.3406920E-07  0.2801020E+04  0.7818609E-02  0.8302952E-01
       -2   -1    0    0    0  501  0.00000000000E+00  0.00000000000E+00  0.12843942128E+04  0.12843942128E+04  0.25500000920E-02 0. -1.
        2   -1    0    0  501    0  0.00000000000E+00  0.00000000000E+00 -0.15271233685E+04  0.15271233685E+04  0.25500000920E-02 0.  1.
    10030    2    1    2    0    0  0.00000000000E+00  0.00000000000E+00 -0.24272915568E+03  0.28115175813E+04  0.28010201119E+04 0.  0.
        4    1    3    3  502    0  0.10251980587E+03  0.70081847950E+03 -0.13341020206E+04  0.15104590911E+04  0.12699999809E+01 0.  1.
       -4    1    3    3    0  502 -0.10251980587E+03 -0.70081847950E+03  0.10913728649E+04  0.13010584902E+04  0.12699999809E+01 0. -1.
</event>
<event>
 5   0  0.1173363E-07  0.2799962E+04  0.7818609E-02  0.8303280E-01
       -3   -1    0    0    0  501  0.00000000000E+00  0.00000000000E+00  0.23638993821E+04  0.23638993843E+04  0.10100000352E+00 0. -1.
        3   -1    0    0  501    0  0.00000000000E+00  0.00000000000E+00 -0.82911588978E+03  0.82911589593E+03  0.10100000352E+00 0.  1.
    10030    2    1    2    0    0  0.00000000000E+00  0.00000000000E+00  0.15347834923E+04  0.31930152802E+04  0.27999618232E+04 0.  0.
        4    1    3    3  502    0 -0.75155083919E+03  0.27696238467E+03 -0.54201272783E+03  0.96711748843E+03  0.12699999809E+01 0.  1.
       -4    1    3    3    0  502  0.75155083919E+03 -0.27696238467E+03  0.20767962202E+04  0.22258977918E+04  0.12699999809E+01 0. -1.
</event>
<event>
 5   0  0.3406920E-07  0.2800113E+04  0.7818609E-02  0.8303233E-01
       -2   -1    0    0    0  501  0.00000000000E+00  0.00000000000E+00  0.28065821920E+04  0.28065821920E+04  0.25500000920E-02 0.  1.
        2   -1    0    0  501    0  0.00000000000E+00  0.00000000000E+00 -0.69841469604E+03  0.69841469604E+03  0.25500000920E-02 0. -1.
    10030    2    1    2    0    0  0.00000000000E+00  0.00000000000E+00  0.21081674960E+04  0.35049968881E+04  0.28001130324E+04 0.  0.
        4    1    3    3  502    0  0.13067042275E+04 -0.36230923578E+03  0.61792542965E+03  0.14901601826E+04  0.12699999809E+01 0. -1.
       -4    1    3    3    0  502 -0.13067042275E+04  0.36230923578E+03  0.14902420664E+04  0.20148367055E+04  0.12699999809E+01 0.  1.
</event>
<event>
 5   0  0.3406920E-07  0.2795722E+04  0.7818609E-02  0.8304598E-01
       -2   -1    0    0    0  501  0.00000000000E+00  0.00000000000E+00  0.84030173273E+03  0.84030173273E+03  0.25500000920E-02 0. -1.
        2   -1    0    0  501    0  0.00000000000E+00  0.00000000000E+00 -0.23253737091E+04  0.23253737091E+04  0.25500000920E-02 0.  1.
    10030    2    1    2    0    0  0.00000000000E+00  0.00000000000E+00 -0.14850719764E+04  0.31656754419E+04  0.27957221300E+04 0.  0.
        4    1    3    3  502    0  0.23558152235E+03 -0.13753781530E+04 -0.83625438519E+03  0.16268026086E+04  0.12699999809E+01 0. -1.
       -4    1    3    3    0  502 -0.23558152235E+03  0.13753781530E+04 -0.64881759122E+03  0.15388728333E+04  0.12699999809E+01 0.  1.
</event>
<event>
 5   0  0.3502141E-07  0.2800300E+04  0.7818609E-02  0.8303175E-01
       -2   -1    0    0    0  501  0.00000000000E+00  0.00000000000E+00  0.91384188133E+03  0.91384188133E+03  0.25500000920E-02 0.  1.
        2   -1    0    0  501    0  0.00000000000E+00  0.00000000000E+00 -0.21452502230E+04  0.21452502230E+04  0.25500000920E-02 0. -1.
    10030    2    1    2    0    0  0.00000000000E+00  0.00000000000E+00 -0.12314083417E+04  0.30590921043E+04  0.28002996266E+04 0.  0.
        3    1    3    3  502    0  0.78518919627E+03  0.37589297446E+03  0.58227423882E+03  0.10473112725E+04  0.10100000352E+00 0.  1.
       -3    1    3    3    0  502 -0.78518919627E+03 -0.37589297446E+03 -0.18136825805E+04  0.20117808318E+04  0.10100000352E+00 0. -1.
</event>
<event>
 5   0  0.1366235E-07  0.2799739E+04  0.7818609E-02  0.8303350E-01
       -1   -1    0    0    0  501  0.00000000000E+00  0.00000000000E+00  0.88125582762E+03  0.88125582763E+03  0.50400001928E-02 0. -1.
        1   -1    0    0  501    0  0.00000000000E+00  0.00000000000E+00 -0.22236835578E+04  0.22236835578E+04  0.50400001928E-02 0.  1.
    10030    2    1    2    0    0  0.00000000000E+00  0.00000000000E+00 -0.13424277302E+04  0.31049393855E+04  0.27997386265E+04 0.  0.
        2    1    3    3  502    0 -0.98528156433E+03  0.81841960836E+03 -0.12976267882E+04  0.18233007699E+04  0.25500000920E-02 0.  1.
       -2    1    3    3    0  502  0.98528156433E+03 -0.81841960836E+03 -0.44800942053E+02  0.12816386155E+04  0.25500000920E-02 0. -1.
</event>
<event>
 5   0  0.1346049E-07  0.2799957E+04  0.7818609E-02  0.8303282E-01
        1   -1    0    0  501    0  0.00000000000E+00  0.00000000000E+00  0.21082867089E+04  0.21082867089E+04  0.50400001928E-02 0.  1.
       -1   -1    0    0    0  501  0.00000000000E+00  0.00000000000E+00 -0.92963618180E+03  0.92963618181E+03  0.50400001928E-02 0. -1.
    10030    2    1    2    0    0  0.00000000000E+00  0.00000000000E+00  0.11786505271E+04  0.30379228907E+04  0.27999568612E+04 0.  0.
        1    1    3    3  502    0  0.70381039179E+03 -0.75636846817E+03 -0.43568651606E+03  0.11212783185E+04  0.50400001928E-02 0. -1.
       -1    1    3    3    0  502 -0.70381039179E+03  0.75636846817E+03  0.16143370431E+04  0.19166445722E+04  0.50400001928E-02 0.  1.
</event>
<event>
 5   0  0.1361741E-07  0.2800183E+04  0.7818609E-02  0.8303212E-01
        1   -1    0    0  501    0  0.00000000000E+00  0.00000000000E+00  0.17974057004E+04  0.17974057004E+04  0.50400001928E-02 0. -1.
       -1   -1    0    0    0  501  0.00000000000E+00  0.00000000000E+00 -0.10906028571E+04  0.10906028571E+04  0.50400001928E-02 0.  1.
    10030    2    1    2    0    0  0.00000000000E+00  0.00000000000E+00  0.70680284333E+03  0.28880085575E+04  0.28001827027E+04 0.  0.
        5    1    3    3  502    0 -0.60495664980E+03  0.10630051513E+04 -0.34935149605E+03  0.12720145666E+04  0.46999998093E+01 0.  1.
       -5    1    3    3    0  502  0.60495664980E+03 -0.10630051513E+04  0.10561543394E+04  0.16159939909E+04  0.46999998093E+01 0. -1.
</event>
<event>
 5   0  0.3522569E-07  0.2799814E+04  0.7818609E-02  0.8303326E-01
        2   -1    0    0  501    0  0.00000000000E+00  0.00000000000E+00  0.23225591686E+04  0.23225591686E+04  0.25500000920E-02 0.  1.
       -2   -1    0    0    0  501  0.00000000000E+00  0.00000000000E+00 -0.84378456884E+03  0.84378456884E+03  0.25500000920E-02 0. -1.
    10030    2    1    2    0    0  0.00000000000E+00  0.00000000000E+00  0.14787745998E+04  0.31663437375E+04  0.27998139843E+04 0.  0.
        1    1    3    3  502    0 -0.57787731324E+03  0.12639371677E+04  0.92950246246E+03  0.16719611780E+04  0.50400001928E-02 0. -1.
       -1    1    3    3    0  502  0.57787731324E+03 -0.12639371677E+04  0.54927213734E+03  0.14943825594E+04  0.50400001928E-02 0.  1.
</event>
<event>
 5   0  0.3557628E-07  0.2800952E+04  0.7818609E-02  0.8302973E-01
        2   -1    0    0  501    0  0.00000000000E+00  0.00000000000E+00  0.16778435300E+04  0.16778435300E+04  0.25500000920E-02 0. -1.
       -2   -1    0    0    0  501  0.00000000000E+00  0.00000000000E+00 -0.11689608495E+04  0.11689608495E+04  0.25500000920E-02 0.  1.
    10030    2    1    2    0    0  0.00000000000E+00  0.00000000000E+00  0.50888268047E+03  0.28468043795E+04  0.28009522653E+04 0.  0.
        5    1    3    3  502    0 -0.53916539570E+03  0.10406111702E+04  0.10336336924E+04  0.15626873109E+04  0.46999998093E+01 0. -1.
       -5    1    3    3    0  502  0.53916539570E+03 -0.10406111702E+04 -0.52475101196E+03  0.12841170686E+04  0.46999998093E+01 0.  1.
</event>
<event>
 5   0  0.3406920E-07  0.2800185E+04  0.7818609E-02  0.8303211E-01
       -2   -1    0    0    0  501  0.00000000000E+00  0.00000000000E+00  0.11795812846E+04  0.11795812846E+04  0.25500000920E-02 0. -1.
        2   -1    0    0  501    0  0.00000000000E+00  0.00000000000E+00 -0.16618263480E+04  0.16618263480E+04  0.25500000920E-02 0.  1.
    10030    2    1    2    0    0  0.00000000000E+00  0.00000000000E+00 -0.48224506342E+03  0.28414076326E+04  0.28001851784E+04 0.  0.
        4    1    3    3  502    0  0.89956806916E+03 -0.80718258132E+03 -0.95827371161E+03  0.15424190578E+04  0.12699999809E+01 0. -1.
       -4    1    3    3    0  502 -0.89956806916E+03  0.80718258132E+03  0.47602864819E+03  0.12989885748E+04  0.12699999809E+01 0.  1.
</event>
<event>
 5   0  0.1361741E-07  0.2799813E+04  0.7818609E-02  0.8303327E-01
       -1   -1    0    0    0  501  0.00000000000E+00  0.00000000000E+00  0.94965479919E+03  0.94965479920E+03  0.50400001928E-02 0. -1.
        1   -1    0    0  501    0  0.00000000000E+00  0.00000000000E+00 -0.20636315228E+04  0.20636315228E+04  0.50400001928E-02 0.  1.
    10030    2    1    2    0    0  0.00000000000E+00  0.00000000000E+00 -0.11139767236E+04  0.30132863220E+04  0.27998125504E+04 0.  0.
        5    1    3    3  502    0  0.32050660279E+03  0.43876424013E+03  0.83152587402E+03  0.99332568174E+03  0.46999998093E+01 0. -1.
       -5    1    3    3    0  502 -0.32050660279E+03 -0.43876424013E+03 -0.19455025976E+04  0.20199606403E+04  0.46999998093E+01 0.  1.
</event>
<event>
 5   0  0.1346049E-07  0.2788412E+04  0.7818609E-02  0.8306875E-01
       -1   -1    0    0    0  501  0.00000000000E+00  0.00000000000E+00  0.90221121727E+03  0.90221121729E+03  0.50400001928E-02 0. -1.
        1   -1    0    0  501    0  0.00000000000E+00  0.00000000000E+00 -0.21544959922E+04  0.21544959922E+04  0.50400001928E-02 0.  1.
    10030    2    1    2    0    0  0.00000000000E+00  0.00000000000E+00 -0.12522847749E+04  0.30567072095E+04  0.27884120583E+04 0.  0.
        1    1    3    3  502    0 -0.37991508500E+03  0.81480835541E+03  0.54201773488E+03  0.10497768110E+04  0.50400001928E-02 0. -1.
       -1    1    3    3    0  502  0.37991508500E+03 -0.81480835541E+03 -0.17943025098E+04  0.20069303986E+04  0.50400001928E-02 0.  1.
</event>
<event>
 5   0  0.1366235E-07  0.2799729E+04  0.7818609E-02  0.8303353E-01
       -1   -1    0    0    0  501  0.00000000000E+00  0.00000000000E+00  0.92558675377E+03  0.92558675378E+03  0.50400001928E-02 0. -1.
        1   -1    0    0  501    0  0.00000000000E+00  0.00000000000E+00 -0.21171657413E+04  0.21171657413E+04  0.50400001928E-02 0.  1.
    10030    2    1    2    0    0  0.00000000000E+00  0.00000000000E+00 -0.11915789875E+04  0.30427524951E+04  0.27997289624E+04 0.  0.
        2    1    3    3  502    0 -0.12628975067E+04 -0.38348564556E+03 -0.11028142765E+04  0.17199333363E+04  0.25500000920E-02 0.  1.
       -2    1    3    3    0  502  0.12628975067E+04  0.38348564556E+03 -0.88764711038E+02  0.13228191588E+04  0.25500000920E-02 0. -1.
</event>
<event>
 5   0  0.1366235E-07  0.2798326E+04  0.7818609E-02  0.8303788E-01
        1   -1    0    0  501    0  0.00000000000E+00  0.00000000000E+00  0.13593289201E+04  0.13593289201E+04  0.50400001928E-02 0.  1.
       -1   -1    0    0    0  501  0.00000000000E+00  0.00000000000E+00 -0.14401642854E+04  0.14401642854E+04  0.50400001928E-02 0. -1.
    10030    2    1    2    0    0  0.00000000000E+00  0.00000000000E+00 -0.80835365292E+02  0.27994932055E+04  0.27983259016E+04 0.  0.
        2    1    3    3  502    0  0.44851165982E+03 -0.13151096542E+04  0.12390932582E+03  0.13950016604E+04  0.25500000920E-02 0. -1.
       -2    1    3    3    0  502 -0.44851165982E+03  0.13151096542E+04 -0.20474469111E+03  0.14044915451E+04  0.25500000920E-02 0.  1.
</event>
<event>
 5   0  0.1361741E-07  0.2800212E+04  0.7818609E-02  0.8303203E-01
        1   -1    0    0  501    0  0.00000000000E+00  0.00000000000E+00  0.13136199819E+04  0.13136199819E+04  0.50400001928E-02 0. -1.
       -1   -1    0    0    0  501  0.00000000000E+00  0.00000000000E+00 -0.14922856448E+04  0.14922856448E+04  0.50400001928E-02 0.  1.
    10030    2    1    2    0    0  0.00000000000E+00  0.00000000000E+00 -0.17866566283E+03  0.28059056267E+04  0.28002115933E+04 0.  0.
        5    1    3    3  502    0 -0.92600789338E+03 -0.81741204414E+03 -0.74993136545E+03  0.14450163360E+04  0.46999998093E+01 0. -1.
       -5    1    3    3    0  502  0.92600789338E+03  0.81741204414E+03  0.57126570262E+03  0.13608892907E+04  0.46999998093E+01 0.  1.
</event>
<event>
 5   0  0.3522569E-07  0.2803201E+04  0.7818609E-02  0.8302275E-01
       -2   -1    0    0    0  501  0.00000000000E+00  0.00000000000E+00  0.15275338924E+04  0.15275338924E+04  0.25500000920E-02 0.  1.
        2   -1    0    0  501    0  0.00000000000E+00  0.00000000000E+00 -0.12860490655E+04  0.12860490655E+04  0.25500000920E-02 0. -1.
    10030    2    1    2    0    0  0.00000000000E+00  0.00000000000E+00  0.24148482693E+03  0.28135829579E+04  0.28032006955E+04 0.  0.
        1    1    3    3  502    0 -0.13075778043E+04  0.48341446112E+03 -0.24826737484E+02  0.13942975373E+04  0.50400001928E-02 0. -1.
       -1    1    3    3    0  502  0.13075778043E+04 -0.48341446112E+03  0.26631156442E+03  0.14192854205E+04  0.50400001928E-02 0.  1.
</event>
<event>
 5   0  0.1357902E-07  0.2799675E+04  0.7818609E-02  0.8303369E-01
       -1   -1    0    0    0  501  0.00000000000E+00  0.00000000000E+00  0.16206019915E+04  0.16206019915E+04  0.50400001928E-02 0.  1.
        1   -1    0    0  501    0  0.00000000000E+00  0.00000000000E+00 -0.12091466162E+04  0.12091466162E+04  0.50400001928E-02 0. -1.
    10030    2    1    2    0    0  0.00000000000E+00  0.00000000000E+00  0.41145537533E+03  0.28297486077E+04  0.27996752770E+04 0.  0.
        4    1    3    3  502    0  0.77750407980E+02 -0.13918653912E+04  0.33441145673E+03  0.14335853753E+04  0.12699999809E+01 0. -1.
       -4    1    3    3    0  502 -0.77750407980E+02  0.13918653912E+04  0.77043918603E+02  0.13961632323E+04  0.12699999809E+01 0.  1.
</event>
<event>
 5   0  0.1346049E-07  0.2799578E+04  0.7818609E-02  0.8303399E-01
       -1   -1    0    0    0  501  0.00000000000E+00  0.00000000000E+00  0.62806343486E+03  0.62806343488E+03  0.50400001928E-02 0.  1.
        1   -1    0    0  501    0  0.00000000000E+00  0.00000000000E+00 -0.31197643324E+04  0.31197643324E+04  0.50400001928E-02 0. -1.
    10030    2    1    2    0    0  0.00000000000E+00  0.00000000000E+00 -0.24917008975E+04  0.37478277673E+04  0.27995784701E+04 0.  0.
        1    1    3    3  502    0  0.13785333052E+04 -0.21059959529E+03 -0.14081806775E+04  0.19818373000E+04  0.50400001928E-02 0.  1.
       -1    1    3    3    0  502 -0.13785333052E+04  0.21059959529E+03 -0.10835202200E+04  0.17659904673E+04  0.50400001928E-02 0. -1.
</event>
<event>
 5   0  0.3406920E-07  0.2800203E+04  0.7818609E-02  0.8303205E-01
       -2   -1    0    0    0  501  0.00000000000E+00  0.00000000000E+00  0.80580788926E+03  0.80580788926E+03  0.25500000920E-02 0.  1.
        2   -1    0    0  501    0  0.00000000000E+00  0.00000000000E+00 -0.24326934987E+04  0.24326934987E+04  0.25500000920E-02 0. -1.
    10030    2    1    2    0    0  0.00000000000E+00  0.00000000000E+00 -0.16268856094E+04  0.32385013880E+04  0.28002025737E+04 0.  0.
        4    1    3    3  502    0  0.57933865902E+03  0.86778075864E+03 -0.18931712967E+04  0.21616604494E+04  0.12699999809E+01 0. -1.
       -4    1    3    3    0  502 -0.57933865902E+03 -0.86778075864E+03  0.26628568724E+03  0.10768409386E+04  0.12699999809E+01 0.  1.
</event>
<event>
 5   0  0.1361741E-07  0.2799840E+04  0.7818609E-02  0.8303318E-01
        1   -1    0    0  501    0  0.00000000000E+00  0.00000000000E+00  0.12158140178E+04  0.12158140178E+04  0.50400001928E-02 0.  1.
       -1   -1    0    0    0  501  0.00000000000E+00  0.00000000000E+00 -0.16119045770E+04  0.16119045770E+04  0.50400001928E-02 0. -1.
    10030    2    1    2    0    0  0.00000000000E+00  0.00000000000E+00 -0.39609055919E+03  0.28277185948E+04  0.27998401240E+04 0.  0.
        5    1    3    3  502    0  0.11170001373E+04 -0.12641814084E+02  0.65410063543E+03  0.12944955981E+04  0.46999998093E+01 0. -1.
       -5    1    3    3    0  502 -0.11170001373E+04  0.12641814084E+02 -0.10501911946E+04  0.15332229967E+04  0.46999998093E+01 0.  1.
</event>
<event>
 5   0  0.1361741E-07  0.2800215E+04  0.7818609E-02  0.8303202E-01
        1   -1    0    0  501    0  0.00000000000E+00  0.00000000000E+00  0.69504184486E+03  0.69504184488E+03  0.50400001928E-02 0.  1.
       -1   -1    0    0    0  501  0.00000000000E+00  0.00000000000E+00 -0.28204072096E+04  0.28204072096E+04  0.50400001928E-02 0. -1.
    10030    2    1    2    0    0  0.00000000000E+00  0.00000000000E+00 -0.21253653647E+04  0.35154490545E+04  0.28002150134E+04 0.  0.
        5    1    3    3  502    0 -0.93466793395E+03  0.22506451789E+03 -0.23405143803E+04  0.25302742614E+04  0.46999998093E+01 0. -1.
       -5    1    3    3    0  502  0.93466793395E+03 -0.22506451789E+03  0.21514901552E+03  0.98517479304E+03  0.46999998093E+01 0.  1.
</event>
<event>
 5   0  0.1366235E-07  0.2799675E+04  0.7818609E-02  0.8303369E-01
       -1   -1    0    0    0  501  0.00000000000E+00  0.00000000000E+00  0.15798187338E+04  0.15798187338E+04  0.50400001928E-02 0. -1.
        1   -1    0    0  501    0  0.00000000000E+00  0.00000000000E+00 -0.12403608041E+04  0.12403608042E+04  0.50400001928E-02 0.  1.
    10030    2    1    2    0    0  0.00000000000E+00  0.00000000000E+00  0.33945792967E+03  0.28201795380E+04  0.27996751491E+04 0.  0.
        2    1    3    3  502    0  0.41352956084E+03 -0.11085528554E+04 -0.58384697058E+03  0.13193837258E+04  0.25500000920E-02 0.  1.
       -2    1    3    3    0  502 -0.41352956084E+03  0.11085528554E+04  0.92330490026E+03  0.15007958122E+04  0.25500000920E-02 0. -1.
</event>
<event>
 5   0  0.3522569E-07  0.2803096E+04  0.7818609E-02  0.8302308E-01
        2   -1    0    0  501    0  0.00000000000E+00  0.00000000000E+00  0.11430536834E+04  0.11430536834E+04  0.25500000920E-02 0.  1.
       -2   -1    0    0    0  501  0.00000000000E+00  0.00000000000E+00 -0.17184994108E+04  0.17184994108E+04  0.25500000920E-02 0. -1.
    10030    2    1    2    0    0  0.00000000000E+00  0.00000000000E+00 -0.57544572745E+03  0.28615530942E+04  0.28030962034E+04 0.  0.
        1    1    3    3  502    0  0.14012569663E+04  0.27855583489E+02 -0.28126138728E+03  0.14294771726E+04  0.50400001928E-02 0.  1.
       -1    1    3    3    0  502 -0.14012569663E+04 -0.27855583489E+02 -0.29418434017E+03  0.14320759216E+04  0.50400001928E-02 0. -1.
</event>
<event>
 5   0  0.1357902E-07  0.2798920E+04  0.7818609E-02  0.8303604E-01
       -1   -1    0    0    0  501  0.00000000000E+00  0.00000000000E+00  0.17058472972E+04  0.17058472972E+04  0.50400001928E-02 0. -1.
        1   -1    0    0  501    0  0.00000000000E+00  0.00000000000E+00 -0.11481031454E+04  0.11481031454E+04  0.50400001928E-02 0.  1.
    10030    2    1    2    0    0  0.00000000000E+00  0.00000000000E+00  0.55774415179E+03  0.28539504426E+04  0.27989202543E+04 0.  0.
        4    1    3    3  502    0  0.34797509919E+03 -0.13529676750E+04  0.36344149840E+03  0.14435025233E+04  0.12699999809E+01 0.  1.
       -4    1    3    3    0  502 -0.34797509919E+03  0.13529676750E+04  0.19430265339E+03  0.14104479193E+04  0.12699999809E+01 0. -1.
</event>
<event>
 5   0  0.3522569E-07  0.2804877E+04  0.7818609E-02  0.8301756E-01
        2   -1    0    0  501    0  0.00000000000E+00  0.00000000000E+00  0.20770325161E+04  0.20770325161E+04  0.25500000920E-02 0. -1.
       -2   -1    0    0    0  501  0.00000000000E+00  0.00000000000E+00 -0.94694406902E+03  0.94694406902E+03  0.25500000920E-02 0.  1.
    10030    2    1    2    0    0  0.00000000000E+00  0.00000000000E+00  0.11300884471E+04  0.30239765851E+04  0.28048769116E+04 0.  0.
        1    1    3    3  502    0  0.10395280088E+04 -0.87061635138E+03  0.95112687073E+03  0.16562710034E+04  0.50400001928E-02 0. -1.
       -1    1    3    3    0  502 -0.10395280088E+04  0.87061635138E+03  0.17896157634E+03  0.13677055817E+04  0.50400001928E-02 0.  1.
</event>
<event>
 5   0  0.3502141E-07  0.2797880E+04  0.7818609E-02  0.8303927E-01
        2   -1    0    0  501    0  0.00000000000E+00  0.00000000000E+00  0.16633796303E+04  0.16633796303E+04  0.25500000920E-02 0. -1.
       -2   -1    0    0    0  501  0.00000000000E+00  0.00000000000E+00 -0.11765401964E+04  0.11765401964E+04  0.25500000920E-02 0.  1.
    10030    2    1    2    0    0  0.00000000000E+00  0.00000000000E+00  0.48683943395E+03  0.28399198267E+04  0.27978799094E+04 0.  0.
        3    1    3    3  502    0 -0.10461384523E+04 -0.66657621932E+02  0.11837214543E+04  0.15811531841E+04  0.10100000352E+00 0. -1.
       -3    1    3    3    0  502  0.10461384523E+04  0.66657621932E+02 -0.69688202035E+03  0.12587666426E+04  0.10100000352E+00 0.  1.
</event>
<event>
 5   0  0.3502141E-07  0.2800379E+04  0.7818609E-02  0.8303151E-01
        2   -1    0    0  501    0  0.00000000000E+00  0.00000000000E+00  0.17397239272E+04  0.17397239272E+04  0.25500000920E-02 0.  1.
       -2   -1    0    0    0  501  0.00000000000E+00  0.00000000000E+00 -0.11269203826E+04  0.11269203826E+04  0.25500000920E-02 0. -1.
    10030    2    1    2    0    0  0.00000000000E+00  0.00000000000E+00  0.61280354459E+03  0.28666443098E+04  0.28003787984E+04 0.  0.
        3    1    3    3  502    0 -0.56281197217E+03 -0.26907874421E+03 -0.97680372021E+03  0.11590108734E+04  0.10100000352E+00 0. -1.
       -3    1    3    3    0  502  0.56281197217E+03  0.26907874421E+03  0.15896072648E+04  0.17076334364E+04  0.10100000352E+00 0.  1.
</event>
<event>
 5   0  0.1346049E-07  0.2794899E+04  0.7818609E-02  0.8304854E-01
        1   -1    0    0  501    0  0.00000000000E+00  0.00000000000E+00  0.13691198144E+04  0.13691198144E+04  0.50400001928E-02 0. -1.
       -1   -1    0    0    0  501  0.00000000000E+00  0.00000000000E+00 -0.14263652307E+04  0.14263652307E+04  0.50400001928E-02 0.  1.
    10030    2    1    2    0    0  0.00000000000E+00  0.00000000000E+00 -0.57245416369E+02  0.27954850451E+04  0.27948988532E+04 0.  0.
        1    1    3    3  502    0 -0.13017026422E+04  0.20562136421E+03 -0.49364492970E+03  0.14072651600E+04  0.50400001928E-02 0.  1.
       -1    1    3    3    0  502  0.13017026422E+04 -0.20562136421E+03  0.43639951333E+03  0.13882198851E+04  0.50400001928E-02 0. -1.
</event>
<event>
 5   0  0.1361741E-07  0.2803483E+04  0.7818609E-02  0.8302188E-01
       -1   -1    0    0    0  501  0.00000000000E+00  0.00000000000E+00  0.13331507081E+04  0.13331507081E+04  0.50400001928E-02 0. -1.
        1   -1    0    0  501    0  0.00000000000E+00  0.00000000000E+00 -0.14738609031E+04  0.14738609032E+04  0.50400001928E-02 0.  1.
    10030    2    1    2    0    0  0.00000000000E+00  0.00000000000E+00 -0.14071019508E+03  0.28070116112E+04  0.28034826246E+04 0.  0.
        5    1    3    3  502    0 -0.75367590937E+03  0.32248373707E+03  0.10681045334E+04  0.13464369727E+04  0.46999998093E+01 0. -1.
       -5    1    3    3    0  502  0.75367590937E+03 -0.32248373707E+03 -0.12088147285E+04  0.14605746386E+04  0.46999998093E+01 0.  1.
</event>
<event>
 5   0  0.3502141E-07  0.2800117E+04  0.7818609E-02  0.8303232E-01
       -2   -1    0    0    0  501  0.00000000000E+00  0.00000000000E+00  0.12529164311E+04  0.12529164311E+04  0.25500000920E-02 0. -1.
        2   -1    0    0  501    0  0.00000000000E+00  0.00000000000E+00 -0.15644812211E+04  0.15644812211E+04  0.25500000920E-02 0.  1.
    10030    2    1    2    0    0  0.00000000000E+00  0.00000000000E+00 -0.31156479004E+03  0.28173976522E+04  0.28001173033E+04 0.  0.
        3    1    3    3  502    0  0.59041085397E+03 -0.54871270689E+03 -0.13076150222E+04  0.15360754108E+04  0.10100000352E+00 0.  1.
       -3    1    3    3    0  502 -0.59041085397E+03  0.54871270689E+03  0.99605023214E+03  0.12813222414E+04  0.10100000352E+00 0. -1.
</event>
<event>
 5   0  0.1361741E-07  0.2799824E+04  0.7818609E-02  0.8303323E-01
        1   -1    0    0  501    0  0.00000000000E+00  0.00000000000E+00  0.10480381637E+04  0.10480381637E+04  0.50400001928E-02 0. -1.
       -1   -1    0    0    0  501  0.00000000000E+00  0.00000000000E+00 -0.18699262288E+04  0.18699262288E+04  0.50400001928E-02 0.  1.
    10030    2    1    2    0    0  0.00000000000E+00  0.00000000000E+00 -0.82188806514E+03  0.29179643925E+04  0.27998243167E+04 0.  0.
        5    1    3    3  502    0  0.66394721155E+03 -0.70639712701E+03 -0.14634630535E+04  0.17554398308E+04  0.46999998093E+01 0.  1.
       -5    1    3    3    0  502 -0.66394721155E+03  0.70639712701E+03  0.64157498836E+03  0.11625245617E+04  0.46999998093E+01 0. -1.
</event>
<event>
 5   0  0.3571498E-07  0.2799696E+04  0.7818609E-02  0.8303363E-01
        2   -1    0    0  501    0  0.00000000000E+00  0.00000000000E+00  0.22327386039E+04  0.22327386039E+04  0.25500000920E-02 0.  1.
       -2   -1    0    0    0  501  0.00000000000E+00  0.00000000000E+00 -0.87765511552E+03  0.87765511552E+03  0.25500000920E-02 0. -1.
    10030    2    1    2    0    0  0.00000000000E+00  0.00000000000E+00  0.13550834884E+04  0.31103937194E+04  0.27996960245E+04 0.  0.
        2    1    3    3  502    0  0.11667324847E+04  0.35928646016E+03 -0.83474863331E+02  0.12236500742E+04  0.25500000920E-02 0. -1.
       -2    1    3    3    0  502 -0.11667324847E+04 -0.35928646016E+03  0.14385583517E+04  0.18867436452E+04  0.25500000920E-02 0.  1.
</event>
<event>
 5   0  0.1374680E-07  0.2800124E+04  0.7818609E-02  0.8303230E-01
       -1   -1    0    0    0  501  0.00000000000E+00  0.00000000000E+00  0.12619539327E+04  0.12619539327E+04  0.50400001928E-02 0.  1.
        1   -1    0    0  501    0  0.00000000000E+00  0.00000000000E+00 -0.15532840467E+04  0.15532840467E+04  0.50400001928E-02 0. -1.
    10030    2    1    2    0    0  0.00000000000E+00  0.00000000000E+00 -0.29133011400E+03  0.28152379794E+04  0.28001235054E+04 0.  0.
        3    1    3    3  502    0  0.13000385091E+04 -0.47076024288E+03  0.75653963996E+02  0.13847161672E+04  0.10100000352E+00 0.  1.
       -3    1    3    3    0  502 -0.13000385091E+04  0.47076024288E+03 -0.36698407800E+03  0.14305218122E+04  0.10100000352E+00 0. -1.
</event>
<event>
 5   0  0.1346049E-07  0.2800148E+04  0.7818609E-02  0.8303222E-01
       -1   -1    0    0    0  501  0.00000000000E+00  0.00000000000E+00  0.25497710711E+04  0.25497710711E+04  0.50400001928E-02 0. -1.
        1   -1    0    0  501    0  0.00000000000E+00  0.00000000000E+00 -0.76877769311E+03  0.76877769313E+03  0.50400001928E-02 0.  1.
    10030    2    1    2    0    0  0.00000000000E+00  0.00000000000E+00  0.17809933780E+04  0.33185487642E+04  0.28001479404E+04 0.  0.
        1    1    3    3  502    0  0.25922556555E+03  0.10583151535E+04 -0.15146288045E+03  0.11000772073E+04  0.50400001928E-02 0.  1.
       -1    1    3    3    0  502 -0.25922556555E+03 -0.10583151535E+04  0.19324562584E+04  0.22184715569E+04  0.50400001928E-02 0. -1.
</event>
<event>
 5   0  0.1357902E-07  0.2803929E+04  0.7818609E-02  0.8302050E-01
       -1   -1    0    0    0  501  0.00000000000E+00  0.00000000000E+00  0.13117164454E+04  0.13117164454E+04  0.50400001928E-02 0.  1.
        1   -1    0    0  501    0  0.00000000000E+00  0.00000000000E+00 -0.14984216191E+04  0.14984216191E+04  0.50400001928E-02 0. -1.
    10030    2    1    2    0    0  0.00000000000E+00  0.00000000000E+00 -0.18670517371E+03  0.28101380644E+04  0.28039288720E+04 0.  0.
        4    1    3    3  502    0  0.17016058415E+03 -0.37534963137E+03 -0.14363426632E+04  0.14942971021E+04  0.12699999809E+01 0. -1.
       -4    1    3    3    0  502 -0.17016058415E+03  0.37534963137E+03  0.12496374895E+04  0.13158409624E+04  0.12699999809E+01 0.  1.
</event>
<event>
 5   0  0.3406920E-07  0.2799294E+04  0.7818609E-02  0.8303488E-01
       -2   -1    0    0    0  501  0.00000000000E+00  0.00000000000E+00  0.10012713784E+04  0.10012713784E+04  0.25500000920E-02 0. -1.
        2   -1    0    0  501    0  0.00000000000E+00  0.00000000000E+00 -0.19565242893E+04  0.19565242893E+04  0.25500000920E-02 0.  1.
    10030    2    1    2    0    0  0.00000000000E+00  0.00000000000E+00 -0.95525291092E+03  0.29577956677E+04  0.27992940339E+04 0.  0.
        4    1    3    3  502    0 -0.57158240159E+02  0.38933314740E+03 -0.18968719078E+04  0.19372588912E+04  0.12699999809E+01 0.  1.
       -4    1    3    3    0  502  0.57158240159E+02 -0.38933314740E+03  0.94161899688E+03  0.10205367765E+04  0.12699999809E+01 0. -1.
</event>
<event>
 5   0  0.1374680E-07  0.2801344E+04  0.7818609E-02  0.8302851E-01
        1   -1    0    0  501    0  0.00000000000E+00  0.00000000000E+00  0.25949991341E+04  0.25949991341E+04  0.50400001928E-02 0. -1.
       -1   -1    0    0    0  501  0.00000000000E+00  0.00000000000E+00 -0.75602405552E+03  0.75602405553E+03  0.50400001928E-02 0.  1.
    10030    2    1    2    0    0  0.00000000000E+00  0.00000000000E+00  0.18389750786E+04  0.33510231896E+04  0.28013437986E+04 0.  0.
        3    1    3    3  502    0 -0.96234132942E+03 -0.60495569727E+03 -0.59521457224E+02  0.11382508704E+04  0.10100000352E+00 0.  1.
       -3    1    3    3    0  502  0.96234132942E+03  0.60495569727E+03  0.18984965358E+04  0.22127723192E+04  0.10100000352E+00 0. -1.
</event>
<event>
 5   0  0.1361741E-07  0.2802500E+04  0.7818609E-02  0.8302493E-01
        1   -1    0    0  501    0  0.00000000000E+00  0.00000000000E+00  0.11192856843E+04  0.11192856843E+04  0.50400001928E-02 0.  1.
       -1   -1    0    0    0  501  0.00000000000E+00  0.00000000000E+00 -0.17542452768E+04  0.17542452768E+04  0.50400001928E-02 0. -1.
    10030    2    1    2    0    0  0.00000000000E+00  0.00000000000E+00 -0.63495959252E+03  0.28735309611E+04  0.28025000446E+04 0.  0.
        5    1    3    3  502    0 -0.85983983480E+03  0.20904747924E+01  0.81697626986E+03  0.11860865175E+04  0.46999998093E+01 0.  1.
       -5    1    3    3    0  502  0.85983983480E+03 -0.20904747924E+01 -0.14519358624E+04  0.16874444435E+04  0.46999998093E+01 0. -1.
</event>
<event>
 5   0  0.1357902E-07  0.2809859E+04  0.7818609E-02  0.8300214E-01
       -1   -1    0    0    0  501  0.00000000000E+00  0.00000000000E+00  0.98904524182E+03  0.98904524183E+03  0.50400001928E-02 0. -1.
        1   -1    0    0  501    0  0.00000000000E+00  0.00000000000E+00 -0.19956894589E+04  0.19956894589E+04  0.50400001928E-02 0.  1.
    10030    2    1    2    0    0  0.00000000000E+00  0.00000000000E+00 -0.10066442171E+04  0.29847347007E+04  0.28098591876E+04 0.  0.
        4    1    3    3  502    0  0.70002109293E+03  0.53963312682E+03  0.65670234418E+03  0.11011326096E+04  0.12699999809E+01 0. -1.
       -4    1    3    3    0  502 -0.70002109293E+03 -0.53963312682E+03 -0.16633465613E+04  0.18836020912E+04  0.12699999809E+01 0.  1.
</event>
<event>
 5   0  0.3571498E-07  0.2799577E+04  0.7818609E-02  0.8303400E-01
       -2   -1    0    0    0  501  0.00000000000E+00  0.00000000000E+00  0.84260399132E+03  0.84260399132E+03  0.25500000920E-02 0.  1.
        2   -1    0    0  501    0  0.00000000000E+00  0.00000000000E+00 -0.23254200835E+04  0.23254200835E+04  0.25500000920E-02 0. -1.
    10030    2    1    2    0    0  0.00000000000E+00  0.00000000000E+00 -0.14828160922E+04  0.31680240748E+04  0.27995772851E+04 0.  0.
        2    1    3    3  502    0  0.75195273698E+03  0.69711115714E+03 -0.18197131307E+04  0.20887203647E+04  0.25500000920E-02 0. -1.
       -2    1    3    3    0  502 -0.75195273698E+03 -0.69711115714E+03  0.33689703851E+03  0.10793037101E+04  0.25500000920E-02 0.  1.
</event>
<event>
 5   0  0.3406920E-07  0.2791157E+04  0.7818609E-02  0.8306019E-01
       -2   -1    0    0    0  501  0.00000000000E+00  0.00000000000E+00  0.11699676130E+04  0.11699676130E+04  0.25500000920E-02 0.  1.
        2   -1    0    0  501    0  0.00000000000E+00  0.00000000000E+00 -0.16646950503E+04  0.16646950503E+04  0.25500000920E-02 0. -1.
    10030    2    1    2    0    0  0.00000000000E+00  0.00000000000E+00 -0.49472743731E+03  0.28346626633E+04  0.27911569604E+04 0.  0.
        4    1    3    3  502    0 -0.32742983303E+03 -0.63311627824E+03  0.97116763953E+03  0.12046637349E+04  0.12699999809E+01 0.  1.
       -4    1    3    3    0  502  0.32742983303E+03  0.63311627824E+03 -0.14658950768E+04  0.16299989284E+04  0.12699999809E+01 0. -1.
</event>
<event>
 5   0  0.3406920E-07  0.2796652E+04  0.7818609E-02  0.8304309E-01
       -2   -1    0    0    0  501  0.00000000000E+00  0.00000000000E+00  0.12593013831E+04  0.12593013831E+04  0.25500000920E-02 0. -1.
        2   -1    0    0  501    0  0.00000000000E+00  0.00000000000E+00 -0.15526981473E+04  0.15526981473E+04  0.25500000920E-02 0.  1.
    10030    2    1    2    0    0  0.00000000000E+00  0.00000000000E+00 -0.29339676415E+03  0.28119995304E+04  0.27966515153E+04 0.  0.
        4    1    3    3  502    0 -0.13470108386E+04  0.14207374007E+03  0.20261307506E+03  0.13695535105E+04  0.12699999809E+01 0. -1.
       -4    1    3    3    0  502  0.13470108386E+04 -0.14207374007E+03 -0.49600983922E+03  0.14424460199E+04  0.12699999809E+01 0.  1.
</event>
<event>
 5   0  0.1357902E-07  0.2800234E+04  0.7818609E-02  0.8303196E-01
       -1   -1    0    0    0  501  0.00000000000E+00  0.00000000000E+00  0.15085614297E+04  0.15085614297E+04  0.50400001928E-02 0. -1.
        1   -1    0    0  501    0  0.00000000000E+00  0.00000000000E+00 -0.12994682456E+04  0.12994682456E+04  0.50400001928E-02 0.  1.
    10030    2    1    2    0    0  0.00000000000E+00  0.00000000000E+00  0.20909318413E+03  0.28080296753E+04  0.28002340434E+04 0.  0.
        4    1    3    3  502    0 -0.11033877792E+04 -0.62948498343E+03 -0.48582844389E+03  0.13600539788E+04  0.12699999809E+01 0.  1.
       -4    1    3    3    0  502  0.11033877792E+04  0.62948498343E+03  0.69492162801E+03  0.14479756965E+04  0.12699999809E+01 0. -1.
</event>
<event>
 5   0  0.3571498E-07  0.2800507E+04  0.7818609E-02  0.8303111E-01
       -2   -1    0    0    0  501  0.00000000000E+00  0.00000000000E+00  0.72637105018E+03  0.72637105018E+03  0.25500000920E-02 0.  1.
        2   -1    0    0  501    0  0.00000000000E+00  0.00000000000E+00 -0.26993217381E+04  0.26993217381E+04  0.25500000920E-02 0. -1.
    10030    2    1    2    0    0  0.00000000000E+00  0.00000000000E+00 -0.19729506879E+04  0.34256927883E+04  0.28005065011E+04 0.  0.
        2    1    3    3  502    0  0.80412282020E+03 -0.11006164260E+04 -0.59439074069E+03  0.14870340883E+04  0.25500000920E-02 0. -1.
       -2    1    3    3    0  502 -0.80412282020E+03  0.11006164260E+04 -0.13785599472E+04  0.19386587000E+04  0.25500000920E-02 0.  1.
</event>
<event>
 5   0  0.3406920E-07  0.2799362E+04  0.7818609E-02  0.8303466E-01
       -2   -1    0    0    0  501  0.00000000000E+00  0.00000000000E+00  0.16823913329E+04  0.16823913329E+04  0.25500000920E-02 0.  1.
        2   -1    0    0  501    0  0.00000000000E+00  0.00000000000E+00 -0.11644775339E+04  0.11644775339E+04  0.25500000920E-02 0. -1.
    10030    2    1    2    0    0  0.00000000000E+00  0.00000000000E+00  0.51791379899E+03  0.28468688669E+04  0.27993620062E+04 0.  0.
        4    1    3    3  502    0  0.11304265397E+04 -0.41269904592E+03  0.98587439249E+03  0.15556781784E+04  0.12699999809E+01 0.  1.
       -4    1    3    3    0  502 -0.11304265397E+04  0.41269904592E+03 -0.46796059350E+03  0.12911906885E+04  0.12699999809E+01 0. -1.
</event>
<event>
 5   0  0.3557628E-07  0.2799039E+04  0.7818609E-02  0.8303567E-01
        2   -1    0    0  501    0  0.00000000000E+00  0.00000000000E+00  0.13956138300E+04  0.13956138300E+04  0.25500000920E-02 0.  1.
       -2   -1    0    0    0  501  0.00000000000E+00  0.00000000000E+00 -0.14034363642E+04  0.14034363642E+04  0.25500000920E-02 0. -1.
    10030    2    1    2    0    0  0.00000000000E+00  0.00000000000E+00 -0.78225341254E+01  0.27990501942E+04  0.27990392633E+04 0.  0.
        5    1    3    3  502    0 -0.10925345490E+04  0.43073885086E+03 -0.76514049458E+03  0.14016525122E+04  0.46999998093E+01 0. -1.
       -5    1    3    3    0  502  0.10925345490E+04 -0.43073885086E+03  0.75731796045E+03  0.13973976820E+04  0.46999998093E+01 0.  1.
</event>
<event>
 5   0  0.1173363E-07  0.2799106E+04  0.7818609E-02  0.8303546E-01
       -4   -1    0    0    0  501  0.00000000000E+00  0.00000000000E+00  0.18181028055E+04  0.18181032490E+04  0.12699999809E+01 0. -1.
        4   -1    0    0  501    0  0.00000000000E+00  0.00000000000E+00 -0.10773577908E+04  0.10773585394E+04  0.12699999809E+01 0.  1.
    10030    2    1    2    0    0  0.00000000000E+00  0.00000000000E+00  0.74074501462E+03  0.28954617884E+04  0.27991062487E+04 0.  0.
        5    1    3    3  502    0  0.88561188404E+03  0.97679126621E+03 -0.11514289594E+03  0.13235216520E+04  0.46999998093E+01 0.  1.
       -5    1    3    3    0  502 -0.88561188404E+03 -0.97679126621E+03  0.85588791056E+03  0.15719401364E+04  0.46999998093E+01 0. -1.
</event>
<event>
 5   0  0.3557628E-07  0.2798939E+04  0.7818609E-02  0.8303598E-01
        2   -1    0    0  501    0  0.00000000000E+00  0.00000000000E+00  0.19924657332E+04  0.19924657333E+04  0.25500000920E-02 0.  1.
       -2   -1    0    0    0  501  0.00000000000E+00  0.00000000000E+00 -0.98296020454E+03  0.98296020454E+03  0.25500000920E-02 0. -1.
    10030    2    1    2    0    0  0.00000000000E+00  0.00000000000E+00  0.10095055287E+04  0.29754259378E+04  0.27989387451E+04 0.  0.
        5    1    3    3  502    0 -0.10251187393E+04  0.87666972955E+03  0.10831134665E+03  0.13532079228E+04  0.46999998093E+01 0. -1.
       -5    1    3    3    0  502  0.10251187393E+04 -0.87666972955E+03  0.90119418206E+03  0.16222180150E+04  0.46999998093E+01 0.  1.
</event>
<event>
 5   0  0.1173363E-07  0.2800840E+04  0.7818609E-02  0.8303008E-01
       -3   -1    0    0    0  501  0.00000000000E+00  0.00000000000E+00  0.18918752585E+04  0.18918752612E+04  0.10100000352E+00 0.  1.
        3   -1    0    0  501    0  0.00000000000E+00  0.00000000000E+00 -0.10366309493E+04  0.10366309543E+04  0.10100000352E+00 0. -1.
    10030    2    1    2    0    0  0.00000000000E+00  0.00000000000E+00  0.85524430921E+03  0.29285062155E+04  0.28008402000E+04 0.  0.
        2    1    3    3  502    0  0.22235103346E+03  0.12338280727E+04  0.10800889992E+04  0.16548002723E+04  0.25500000920E-02 0.  1.
       -2    1    3    3    0  502 -0.22235103346E+03 -0.12338280727E+04 -0.22484469002E+03  0.12737059432E+04  0.25500000920E-02 0. -1.
</event>
<event>
 5   0  0.1366235E-07  0.2799437E+04  0.7818609E-02  0.8303443E-01
       -1   -1    0    0    0  501  0.00000000000E+00  0.00000000000E+00  0.10359612694E+04  0.10359612694E+04  0.50400001928E-02 0. -1.
        1   -1    0    0  501    0  0.00000000000E+00  0.00000000000E+00 -0.18912020491E+04  0.18912020491E+04  0.50400001928E-02 0.  1.
    10030    2    1    2    0    0  0.00000000000E+00  0.00000000000E+00 -0.85524077966E+03  0.29271633185E+04  0.27994371402E+04 0.  0.
        2    1    3    3  502    0  0.59914099229E+03  0.12214132773E+04 -0.83370068908E+02  0.13630006937E+04  0.25500000920E-02 0.  1.
       -2    1    3    3    0  502 -0.59914099229E+03 -0.12214132773E+04 -0.77187071075E+03  0.15641626248E+04  0.25500000920E-02 0. -1.
</event>
<event>
 5   0  0.3522569E-07  0.2801127E+04  0.7818609E-02  0.8302919E-01
        2   -1    0    0  501    0  0.00000000000E+00  0.00000000000E+00  0.19198810278E+04  0.19198810278E+04  0.25500000920E-02 0.  1.
       -2   -1    0    0    0  501  0.00000000000E+00  0.00000000000E+00 -0.10217182458E+04  0.10217182458E+04  0.25500000920E-02 0. -1.
    10030    2    1    2    0    0  0.00000000000E+00  0.00000000000E+00  0.89816278207E+03  0.29415992736E+04  0.28011265419E+04 0.  0.
        1    1    3    3  502    0 -0.72079059649E+02  0.96394545297E+02 -0.10162768591E+04  0.10233796723E+04  0.50400001928E-02 0. -1.
       -1    1    3    3    0  502  0.72079059649E+02 -0.96394545297E+02  0.19144396412E+04  0.19182196014E+04  0.50400001928E-02 0.  1.
</event>
<event>
 5   0  0.1357902E-07  0.2800246E+04  0.7818609E-02  0.8303192E-01
       -1   -1    0    0    0  501  0.00000000000E+00  0.00000000000E+00  0.99170117918E+03  0.99170117920E+03  0.50400001928E-02 0.  1.
        1   -1    0    0  501    0  0.00000000000E+00  0.00000000000E+00 -0.19767494351E+04  0.19767494351E+04  0.50400001928E-02 0. -1.
    10030    2    1    2    0    0  0.00000000000E+00  0.00000000000E+00 -0.98504825595E+03  0.29684506143E+04  0.28002462362E+04 0.  0.
        4    1    3    3  502    0  0.31398507301E+03 -0.79080965593E+03  0.68619136908E+03  0.10930813080E+04  0.12699999809E+01 0.  1.
       -4    1    3    3    0  502 -0.31398507301E+03  0.79080965593E+03 -0.16712396250E+04  0.18753693063E+04  0.12699999809E+01 0. -1.
</event>
<event>
 5   0  0.3502141E-07  0.2800224E+04  0.7818609E-02  0.8303199E-01
        2   -1    0    0  501    0  0.00000000000E+00  0.00000000000E+00  0.19283121168E+04  0.19283121168E+04  0.25500000920E-02 0.  1.
       -2   -1    0    0    0  501  0.00000000000E+00  0.00000000000E+00 -0.10165952705E+04  0.10165952705E+04  0.25500000920E-02 0. -1.
    10030    2    1    2    0    0  0.00000000000E+00  0.00000000000E+00  0.91171684627E+03  0.29449073873E+04  0.28002235468E+04 0.  0.
        3    1    3    3  502    0  0.89689176856E+03  0.63091935979E+03 -0.45966061704E+03  0.11890172312E+04  0.10100000352E+00 0. -1.
       -3    1    3    3    0  502 -0.89689176856E+03 -0.63091935979E+03  0.13713774633E+04  0.17558901561E+04  0.10100000352E+00 0.  1.
</event>
<event>
 5   0  0.1361741E-07  0.2799866E+04  0.7818609E-02  0.8303310E-01
       -1   -1    0    0    0  501  0.00000000000E+00  0.00000000000E+00  0.16530581224E+04  0.16530581224E+04  0.50400001928E-02 0.  1.
        1   -1    0    0  501    0  0.00000000000E+00  0.00000000000E+00 -0.11855675410E+04  0.11855675410E+04  0.50400001928E-02 0. -1.
    10030    2    1    2    0    0  0.00000000000E+00  0.00000000000E+00  0.46749058146E+03  0.28386256634E+04  0.27998657492E+04 0.  0.
        5    1    3    3  502    0 -0.42480557569E+03  0.13239071145E+04  0.68391991219E+02  0.13920809529E+04  0.46999998093E+01 0. -1.
       -5    1    3    3    0  502  0.42480557569E+03 -0.13239071145E+04  0.39909859024E+03  0.14465447106E+04  0.46999998093E+01 0.  1.
</event>
<event>
 5   0  0.1374680E-07  0.2800981E+04  0.7818609E-02  0.8302964E-01
       -1   -1    0    0    0  501  0.00000000000E+00  0.00000000000E+00  0.10139733898E+04  0.10139733898E+04  0.50400001928E-02 0.  1.
        1   -1    0    0  501    0  0.00000000000E+00  0.00000000000E+00 -0.19343445625E+04  0.19343445625E+04  0.50400001928E-02 0. -1.
    10030    2    1    2    0    0  0.00000000000E+00  0.00000000000E+00 -0.92037117271E+03  0.29483179523E+04  0.28009811945E+04 0.  0.
        3    1    3    3  502    0  0.50764908007E+03  0.58105635326E+03 -0.16904424731E+04  0.18582060809E+04  0.10100000352E+00 0. -1.
       -3    1    3    3    0  502 -0.50764908007E+03 -0.58105635326E+03  0.77007130039E+03  0.10901118713E+04  0.10100000352E+00 0.  1.
</event>
<event>
 5   0  0.1173363E-07  0.2799775E+04  0.7818609E-02  0.8303338E-01
       -3   -1    0    0    0  501  0.00000000000E+00  0.00000000000E+00  0.15654548749E+04  0.15654548781E+04  0.10100000352E+00 0. -1.
        3   -1    0    0  501    0  0.00000000000E+00  0.00000000000E+00 -0.12518311465E+04  0.12518311506E+04  0.10100000352E+00 0.  1.
    10030    2    1    2    0    0  0.00000000000E+00  0.00000000000E+00  0.31362372837E+03  0.28172860287E+04  0.27997751204E+04 0.  0.
        5    1    3    3  502    0 -0.12246323210E+04 -0.35118130093E+03  0.74062195535E+03  0.14736334681E+04  0.46999998093E+01 0. -1.
       -5    1    3    3    0  502  0.12246323210E+04  0.35118130093E+03 -0.42699822699E+03  0.13436525606E+04  0.46999998093E+01 0.  1.
</event>
<event>
 5   0  0.3571498E-07  0.2798868E+04  0.7818609E-02  0.8303620E-01
        2   -1    0    0  501    0  0.00000000000E+00  0.00000000000E+00  0.20298996247E+04  0.20298996248E+04  0.25500000920E-02 0. -1.
       -2   -1    0    0    0  501  0.00000000000E+00  0.00000000000E+00 -0.96478414622E+03  0.96478414622E+03  0.25500000920E-02 0.  1.
    10030    2    1    2    0    0  0.00000000000E+00  0.00000000000E+00  0.10651154785E+04  0.29946837710E+04  0.27988676113E+04 0.  0.
        2    1    3    3  502    0  0.57741240326E+03 -0.11442731366E+04  0.11336909751E+04  0.17111462011E+04  0.25500000920E-02 0. -1.
       -2    1    3    3    0  502 -0.57741240326E+03  0.11442731366E+04 -0.68575496553E+02  0.12835375699E+04  0.25500000920E-02 0.  1.
</event>
<event>
 5   0  0.3557628E-07  0.2800123E+04  0.7818609E-02  0.8303230E-01
       -2   -1    0    0    0  501  0.00000000000E+00  0.00000000000E+00  0.99924014183E+03  0.99924014184E+03  0.25500000920E-02 0. -1.
        2   -1    0    0  501    0  0.00000000000E+00  0.00000000000E+00 -0.19616626366E+04  0.19616626366E+04  0.25500000920E-02 0.  1.
    10030    2    1    2    0    0  0.00000000000E+00  0.00000000000E+00 -0.96242249478E+03  0.29609027785E+04  0.28001228911E+04 0.  0.
        5    1    3    3  502    0 -0.13558198196E+04 -0.23358394789E+03 -0.20680928378E+03  0.13912587875E+04  0.46999998093E+01 0.  1.
       -5    1    3    3    0  502  0.13558198196E+04  0.23358394789E+03 -0.75561321100E+03  0.15696439910E+04  0.46999998093E+01 0. -1.
</event>
<event>
 5   0  0.1357902E-07  0.2798847E+04  0.7818609E-02  0.8303626E-01
        1   -1    0    0  501    0  0.00000000000E+00  0.00000000000E+00  0.11988595582E+04  0.11988595582E+04  0.50400001928E-02 0. -1.
       -1   -1    0    0    0  501  0.00000000000E+00  0.00000000000E+00 -0.16335408417E+04  0.16335408417E+04  0.50400001928E-02 0.  1.
    10030    2    1    2    0    0  0.00000000000E+00  0.00000000000E+00 -0.43468128350E+03  0.28324004000E+04  0.27988469425E+04 0.  0.
        4    1    3    3  502    0 -0.11958423915E+03 -0.44805553404E+03  0.11188404918E+04  0.12111398808E+04  0.12699999809E+01 0. -1.
       -4    1    3    3    0  502  0.11958423915E+03  0.44805553404E+03 -0.15535217753E+04  0.16212605192E+04  0.12699999809E+01 0.  1.
</event>
<event>
 5   0  0.3406920E-07  0.2801493E+04  0.7818609E-02  0.8302805E-01
       -2   -1    0    0    0  501  0.00000000000E+00  0.00000000000E+00  0.16255890524E+04  0.16255890524E+04  0.25500000920E-02 0.  1.
        2   -1    0    0  501    0  0.00000000000E+00  0.00000000000E+00 -0.12070027077E+04  0.12070027077E+04  0.25500000920E-02 0. -1.
    10030    2    1    2    0    0  0.00000000000E+00  0.00000000000E+00  0.41858634472E+03  0.28325917601E+04  0.28014927363E+04 0.  0.
        4    1    3    3  502    0  0.13591862640E+04  0.15736806099E+03  0.51251686019E+03  0.14611047710E+04  0.12699999809E+01 0. -1.
       -4    1    3    3    0  502 -0.13591862640E+04 -0.15736806099E+03 -0.93930515474E+02  0.13714869892E+04  0.12699999809E+01 0.  1.
</event>
<event>
 5   0  0.1361741E-07  0.2800696E+04  0.7818609E-02  0.8303052E-01
        1   -1    0    0  501    0  0.00000000000E+00  0.00000000000E+00  0.19795567170E+04  0.19795567170E+04  0.50400001928E-02 0. -1.
       -1   -1    0    0    0  501  0.00000000000E+00  0.00000000000E+00 -0.99061306448E+03  0.99061306450E+03  0.50400001928E-02 0.  1.
    10030    2    1    2    0    0  0.00000000000E+00  0.00000000000E+00  0.98894365255E+03  0.29701697815E+04  0.28006961605E+04 0.  0.
        5    1    3    3  502    0 -0.84904958513E+03  0.73665227954E+03 -0.39117309689E+03  0.11902017731E+04  0.46999998093E+01 0.  1.
       -5    1    3    3    0  502  0.84904958513E+03 -0.73665227954E+03  0.13801167494E+04  0.17799680084E+04  0.46999998093E+01 0. -1.
</event>
<event>
 5   0  0.3571498E-07  0.2815957E+04  0.7818609E-02  0.8298331E-01
       -2   -1    0    0    0  501  0.00000000000E+00  0.00000000000E+00  0.16116758299E+04  0.16116758299E+04  0.25500000920E-02 0.  1.
        2   -1    0    0  501    0  0.00000000000E+00  0.00000000000E+00 -0.12300261916E+04  0.12300261916E+04  0.25500000920E-02 0. -1.
    10030    2    1    2    0    0  0.00000000000E+00  0.00000000000E+00  0.38164963824E+03  0.28417020215E+04  0.28159570189E+04 0.  0.
        2    1    3    3  502    0 -0.17852371850E+03  0.16550996487E+03 -0.12086267601E+04  0.12329002035E+04  0.25500000920E-02 0. -1.
       -2    1    3    3    0  502  0.17852371850E+03 -0.16550996487E+03  0.15902763983E+04  0.16088018180E+04  0.25500000920E-02 0.  1.
</event>
<event>
 5   0  0.3502141E-07  0.2798550E+04  0.7818609E-02  0.8303719E-01
       -2   -1    0    0    0  501  0.00000000000E+00  0.00000000000E+00  0.12409087231E+04  0.12409087231E+04  0.25500000920E-02 0.  1.
        2   -1    0    0  501    0  0.00000000000E+00  0.00000000000E+00 -0.15778519418E+04  0.15778519418E+04  0.25500000920E-02 0. -1.
    10030    2    1    2    0    0  0.00000000000E+00  0.00000000000E+00 -0.33694321872E+03  0.28187606649E+04  0.27985497947E+04 0.  0.
        3    1    3    3  502    0 -0.10516650221E+03 -0.12295935536E+04  0.49584444491E+03  0.13299706854E+04  0.10100000352E+00 0.  1.
       -3    1    3    3    0  502  0.10516650221E+03  0.12295935536E+04 -0.83278766362E+03  0.14887899795E+04  0.10100000352E+00 0. -1.
</event>
<event>
 5   0  0.1366235E-07  0.2797785E+04  0.7818609E-02  0.8303956E-01
        1   -1    0    0  501    0  0.00000000000E+00  0.00000000000E+00  0.11237448529E+04  0.11237448529E+04  0.50400001928E-02 0.  1.
       -1   -1    0    0    0  501  0.00000000000E+00  0.00000000000E+00 -0.17414096293E+04  0.17414096293E+04  0.50400001928E-02 0. -1.
    10030    2    1    2    0    0  0.00000000000E+00  0.00000000000E+00 -0.61766477638E+03  0.28651544822E+04  0.27977849150E+04 0.  0.
        2    1    3    3  502    0 -0.23951973798E+03  0.67786849989E+03 -0.15377384584E+04  0.16975025698E+04  0.25500000920E-02 0. -1.
       -2    1    3    3    0  502  0.23951973798E+03 -0.67786849989E+03  0.92007368204E+03  0.11676519124E+04  0.25500000920E-02 0.  1.
</event>
<event>
 5   0  0.1361741E-07  0.2802933E+04  0.7818609E-02  0.8302358E-01
        1   -1    0    0  501    0  0.00000000000E+00  0.00000000000E+00  0.17329173182E+04  0.17329173182E+04  0.50400001928E-02 0.  1.
       -1   -1    0    0    0  501  0.00000000000E+00  0.00000000000E+00 -0.11334118339E+04  0.11334118339E+04  0.50400001928E-02 0. -1.
    10030    2    1    2    0    0  0.00000000000E+00  0.00000000000E+00  0.59950548429E+03  0.28663291521E+04  0.28029334602E+04 0.  0.
        5    1    3    3  502    0  0.80232430831E+03  0.89412867462E+02  0.14712494713E+04  0.16781883248E+04  0.46999998093E+01 0.  1.
       -5    1    3    3    0  502 -0.80232430831E+03 -0.89412867462E+02 -0.87174398703E+03  0.11881408273E+04  0.46999998093E+01 0. -1.
</event>
<event>
 5   0  0.3502141E-07  0.2798789E+04  0.7818609E-02  0.8303644E-01
       -2   -1    0    0    0  501  0.00000000000E+00  0.00000000000E+00  0.17723198521E+04  0.17723198521E+04  0.25500000920E-02 0.  1.
        2   -1    0    0  501    0  0.00000000000E+00  0.00000000000E+00 -0.11049389295E+04  0.11049389295E+04  0.25500000920E-02 0. -1.
    10030    2    1    2    0    0  0.00000000000E+00  0.00000000000E+00  0.66738092261E+03  0.28772587816E+04  0.27987891668E+04 0.  0.
        3    1    3    3  502    0  0.23351029037E+03  0.97277967451E+03 -0.67225191932E+03  0.12053007940E+04  0.10100000352E+00 0. -1.
       -3    1    3    3    0  502 -0.23351029037E+03 -0.97277967451E+03  0.13396328419E+04  0.16719579876E+04  0.10100000352E+00 0.  1.
</event>
<event>
 5   0  0.3502141E-07  0.2799706E+04  0.7818609E-02  0.8303360E-01
        2   -1    0    0  501    0  0.00000000000E+00  0.00000000000E+00  0.15281135253E+04  0.15281135253E+04  0.25500000920E-02 0.  1.
       -2   -1    0    0    0  501  0.00000000000E+00  0.00000000000E+00 -0.12823575756E+04  0.12823575756E+04  0.25500000920E-02 0. -1.
    10030    2    1    2    0    0  0.00000000000E+00  0.00000000000E+00  0.24575594975E+03  0.28104711009E+04  0.27997056671E+04 0.  0.
        3    1    3    3  502    0 -0.23411977292E+03 -0.10630067529E+04 -0.76072965521E+03  0.13279702720E+04  0.10100000352E+00 0. -1.
       -3    1    3    3    0  502  0.23411977292E+03  0.10630067529E+04  0.10064856050E+04  0.14825008290E+04  0.10100000352E+00 0.  1.
</event>
<event>
 5   0  0.3571498E-07  0.2799363E+04  0.7818609E-02  0.8303466E-01
       -2   -1    0    0    0  501  0.00000000000E+00  0.00000000000E+00  0.14027473844E+04  0.14027473844E+04  0.25500000920E-02 0. -1.
        2   -1    0    0  501    0  0.00000000000E+00  0.00000000000E+00 -0.13966221504E+04  0.13966221504E+04  0.25500000920E-02 0.  1.
    10030    2    1    2    0    0  0.00000000000E+00  0.00000000000E+00  0.61252340192E+01  0.27993695349E+04  0.27993628336E+04 0.  0.
        2    1    3    3  502    0  0.55543124616E+03  0.75201435901E+03 -0.10386109394E+04  0.13974055063E+04  0.25500000920E-02 0.  1.
       -2    1    3    3    0  502 -0.55543124616E+03 -0.75201435901E+03  0.10447361735E+04  0.14019640286E+04  0.25500000920E-02 0. -1.
</event>
<event>
 5   0  0.1346049E-07  0.2800138E+04  0.7818609E-02  0.8303226E-01
        1   -1    0    0  501    0  0.00000000000E+00  0.00000000000E+00  0.19281338223E+04  0.19281338223E+04  0.50400001928E-02 0. -1.
       -1   -1    0    0    0  501  0.00000000000E+00  0.00000000000E+00 -0.10166270174E+04  0.10166270174E+04  0.50400001928E-02 0.  1.
    10030    2    1    2    0    0  0.00000000000E+00  0.00000000000E+00  0.91150680485E+03  0.29447608397E+04  0.28001378087E+04 0.  0.
        1    1    3    3  502    0 -0.66600399492E+03  0.74659024684E+03  0.14857434909E+04  0.17911984922E+04  0.50400001928E-02 0. -1.
       -1    1    3    3    0  502  0.66600399492E+03 -0.74659024684E+03 -0.57423668600E+03  0.11535623475E+04  0.50400001928E-02 0.  1.
</event>
<event>
 5   0  0.3406920E-07  0.2799883E+04  0.7818609E-02  0.8303305E-01
        2   -1    0    0  501    0  0.00000000000E+00  0.00000000000E+00  0.17008950727E+04  0.17008950727E+04  0.25500000920E-02 0. -1.
       -2   -1    0    0    0  501  0.00000000000E+00  0.00000000000E+00 -0.11522381754E+04  0.11522381754E+04  0.25500000920E-02 0.  1.
    10030    2    1    2    0    0  0.00000000000E+00  0.00000000000E+00  0.54865689730E+03  0.28531332481E+04  0.27998830227E+04 0.  0.
        4    1    3    3  502    0 -0.46520597559E+03 -0.21533406009E+03  0.16018127459E+04  0.16818415630E+04  0.12699999809E+01 0. -1.
       -4    1    3    3    0  502  0.46520597559E+03  0.21533406009E+03 -0.10531558486E+04  0.11712916851E+04  0.12699999809E+01 0.  1.
</event>
<event>
 5   0  0.3502141E-07  0.2801518E+04  0.7818609E-02  0.8302797E-01
       -2   -1    0    0    0  501  0.00000000000E+00  0.00000000000E+00  0.11605789681E+04  0.11605789681E+04  0.25500000920E-02 0. -1.
        2   -1    0    0  501    0  0.00000000000E+00  0.00000000000E+00 -0.16906433651E+04  0.16906433651E+04  0.25500000920E-02 0.  1.
    10030    2    1    2    0    0  0.00000000000E+00  0.00000000000E+00 -0.53006439702E+03  0.28512223332E+04  0.28015175403E+04 0.  0.
        3    1    3    3  502    0  0.71534620150E+03 -0.10822523372E+04  0.27267362470E+03  0.13256474740E+04  0.10100000352E+00 0.  1.
       -3    1    3    3    0  502 -0.71534620150E+03  0.10822523372E+04 -0.80273802172E+03  0.15255748593E+04  0.10100000352E+00 0. -1.
</event>
<event>
 5   0  0.1366235E-07  0.2801776E+04  0.7818609E-02  0.8302717E-01
        1   -1    0    0  501    0  0.00000000000E+00  0.00000000000E+00  0.20762882081E+04  0.20762882081E+04  0.50400001928E-02 0. -1.
       -1   -1    0    0    0  501  0.00000000000E+00  0.00000000000E+00 -0.94519009527E+03  0.94519009528E+03  0.50400001928E-02 0.  1.
    10030    2    1    2    0    0  0.00000000000E+00  0.00000000000E+00  0.11310981128E+04  0.30214783034E+04  0.28017759006E+04 0.  0.
        2    1    3    3  502    0  0.42025016480E+03  0.36257277490E+03 -0.82155386284E+03  0.99147363437E+03  0.25500000920E-02 0.  1.
       -2    1    3    3    0  502 -0.42025016480E+03 -0.36257277490E+03  0.19526519757E+04  0.20300046690E+04  0.25500000920E-02 0. -1.
</event>
<event>
 5   0  0.1346049E-07  0.2800693E+04  0.7818609E-02  0.8303053E-01
        1   -1    0    0  501    0  0.00000000000E+00  0.00000000000E+00  0.15332775319E+04  0.15332775319E+04  0.50400001928E-02 0. -1.
       -1   -1    0    0    0  501  0.00000000000E+00  0.00000000000E+00 -0.12789400795E+04  0.12789400795E+04  0.50400001928E-02 0.  1.
    10030    2    1    2    0    0  0.00000000000E+00  0.00000000000E+00  0.25433745239E+03  0.28122176114E+04  0.28006928346E+04 0.  0.
        1    1    3    3  502    0  0.28347832128E+03  0.50095108435E+03  0.14090024658E+04  0.15220380732E+04  0.50400001928E-02 0. -1.
       -1    1    3    3    0  502 -0.28347832128E+03 -0.50095108435E+03 -0.11546650134E+04  0.12901795382E+04  0.50400001928E-02 0.  1.
</event>
<event>
 5   0  0.3522569E-07  0.2799609E+04  0.7818609E-02  0.8303390E-01
        2   -1    0    0  501    0  0.00000000000E+00  0.00000000000E+00  0.10567761301E+04  0.10567761301E+04  0.25500000920E-02 0. -1.
       -2   -1    0    0    0  501  0.00000000000E+00  0.00000000000E+00 -0.18541790453E+04  0.18541790453E+04  0.25500000920E-02 0.  1.
    10030    2    1    2    0    0  0.00000000000E+00  0.00000000000E+00 -0.79740291521E+03  0.29109551754E+04  0.27996086555E+04 0.  0.
        1    1    3    3  502    0  0.95627343661E+03 -0.87223376468E+03  0.15560686124E+03  0.13036349647E+04  0.50400001928E-02 0.  1.
       -1    1    3    3    0  502 -0.95627343661E+03  0.87223376468E+03 -0.95300977645E+03  0.16073202107E+04  0.50400001928E-02 0. -1.
</event>
<event>
 5   0  0.1361741E-07  0.2799993E+04  0.7818609E-02  0.8303271E-01
       -1   -1    0    0    0  501  0.00000000000E+00  0.00000000000E+00  0.16004670882E+04  0.16004670882E+04  0.50400001928E-02 0. -1.
        1   -1    0    0  501    0  0.00000000000E+00  0.00000000000E+00 -0.12246359409E+04  0.12246359409E+04  0.50400001928E-02 0.  1.
    10030    2    1    2    0    0  0.00000000000E+00  0.00000000000E+00  0.37583114726E+03  0.28251030291E+04  0.27999925132E+04 0.  0.
        5    1    3    3  502    0  0.11411898574E+04  0.23070499711E+03 -0.59650654479E+03  0.13081977046E+04  0.46999998093E+01 0.  1.
       -5    1    3    3    0  502 -0.11411898574E+04 -0.23070499711E+03  0.97233769205E+03  0.15169053245E+04  0.46999998093E+01 0. -1.
</event>
<event>
 5   0  0.1346049E-07  0.2799135E+04  0.7818609E-02  0.8303537E-01
        1   -1    0    0  501    0  0.00000000000E+00  0.00000000000E+00  0.16987651913E+04  0.16987651913E+04  0.50400001928E-02 0.  1.
       -1   -1    0    0    0  501  0.00000000000E+00  0.00000000000E+00 -0.11530662581E+04  0.11530662581E+04  0.50400001928E-02 0. -1.
    10030    2    1    2    0    0  0.00000000000E+00  0.00000000000E+00  0.54569893324E+03  0.28518314494E+04  0.27991347395E+04 0.  0.
        1    1    3    3  502    0 -0.32703054558E+03 -0.10218359566E+04  0.11884851400E+04  0.16011229272E+04  0.50400001928E-02 0.  1.
       -1    1    3    3    0  502  0.32703054558E+03  0.10218359566E+04 -0.64278620672E+03  0.12507085222E+04  0.50400001928E-02 0. -1.
</event>
<event>
 5   0  0.3502141E-07  0.2797462E+04  0.7818609E-02  0.8304057E-01
        2   -1    0    0  501    0  0.00000000000E+00  0.00000000000E+00  0.24218879825E+04  0.24218879825E+04  0.25500000920E-02 0. -1.
       -2   -1    0    0    0  501  0.00000000000E+00  0.00000000000E+00 -0.80781968362E+03  0.80781968362E+03  0.25500000920E-02 0.  1.
    10030    2    1    2    0    0  0.00000000000E+00  0.00000000000E+00  0.16140682989E+04  0.32297076661E+04  0.27974622670E+04 0.  0.
        3    1    3    3  502    0 -0.43471531762E+03  0.10902386228E+04  0.16854140972E+04  0.20538301661E+04  0.10100000352E+00 0. -1.
       -3    1    3    3    0  502  0.43471531762E+03 -0.10902386228E+04 -0.71345798272E+02  0.11758775001E+04  0.10100000352E+00 0.  1.
</event>
<event>
 5   0  0.1346049E-07  0.2799764E+04  0.7818609E-02  0.8303341E-01
        1   -1    0    0  501    0  0.00000000000E+00  0.00000000000E+00  0.16693567080E+04  0.16693567080E+04  0.50400001928E-02 0.  1.
       -1   -1    0    0    0  501  0.00000000000E+00  0.00000000000E+00 -0.11739074605E+04  0.11739074605E+04  0.50400001928E-02 0. -1.
    10030    2    1    2    0    0  0.00000000000E+00  0.00000000000E+00  0.49544924748E+03  0.28432641685E+04  0.27997644857E+04 0.  0.
        1    1    3    3  502    0 -0.66567156527E+03  0.10759172556E+04 -0.36071143011E+03  0.13156098622E+04  0.50400001928E-02 0. -1.
       -1    1    3    3    0  502  0.66567156527E+03 -0.10759172556E+04  0.85616067759E+03  0.15276543063E+04  0.50400001928E-02 0.  1.
</event>
<event>
 5   0  0.1346049E-07  0.2799258E+04  0.7818609E-02  0.8303499E-01
       -1   -1    0    0    0  501  0.00000000000E+00  0.00000000000E+00  0.92177240482E+03  0.92177240483E+03  0.50400001928E-02 0. -1.
        1   -1    0    0  501    0  0.00000000000E+00  0.00000000000E+00 -0.21252121966E+04  0.21252121966E+04  0.50400001928E-02 0.  1.
    10030    2    1    2    0    0  0.00000000000E+00  0.00000000000E+00 -0.12034397918E+04  0.30469846015E+04  0.27992584427E+04 0.  0.
        1    1    3    3  502    0 -0.12513810581E+04  0.59459392868E+03 -0.81795981614E+03  0.16088986150E+04  0.50400001928E-02 0. -1.
       -1    1    3    3    0  502  0.12513810581E+04 -0.59459392868E+03 -0.38547997566E+03  0.14380859864E+04  0.50400001928E-02 0.  1.
</event>
<event>
 5   0  0.1366235E-07  0.2802514E+04  0.7818609E-02  0.8302488E-01
       -1   -1    0    0    0  501  0.00000000000E+00  0.00000000000E+00  0.81094220391E+03  0.81094220393E+03  0.50400001928E-02 0.  1.
        1   -1    0    0  501    0  0.00000000000E+00  0.00000000000E+00 -0.24212839694E+04  0.24212839694E+04  0.50400001928E-02 0. -1.
    10030    2    1    2    0    0  0.00000000000E+00  0.00000000000E+00 -0.16103417655E+04  0.32322261733E+04  0.28025141273E+04 0.  0.
        2    1    3    3  502    0  0.49769291261E+02  0.80986358225E+03 -0.21227803316E+04  0.22725651455E+04  0.25500000920E-02 0. -1.
       -2    1    3    3    0  502 -0.49769291261E+02 -0.80986358225E+03  0.51243856616E+03  0.95966102781E+03  0.25500000920E-02 0.  1.
</event>
<event>
 5   0  0.3522569E-07  0.2798560E+04  0.7818609E-02  0.8303716E-01
       -2   -1    0    0    0  501  0.00000000000E+00  0.00000000000E+00  0.98328177121E+03  0.98328177122E+03  0.25500000920E-02 0. -1.
        2   -1    0    0  501    0  0.00000000000E+00  0.00000000000E+00 -0.19912745911E+04  0.19912745911E+04  0.25500000920E-02 0.  1.
    10030    2    1    2    0    0  0.00000000000E+00  0.00000000000E+00 -0.10079928199E+04  0.29745563624E+04  0.27985596345E+04 0.  0.
        1    1    3    3  502    0  0.13762046376E+04  0.12601665045E+03 -0.27073030184E+03  0.14082309104E+04  0.50400001928E-02 0. -1.
       -1    1    3    3    0  502 -0.13762046376E+04 -0.12601665045E+03 -0.73726251809E+03  0.15663254519E+04  0.50400001928E-02 0.  1.
</event>
<event>
 5   0  0.1173363E-07  0.2799667E+04  0.7818609E-02  0.8303372E-01
       -3   -1    0    0    0  501  0.00000000000E+00  0.00000000000E+00  0.12163505872E+04  0.12163505914E+04  0.10100000352E+00 0.  1.
        3   -1    0    0  501    0  0.00000000000E+00  0.00000000000E+00 -0.16109947816E+04  0.16109947848E+04  0.10100000352E+00 0. -1.
    10030    2    1    2    0    0  0.00000000000E+00  0.00000000000E+00 -0.39464419441E+03  0.28273453762E+04  0.27996674510E+04 0.  0.
        5    1    3    3  502    0 -0.13101277722E+04 -0.24575073264E+03  0.23431908149E+03  0.13534237045E+04  0.46999998093E+01 0.  1.
       -5    1    3    3    0  502  0.13101277722E+04  0.24575073264E+03 -0.62896327590E+03  0.14739216717E+04  0.46999998093E+01 0. -1.
</event>
<event>
 5   0  0.3502141E-07  0.2799219E+04  0.7818609E-02  0.8303511E-01
        2   -1    0    0  501    0  0.00000000000E+00  0.00000000000E+00  0.19133598630E+04  0.19133598630E+04  0.25500000920E-02 0.  1.
       -2   -1    0    0    0  501  0.00000000000E+00  0.00000000000E+00 -0.10238048987E+04  0.10238048987E+04  0.25500000920E-02 0. -1.
    10030    2    1    2    0    0  0.00000000000E+00  0.00000000000E+00  0.88955496425E+03  0.29371647617E+04  0.27992193202E+04 0.  0.
        3    1    3    3  502    0 -0.89917683007E+03 -0.86355935209E+03 -0.22269445865E+03  0.12664306370E+04  0.10100000352E+00 0. -1.
       -3    1    3    3    0  502  0.89917683007E+03  0.86355935209E+03  0.11122494229E+04  0.16707341246E+04  0.10100000352E+00 0.  1.
</event>
<event>
 5   0  0.3571498E-07  0.2799585E+04  0.7818609E-02  0.8303397E-01
        2   -1    0    0  501    0  0.00000000000E+00  0.00000000000E+00  0.16315694987E+04  0.16315694987E+04  0.25500000920E-02 0.  1.
       -2   -1    0    0    0  501  0.00000000000E+00  0.00000000000E+00 -0.12009416149E+04  0.12009416149E+04  0.25500000920E-02 0. -1.
    10030    2    1    2    0    0  0.00000000000E+00  0.00000000000E+00  0.43062788384E+03  0.28325111136E+04  0.27995854755E+04 0.  0.
        2    1    3    3  502    0 -0.11223501809E+04 -0.28488714096E+03 -0.58044040802E+03  0.12952766805E+04  0.25500000920E-02 0. -1.
       -2    1    3    3    0  502  0.11223501809E+04  0.28488714096E+03  0.10110682919E+04  0.15372344332E+04  0.25500000920E-02 0.  1.
</event>
<event>
 5   0  0.3406920E-07  0.2803785E+04  0.7818609E-02  0.8302094E-01
        2   -1    0    0  501    0  0.00000000000E+00  0.00000000000E+00  0.15691137780E+04  0.15691137780E+04  0.25500000920E-02 0.  1.
       -2   -1    0    0    0  501  0.00000000000E+00  0.00000000000E+00 -0.12524916462E+04  0.12524916462E+04  0.25500000920E-02 0. -1.
    10030    2    1    2    0    0  0.00000000000E+00  0.00000000000E+00  0.31662213177E+03  0.28216054242E+04  0.28037845131E+04 0.  0.
        4    1    3    3  502    0 -0.24173807582E+03 -0.36718056140E+03  0.14979525385E+04  0.15611285285E+04  0.12699999809E+01 0.  1.
       -4    1    3    3    0  502  0.24173807582E+03  0.36718056140E+03 -0.11813304067E+04  0.12604768957E+04  0.12699999809E+01 0. -1.
</event>
<event>
 5   0  0.3502141E-07  0.2801831E+04  0.7818609E-02  0.8302700E-01
       -2   -1    0    0    0  501  0.00000000000E+00  0.00000000000E+00  0.14576634539E+04  0.14576634539E+04  0.25500000920E-02 0.  1.
        2   -1    0    0  501    0  0.00000000000E+00  0.00000000000E+00 -0.13463767760E+04  0.13463767760E+04  0.25500000920E-02 0. -1.
    10030    2    1    2    0    0  0.00000000000E+00  0.00000000000E+00  0.11128667794E+03  0.28040402299E+04  0.28018309881E+04 0.  0.
        3    1    3    3  502    0 -0.12058337233E+04  0.49468492913E+03  0.56967861552E+03  0.14224211340E+04  0.10100000352E+00 0.  1.
       -3    1    3    3    0  502  0.12058337233E+04 -0.49468492913E+03 -0.45839193758E+03  0.13816190958E+04  0.10100000352E+00 0. -1.
</event>
<event>
 5   0  0.1346049E-07  0.2800019E+04  0.7818609E-02  0.8303262E-01
       -1   -1    0    0    0  501  0.00000000000E+00  0.00000000000E+00  0.90162950504E+03  0.90162950506E+03  0.50400001928E-02 0.  1.
        1   -1    0    0  501    0  0.00000000000E+00  0.00000000000E+00 -0.21738720224E+04  0.21738720224E+04  0.50400001928E-02 0. -1.
    10030    2    1    2    0    0  0.00000000000E+00  0.00000000000E+00 -0.12722425174E+04  0.30755015275E+04  0.28000193968E+04 0.  0.
        1    1    3    3  502    0  0.74496390858E+03 -0.11850283823E+04 -0.66647456313E+03  0.15503070132E+04  0.50400001928E-02 0.  1.
       -1    1    3    3    0  502 -0.74496390858E+03  0.11850283823E+04 -0.60576795425E+03  0.15251945143E+04  0.50400001928E-02 0. -1.
</event>
<event>
 5   0  0.1173363E-07  0.2800445E+04  0.7818609E-02  0.8303130E-01
        3   -1    0    0  501    0  0.00000000000E+00  0.00000000000E+00  0.16913194233E+04  0.16913194263E+04  0.10100000352E+00 0.  1.
       -3   -1    0    0    0  501  0.00000000000E+00  0.00000000000E+00 -0.11592266033E+04  0.11592266077E+04  0.10100000352E+00 0. -1.
    10030    2    1    2    0    0  0.00000000000E+00  0.00000000000E+00  0.53209282001E+03  0.28505460340E+04  0.28004445938E+04 0.  0.
        3    1    3    3  502    0  0.74935645192E+03  0.36005284516E+03  0.14129020617E+04  0.16393490749E+04  0.10100000352E+00 0.  1.
       -3    1    3    3    0  502 -0.74935645192E+03 -0.36005284516E+03 -0.88080924164E+03  0.12111969591E+04  0.10100000352E+00 0. -1.
</event>
<event>
 5   0  0.3406920E-07  0.2803367E+04  0.7818609E-02  0.8302224E-01
       -2   -1    0    0    0  501  0.00000000000E+00  0.00000000000E+00  0.78045320100E+03  0.78045320101E+03  0.25500000920E-02 0.  1.
        2   -1    0    0  501    0  0.00000000000E+00  0.00000000000E+00 -0.25174043819E+04  0.25174043819E+04  0.25500000920E-02 0. -1.
    10030    2    1    2    0    0  0.00000000000E+00  0.00000000000E+00 -0.17369511809E+04  0.32978575829E+04  0.28033667674E+04 0.  0.
        4    1    3    3  502    0 -0.76423321941E+03 -0.10453442561E+04 -0.23724776631E+03  0.13164669167E+04  0.12699999809E+01 0.  1.
       -4    1    3    3    0  502  0.76423321941E+03  0.10453442561E+04 -0.14997034146E+04  0.19813906662E+04  0.12699999809E+01 0. -1.
</event>
<event>
 5   0  0.3571498E-07  0.2799999E+04  0.7818609E-02  0.8303269E-01
        2   -1    0    0  501    0  0.00000000000E+00  0.00000000000E+00  0.14318500895E+04  0.14318500895E+04  0.25500000920E-02 0.  1.
       -2   -1    0    0    0  501  0.00000000000E+00  0.00000000000E+00 -0.13688571642E+04  0.13688571642E+04  0.25500000920E-02 0. -1.
    10030    2    1    2    0    0  0.00000000000E+00  0.00000000000E+00  0.62992925314E+02  0.28007072537E+04  0.27999987522E+04 0.  0.
        2    1    3    3  502    0  0.70034165955E+03 -0.40091652931E+03  0.11758076852E+04  0.14260912370E+04  0.25500000920E-02 0.  1.
       -2    1    3    3    0  502 -0.70034165955E+03  0.40091652931E+03 -0.11128147599E+04  0.13746160167E+04  0.25500000920E-02 0. -1.
</event>
<event>
 5   0  0.1366235E-07  0.2800805E+04  0.7818609E-02  0.8303019E-01
        1   -1    0    0  501    0  0.00000000000E+00  0.00000000000E+00  0.21955025433E+04  0.21955025433E+04  0.50400001928E-02 0.  1.
       -1   -1    0    0    0  501  0.00000000000E+00  0.00000000000E+00 -0.89324741567E+03  0.89324741569E+03  0.50400001928E-02 0. -1.
    10030    2    1    2    0    0  0.00000000000E+00  0.00000000000E+00  0.13022551277E+04  0.30887499590E+04  0.28008048650E+04 0.  0.
        2    1    3    3  502    0  0.18008111693E+03 -0.10400500752E+02 -0.88038234163E+03  0.89867148978E+03  0.25500000920E-02 0. -1.
       -2    1    3    3    0  502 -0.18008111693E+03  0.10400500752E+02  0.21826374693E+04  0.21900784692E+04  0.25500000920E-02 0.  1.
</event>
<event>
 5   0  0.1366235E-07  0.2800102E+04  0.7818609E-02  0.8303237E-01
        1   -1    0    0  501    0  0.00000000000E+00  0.00000000000E+00  0.12081991427E+04  0.12081991427E+04  0.50400001928E-02 0.  1.
       -1   -1    0    0    0  501  0.00000000000E+00  0.00000000000E+00 -0.16223674151E+04  0.16223674151E+04  0.50400001928E-02 0. -1.
    10030    2    1    2    0    0  0.00000000000E+00  0.00000000000E+00 -0.41416827236E+03  0.28305665578E+04  0.28001020839E+04 0.  0.
        2    1    3    3  502    0  0.65341603723E+02 -0.90342332911E+02 -0.16178724006E+04  0.16217097049E+04  0.25500000920E-02 0. -1.
       -2    1    3    3    0  502 -0.65341603723E+02  0.90342332911E+02  0.12037041283E+04  0.12088568529E+04  0.25500000920E-02 0.  1.
</event>
<event>
 5   0  0.3522569E-07  0.2799157E+04  0.7818609E-02  0.8303530E-01
       -2   -1    0    0    0  501  0.00000000000E+00  0.00000000000E+00  0.18269360619E+04  0.18269360619E+04  0.25500000920E-02 0.  1.
        2   -1    0    0  501    0  0.00000000000E+00  0.00000000000E+00 -0.10721885700E+04  0.10721885700E+04  0.25500000920E-02 0. -1.
    10030    2    1    2    0    0  0.00000000000E+00  0.00000000000E+00  0.75474749194E+03  0.28991246319E+04  0.27991569900E+04 0.  0.
        1    1    3    3  502    0 -0.81344226449E+03 -0.50493137152E+03  0.14347027705E+04  0.17248234829E+04  0.50400001928E-02 0.  1.
       -1    1    3    3    0  502  0.81344226449E+03  0.50493137152E+03 -0.67995527854E+03  0.11743011490E+04  0.50400001928E-02 0. -1.
</event>
<event>
 5   0  0.1346049E-07  0.2799139E+04  0.7818609E-02  0.8303536E-01
        1   -1    0    0  501    0  0.00000000000E+00  0.00000000000E+00  0.15771339437E+04  0.15771339437E+04  0.50400001928E-02 0.  1.
       -1   -1    0    0    0  501  0.00000000000E+00  0.00000000000E+00 -0.12419961412E+04  0.12419961412E+04  0.50400001928E-02 0. -1.
    10030    2    1    2    0    0  0.00000000000E+00  0.00000000000E+00  0.33513780255E+03  0.28191300849E+04  0.27991386334E+04 0.  0.
        1    1    3    3  502    0 -0.62602920610E+03 -0.37519443941E+03 -0.10351588950E+04  0.12665849250E+04  0.50400001928E-02 0. -1.
       -1    1    3    3    0  502  0.62602920610E+03  0.37519443941E+03  0.13702966976E+04  0.15525451599E+04  0.50400001928E-02 0.  1.
</event>
<event>
 5   0  0.1361741E-07  0.2800047E+04  0.7818609E-02  0.8303254E-01
        1   -1    0    0  501    0  0.00000000000E+00  0.00000000000E+00  0.29866744571E+04  0.29866744571E+04  0.50400001928E-02 0.  1.
       -1   -1    0    0    0  501  0.00000000000E+00  0.00000000000E+00 -0.65627046132E+03  0.65627046134E+03  0.50400001928E-02 0. -1.
    10030    2    1    2    0    0  0.00000000000E+00  0.00000000000E+00  0.23304039958E+04  0.36429449185E+04  0.28000473023E+04 0.  0.
        5    1    3    3  502    0  0.16217968520E+03  0.51319303670E+03  0.28466916542E+04  0.28971269920E+04  0.46999998093E+01 0.  1.
       -5    1    3    3    0  502 -0.16217968520E+03 -0.51319303670E+03 -0.51628765845E+03  0.74581792649E+03  0.46999998093E+01 0. -1.
</event>
<event>
 5   0  0.1346049E-07  0.2795834E+04  0.7818609E-02  0.8304563E-01
       -1   -1    0    0    0  501  0.00000000000E+00  0.00000000000E+00  0.10306215220E+04  0.10306215220E+04  0.50400001928E-02 0.  1.
        1   -1    0    0  501    0  0.00000000000E+00  0.00000000000E+00 -0.18961106199E+04  0.18961106199E+04  0.50400001928E-02 0. -1.
    10030    2    1    2    0    0  0.00000000000E+00  0.00000000000E+00 -0.86548909791E+03  0.29267321419E+04  0.27958343391E+04 0.  0.
        1    1    3    3  502    0 -0.14278327538E+03 -0.54101393835E+03  0.90828283116E+03  0.10667993469E+04  0.50400001928E-02 0.  1.
       -1    1    3    3    0  502  0.14278327538E+03  0.54101393835E+03 -0.17737719291E+04  0.18599327949E+04  0.50400001928E-02 0. -1.
</event>
<event>
 5   0  0.1374680E-07  0.2799421E+04  0.7818609E-02  0.8303448E-01
        1   -1    0    0  501    0  0.00000000000E+00  0.00000000000E+00  0.13366170130E+04  0.13366170131E+04  0.50400001928E-02 0. -1.
       -1   -1    0    0    0  501  0.00000000000E+00  0.00000000000E+00 -0.14657821036E+04  0.14657821036E+04  0.50400001928E-02 0.  1.
    10030    2    1    2    0    0  0.00000000000E+00  0.00000000000E+00 -0.12916509053E+03  0.28023991166E+04  0.27994208666E+04 0.  0.
        3    1    3    3  502    0  0.10839656178E+04  0.77014529572E+03  0.37301412666E+03  0.13810303350E+04  0.10100000352E+00 0. -1.
       -3    1    3    3    0  502 -0.10839656178E+04 -0.77014529572E+03 -0.50217921719E+03  0.14213687817E+04  0.10100000352E+00 0.  1.
</event>
<event>
 5   0  0.3502141E-07  0.2799967E+04  0.7818609E-02  0.8303279E-01
       -2   -1    0    0    0  501  0.00000000000E+00  0.00000000000E+00  0.16139556395E+04  0.16139556395E+04  0.25500000920E-02 0.  1.
        2   -1    0    0  501    0  0.00000000000E+00  0.00000000000E+00 -0.12143791053E+04  0.12143791053E+04  0.25500000920E-02 0. -1.
    10030    2    1    2    0    0  0.00000000000E+00  0.00000000000E+00  0.39957653418E+03  0.28283347449E+04  0.27999671467E+04 0.  0.
        3    1    3    3  502    0 -0.11927685322E+04  0.48901449664E+03  0.75132560643E+03  0.14920865010E+04  0.10100000352E+00 0.  1.
       -3    1    3    3    0  502  0.11927685322E+04 -0.48901449664E+03 -0.35174907225E+03  0.13362482439E+04  0.10100000352E+00 0. -1.
</event>
<event>
 5   0  0.3522569E-07  0.2800197E+04  0.7818609E-02  0.8303207E-01
        2   -1    0    0  501    0  0.00000000000E+00  0.00000000000E+00  0.19556152454E+04  0.19556152454E+04  0.25500000920E-02 0.  1.
       -2   -1    0    0    0  501  0.00000000000E+00  0.00000000000E+00 -0.10023832245E+04  0.10023832245E+04  0.25500000920E-02 0. -1.
    10030    2    1    2    0    0  0.00000000000E+00  0.00000000000E+00  0.95323202097E+03  0.29579984699E+04  0.28001970756E+04 0.  0.
        1    1    3    3  502    0  0.93429266919E+03  0.79424210279E+03  0.11903802087E+04  0.17090138533E+04  0.50400001928E-02 0.  1.
       -1    1    3    3    0  502 -0.93429266919E+03 -0.79424210279E+03 -0.23714818768E+03  0.12489846166E+04  0.50400001928E-02 0. -1.
</event>
<event>
 5   0  0.3406920E-07  0.2799597E+04  0.7818609E-02  0.8303393E-01
        2   -1    0    0  501    0  0.00000000000E+00  0.00000000000E+00  0.22614112533E+04  0.22614112533E+04  0.25500000920E-02 0. -1.
       -2   -1    0    0    0  501  0.00000000000E+00  0.00000000000E+00 -0.86646616503E+03  0.86646616504E+03  0.25500000920E-02 0.  1.
    10030    2    1    2    0    0  0.00000000000E+00  0.00000000000E+00  0.13949450882E+04  0.31278774183E+04  0.27995973540E+04 0.  0.
        4    1    3    3  502    0 -0.34190099652E+03  0.50282356861E+03  0.21061536145E+04  0.21921707263E+04  0.12699999809E+01 0. -1.
       -4    1    3    3    0  502  0.34190099652E+03 -0.50282356861E+03 -0.71120852630E+03  0.93570669195E+03  0.12699999809E+01 0.  1.
</event>
<event>
 5   0  0.1366235E-07  0.2799627E+04  0.7818609E-02  0.8303384E-01
       -1   -1    0    0    0  501  0.00000000000E+00  0.00000000000E+00  0.26717580731E+04  0.26717580731E+04  0.50400001928E-02 0. -1.
        1   -1    0    0  501    0  0.00000000000E+00  0.00000000000E+00 -0.73340396115E+03  0.73340396117E+03  0.50400001928E-02 0.  1.
    10030    2    1    2    0    0  0.00000000000E+00  0.00000000000E+00  0.19383541119E+04  0.34051620342E+04  0.27996270852E+04 0.  0.
        2    1    3    3  502    0 -0.41621504108E+03  0.35633860622E+03  0.25359121658E+04  0.25944291618E+04  0.25500000920E-02 0. -1.
       -2    1    3    3    0  502  0.41621504108E+03 -0.35633860622E+03 -0.59755805391E+03  0.81073287246E+03  0.25500000920E-02 0.  1.
</event>
<event>
 5   0  0.3557628E-07  0.2800809E+04  0.7818609E-02  0.8303017E-01
       -2   -1    0    0    0  501  0.00000000000E+00  0.00000000000E+00  0.11269902792E+04  0.11269902792E+04  0.25500000920E-02 0.  1.
        2   -1    0    0  501    0  0.00000000000E+00  0.00000000000E+00 -0.17401509902E+04  0.17401509902E+04  0.25500000920E-02 0. -1.
    10030    2    1    2    0    0  0.00000000000E+00  0.00000000000E+00 -0.61316071096E+03  0.28671412694E+04  0.28008093475E+04 0.  0.
        5    1    3    3  502    0  0.92446684474E+03  0.58624115852E+02 -0.13817086098E+04  0.16634952679E+04  0.46999998093E+01 0. -1.
       -5    1    3    3    0  502 -0.92446684474E+03 -0.58624115852E+02  0.76854789888E+03  0.12036460015E+04  0.46999998093E+01 0.  1.
</event>
<event>
 5   0  0.3557628E-07  0.2798492E+04  0.7818609E-02  0.8303737E-01
        2   -1    0    0  501    0  0.00000000000E+00  0.00000000000E+00  0.14833499686E+04  0.14833499686E+04  0.25500000920E-02 0.  1.
       -2   -1    0    0    0  501  0.00000000000E+00  0.00000000000E+00 -0.13199107177E+04  0.13199107177E+04  0.25500000920E-02 0. -1.
    10030    2    1    2    0    0  0.00000000000E+00  0.00000000000E+00  0.16343925095E+03  0.28032606863E+04  0.27984921094E+04 0.  0.
        5    1    3    3  502    0  0.93816368107E+03 -0.79578013036E+03 -0.58608744505E+03  0.13626950105E+04  0.46999998093E+01 0. -1.
       -5    1    3    3    0  502 -0.93816368107E+03  0.79578013036E+03  0.74952669599E+03  0.14405656758E+04  0.46999998093E+01 0.  1.
</event>
<event>
 5   0  0.3502141E-07  0.2799105E+04  0.7818609E-02  0.8303546E-01
        2   -1    0    0  501    0  0.00000000000E+00  0.00000000000E+00  0.24461149912E+04  0.24461149912E+04  0.25500000920E-02 0.  1.
       -2   -1    0    0    0  501  0.00000000000E+00  0.00000000000E+00 -0.80075851297E+03  0.80075851297E+03  0.25500000920E-02 0. -1.
    10030    2    1    2    0    0  0.00000000000E+00  0.00000000000E+00  0.16453564782E+04  0.32468735042E+04  0.27991051448E+04 0.  0.
        3    1    3    3  502    0 -0.15866872187E+03  0.10896859329E+04  0.18246628048E+04  0.21311934584E+04  0.10100000352E+00 0.  1.
       -3    1    3    3    0  502  0.15866872187E+03 -0.10896859329E+04 -0.17930632655E+03  0.11156800458E+04  0.10100000352E+00 0. -1.
</event>
<event>
 5   0  0.3557628E-07  0.2800329E+04  0.7818609E-02  0.8303166E-01
        2   -1    0    0  501    0  0.00000000000E+00  0.00000000000E+00  0.11339538465E+04  0.11339538465E+04  0.25500000920E-02 0. -1.
       -2   -1    0    0    0  501  0.00000000000E+00  0.00000000000E+00 -0.17288715763E+04  0.17288715763E+04  0.25500000920E-02 0.  1.
    10030    2    1    2    0    0  0.00000000000E+00  0.00000000000E+00 -0.59491772984E+03  0.28628254228E+04  0.28003289622E+04 0.  0.
        5    1    3    3  502    0  0.18254267301E+03 -0.30788154459E+03  0.10863851479E+04  0.11438389977E+04  0.46999998093E+01 0. -1.
       -5    1    3    3    0  502 -0.18254267301E+03  0.30788154459E+03 -0.16813028778E+04  0.17189864251E+04  0.46999998093E+01 0.  1.
</event>
<event>
 5   0  0.3571498E-07  0.2799647E+04  0.7818609E-02  0.8303378E-01
       -2   -1    0    0    0  501  0.00000000000E+00  0.00000000000E+00  0.10244197619E+04  0.10244197619E+04  0.25500000920E-02 0. -1.
        2   -1    0    0  501    0  0.00000000000E+00  0.00000000000E+00 -0.19127956215E+04  0.19127956215E+04  0.25500000920E-02 0.  1.
    10030    2    1    2    0    0  0.00000000000E+00  0.00000000000E+00 -0.88837585961E+03  0.29372153833E+04  0.27996468599E+04 0.  0.
        2    1    3    3  502    0  0.27785726555E+03  0.11594744666E+04 -0.12136573415E+04  0.17013376624E+04  0.25500000920E-02 0.  1.
       -2    1    3    3    0  502 -0.27785726555E+03 -0.11594744666E+04  0.32528148187E+03  0.12358777210E+04  0.25500000920E-02 0. -1.
</event>
<event>
 5   0  0.3557628E-07  0.2799090E+04  0.7818609E-02  0.8303551E-01
        2   -1    0    0  501    0  0.00000000000E+00  0.00000000000E+00  0.11641045750E+04  0.11641045750E+04  0.25500000920E-02 0. -1.
       -2   -1    0    0    0  501  0.00000000000E+00  0.00000000000E+00 -0.16826030364E+04  0.16826030364E+04  0.25500000920E-02 0.  1.
    10030    2    1    2    0    0  0.00000000000E+00  0.00000000000E+00 -0.51849846138E+03  0.28467076114E+04  0.27990897753E+04 0.  0.
        5    1    3    3  502    0  0.52486203155E+03 -0.62138787122E+03 -0.14175274566E+04  0.16343222507E+04  0.46999998093E+01 0.  1.
       -5    1    3    3    0  502 -0.52486203155E+03  0.62138787122E+03  0.89902899526E+03  0.12123853608E+04  0.46999998093E+01 0. -1.
</event>
<event>
 5   0  0.3571498E-07  0.2800186E+04  0.7818609E-02  0.8303211E-01
        2   -1    0    0  501    0  0.00000000000E+00  0.00000000000E+00  0.13893964311E+04  0.13893964311E+04  0.25500000920E-02 0.  1.
       -2   -1    0    0    0  501  0.00000000000E+00  0.00000000000E+00 -0.14108714439E+04  0.14108714440E+04  0.25500000920E-02 0. -1.
    10030    2    1    2    0    0  0.00000000000E+00  0.00000000000E+00 -0.21475012841E+02  0.28002678751E+04  0.28001855288E+04 0.  0.
        2    1    3    3  502    0  0.35808405870E+02 -0.10338787515E+04 -0.95420164694E+03  0.14073692827E+04  0.25500000920E-02 0. -1.
       -2    1    3    3    0  502 -0.35808405870E+02  0.10338787515E+04  0.93272663410E+03  0.13928985924E+04  0.25500000920E-02 0.  1.
</event>
<event>
 5   0  0.3406920E-07  0.2798125E+04  0.7818609E-02  0.8303851E-01
        2   -1    0    0  501    0  0.00000000000E+00  0.00000000000E+00  0.16855454382E+04  0.16855454382E+04  0.25500000920E-02 0. -1.
       -2   -1    0    0    0  501  0.00000000000E+00  0.00000000000E+00 -0.11612716746E+04  0.11612716746E+04  0.25500000920E-02 0.  1.
    10030    2    1    2    0    0  0.00000000000E+00  0.00000000000E+00  0.52427376355E+03  0.28468171128E+04  0.27981252107E+04 0.  0.
        4    1    3    3  502    0  0.41966027699E+03  0.95482227802E+03 -0.68659993423E+03  0.12486878766E+04  0.12699999809E+01 0.  1.
       -4    1    3    3    0  502 -0.41966027699E+03 -0.95482227802E+03  0.12108736978E+04  0.15981292362E+04  0.12699999809E+01 0. -1.
</event>
<event>
 5   0  0.3522569E-07  0.2800418E+04  0.7818609E-02  0.8303138E-01
        2   -1    0    0  501    0  0.00000000000E+00  0.00000000000E+00  0.15075535729E+04  0.15075535729E+04  0.25500000920E-02 0.  1.
       -2   -1    0    0    0  501  0.00000000000E+00  0.00000000000E+00 -0.13005082273E+04  0.13005082273E+04  0.25500000920E-02 0. -1.
    10030    2    1    2    0    0  0.00000000000E+00  0.00000000000E+00  0.20704534567E+03  0.28080618002E+04  0.28004184149E+04 0.  0.
        1    1    3    3  502    0  0.11643734541E+04 -0.91272387451E+02  0.87795805665E+03  0.14611319375E+04  0.50400001928E-02 0.  1.
       -1    1    3    3    0  502 -0.11643734541E+04  0.91272387451E+02 -0.67091271098E+03  0.13469298627E+04  0.50400001928E-02 0. -1.
</event>
<event>
 5   0  0.1346049E-07  0.2800508E+04  0.7818609E-02  0.8303111E-01
       -1   -1    0    0    0  501  0.00000000000E+00  0.00000000000E+00  0.10473354938E+04  0.10473354938E+04  0.50400001928E-02 0. -1.
        1   -1    0    0  501    0  0.00000000000E+00  0.00000000000E+00 -0.18720944504E+04  0.18720944504E+04  0.50400001928E-02 0.  1.
    10030    2    1    2    0    0  0.00000000000E+00  0.00000000000E+00 -0.82475895661E+03  0.29194299442E+04  0.28005077865E+04 0.  0.
        1    1    3    3  502    0 -0.70033614324E+03  0.72264822927E+03 -0.14273886699E+04  0.17464620213E+04  0.50400001928E-02 0.  1.
       -1    1    3    3    0  502  0.70033614324E+03 -0.72264822927E+03  0.60262971327E+03  0.11729679229E+04  0.50400001928E-02 0. -1.
</event>
<event>
 5   0  0.1361741E-07  0.2799628E+04  0.7818609E-02  0.8303384E-01
        1   -1    0    0  501    0  0.00000000000E+00  0.00000000000E+00  0.12447849082E+04  0.12447849082E+04  0.50400001928E-02 0. -1.
       -1   -1    0    0    0  501  0.00000000000E+00  0.00000000000E+00 -0.15741510489E+04  0.15741510489E+04  0.50400001928E-02 0.  1.
    10030    2    1    2    0    0  0.00000000000E+00  0.00000000000E+00 -0.32936614077E+03  0.28189359571E+04  0.27996281674E+04 0.  0.
        5    1    3    3  502    0 -0.75587079490E+03 -0.89597741984E+03 -0.93503539181E+03  0.14994763984E+04  0.46999998093E+01 0.  1.
       -5    1    3    3    0  502  0.75587079490E+03  0.89597741984E+03  0.60566925104E+03  0.13194595587E+04  0.46999998093E+01 0. -1.
</event>
<event>
 5   0  0.1366235E-07  0.2800146E+04  0.7818609E-02  0.8303223E-01
        1   -1    0    0  501    0  0.00000000000E+00  0.00000000000E+00  0.13866965030E+04  0.13866965030E+04  0.50400001928E-02 0.  1.
       -1   -1    0    0    0  501  0.00000000000E+00  0.00000000000E+00 -0.14135784416E+04  0.14135784416E+04  0.50400001928E-02 0. -1.
    10030    2    1    2    0    0  0.00000000000E+00  0.00000000000E+00 -0.26881938558E+02  0.28002749446E+04  0.28001459117E+04 0.  0.
        2    1    3    3  502    0 -0.74792794382E+03 -0.52238686887E+03  0.10486437661E+04  0.13899417247E+04  0.25500000920E-02 0.  1.
       -2    1    3    3    0  502  0.74792794382E+03  0.52238686887E+03 -0.10755257046E+04  0.14103332199E+04  0.25500000920E-02 0. -1.
</event>
<event>
 5   0  0.1361741E-07  0.2800416E+04  0.7818609E-02  0.8303139E-01
       -1   -1    0    0    0  501  0.00000000000E+00  0.00000000000E+00  0.16325960784E+04  0.16325960784E+04  0.50400001928E-02 0.  1.
        1   -1    0    0  501    0  0.00000000000E+00  0.00000000000E+00 -0.12008987944E+04  0.12008987944E+04  0.50400001928E-02 0. -1.
    10030    2    1    2    0    0  0.00000000000E+00  0.00000000000E+00  0.43169728405E+03  0.28334948728E+04  0.28004161564E+04 0.  0.
        5    1    3    3  502    0 -0.39394398531E+03 -0.52463786423E+03  0.14674416970E+04  0.16074339726E+04  0.46999998093E+01 0.  1.
       -5    1    3    3    0  502  0.39394398531E+03  0.52463786423E+03 -0.10357444129E+04  0.12260609002E+04  0.46999998093E+01 0. -1.
</event>
<event>
 5   0  0.3522569E-07  0.2799977E+04  0.7818609E-02  0.8303276E-01
        2   -1    0    0  501    0  0.00000000000E+00  0.00000000000E+00  0.17235179405E+04  0.17235179405E+04  0.25500000920E-02 0. -1.
       -2   -1    0    0    0  501  0.00000000000E+00  0.00000000000E+00 -0.11371900709E+04  0.11371900709E+04  0.25500000920E-02 0.  1.
    10030    2    1    2    0    0  0.00000000000E+00  0.00000000000E+00  0.58632786958E+03  0.28607080114E+04  0.27999767777E+04 0.  0.
        1    1    3    3  502    0 -0.69276734740E+02  0.45985820265E+03 -0.10559692327E+04  0.11538370131E+04  0.50400001928E-02 0.  1.
       -1    1    3    3    0  502  0.69276734740E+02 -0.45985820265E+03  0.16422971023E+04  0.17068709982E+04  0.50400001928E-02 0. -1.
</event>
<event>
 5   0  0.3406920E-07  0.2808214E+04  0.7818609E-02  0.8300723E-01
        2   -1    0    0  501    0  0.00000000000E+00  0.00000000000E+00  0.17031720311E+04  0.17031720311E+04  0.25500000920E-02 0.  1.
       -2   -1    0    0    0  501  0.00000000000E+00  0.00000000000E+00 -0.11575560080E+04  0.11575560080E+04  0.25500000920E-02 0. -1.
    10030    2    1    2    0    0  0.00000000000E+00  0.00000000000E+00  0.54561602311E+03  0.28607280391E+04  0.28082143916E+04 0.  0.
        4    1    3    3  502    0 -0.75188108997E+03 -0.98803792347E+03  0.94079198418E+03  0.15577661192E+04  0.12699999809E+01 0.  1.
       -4    1    3    3    0  502  0.75188108997E+03  0.98803792347E+03 -0.39517596107E+03  0.13029619199E+04  0.12699999809E+01 0. -1.
</event>
<event>
 5   0  0.1357902E-07  0.2801181E+04  0.7818609E-02  0.8302902E-01
        1   -1    0    0  501    0  0.00000000000E+00  0.00000000000E+00  0.18436658457E+04  0.18436658457E+04  0.50400001928E-02 0.  1.
       -1   -1    0    0    0  501  0.00000000000E+00  0.00000000000E+00 -0.10639966921E+04  0.10639966921E+04  0.50400001928E-02 0. -1.
    10030    2    1    2    0    0  0.00000000000E+00  0.00000000000E+00  0.77966915356E+03  0.29076625378E+04  0.28011814373E+04 0.  0.
        4    1    3    3  502    0 -0.44205183154E+02  0.40345175058E+03 -0.10016159748E+04  0.10807236405E+04  0.12699999809E+01 0. -1.
       -4    1    3    3    0  502  0.44205183154E+02 -0.40345175058E+03  0.17812851283E+04  0.18269388973E+04  0.12699999809E+01 0.  1.
</event>
<event>
 5   0  0.1366235E-07  0.2800421E+04  0.7818609E-02  0.8303138E-01
       -1   -1    0    0    0  501  0.00000000000E+00  0.00000000000E+00  0.13215233162E+04  0.13215233162E+04  0.50400001928E-02 0.  1.
        1   -1    0    0  501    0  0.00000000000E+00  0.00000000000E+00 -0.14835824708E+04  0.14835824708E+04  0.50400001928E-02 0. -1.
    10030    2    1    2    0    0  0.00000000000E+00  0.00000000000E+00 -0.16205915463E+03  0.28051057871E+04  0.28004205590E+04 0.  0.
        2    1    3    3  502    0 -0.20610114057E+03  0.11646433125E+04  0.66970221822E+03  0.13591809249E+04  0.25500000920E-02 0.  1.
       -2    1    3    3    0  502  0.20610114057E+03 -0.11646433125E+04 -0.83176137285E+03  0.14459248621E+04  0.25500000920E-02 0. -1.
</event>
<event>
 5   0  0.1366235E-07  0.2799779E+04  0.7818609E-02  0.8303337E-01
       -1   -1    0    0    0  501  0.00000000000E+00  0.00000000000E+00  0.14846751335E+04  0.14846751335E+04  0.50400001928E-02 0. -1.
        1   -1    0    0  501    0  0.00000000000E+00  0.00000000000E+00 -0.13199454074E+04  0.13199454074E+04  0.50400001928E-02 0.  1.
    10030    2    1    2    0    0  0.00000000000E+00  0.00000000000E+00  0.16472972613E+03  0.28046205409E+04  0.27997786512E+04 0.  0.
        2    1    3    3  502    0 -0.89300386787E+03  0.10751736480E+04  0.32609463706E+01  0.13976640924E+04  0.25500000920E-02 0.  1.
       -2    1    3    3    0  502  0.89300386787E+03 -0.10751736480E+04  0.16146877976E+03  0.14069564486E+04  0.25500000920E-02 0. -1.
</event>
<event>
 5   0  0.3571498E-07  0.2795466E+04  0.7818609E-02  0.8304677E-01
        2   -1    0    0  501    0  0.00000000000E+00  0.00000000000E+00  0.11655690413E+04  0.11655690413E+04  0.25500000920E-02 0. -1.
       -2   -1    0    0    0  501  0.00000000000E+00  0.00000000000E+00 -0.16761400608E+04  0.16761400608E+04  0.25500000920E-02 0.  1.
    10030    2    1    2    0    0  0.00000000000E+00  0.00000000000E+00 -0.51057101955E+03  0.28417091021E+04  0.27954655882E+04 0.  0.
        2    1    3    3  502    0  0.52432448089E+03  0.11367592227E+04  0.37670570949E+03  0.13073044340E+04  0.25500000920E-02 0. -1.
       -2    1    3    3    0  502 -0.52432448089E+03 -0.11367592227E+04 -0.88727672904E+03  0.15344046681E+04  0.25500000920E-02 0.  1.
</event>
<event>
 5   0  0.1346049E-07  0.2800419E+04  0.7818609E-02  0.8303138E-01
       -1   -1    0    0    0  501  0.00000000000E+00  0.00000000000E+00  0.13924969816E+04  0.13924969816E+04  0.50400001928E-02 0. -1.
        1   -1    0    0  501    0  0.00000000000E+00  0.00000000000E+00 -0.14079642955E+04  0.14079642955E+04  0.50400001928E-02 0.  1.
    10030    2    1    2    0    0  0.00000000000E+00  0.00000000000E+00 -0.15467313928E+02  0.28004612771E+04  0.28004185628E+04 0.  0.
        1    1    3    3  502    0 -0.45440796941E+02 -0.10498836682E+04  0.91762658106E+03  0.13951197529E+04  0.50400001928E-02 0. -1.
       -1    1    3    3    0  502  0.45440796941E+02  0.10498836682E+04 -0.93309389499E+03  0.14053415242E+04  0.50400001928E-02 0.  1.
</event>
<event>
 5   0  0.1357902E-07  0.2805845E+04  0.7818609E-02  0.8301456E-01
       -1   -1    0    0    0  501  0.00000000000E+00  0.00000000000E+00  0.13411769874E+04  0.13411769875E+04  0.50400001928E-02 0. -1.
        1   -1    0    0  501    0  0.00000000000E+00  0.00000000000E+00 -0.14675111273E+04  0.14675111273E+04  0.50400001928E-02 0.  1.
    10030    2    1    2    0    0  0.00000000000E+00  0.00000000000E+00 -0.12633413989E+03  0.28086881148E+04  0.28058454361E+04 0.  0.
        4    1    3    3  502    0  0.20584152947E+03  0.78469645034E+03  0.10825759939E+04  0.13528088002E+04  0.12699999809E+01 0. -1.
       -4    1    3    3    0  502 -0.20584152947E+03 -0.78469645034E+03 -0.12089101337E+04  0.14558793146E+04  0.12699999809E+01 0.  1.
</event>
<event>
 5   0  0.1374680E-07  0.2797954E+04  0.7818609E-02  0.8303904E-01
        1   -1    0    0  501    0  0.00000000000E+00  0.00000000000E+00  0.14127552080E+04  0.14127552080E+04  0.50400001928E-02 0.  1.
       -1   -1    0    0    0  501  0.00000000000E+00  0.00000000000E+00 -0.13853332852E+04  0.13853332852E+04  0.50400001928E-02 0. -1.
    10030    2    1    2    0    0  0.00000000000E+00  0.00000000000E+00  0.27421922798E+02  0.27980884932E+04  0.27979541193E+04 0.  0.
        3    1    3    3  502    0  0.32194019353E+03  0.33423697324E+03 -0.13061164004E+04  0.13861096292E+04  0.10100000352E+00 0. -1.
       -3    1    3    3    0  502 -0.32194019353E+03 -0.33423697324E+03  0.13335383232E+04  0.14119788639E+04  0.10100000352E+00 0.  1.
</event>
<event>
 5   0  0.1357902E-07  0.2794037E+04  0.7818609E-02  0.8305122E-01
        1   -1    0    0  501    0  0.00000000000E+00  0.00000000000E+00  0.16398969990E+04  0.16398969990E+04  0.50400001928E-02 0.  1.
       -1   -1    0    0    0  501  0.00000000000E+00  0.00000000000E+00 -0.11901120412E+04  0.11901120412E+04  0.50400001928E-02 0. -1.
    10030    2    1    2    0    0  0.00000000000E+00  0.00000000000E+00  0.44978495783E+03  0.28300090402E+04  0.27940373404E+04 0.  0.
        4    1    3    3  502    0  0.12897125029E+04  0.87911741866E+02  0.76140313423E+03  0.15002743617E+04  0.12699999809E+01 0.  1.
       -4    1    3    3    0  502 -0.12897125029E+04 -0.87911741866E+02 -0.31161817640E+03  0.13297346786E+04  0.12699999809E+01 0. -1.
</event>
<event>
 5   0  0.3406920E-07  0.2799236E+04  0.7818609E-02  0.8303506E-01
        2   -1    0    0  501    0  0.00000000000E+00  0.00000000000E+00  0.24646480495E+04  0.24646480495E+04  0.25500000920E-02 0. -1.
       -2   -1    0    0    0  501  0.00000000000E+00  0.00000000000E+00 -0.79481151881E+03  0.79481151881E+03  0.25500000920E-02 0.  1.
    10030    2    1    2    0    0  0.00000000000E+00  0.00000000000E+00  0.16698365307E+04  0.32594595684E+04  0.27992360812E+04 0.  0.
        4    1    3    3  502    0  0.61849842241E+03  0.11009314426E+04  0.13207461260E+03  0.12696596615E+04  0.12699999809E+01 0.  1.
       -4    1    3    3    0  502 -0.61849842241E+03 -0.11009314426E+04  0.15377619181E+04  0.19897999069E+04  0.12699999809E+01 0. -1.
</event>
<event>
 5   0  0.3571498E-07  0.2799077E+04  0.7818609E-02  0.8303555E-01
        2   -1    0    0  501    0  0.00000000000E+00  0.00000000000E+00  0.21850820541E+04  0.21850820541E+04  0.25500000920E-02 0. -1.
       -2   -1    0    0    0  501  0.00000000000E+00  0.00000000000E+00 -0.89640011461E+03  0.89640011461E+03  0.25500000920E-02 0.  1.
    10030    2    1    2    0    0  0.00000000000E+00  0.00000000000E+00  0.12886819395E+04  0.30814821687E+04  0.27990768505E+04 0.  0.
        2    1    3    3  502    0 -0.77122567979E+02  0.11332422466E+04  0.15444656375E+04  0.19171750013E+04  0.25500000920E-02 0.  1.
       -2    1    3    3    0  502  0.77122567979E+02 -0.11332422466E+04 -0.25578369804E+03  0.11643071674E+04  0.25500000920E-02 0. -1.
</event>
<event>
 5   0  0.3557628E-07  0.2801025E+04  0.7818609E-02  0.8302950E-01
        2   -1    0    0  501    0  0.00000000000E+00  0.00000000000E+00  0.19224882423E+04  0.19224882423E+04  0.25500000920E-02 0.  1.
       -2   -1    0    0    0  501  0.00000000000E+00  0.00000000000E+00 -0.10202585086E+04  0.10202585086E+04  0.25500000920E-02 0. -1.
    10030    2    1    2    0    0  0.00000000000E+00  0.00000000000E+00  0.90222973371E+03  0.29427467509E+04  0.28010248031E+04 0.  0.
        5    1    3    3  502    0  0.27655303612E+03 -0.77270934629E+02 -0.98899213374E+03  0.10298446046E+04  0.46999998093E+01 0. -1.
       -5    1    3    3    0  502 -0.27655303612E+03  0.77270934629E+02  0.18912218674E+04  0.19129021462E+04  0.46999998093E+01 0.  1.
</event>
<event>
 5   0  0.3502141E-07  0.2800354E+04  0.7818609E-02  0.8303159E-01
        2   -1    0    0  501    0  0.00000000000E+00  0.00000000000E+00  0.22813122053E+04  0.22813122053E+04  0.25500000920E-02 0. -1.
       -2   -1    0    0    0  501  0.00000000000E+00  0.00000000000E+00 -0.85937175902E+03  0.85937175902E+03  0.25500000920E-02 0.  1.
    10030    2    1    2    0    0  0.00000000000E+00  0.00000000000E+00  0.14219404463E+04  0.31406839644E+04  0.28003537511E+04 0.  0.
        3    1    3    3  502    0  0.38012618066E+03 -0.59643198422E+03  0.20662459545E+04  0.21839412492E+04  0.10100000352E+00 0. -1.
       -3    1    3    3    0  502 -0.38012618066E+03  0.59643198422E+03 -0.64430550819E+03  0.95674271521E+03  0.10100000352E+00 0.  1.
</event>
<event>
 5   0  0.3522569E-07  0.2799244E+04  0.7818609E-02  0.8303503E-01
        2   -1    0    0  501    0  0.00000000000E+00  0.00000000000E+00  0.20484740615E+04  0.20484740615E+04  0.25500000920E-02 0.  1.
       -2   -1    0    0    0  501  0.00000000000E+00  0.00000000000E+00 -0.95629346558E+03  0.95629346558E+03  0.25500000920E-02 0. -1.
    10030    2    1    2    0    0  0.00000000000E+00  0.00000000000E+00  0.10921805959E+04  0.30047675271E+04  0.27992444405E+04 0.  0.
        1    1    3    3  502    0 -0.32391174584E+03 -0.10775765809E+04  0.14395816831E+04  0.18271523004E+04  0.50400001928E-02 0.  1.
       -1    1    3    3    0  502  0.32391174584E+03  0.10775765809E+04 -0.34740108711E+03  0.11776152267E+04  0.50400001928E-02 0. -1.
</event>
<event>
 5   0  0.1374680E-07  0.2801862E+04  0.7818609E-02  0.8302690E-01
        1   -1    0    0  501    0  0.00000000000E+00  0.00000000000E+00  0.18332181404E+04  0.18332181404E+04  0.50400001928E-02 0. -1.
       -1   -1    0    0    0  501  0.00000000000E+00  0.00000000000E+00 -0.10705805948E+04  0.10705805948E+04  0.50400001928E-02 0.  1.
    10030    2    1    2    0    0  0.00000000000E+00  0.00000000000E+00  0.76263754562E+03  0.29037987352E+04  0.28018620717E+04 0.  0.
        3    1    3    3  502    0  0.83635323772E+03  0.58950548085E+03  0.13730036098E+04  0.17123499563E+04  0.10100000352E+00 0. -1.
       -3    1    3    3    0  502 -0.83635323772E+03 -0.58950548085E+03 -0.61036606419E+03  0.11914487789E+04  0.10100000352E+00 0.  1.
</event>
<event>
 5   0  0.1374680E-07  0.2799654E+04  0.7818609E-02  0.8303376E-01
       -1   -1    0    0    0  501  0.00000000000E+00  0.00000000000E+00  0.13359779776E+04  0.13359779776E+04  0.50400001928E-02 0.  1.
        1   -1    0    0  501    0  0.00000000000E+00  0.00000000000E+00 -0.14667270810E+04  0.14667270810E+04  0.50400001928E-02 0. -1.
    10030    2    1    2    0    0  0.00000000000E+00  0.00000000000E+00 -0.13074910348E+03  0.28027050586E+04  0.27996536067E+04 0.  0.
        3    1    3    3  502    0 -0.20851148737E+03  0.11540149532E+04  0.69984560378E+03  0.13656542139E+04  0.10100000352E+00 0.  1.
       -3    1    3    3    0  502  0.20851148737E+03 -0.11540149532E+04 -0.83059470726E+03  0.14370508448E+04  0.10100000352E+00 0. -1.
</event>
<event>
 5   0  0.3557628E-07  0.2797827E+04  0.7818609E-02  0.8303943E-01
       -2   -1    0    0    0  501  0.00000000000E+00  0.00000000000E+00  0.11563384200E+04  0.11563384200E+04  0.25500000920E-02 0. -1.
        2   -1    0    0  501    0  0.00000000000E+00  0.00000000000E+00 -0.16923753037E+04  0.16923753037E+04  0.25500000920E-02 0.  1.
    10030    2    1    2    0    0  0.00000000000E+00  0.00000000000E+00 -0.53603688363E+03  0.28487137237E+04  0.27978267171E+04 0.  0.
        5    1    3    3  502    0 -0.11758633790E+04 -0.41519899400E+03 -0.91349795307E+03  0.15458154776E+04  0.46999998093E+01 0. -1.
       -5    1    3    3    0  502  0.11758633790E+04  0.41519899400E+03  0.37746106943E+03  0.13028982461E+04  0.46999998093E+01 0.  1.
</event>
<event>
 5   0  0.1357902E-07  0.2799337E+04  0.7818609E-02  0.8303474E-01
        1   -1    0    0  501    0  0.00000000000E+00  0.00000000000E+00  0.25003966848E+04  0.25003966848E+04  0.50400001928E-02 0. -1.
       -1   -1    0    0    0  501  0.00000000000E+00  0.00000000000E+00 -0.78350453739E+03  0.78350453741E+03  0.50400001928E-02 0.  1.
    10030    2    1    2    0    0  0.00000000000E+00  0.00000000000E+00  0.17168921474E+04  0.32839012222E+04  0.27993371700E+04 0.  0.
        4    1    3    3  502    0  0.84387585419E+03  0.50298625471E+03 -0.31109883950E+03  0.10304881031E+04  0.12699999809E+01 0.  1.
       -4    1    3    3    0  502 -0.84387585419E+03 -0.50298625471E+03  0.20279909869E+04  0.22534131192E+04  0.12699999809E+01 0. -1.
</event>
<event>
 5   0  0.3522569E-07  0.2802255E+04  0.7818609E-02  0.8302569E-01
        2   -1    0    0  501    0  0.00000000000E+00  0.00000000000E+00  0.17048011841E+04  0.17048011841E+04  0.25500000920E-02 0. -1.
       -2   -1    0    0    0  501  0.00000000000E+00  0.00000000000E+00 -0.11515466929E+04  0.11515466929E+04  0.25500000920E-02 0.  1.
    10030    2    1    2    0    0  0.00000000000E+00  0.00000000000E+00  0.55325449114E+03  0.28563478770E+04  0.28022549246E+04 0.  0.
        1    1    3    3  502    0 -0.13182254890E+04 -0.23709820465E+02  0.75999372349E+03  0.15217986251E+04  0.50400001928E-02 0.  1.
       -1    1    3    3    0  502  0.13182254890E+04  0.23709820465E+02 -0.20673923235E+03  0.13345492519E+04  0.50400001928E-02 0. -1.
</event>
<event>
 5   0  0.3502141E-07  0.2799665E+04  0.7818609E-02  0.8303372E-01
       -2   -1    0    0    0  501  0.00000000000E+00  0.00000000000E+00  0.18250666813E+04  0.18250666813E+04  0.25500000920E-02 0.  1.
        2   -1    0    0  501    0  0.00000000000E+00  0.00000000000E+00 -0.10736767778E+04  0.10736767778E+04  0.25500000920E-02 0. -1.
    10030    2    1    2    0    0  0.00000000000E+00  0.00000000000E+00  0.75138990347E+03  0.28987434591E+04  0.27996654897E+04 0.  0.
        3    1    3    3  502    0 -0.83332995560E+03  0.56496025400E+03  0.13826942985E+04  0.17103983270E+04  0.10100000352E+00 0.  1.
       -3    1    3    3    0  502  0.83332995560E+03 -0.56496025400E+03 -0.63130439506E+03  0.11883451321E+04  0.10100000352E+00 0. -1.
</event>
<event>
 5   0  0.1374680E-07  0.2799489E+04  0.7818609E-02  0.8303427E-01
        1   -1    0    0  501    0  0.00000000000E+00  0.00000000000E+00  0.15610059728E+04  0.15610059728E+04  0.50400001928E-02 0.  1.
       -1   -1    0    0    0  501  0.00000000000E+00  0.00000000000E+00 -0.12551424971E+04  0.12551424971E+04  0.50400001928E-02 0. -1.
    10030    2    1    2    0    0  0.00000000000E+00  0.00000000000E+00  0.30586347566E+03  0.28161484699E+04  0.27994891925E+04 0.  0.
        3    1    3    3  502    0 -0.62092696969E+02  0.66050751049E+03 -0.10869446901E+04  0.12734105559E+04  0.10100000352E+00 0. -1.
       -3    1    3    3    0  502  0.62092696969E+02 -0.66050751049E+03  0.13928081658E+04  0.15427379140E+04  0.10100000352E+00 0.  1.
</event>
<event>
 5   0  0.3502141E-07  0.2799985E+04  0.7818609E-02  0.8303273E-01
        2   -1    0    0  501    0  0.00000000000E+00  0.00000000000E+00  0.13581671062E+04  0.13581671062E+04  0.25500000920E-02 0. -1.
       -2   -1    0    0    0  501  0.00000000000E+00  0.00000000000E+00 -0.14431061307E+04  0.14431061307E+04  0.25500000920E-02 0.  1.
    10030    2    1    2    0    0  0.00000000000E+00  0.00000000000E+00 -0.84939024546E+02  0.28012732369E+04  0.27999851982E+04 0.  0.
        3    1    3    3  502    0 -0.49416919526E+03  0.10478928242E+04  0.74382886274E+03  0.13767948111E+04  0.10100000352E+00 0. -1.
       -3    1    3    3    0  502  0.49416919526E+03 -0.10478928242E+04 -0.82876788729E+03  0.14244784259E+04  0.10100000352E+00 0.  1.
</event>
<event>
 5   0  0.3522569E-07  0.2801369E+04  0.7818609E-02  0.8302843E-01
       -2   -1    0    0    0  501  0.00000000000E+00  0.00000000000E+00  0.14136252000E+04  0.14136252000E+04  0.25500000920E-02 0. -1.
        2   -1    0    0  501    0  0.00000000000E+00  0.00000000000E+00 -0.13878625507E+04  0.13878625507E+04  0.25500000920E-02 0.  1.
    10030    2    1    2    0    0  0.00000000000E+00  0.00000000000E+00  0.25762649324E+02  0.28014877507E+04  0.28013692907E+04 0.  0.
        1    1    3    3  502    0  0.13999273928E+04 -0.45980765773E+02  0.10323912074E+02  0.14007203572E+04  0.50400001928E-02 0. -1.
       -1    1    3    3    0  502 -0.13999273928E+04  0.45980765773E+02  0.15438737250E+02  0.14007673935E+04  0.50400001928E-02 0.  1.
</event>
<event>
 5   0  0.1366235E-07  0.2799420E+04  0.7818609E-02  0.8303448E-01
       -1   -1    0    0    0  501  0.00000000000E+00  0.00000000000E+00  0.11010912252E+04  0.11010912252E+04  0.50400001928E-02 0. -1.
        1   -1    0    0  501    0  0.00000000000E+00  0.00000000000E+00 -0.17793147568E+04  0.17793147568E+04  0.50400001928E-02 0.  1.
    10030    2    1    2    0    0  0.00000000000E+00  0.00000000000E+00 -0.67822353162E+03  0.28804059819E+04  0.27994198438E+04 0.  0.
        2    1    3    3  502    0  0.20544028240E+03  0.56768384956E+03  0.96024229176E+03  0.11342556685E+04  0.25500000920E-02 0. -1.
       -2    1    3    3    0  502 -0.20544028240E+03 -0.56768384956E+03 -0.16384658234E+04  0.17461503134E+04  0.25500000920E-02 0.  1.
</event>
<event>
 5   0  0.3406920E-07  0.2802655E+04  0.7818609E-02  0.8302444E-01
       -2   -1    0    0    0  501  0.00000000000E+00  0.00000000000E+00  0.14707656274E+04  0.14707656274E+04  0.25500000920E-02 0. -1.
        2   -1    0    0  501    0  0.00000000000E+00  0.00000000000E+00 -0.13351679648E+04  0.13351679648E+04  0.25500000920E-02 0.  1.
    10030    2    1    2    0    0  0.00000000000E+00  0.00000000000E+00  0.13559766264E+03  0.28059335922E+04  0.28026552763E+04 0.  0.
        4    1    3    3  502    0  0.83172440640E+03 -0.11254792680E+04 -0.47322060310E+01  0.13994617099E+04  0.12699999809E+01 0. -1.
       -4    1    3    3    0  502 -0.83172440640E+03  0.11254792680E+04  0.14032986867E+03  0.14064718823E+04  0.12699999809E+01 0.  1.
</event>
<event>
 5   0  0.3571498E-07  0.2803713E+04  0.7818609E-02  0.8302117E-01
        2   -1    0    0  501    0  0.00000000000E+00  0.00000000000E+00  0.19608213569E+04  0.19608213569E+04  0.25500000920E-02 0.  1.
       -2   -1    0    0    0  501  0.00000000000E+00  0.00000000000E+00 -0.10022337510E+04  0.10022337510E+04  0.25500000920E-02 0. -1.
    10030    2    1    2    0    0  0.00000000000E+00  0.00000000000E+00  0.95858760597E+03  0.29630551079E+04  0.28037127838E+04 0.  0.
        2    1    3    3  502    0  0.44963590412E+03 -0.98285116831E+03 -0.46421121931E+03  0.11762911721E+04  0.25500000920E-02 0. -1.
       -2    1    3    3    0  502 -0.44963590412E+03  0.98285116831E+03  0.14227988253E+04  0.17867639359E+04  0.25500000920E-02 0.  1.
</event>
<event>
 5   0  0.1374680E-07  0.2800042E+04  0.7818609E-02  0.8303255E-01
       -1   -1    0    0    0  501  0.00000000000E+00  0.00000000000E+00  0.13651894541E+04  0.13651894541E+04  0.50400001928E-02 0. -1.
        1   -1    0    0  501    0  0.00000000000E+00  0.00000000000E+00 -0.14357415086E+04  0.14357415086E+04  0.50400001928E-02 0.  1.
    10030    2    1    2    0    0  0.00000000000E+00  0.00000000000E+00 -0.70552054562E+02  0.28009309627E+04  0.28000422614E+04 0.  0.
        3    1    3    3  502    0 -0.98938202567E+03 -0.56927845095E+03  0.77560102242E+03  0.13800404717E+04  0.10100000352E+00 0. -1.
       -3    1    3    3    0  502  0.98938202567E+03  0.56927845095E+03 -0.84615307698E+03  0.14208904910E+04  0.10100000352E+00 0.  1.
</event>
<event>
 5   0  0.1357902E-07  0.2797959E+04  0.7818609E-02  0.8303902E-01
        1   -1    0    0  501    0  0.00000000000E+00  0.00000000000E+00  0.32415373962E+04  0.32415373962E+04  0.50400001928E-02 0. -1.
       -1   -1    0    0    0  501  0.00000000000E+00  0.00000000000E+00 -0.60377021094E+03  0.60377021096E+03  0.50400001928E-02 0.  1.
    10030    2    1    2    0    0  0.00000000000E+00  0.00000000000E+00  0.26377671853E+04  0.38453076072E+04  0.27979590544E+04 0.  0.
        4    1    3    3  502    0  0.31613435255E+03  0.68681679891E+03  0.29365555908E+04  0.30323289061E+04  0.12699999809E+01 0. -1.
       -4    1    3    3    0  502 -0.31613435255E+03 -0.68681679891E+03 -0.29878840557E+03  0.81297870103E+03  0.12699999809E+01 0.  1.
</event>
<event>
 5   0  0.1361741E-07  0.2799777E+04  0.7818609E-02  0.8303338E-01
        1   -1    0    0  501    0  0.00000000000E+00  0.00000000000E+00  0.16447045494E+04  0.16447045494E+04  0.50400001928E-02 0.  1.
       -1   -1    0    0    0  501  0.00000000000E+00  0.00000000000E+00 -0.11915134154E+04  0.11915134154E+04  0.50400001928E-02 0. -1.
    10030    2    1    2    0    0  0.00000000000E+00  0.00000000000E+00  0.45319113394E+03  0.28362179648E+04  0.27997768018E+04 0.  0.
        5    1    3    3  502    0 -0.33857104347E+03 -0.51396910355E+01  0.16025859522E+04  0.16379745395E+04  0.46999998093E+01 0.  1.
       -5    1    3    3    0  502  0.33857104347E+03  0.51396910355E+01 -0.11493948183E+04  0.11982434253E+04  0.46999998093E+01 0. -1.
</event>
<event>
 5   0  0.1357902E-07  0.2800203E+04  0.7818609E-02  0.8303205E-01
       -1   -1    0    0    0  501  0.00000000000E+00  0.00000000000E+00  0.95246011475E+03  0.95246011477E+03  0.50400001928E-02 0. -1.
        1   -1    0    0  501    0  0.00000000000E+00  0.00000000000E+00 -0.20581266756E+04  0.20581266756E+04  0.50400001928E-02 0.  1.
    10030    2    1    2    0    0  0.00000000000E+00  0.00000000000E+00 -0.11056665608E+04  0.30105867904E+04  0.28002025424E+04 0.  0.
        4    1    3    3  502    0 -0.99302841639E+03  0.64728814978E+03  0.24826225604E+03  0.12110834593E+04  0.12699999809E+01 0. -1.
       -4    1    3    3    0  502  0.99302841639E+03 -0.64728814978E+03 -0.13539288169E+04  0.17995033311E+04  0.12699999809E+01 0.  1.
</event>
<event>
 5   0  0.1346049E-07  0.2800384E+04  0.7818609E-02  0.8303149E-01
        1   -1    0    0  501    0  0.00000000000E+00  0.00000000000E+00  0.11858021685E+04  0.11858021685E+04  0.50400001928E-02 0.  1.
       -1   -1    0    0    0  501  0.00000000000E+00  0.00000000000E+00 -0.16533434963E+04  0.16533434963E+04  0.50400001928E-02 0. -1.
    10030    2    1    2    0    0  0.00000000000E+00  0.00000000000E+00 -0.46754132783E+03  0.28391456648E+04  0.28003844759E+04 0.  0.
        1    1    3    3  502    0  0.34060564662E+03 -0.39650671684E+03  0.10831732004E+04  0.12027027751E+04  0.50400001928E-02 0.  1.
       -1    1    3    3    0  502 -0.34060564662E+03  0.39650671684E+03 -0.15507145283E+04  0.16364428897E+04  0.50400001928E-02 0. -1.
</event>
<event>
 5   0  0.3557628E-07  0.2799722E+04  0.7818609E-02  0.8303355E-01
       -2   -1    0    0    0  501  0.00000000000E+00  0.00000000000E+00  0.78060668925E+03  0.78060668925E+03  0.25500000920E-02 0.  1.
        2   -1    0    0  501    0  0.00000000000E+00  0.00000000000E+00 -0.25103682534E+04  0.25103682534E+04  0.25500000920E-02 0. -1.
    10030    2    1    2    0    0  0.00000000000E+00  0.00000000000E+00 -0.17297615642E+04  0.32909749427E+04  0.27997215941E+04 0.  0.
        5    1    3    3  502    0  0.82566976890E+02 -0.63726554868E+03 -0.23267470451E+04  0.24138555440E+04  0.46999998093E+01 0. -1.
       -5    1    3    3    0  502 -0.82566976890E+02  0.63726554868E+03  0.59698548092E+03  0.87711939873E+03  0.46999998093E+01 0.  1.
</event>
<event>
 5   0  0.1357902E-07  0.2798941E+04  0.7818609E-02  0.8303597E-01
        1   -1    0    0  501    0  0.00000000000E+00  0.00000000000E+00  0.12429494218E+04  0.12429494218E+04  0.50400001928E-02 0. -1.
       -1   -1    0    0    0  501  0.00000000000E+00  0.00000000000E+00 -0.15757016254E+04  0.15757016254E+04  0.50400001928E-02 0.  1.
    10030    2    1    2    0    0  0.00000000000E+00  0.00000000000E+00 -0.33275220356E+03  0.28186510472E+04  0.27989408170E+04 0.  0.
        4    1    3    3  502    0  0.13517771609E+04 -0.11863959084E+02 -0.53096643816E+03  0.14523667642E+04  0.12699999809E+01 0.  1.
       -4    1    3    3    0  502 -0.13517771609E+04  0.11863959084E+02  0.19821423460E+03  0.13662842830E+04  0.12699999809E+01 0. -1.
</event>
<event>
 5   0  0.1173363E-07  0.2799395E+04  0.7818609E-02  0.8303456E-01
       -4   -1    0    0    0  501  0.00000000000E+00  0.00000000000E+00  0.12587865264E+04  0.12587871671E+04  0.12699999809E+01 0.  1.
        4   -1    0    0  501    0  0.00000000000E+00  0.00000000000E+00 -0.15563814921E+04  0.15563820103E+04  0.12699999809E+01 0. -1.
    10030    2    1    2    0    0  0.00000000000E+00  0.00000000000E+00 -0.29759496568E+03  0.28151691774E+04  0.27993954229E+04 0.  0.
        2    1    3    3  502    0 -0.12129367569E+04 -0.68318284045E+03 -0.29521773545E+03  0.14230628521E+04  0.25500000920E-02 0. -1.
       -2    1    3    3    0  502  0.12129367569E+04  0.68318284045E+03 -0.23772302276E+01  0.13921063253E+04  0.25500000920E-02 0.  1.
</event>
<event>
 5   0  0.3502141E-07  0.2798670E+04  0.7818609E-02  0.8303681E-01
       -2   -1    0    0    0  501  0.00000000000E+00  0.00000000000E+00  0.11684256345E+04  0.11684256345E+04  0.25500000920E-02 0.  1.
        2   -1    0    0  501    0  0.00000000000E+00  0.00000000000E+00 -0.16758777852E+04  0.16758777852E+04  0.25500000920E-02 0. -1.
    10030    2    1    2    0    0  0.00000000000E+00  0.00000000000E+00 -0.50745215069E+03  0.28443034196E+04  0.27986700873E+04 0.  0.
        3    1    3    3  502    0  0.28847805787E+03  0.17501048847E+03 -0.16339160157E+04  0.16683913862E+04  0.10100000352E+00 0. -1.
       -3    1    3    3    0  502 -0.28847805787E+03 -0.17501048847E+03  0.11264638650E+04  0.11759120334E+04  0.10100000352E+00 0.  1.
</event>
<event>
 5   0  0.3502141E-07  0.2804518E+04  0.7818609E-02  0.8301867E-01
       -2   -1    0    0    0  501  0.00000000000E+00  0.00000000000E+00  0.72932934999E+03  0.72932935000E+03  0.25500000920E-02 0.  1.
        2   -1    0    0  501    0  0.00000000000E+00  0.00000000000E+00 -0.26960803323E+04  0.26960803323E+04  0.25500000920E-02 0. -1.
    10030    2    1    2    0    0  0.00000000000E+00  0.00000000000E+00 -0.19667509823E+04  0.34254096823E+04  0.28045181521E+04 0.  0.
        3    1    3    3  502    0 -0.25481254544E+03 -0.95890361505E+03  0.22691322962E+03  0.10177991945E+04  0.10100000352E+00 0.  1.
       -3    1    3    3    0  502  0.25481254544E+03  0.95890361505E+03 -0.21936642120E+04  0.24076104879E+04  0.10100000352E+00 0. -1.
</event>
<event>
 5   0  0.1361741E-07  0.2798643E+04  0.7818609E-02  0.8303690E-01
        1   -1    0    0  501    0  0.00000000000E+00  0.00000000000E+00  0.19100986143E+04  0.19100986143E+04  0.50400001928E-02 0. -1.
       -1   -1    0    0    0  501  0.00000000000E+00  0.00000000000E+00 -0.10251308305E+04  0.10251308305E+04  0.50400001928E-02 0.  1.
    10030    2    1    2    0    0  0.00000000000E+00  0.00000000000E+00  0.88496778381E+03  0.29352294448E+04  0.27986432276E+04 0.  0.
        5    1    3    3  502    0 -0.36244203318E+03  0.13159210612E+04  0.76586012092E+03  0.15651122265E+04  0.46999998093E+01 0. -1.
       -5    1    3    3    0  502  0.36244203318E+03 -0.13159210612E+04  0.11910766289E+03  0.13701172184E+04  0.46999998093E+01 0.  1.
</event>
<event>
 5   0  0.3557628E-07  0.2806621E+04  0.7818609E-02  0.8301216E-01
        2   -1    0    0  501    0  0.00000000000E+00  0.00000000000E+00  0.21274661855E+04  0.21274661856E+04  0.25500000920E-02 0. -1.
       -2   -1    0    0    0  501  0.00000000000E+00  0.00000000000E+00 -0.92564610747E+03  0.92564610747E+03  0.25500000920E-02 0.  1.
    10030    2    1    2    0    0  0.00000000000E+00  0.00000000000E+00  0.12018200781E+04  0.30531122930E+04  0.28066213093E+04 0.  0.
        5    1    3    3  502    0 -0.99347438735E+03  0.70034772073E+03 -0.16194948786E+03  0.12262658826E+04  0.46999998093E+01 0.  1.
       -5    1    3    3    0  502  0.99347438735E+03 -0.70034772073E+03  0.13637695659E+04  0.18268464104E+04  0.46999998093E+01 0. -1.
</event>
<event>
 5   0  0.3502141E-07  0.2789865E+04  0.7818609E-02  0.8306422E-01
       -2   -1    0    0    0  501  0.00000000000E+00  0.00000000000E+00  0.10747574815E+04  0.10747574815E+04  0.25500000920E-02 0. -1.
        2   -1    0    0  501    0  0.00000000000E+00  0.00000000000E+00 -0.18104889159E+04  0.18104889159E+04  0.25500000920E-02 0.  1.
    10030    2    1    2    0    0  0.00000000000E+00  0.00000000000E+00 -0.73573143439E+03  0.28852463975E+04  0.27898648768E+04 0.  0.
        3    1    3    3  502    0 -0.28154142820E+03  0.85361645673E+03 -0.14710642349E+04  0.17239363748E+04  0.10100000352E+00 0.  1.
       -3    1    3    3    0  502  0.28154142820E+03 -0.85361645673E+03  0.73533280053E+03  0.11613100227E+04  0.10100000352E+00 0. -1.
</event>
<event>
 5   0  0.1374680E-07  0.2801405E+04  0.7818609E-02  0.8302832E-01
        1   -1    0    0  501    0  0.00000000000E+00  0.00000000000E+00  0.19381900535E+04  0.19381900535E+04  0.50400001928E-02 0.  1.
       -1   -1    0    0    0  501  0.00000000000E+00  0.00000000000E+00 -0.10122675538E+04  0.10122675539E+04  0.50400001928E-02 0. -1.
    10030    2    1    2    0    0  0.00000000000E+00  0.00000000000E+00  0.92592249963E+03  0.29504576073E+04  0.28014045794E+04 0.  0.
        3    1    3    3  502    0  0.75180087079E+03  0.88166218411E+03  0.12918783765E+04  0.17353623558E+04  0.10100000352E+00 0.  1.
       -3    1    3    3    0  502 -0.75180087079E+03 -0.88166218411E+03 -0.36595587686E+03  0.12150952515E+04  0.10100000352E+00 0. -1.
</event>
<event>
 5   0  0.1374680E-07  0.2797316E+04  0.7818609E-02  0.8304102E-01
        1   -1    0    0  501    0  0.00000000000E+00  0.00000000000E+00  0.14990682631E+04  0.14990682631E+04  0.50400001928E-02 0. -1.
       -1   -1    0    0    0  501  0.00000000000E+00  0.00000000000E+00 -0.13049736574E+04  0.13049736574E+04  0.50400001928E-02 0.  1.
    10030    2    1    2    0    0  0.00000000000E+00  0.00000000000E+00  0.19409460571E+03  0.28040419205E+04  0.27973162810E+04 0.  0.
        3    1    3    3  502    0 -0.88237381441E+03  0.58768218065E+03 -0.81744582734E+03  0.13387201293E+04  0.10100000352E+00 0.  1.
       -3    1    3    3    0  502  0.88237381441E+03 -0.58768218065E+03  0.10115404330E+04  0.14653217912E+04  0.10100000352E+00 0. -1.
</event>
<event>
 5   0  0.1357902E-07  0.2797886E+04  0.7818609E-02  0.8303925E-01
        1   -1    0    0  501    0  0.00000000000E+00  0.00000000000E+00  0.16131109499E+04  0.16131109499E+04  0.50400001928E-02 0.  1.
       -1   -1    0    0    0  501  0.00000000000E+00  0.00000000000E+00 -0.12132095119E+04  0.12132095119E+04  0.50400001928E-02 0. -1.
    10030    2    1    2    0    0  0.00000000000E+00  0.00000000000E+00  0.39990143796E+03  0.28263204618E+04  0.27978860221E+04 0.  0.
        4    1    3    3  502    0  0.11683328705E+04  0.74095949231E+03 -0.95631634572E+01  0.13835157146E+04  0.12699999809E+01 0. -1.
       -4    1    3    3    0  502 -0.11683328705E+04 -0.74095949231E+03  0.40946460141E+03  0.14428047471E+04  0.12699999809E+01 0.  1.
</event>
<event>
 5   0  0.3522569E-07  0.2800645E+04  0.7818609E-02  0.8303068E-01
       -2   -1    0    0    0  501  0.00000000000E+00  0.00000000000E+00  0.12246493731E+04  0.12246493731E+04  0.25500000920E-02 0.  1.
        2   -1    0    0  501    0  0.00000000000E+00  0.00000000000E+00 -0.16011953784E+04  0.16011953784E+04  0.25500000920E-02 0. -1.
    10030    2    1    2    0    0  0.00000000000E+00  0.00000000000E+00 -0.37654600526E+03  0.28258447515E+04  0.28006448660E+04 0.  0.
        1    1    3    3  502    0 -0.66505373170E+03  0.90484421889E+03  0.65583281730E+03  0.13004446204E+04  0.50400001928E-02 0.  1.
       -1    1    3    3    0  502  0.66505373170E+03 -0.90484421889E+03 -0.10323788226E+04  0.15254001311E+04  0.50400001928E-02 0. -1.
</event>
<event>
 5   0  0.3557628E-07  0.2793768E+04  0.7818609E-02  0.8305206E-01
       -2   -1    0    0    0  501  0.00000000000E+00  0.00000000000E+00  0.96461495655E+03  0.96461495655E+03  0.25500000920E-02 0. -1.
        2   -1    0    0  501    0  0.00000000000E+00  0.00000000000E+00 -0.20228644122E+04  0.20228644122E+04  0.25500000920E-02 0.  1.
    10030    2    1    2    0    0  0.00000000000E+00  0.00000000000E+00 -0.10582494557E+04  0.29874793688E+04  0.27937682560E+04 0.  0.
        5    1    3    3  502    0 -0.44577209431E+03  0.37581569069E+03 -0.18865142411E+04  0.19745653358E+04  0.46999998093E+01 0.  1.
       -5    1    3    3    0  502  0.44577209431E+03 -0.37581569069E+03  0.82826478542E+03  0.10129140330E+04  0.46999998093E+01 0. -1.
</event>
<event>
 5   0  0.3571498E-07  0.2800545E+04  0.7818609E-02  0.8303099E-01
       -2   -1    0    0    0  501  0.00000000000E+00  0.00000000000E+00  0.18599414841E+04  0.18599414841E+04  0.25500000920E-02 0. -1.
        2   -1    0    0  501    0  0.00000000000E+00  0.00000000000E+00 -0.10542065411E+04  0.10542065411E+04  0.25500000920E-02 0.  1.
    10030    2    1    2    0    0  0.00000000000E+00  0.00000000000E+00  0.80573494298E+03  0.29141480252E+04  0.28005445746E+04 0.  0.
        2    1    3    3  502    0  0.66039624020E+03 -0.23050259581E+03 -0.85939714545E+03  0.11080695350E+04  0.25500000920E-02 0.  1.
       -2    1    3    3    0  502 -0.66039624020E+03  0.23050259581E+03  0.16651320884E+04  0.18060784902E+04  0.25500000920E-02 0. -1.
</event>
<event>
 5   0  0.3502141E-07  0.2797267E+04  0.7818609E-02  0.8304117E-01
       -2   -1    0    0    0  501  0.00000000000E+00  0.00000000000E+00  0.10589642240E+04  0.10589642240E+04  0.25500000920E-02 0.  1.
        2   -1    0    0  501    0  0.00000000000E+00  0.00000000000E+00 -0.18472535231E+04  0.18472535231E+04  0.25500000920E-02 0. -1.
    10030    2    1    2    0    0  0.00000000000E+00  0.00000000000E+00 -0.78828929914E+03  0.29062177471E+04  0.27972668043E+04 0.  0.
        3    1    3    3  502    0  0.10668342221E+04  0.60718279572E+03 -0.10906042026E+04  0.16420181917E+04  0.10100000352E+00 0. -1.
       -3    1    3    3    0  502 -0.10668342221E+04 -0.60718279572E+03  0.30231490346E+03  0.12641995554E+04  0.10100000352E+00 0.  1.
</event>
<event>
 5   0  0.1366235E-07  0.2799567E+04  0.7818609E-02  0.8303403E-01
       -1   -1    0    0    0  501  0.00000000000E+00  0.00000000000E+00  0.14446010328E+04  0.14446010328E+04  0.50400001928E-02 0.  1.
        1   -1    0    0  501    0  0.00000000000E+00  0.00000000000E+00 -0.13563567659E+04  0.13563567659E+04  0.50400001928E-02 0. -1.
    10030    2    1    2    0    0  0.00000000000E+00  0.00000000000E+00  0.88244266889E+02  0.28009577986E+04  0.27995673843E+04 0.  0.
        2    1    3    3  502    0 -0.54361624955E+03 -0.11952117408E+04  0.52948640923E+03  0.14157703167E+04  0.25500000920E-02 0.  1.
       -2    1    3    3    0  502  0.54361624955E+03  0.11952117408E+04 -0.44124214234E+03  0.13851874820E+04  0.25500000920E-02 0. -1.
</event>
<event>
 5   0  0.1346049E-07  0.2799640E+04  0.7818609E-02  0.8303380E-01
        1   -1    0    0  501    0  0.00000000000E+00  0.00000000000E+00  0.14628287390E+04  0.14628287390E+04  0.50400001928E-02 0. -1.
       -1   -1    0    0    0  501  0.00000000000E+00  0.00000000000E+00 -0.13395249395E+04  0.13395249395E+04  0.50400001928E-02 0.  1.
    10030    2    1    2    0    0  0.00000000000E+00  0.00000000000E+00  0.12330379953E+03  0.28023536785E+04  0.27996396754E+04 0.  0.
        1    1    3    3  502    0 -0.18415367110E+03 -0.20369432519E+03 -0.13123009074E+04  0.13407227992E+04  0.50400001928E-02 0.  1.
       -1    1    3    3    0  502  0.18415367110E+03  0.20369432519E+03  0.14356047069E+04  0.14616308793E+04  0.50400001928E-02 0. -1.
</event>
<event>
 5   0  0.3502141E-07  0.2798650E+04  0.7818609E-02  0.8303688E-01
        2   -1    0    0  501    0  0.00000000000E+00  0.00000000000E+00  0.23050200159E+04  0.23050200159E+04  0.25500000920E-02 0.  1.
       -2   -1    0    0    0  501  0.00000000000E+00  0.00000000000E+00 -0.84949799436E+03  0.84949799437E+03  0.25500000920E-02 0. -1.
    10030    2    1    2    0    0  0.00000000000E+00  0.00000000000E+00  0.14555220216E+04  0.31545180103E+04  0.27986495890E+04 0.  0.
        3    1    3    3  502    0  0.36773909592E+03 -0.67080154546E+03 -0.59293975997E+03  0.96787619312E+03  0.10100000352E+00 0. -1.
       -3    1    3    3    0  502 -0.36773909592E+03  0.67080154546E+03  0.20484617816E+04  0.21866418172E+04  0.10100000352E+00 0.  1.
</event>
<event>
 5   0  0.3557628E-07  0.2797356E+04  0.7818609E-02  0.8304090E-01
       -2   -1    0    0    0  501  0.00000000000E+00  0.00000000000E+00  0.11182875903E+04  0.11182875903E+04  0.25500000920E-02 0. -1.
        2   -1    0    0  501    0  0.00000000000E+00  0.00000000000E+00 -0.17493716890E+04  0.17493716890E+04  0.25500000920E-02 0.  1.
    10030    2    1    2    0    0  0.00000000000E+00  0.00000000000E+00 -0.63108409868E+03  0.28676592793E+04  0.27973563596E+04 0.  0.
        5    1    3    3  502    0  0.11028786644E+04  0.85952290723E+03 -0.35042041042E+03  0.14415053002E+04  0.46999998093E+01 0.  1.
       -5    1    3    3    0  502 -0.11028786644E+04 -0.85952290723E+03 -0.28066368825E+03  0.14261539792E+04  0.46999998093E+01 0. -1.
</event>
<event>
 5   0  0.1374680E-07  0.2805957E+04  0.7818609E-02  0.8301421E-01
       -1   -1    0    0    0  501  0.00000000000E+00  0.00000000000E+00  0.14413364111E+04  0.14413364111E+04  0.50400001928E-02 0.  1.
        1   -1    0    0  501    0  0.00000000000E+00  0.00000000000E+00 -0.13656409953E+04  0.13656409953E+04  0.50400001928E-02 0. -1.
    10030    2    1    2    0    0  0.00000000000E+00  0.00000000000E+00  0.75695415786E+02  0.28069774065E+04  0.28059565863E+04 0.  0.
        3    1    3    3  502    0  0.56740622210E+03  0.99729311341E+03  0.84548565367E+03  0.14252681768E+04  0.10100000352E+00 0.  1.
       -3    1    3    3    0  502 -0.56740622210E+03 -0.99729311341E+03 -0.76979023788E+03  0.13817092297E+04  0.10100000352E+00 0. -1.
</event>
<event>
 5   0  0.1357902E-07  0.2798794E+04  0.7818609E-02  0.8303643E-01
       -1   -1    0    0    0  501  0.00000000000E+00  0.00000000000E+00  0.95582875756E+03  0.95582875758E+03  0.50400001928E-02 0. -1.
        1   -1    0    0  501    0  0.00000000000E+00  0.00000000000E+00 -0.20488101038E+04  0.20488101038E+04  0.50400001928E-02 0.  1.
    10030    2    1    2    0    0  0.00000000000E+00  0.00000000000E+00 -0.10929813462E+04  0.30046388614E+04  0.27987937516E+04 0.  0.
        4    1    3    3  502    0  0.12187128066E+04 -0.34364514659E+03 -0.11860919545E+04  0.17349837547E+04  0.12699999809E+01 0. -1.
       -4    1    3    3    0  502 -0.12187128066E+04  0.34364514659E+03  0.93110608220E+02  0.12696551067E+04  0.12699999809E+01 0.  1.
</event>
<event>
 5   0  0.1366235E-07  0.2799319E+04  0.7818609E-02  0.8303480E-01
        1   -1    0    0  501    0  0.00000000000E+00  0.00000000000E+00  0.20457622624E+04  0.20457622624E+04  0.50400001928E-02 0. -1.
       -1   -1    0    0    0  501  0.00000000000E+00  0.00000000000E+00 -0.95761220825E+03  0.95761220827E+03  0.50400001928E-02 0.  1.
    10030    2    1    2    0    0  0.00000000000E+00  0.00000000000E+00  0.10881500541E+04  0.30033744706E+04  0.27993191441E+04 0.  0.
        2    1    3    3  502    0 -0.12011424524E+04  0.36475945627E+03 -0.12012756999E+03  0.12610405564E+04  0.25500000920E-02 0.  1.
       -2    1    3    3    0  502  0.12011424524E+04 -0.36475945627E+03  0.12082776241E+04  0.17423339142E+04  0.25500000920E-02 0. -1.
</event>
<event>
 5   0  0.3406920E-07  0.2800628E+04  0.7818609E-02  0.8303073E-01
        2   -1    0    0  501    0  0.00000000000E+00  0.00000000000E+00  0.20675433289E+04  0.20675433289E+04  0.25500000920E-02 0. -1.
       -2   -1    0    0    0  501  0.00000000000E+00  0.00000000000E+00 -0.94841041282E+03  0.94841041282E+03  0.25500000920E-02 0.  1.
    10030    2    1    2    0    0  0.00000000000E+00  0.00000000000E+00  0.11191329161E+04  0.30159537417E+04  0.28006282310E+04 0.  0.
        4    1    3    3  502    0 -0.44212215511E+03 -0.31769826497E+03 -0.82977085100E+03  0.99243411150E+03  0.12699999809E+01 0.  1.
       -4    1    3    3    0  502  0.44212215511E+03  0.31769826497E+03  0.19489037671E+04  0.20235196302E+04  0.12699999809E+01 0. -1.
</event>
<event>
 5   0  0.1361741E-07  0.2799456E+04  0.7818609E-02  0.8303437E-01
        1   -1    0    0  501    0  0.00000000000E+00  0.00000000000E+00  0.19220204559E+04  0.19220204559E+04  0.50400001928E-02 0. -1.
       -1   -1    0    0    0  501  0.00000000000E+00  0.00000000000E+00 -0.10193641416E+04  0.10193641416E+04  0.50400001928E-02 0.  1.
    10030    2    1    2    0    0  0.00000000000E+00  0.00000000000E+00  0.90265631430E+03  0.29413845974E+04  0.27994561844E+04 0.  0.
        5    1    3    3  502    0  0.31404569733E+03 -0.12077802587E+04 -0.21473417682E+03  0.12662901366E+04  0.46999998093E+01 0.  1.
       -5    1    3    3    0  502 -0.31404569733E+03  0.12077802587E+04  0.11173904911E+04  0.16750944609E+04  0.46999998093E+01 0. -1.
</event>
<event>
 5   0  0.3557628E-07  0.2802090E+04  0.7818609E-02  0.8302620E-01
        2   -1    0    0  501    0  0.00000000000E+00  0.00000000000E+00  0.13535067437E+04  0.13535067437E+04  0.25500000920E-02 0.  1.
       -2   -1    0    0    0  501  0.00000000000E+00  0.00000000000E+00 -0.14502524822E+04  0.14502524822E+04  0.25500000920E-02 0. -1.
    10030    2    1    2    0    0  0.00000000000E+00  0.00000000000E+00 -0.96745738566E+02  0.28037592259E+04  0.28020895879E+04 0.  0.
        5    1    3    3  502    0  0.11758871879E+04  0.45263121104E+03  0.56462479544E+03  0.13807276855E+04  0.46999998093E+01 0.  1.
       -5    1    3    3    0  502 -0.11758871879E+04 -0.45263121104E+03 -0.66137053401E+03  0.14230315404E+04  0.46999998093E+01 0. -1.
</event>
<event>
 5   0  0.1366235E-07  0.2800034E+04  0.7818609E-02  0.8303258E-01
        1   -1    0    0  501    0  0.00000000000E+00  0.00000000000E+00  0.16586023943E+04  0.16586023943E+04  0.50400001928E-02 0. -1.
       -1   -1    0    0    0  501  0.00000000000E+00  0.00000000000E+00 -0.11817462867E+04  0.11817462867E+04  0.50400001928E-02 0.  1.
    10030    2    1    2    0    0  0.00000000000E+00  0.00000000000E+00  0.47685610753E+03  0.28403486810E+04  0.28000337288E+04 0.  0.
        2    1    3    3  502    0 -0.11302026926E+04 -0.16025203435E+03  0.10606590579E+04  0.15582157995E+04  0.25500000920E-02 0. -1.
       -2    1    3    3    0  502  0.11302026926E+04  0.16025203435E+03 -0.58380295035E+03  0.12821328815E+04  0.25500000920E-02 0.  1.
</event>
<event>
 5   0  0.3522569E-07  0.2801539E+04  0.7818609E-02  0.8302791E-01
       -2   -1    0    0    0  501  0.00000000000E+00  0.00000000000E+00  0.78828841815E+03  0.78828841816E+03  0.25500000920E-02 0.  1.
        2   -1    0    0  501    0  0.00000000000E+00  0.00000000000E+00 -0.24891344424E+04  0.24891344424E+04  0.25500000920E-02 0. -1.
    10030    2    1    2    0    0  0.00000000000E+00  0.00000000000E+00 -0.17008460243E+04  0.32774228606E+04  0.28015394712E+04 0.  0.
        1    1    3    3  502    0 -0.11704770331E+04 -0.46042788945E+03 -0.15717142801E+04  0.20130315707E+04  0.50400001928E-02 0. -1.
       -1    1    3    3    0  502  0.11704770331E+04  0.46042788945E+03 -0.12913174417E+03  0.12643912898E+04  0.50400001928E-02 0.  1.
</event>
<event>
 5   0  0.1361741E-07  0.2798687E+04  0.7818609E-02  0.8303676E-01
        1   -1    0    0  501    0  0.00000000000E+00  0.00000000000E+00  0.13085149941E+04  0.13085149941E+04  0.50400001928E-02 0. -1.
       -1   -1    0    0    0  501  0.00000000000E+00  0.00000000000E+00 -0.14964767069E+04  0.14964767069E+04  0.50400001928E-02 0.  1.
    10030    2    1    2    0    0  0.00000000000E+00  0.00000000000E+00 -0.18796171273E+03  0.28049917010E+04  0.27986869845E+04 0.  0.
        5    1    3    3  502    0 -0.74026341842E+03  0.39152498725E+03  0.10296416362E+04  0.13272022202E+04  0.46999998093E+01 0. -1.
       -5    1    3    3    0  502  0.74026341842E+03 -0.39152498725E+03 -0.12176033489E+04  0.14777894808E+04  0.46999998093E+01 0.  1.
</event>
<event>
 5   0  0.1366235E-07  0.2798830E+04  0.7818609E-02  0.8303632E-01
        1   -1    0    0  501    0  0.00000000000E+00  0.00000000000E+00  0.22461203732E+04  0.22461203732E+04  0.50400001928E-02 0.  1.
       -1   -1    0    0    0  501  0.00000000000E+00  0.00000000000E+00 -0.87188660699E+03  0.87188660701E+03  0.50400001928E-02 0. -1.
    10030    2    1    2    0    0  0.00000000000E+00  0.00000000000E+00  0.13742337662E+04  0.31180069802E+04  0.27988299492E+04 0.  0.
        2    1    3    3  502    0 -0.18470607507E+03 -0.45956150069E+03 -0.77097698729E+03  0.91636162186E+03  0.25500000920E-02 0. -1.
       -2    1    3    3    0  502  0.18470607507E+03  0.45956150069E+03  0.21452107535E+04  0.22016453583E+04  0.25500000920E-02 0.  1.
</event>
<event>
 5   0  0.3571498E-07  0.2802128E+04  0.7818609E-02  0.8302608E-01
       -2   -1    0    0    0  501  0.00000000000E+00  0.00000000000E+00  0.12759887250E+04  0.12759887250E+04  0.25500000920E-02 0.  1.
        2   -1    0    0  501    0  0.00000000000E+00  0.00000000000E+00 -0.15383991666E+04  0.15383991666E+04  0.25500000920E-02 0. -1.
    10030    2    1    2    0    0  0.00000000000E+00  0.00000000000E+00 -0.26241044160E+03  0.28143878917E+04  0.28021277567E+04 0.  0.
        2    1    3    3  502    0  0.13540757462E+04  0.30556108108E+03 -0.32201350530E+03  0.14249847011E+04  0.25500000920E-02 0. -1.
       -2    1    3    3    0  502 -0.13540757462E+04 -0.30556108108E+03  0.59603063697E+02  0.13894031906E+04  0.25500000920E-02 0.  1.
</event>
<event>
 5   0  0.3571498E-07  0.2800143E+04  0.7818609E-02  0.8303224E-01
        2   -1    0    0  501    0  0.00000000000E+00  0.00000000000E+00  0.20819992017E+04  0.20819992017E+04  0.25500000920E-02 0.  1.
       -2   -1    0    0    0  501  0.00000000000E+00  0.00000000000E+00 -0.94149934456E+03  0.94149934456E+03  0.25500000920E-02 0. -1.
    10030    2    1    2    0    0  0.00000000000E+00  0.00000000000E+00  0.11404998571E+04  0.30234985462E+04  0.28001434847E+04 0.  0.
        2    1    3    3  502    0  0.32939784508E+03 -0.13219435569E+04  0.22176292645E+03  0.13802958029E+04  0.25500000920E-02 0. -1.
       -2    1    3    3    0  502 -0.32939784508E+03  0.13219435569E+04  0.91873693068E+03  0.16432027433E+04  0.25500000920E-02 0.  1.
</event>
<event>
 5   0  0.3406920E-07  0.2799351E+04  0.7818609E-02  0.8303470E-01
        2   -1    0    0  501    0  0.00000000000E+00  0.00000000000E+00  0.25405266674E+04  0.25405266674E+04  0.25500000920E-02 0.  1.
       -2   -1    0    0    0  501  0.00000000000E+00  0.00000000000E+00 -0.77113605452E+03  0.77113605452E+03  0.25500000920E-02 0. -1.
    10030    2    1    2    0    0  0.00000000000E+00  0.00000000000E+00  0.17693906129E+04  0.33116627219E+04  0.27993511467E+04 0.  0.
        4    1    3    3  502    0 -0.22854413155E+03  0.13482576320E+04  0.53165221772E+03  0.14672037199E+04  0.12699999809E+01 0. -1.
       -4    1    3    3    0  502  0.22854413155E+03 -0.13482576320E+04  0.12377383952E+04  0.18444590020E+04  0.12699999809E+01 0.  1.
</event>
<event>
 5   0  0.3571498E-07  0.2798637E+04  0.7818609E-02  0.8303692E-01
       -2   -1    0    0    0  501  0.00000000000E+00  0.00000000000E+00  0.15420539008E+04  0.15420539008E+04  0.25500000920E-02 0.  1.
        2   -1    0    0  501    0  0.00000000000E+00  0.00000000000E+00 -0.12697948782E+04  0.12697948782E+04  0.25500000920E-02 0. -1.
    10030    2    1    2    0    0  0.00000000000E+00  0.00000000000E+00  0.27225902263E+03  0.28118487789E+04  0.27986369147E+04 0.  0.
        2    1    3    3  502    0  0.65460741277E+03 -0.56827469577E+03 -0.96753019786E+03  0.12990618455E+04  0.25500000920E-02 0. -1.
       -2    1    3    3    0  502 -0.65460741277E+03  0.56827469577E+03  0.12397892205E+04  0.15127869334E+04  0.25500000920E-02 0.  1.
</event>
<event>
 5   0  0.3571498E-07  0.2799062E+04  0.7818609E-02  0.8303560E-01
       -2   -1    0    0    0  501  0.00000000000E+00  0.00000000000E+00  0.19797949206E+04  0.19797949206E+04  0.25500000920E-02 0.  1.
        2   -1    0    0  501    0  0.00000000000E+00  0.00000000000E+00 -0.98933832854E+03  0.98933832855E+03  0.25500000920E-02 0. -1.
    10030    2    1    2    0    0  0.00000000000E+00  0.00000000000E+00  0.99045659202E+03  0.29691332491E+04  0.27990619840E+04 0.  0.
        2    1    3    3  502    0  0.14045156414E+03 -0.38224191889E+03 -0.92510192711E+03  0.10107665912E+04  0.25500000920E-02 0. -1.
       -2    1    3    3    0  502 -0.14045156414E+03  0.38224191889E+03  0.19155585191E+04  0.19583666579E+04  0.25500000920E-02 0.  1.
</event>
<event>
 5   0  0.3502141E-07  0.2800340E+04  0.7818609E-02  0.8303163E-01
        2   -1    0    0  501    0  0.00000000000E+00  0.00000000000E+00  0.18270621051E+04  0.18270621051E+04  0.25500000920E-02 0. -1.
       -2   -1    0    0    0  501  0.00000000000E+00  0.00000000000E+00 -0.10730212858E+04  0.10730212858E+04  0.25500000920E-02 0.  1.
    10030    2    1    2    0    0  0.00000000000E+00  0.00000000000E+00  0.75404081926E+03  0.29000833910E+04  0.28003403574E+04 0.  0.
        3    1    3    3  502    0  0.96169524351E+03  0.96180303525E+03  0.72135948274E+03  0.15395721268E+04  0.10100000352E+00 0. -1.
       -3    1    3    3    0  502 -0.96169524351E+03 -0.96180303525E+03  0.32681336522E+02  0.13605112642E+04  0.10100000352E+00 0.  1.
</event>
<event>
 5   0  0.1357902E-07  0.2808573E+04  0.7818609E-02  0.8300612E-01
        1   -1    0    0  501    0  0.00000000000E+00  0.00000000000E+00  0.20209950511E+04  0.20209950511E+04  0.50400001928E-02 0. -1.
       -1   -1    0    0    0  501  0.00000000000E+00  0.00000000000E+00 -0.97576743036E+03  0.97576743038E+03  0.50400001928E-02 0.  1.
    10030    2    1    2    0    0  0.00000000000E+00  0.00000000000E+00  0.10452276208E+04  0.29967624815E+04  0.28085734086E+04 0.  0.
        4    1    3    3  502    0 -0.72761537082E+03 -0.49654131841E+03  0.16895303121E+04  0.19053849210E+04  0.12699999809E+01 0. -1.
       -4    1    3    3    0  502  0.72761537082E+03  0.49654131841E+03 -0.64430269130E+03  0.10913775605E+04  0.12699999809E+01 0.  1.
</event>
<event>
 5   0  0.1346049E-07  0.2796638E+04  0.7818609E-02  0.8304313E-01
        1   -1    0    0  501    0  0.00000000000E+00  0.00000000000E+00  0.15677169435E+04  0.15677169435E+04  0.50400001928E-02 0.  1.
       -1   -1    0    0    0  501  0.00000000000E+00  0.00000000000E+00 -0.12472252592E+04  0.12472252592E+04  0.50400001928E-02 0. -1.
    10030    2    1    2    0    0  0.00000000000E+00  0.00000000000E+00  0.32049168429E+03  0.28149422027E+04  0.27966381040E+04 0.  0.
        1    1    3    3  502    0 -0.44752539546E+03 -0.96628976585E+03  0.10724340663E+04  0.15113271379E+04  0.50400001928E-02 0.  1.
       -1    1    3    3    0  502  0.44752539546E+03  0.96628976585E+03 -0.75194238201E+03  0.13036150648E+04  0.50400001928E-02 0. -1.
</event>
<event>
 5   0  0.1374680E-07  0.2798604E+04  0.7818609E-02  0.8303702E-01
        1   -1    0    0  501    0  0.00000000000E+00  0.00000000000E+00  0.17124558139E+04  0.17124558139E+04  0.50400001928E-02 0. -1.
       -1   -1    0    0    0  501  0.00000000000E+00  0.00000000000E+00 -0.11434139858E+04  0.11434139858E+04  0.50400001928E-02 0.  1.
    10030    2    1    2    0    0  0.00000000000E+00  0.00000000000E+00  0.56904182808E+03  0.28558697997E+04  0.27986038860E+04 0.  0.
        3    1    3    3  502    0  0.54746769440E+03 -0.67000655763E+03  0.14067586590E+04  0.16515446099E+04  0.10100000352E+00 0. -1.
       -3    1    3    3    0  502 -0.54746769440E+03  0.67000655763E+03 -0.83771683093E+03  0.12043251898E+04  0.10100000352E+00 0.  1.
</event>
<event>
 5   0  0.1366235E-07  0.2800825E+04  0.7818609E-02  0.8303012E-01
        1   -1    0    0  501    0  0.00000000000E+00  0.00000000000E+00  0.17927242096E+04  0.17927242096E+04  0.50400001928E-02 0.  1.
       -1   -1    0    0    0  501  0.00000000000E+00  0.00000000000E+00 -0.10939526203E+04  0.10939526203E+04  0.50400001928E-02 0. -1.
    10030    2    1    2    0    0  0.00000000000E+00  0.00000000000E+00  0.69877158930E+03  0.28866768299E+04  0.28008251260E+04 0.  0.
        2    1    3    3  502    0 -0.90422961155E+03 -0.29689381037E+03 -0.70941982223E+03  0.11870356394E+04  0.25500000920E-02 0. -1.
       -2    1    3    3    0  502  0.90422961155E+03  0.29689381037E+03  0.14081914115E+04  0.16996411905E+04  0.25500000920E-02 0.  1.
</event>
<event>
 5   0  0.1374680E-07  0.2795392E+04  0.7818609E-02  0.8304700E-01
       -1   -1    0    0    0  501  0.00000000000E+00  0.00000000000E+00  0.23726797828E+04  0.23726797828E+04  0.50400001928E-02 0. -1.
        1   -1    0    0  501    0  0.00000000000E+00  0.00000000000E+00 -0.82335324396E+03  0.82335324398E+03  0.50400001928E-02 0.  1.
    10030    2    1    2    0    0  0.00000000000E+00  0.00000000000E+00  0.15493265389E+04  0.31960330268E+04  0.27953916335E+04 0.  0.
        3    1    3    3  502    0  0.25812050925E+02  0.70266627250E+03 -0.60641466100E+03  0.92851758398E+03  0.10100000352E+00 0.  1.
       -3    1    3    3    0  502 -0.25812050925E+02 -0.70266627250E+03  0.21557411999E+04  0.22675154428E+04  0.10100000352E+00 0. -1.
</event>
<event>
 5   0  0.3406920E-07  0.2796119E+04  0.7818609E-02  0.8304474E-01
       -2   -1    0    0    0  501  0.00000000000E+00  0.00000000000E+00  0.11113136697E+04  0.11113136697E+04  0.25500000920E-02 0. -1.
        2   -1    0    0  501    0  0.00000000000E+00  0.00000000000E+00 -0.17587922691E+04  0.17587922691E+04  0.25500000920E-02 0.  1.
    10030    2    1    2    0    0  0.00000000000E+00  0.00000000000E+00 -0.64747859938E+03  0.28701059387E+04  0.27961186604E+04 0.  0.
        4    1    3    3  502    0 -0.13406980040E+04  0.36074440069E+03 -0.15519764837E+03  0.13970309888E+04  0.12699999809E+01 0. -1.
       -4    1    3    3    0  502  0.13406980040E+04 -0.36074440069E+03 -0.49228095100E+03  0.14730749500E+04  0.12699999809E+01 0.  1.
</event>
<event>
 5   0  0.3406920E-07  0.2800449E+04  0.7818609E-02  0.8303129E-01
       -2   -1    0    0    0  501  0.00000000000E+00  0.00000000000E+00  0.17344148442E+04  0.17344148442E+04  0.25500000920E-02 0.  1.
        2   -1    0    0  501    0  0.00000000000E+00  0.00000000000E+00 -0.11304269732E+04  0.11304269732E+04  0.25500000920E-02 0. -1.
    10030    2    1    2    0    0  0.00000000000E+00  0.00000000000E+00  0.60398787095E+03  0.28648418174E+04  0.28004494801E+04 0.  0.
        4    1    3    3  502    0 -0.42762287669E+03  0.21917936924E+03  0.16474256502E+04  0.17160751167E+04  0.12699999809E+01 0.  1.
       -4    1    3    3    0  502  0.42762287669E+03 -0.21917936924E+03 -0.10434377792E+04  0.11487667007E+04  0.12699999809E+01 0. -1.
</event>
<event>
 5   0  0.3571498E-07  0.2797781E+04  0.7818609E-02  0.8303958E-01
        2   -1    0    0  501    0  0.00000000000E+00  0.00000000000E+00  0.16381308635E+04  0.16381308635E+04  0.25500000920E-02 0.  1.
       -2   -1    0    0    0  501  0.00000000000E+00  0.00000000000E+00 -0.11945899438E+04  0.11945899438E+04  0.25500000920E-02 0. -1.
    10030    2    1    2    0    0  0.00000000000E+00  0.00000000000E+00  0.44354091968E+03  0.28327208073E+04  0.27977810180E+04 0.  0.
        2    1    3    3  502    0  0.67963148363E+03  0.78428974532E+03 -0.72796594147E+03  0.12676528587E+04  0.25500000920E-02 0. -1.
       -2    1    3    3    0  502 -0.67963148363E+03 -0.78428974532E+03  0.11715068612E+04  0.15650679486E+04  0.25500000920E-02 0.  1.
</event>
<event>
 5   0  0.1173363E-07  0.2800619E+04  0.7818609E-02  0.8303076E-01
       -3   -1    0    0    0  501  0.00000000000E+00  0.00000000000E+00  0.20871297132E+04  0.20871297157E+04  0.10100000352E+00 0.  1.
        3   -1    0    0  501    0  0.00000000000E+00  0.00000000000E+00 -0.93950398531E+03  0.93950399074E+03  0.10100000352E+00 0. -1.
    10030    2    1    2    0    0  0.00000000000E+00  0.00000000000E+00  0.11476257279E+04  0.30266337064E+04  0.28006189997E+04 0.  0.
        1    1    3    3  502    0 -0.75705574667E+03 -0.31109833352E+03  0.18017064551E+04  0.19789041733E+04  0.50400001928E-02 0.  1.
       -1    1    3    3    0  502  0.75705574667E+03  0.31109833352E+03 -0.65408072725E+03  0.10477295331E+04  0.50400001928E-02 0. -1.
</event>
<event>
 5   0  0.1357902E-07  0.2800531E+04  0.7818609E-02  0.8303104E-01
       -1   -1    0    0    0  501  0.00000000000E+00  0.00000000000E+00  0.12942620755E+04  0.12942620755E+04  0.50400001928E-02 0. -1.
        1   -1    0    0  501    0  0.00000000000E+00  0.00000000000E+00 -0.15149508286E+04  0.15149508286E+04  0.50400001928E-02 0.  1.
    10030    2    1    2    0    0  0.00000000000E+00  0.00000000000E+00 -0.22068875307E+03  0.28092129041E+04  0.28005309523E+04 0.  0.
        4    1    3    3  502    0 -0.88770814433E+03 -0.62443779100E+03 -0.99784339071E+03  0.14743274228E+04  0.12699999809E+01 0.  1.
       -4    1    3    3    0  502  0.88770814433E+03  0.62443779100E+03  0.77715463764E+03  0.13348854812E+04  0.12699999809E+01 0. -1.
</event>
<event>
 5   0  0.1374680E-07  0.2800148E+04  0.7818609E-02  0.8303222E-01
       -1   -1    0    0    0  501  0.00000000000E+00  0.00000000000E+00  0.12253277824E+04  0.12253277824E+04  0.50400001928E-02 0. -1.
        1   -1    0    0  501    0  0.00000000000E+00  0.00000000000E+00 -0.15997416118E+04  0.15997416118E+04  0.50400001928E-02 0.  1.
    10030    2    1    2    0    0  0.00000000000E+00  0.00000000000E+00 -0.37441382942E+03  0.28250693941E+04  0.28001484543E+04 0.  0.
        3    1    3    3  502    0 -0.25484540257E+03  0.96006007209E+03 -0.11826727762E+04  0.15444663891E+04  0.10100000352E+00 0.  1.
       -3    1    3    3    0  502  0.25484540257E+03 -0.96006007209E+03  0.80825894680E+03  0.12806030050E+04  0.10100000352E+00 0. -1.
</event>
<event>
 5   0  0.1357902E-07  0.2799719E+04  0.7818609E-02  0.8303356E-01
       -1   -1    0    0    0  501  0.00000000000E+00  0.00000000000E+00  0.11560095635E+04  0.11560095635E+04  0.50400001928E-02 0. -1.
        1   -1    0    0  501    0  0.00000000000E+00  0.00000000000E+00 -0.16951477556E+04  0.16951477556E+04  0.50400001928E-02 0.  1.
    10030    2    1    2    0    0  0.00000000000E+00  0.00000000000E+00 -0.53913819203E+03  0.28511573191E+04  0.27997192838E+04 0.  0.
        4    1    3    3  502    0  0.12072374593E+04 -0.70830168309E+03 -0.24698401608E+03  0.14213079450E+04  0.12699999809E+01 0. -1.
       -4    1    3    3    0  502 -0.12072374593E+04  0.70830168309E+03 -0.29215417596E+03  0.14298493741E+04  0.12699999809E+01 0.  1.
</event>
<event>
 5   0  0.1357902E-07  0.2800378E+04  0.7818609E-02  0.8303151E-01
        1   -1    0    0  501    0  0.00000000000E+00  0.00000000000E+00  0.15254694653E+04  0.15254694653E+04  0.50400001928E-02 0.  1.
       -1   -1    0    0    0  501  0.00000000000E+00  0.00000000000E+00 -0.12851975420E+04  0.12851975421E+04  0.50400001928E-02 0. -1.
    10030    2    1    2    0    0  0.00000000000E+00  0.00000000000E+00  0.24027192323E+03  0.28106670073E+04  0.28003782653E+04 0.  0.
        4    1    3    3  502    0  0.55764158806E+02  0.28287272711E+03 -0.12550811358E+04  0.12877720650E+04  0.12699999809E+01 0. -1.
       -4    1    3    3    0  502 -0.55764158806E+02 -0.28287272711E+03  0.14953530590E+04  0.15228949423E+04  0.12699999809E+01 0.  1.
</event>
<event>
 5   0  0.3522569E-07  0.2799905E+04  0.7818609E-02  0.8303298E-01
       -2   -1    0    0    0  501  0.00000000000E+00  0.00000000000E+00  0.85474153943E+03  0.85474153943E+03  0.25500000920E-02 0. -1.
        2   -1    0    0  501    0  0.00000000000E+00  0.00000000000E+00 -0.22929345029E+04  0.22929345029E+04  0.25500000920E-02 0.  1.
    10030    2    1    2    0    0  0.00000000000E+00  0.00000000000E+00 -0.14381929634E+04  0.31476760423E+04  0.27999045461E+04 0.  0.
        1    1    3    3  502    0  0.16229018850E+03 -0.13846080004E+04 -0.86301687020E+03  0.16395961510E+04  0.50400001928E-02 0.  1.
       -1    1    3    3    0  502 -0.16229018850E+03  0.13846080004E+04 -0.57517609323E+03  0.15080798913E+04  0.50400001928E-02 0. -1.
</event>
<event>
 5   0  0.3571498E-07  0.2801040E+04  0.7818609E-02  0.8302945E-01
       -2   -1    0    0    0  501  0.00000000000E+00  0.00000000000E+00  0.11141959095E+04  0.11141959095E+04  0.25500000920E-02 0.  1.
        2   -1    0    0  501    0  0.00000000000E+00  0.00000000000E+00 -0.17604237576E+04  0.17604237576E+04  0.25500000920E-02 0. -1.
    10030    2    1    2    0    0  0.00000000000E+00  0.00000000000E+00 -0.64622784803E+03  0.28746196671E+04  0.28010404851E+04 0.  0.
        2    1    3    3  502    0  0.45773341517E+03  0.10259445634E+03  0.10311761772E+04  0.11328591308E+04  0.25500000920E-02 0.  1.
       -2    1    3    3    0  502 -0.45773341517E+03 -0.10259445634E+03 -0.16774040253E+04  0.17417605363E+04  0.25500000920E-02 0. -1.
</event>
<event>
 5   0  0.3502141E-07  0.2799973E+04  0.7818609E-02  0.8303277E-01
        2   -1    0    0  501    0  0.00000000000E+00  0.00000000000E+00  0.19338036017E+04  0.19338036017E+04  0.25500000920E-02 0. -1.
       -2   -1    0    0    0  501  0.00000000000E+00  0.00000000000E+00 -0.10135269785E+04  0.10135269785E+04  0.25500000920E-02 0.  1.
    10030    2    1    2    0    0  0.00000000000E+00  0.00000000000E+00  0.92027662327E+03  0.29473305802E+04  0.27999729437E+04 0.  0.
        3    1    3    3  502    0 -0.13700260774E+04 -0.28498893662E+03  0.41582823403E+03  0.14598298795E+04  0.10100000352E+00 0. -1.
       -3    1    3    3    0  502  0.13700260774E+04  0.28498893662E+03  0.50444838924E+03  0.14875007006E+04  0.10100000352E+00 0.  1.
</event>
<event>
 5   0  0.3557628E-07  0.2792992E+04  0.7818609E-02  0.8305447E-01
        2   -1    0    0  501    0  0.00000000000E+00  0.00000000000E+00  0.18659829665E+04  0.18659829665E+04  0.25500000920E-02 0. -1.
       -2   -1    0    0    0  501  0.00000000000E+00  0.00000000000E+00 -0.10451330613E+04  0.10451330613E+04  0.25500000920E-02 0.  1.
    10030    2    1    2    0    0  0.00000000000E+00  0.00000000000E+00  0.82084990524E+03  0.29111160278E+04  0.27929915790E+04 0.  0.
        5    1    3    3  502    0  0.89571936431E+03  0.19481642656E+03 -0.68765539635E+03  0.11459313478E+04  0.46999998093E+01 0.  1.
       -5    1    3    3    0  502 -0.89571936431E+03 -0.19481642656E+03  0.15085053016E+04  0.17651846800E+04  0.46999998093E+01 0. -1.
</event>
<event>
 5   0  0.1361741E-07  0.2800938E+04  0.7818609E-02  0.8302977E-01
        1   -1    0    0  501    0  0.00000000000E+00  0.00000000000E+00  0.24068232569E+04  0.24068232569E+04  0.50400001928E-02 0. -1.
       -1   -1    0    0    0  501  0.00000000000E+00  0.00000000000E+00 -0.81489739032E+03  0.81489739034E+03  0.50400001928E-02 0.  1.
    10030    2    1    2    0    0  0.00000000000E+00  0.00000000000E+00  0.15919258666E+04  0.32217206472E+04  0.28009384078E+04 0.  0.
        5    1    3    3  502    0 -0.13036950016E+04 -0.11267345476E+03  0.13698983284E+04  0.18944549307E+04  0.46999998093E+01 0. -1.
       -5    1    3    3    0  502  0.13036950016E+04  0.11267345476E+03  0.22202753818E+03  0.13272657165E+04  0.46999998093E+01 0.  1.
</event>
<event>
 5   0  0.1366235E-07  0.2799221E+04  0.7818609E-02  0.8303510E-01
       -1   -1    0    0    0  501  0.00000000000E+00  0.00000000000E+00  0.98668142315E+03  0.98668142316E+03  0.50400001928E-02 0. -1.
        1   -1    0    0  501    0  0.00000000000E+00  0.00000000000E+00 -0.19853515800E+04  0.19853515801E+04  0.50400001928E-02 0.  1.
    10030    2    1    2    0    0  0.00000000000E+00  0.00000000000E+00 -0.99867015690E+03  0.29720330032E+04  0.27992209791E+04 0.  0.
        2    1    3    3  502    0  0.13182232289E+03  0.73576809230E+03 -0.17556774977E+04  0.19081759055E+04  0.25500000920E-02 0.  1.
       -2    1    3    3    0  502 -0.13182232289E+03 -0.73576809230E+03  0.75700734075E+03  0.10638570977E+04  0.25500000920E-02 0. -1.
</event>
<event>
 5   0  0.1361741E-07  0.2799149E+04  0.7818609E-02  0.8303533E-01
       -1   -1    0    0    0  501  0.00000000000E+00  0.00000000000E+00  0.14079636233E+04  0.14079636233E+04  0.50400001928E-02 0.  1.
        1   -1    0    0  501    0  0.00000000000E+00  0.00000000000E+00 -0.13912351981E+04  0.13912351981E+04  0.50400001928E-02 0. -1.
    10030    2    1    2    0    0  0.00000000000E+00  0.00000000000E+00  0.16728425153E+02  0.27991988214E+04  0.27991488352E+04 0.  0.
        5    1    3    3  502    0 -0.13436741207E+04  0.26123185253E+03  0.30006144589E+03  0.14013426364E+04  0.46999998093E+01 0. -1.
       -5    1    3    3    0  502  0.13436741207E+04 -0.26123185253E+03 -0.28333302073E+03  0.13978561850E+04  0.46999998093E+01 0.  1.
</event>
<event>
 5   0  0.3571498E-07  0.2798398E+04  0.7818609E-02  0.8303766E-01
       -2   -1    0    0    0  501  0.00000000000E+00  0.00000000000E+00  0.12440414087E+04  0.12440414087E+04  0.25500000920E-02 0. -1.
        2   -1    0    0  501    0  0.00000000000E+00  0.00000000000E+00 -0.15737076245E+04  0.15737076245E+04  0.25500000920E-02 0.  1.
    10030    2    1    2    0    0  0.00000000000E+00  0.00000000000E+00 -0.32966621581E+03  0.28177490333E+04  0.27983977202E+04 0.  0.
        2    1    3    3  502    0  0.12953727231E+04 -0.18148073242E+03 -0.66509029907E+03  0.14674027579E+04  0.25500000920E-02 0.  1.
       -2    1    3    3    0  502 -0.12953727231E+04  0.18148073242E+03  0.33542408326E+03  0.13503462754E+04  0.25500000920E-02 0. -1.
</event>
<event>
 5   0  0.3522569E-07  0.2800529E+04  0.7818609E-02  0.8303104E-01
       -2   -1    0    0    0  501  0.00000000000E+00  0.00000000000E+00  0.17264314864E+04  0.17264314864E+04  0.25500000920E-02 0.  1.
        2   -1    0    0  501    0  0.00000000000E+00  0.00000000000E+00 -0.11357190746E+04  0.11357190746E+04  0.25500000920E-02 0. -1.
    10030    2    1    2    0    0  0.00000000000E+00  0.00000000000E+00  0.59071241184E+03  0.28621505610E+04  0.28005293571E+04 0.  0.
        1    1    3    3  502    0  0.30251553702E+03  0.10103405029E+04  0.12367304166E+04  0.16253632533E+04  0.50400001928E-02 0.  1.
       -1    1    3    3    0  502 -0.30251553702E+03 -0.10103405029E+04 -0.64601800475E+03  0.12367873076E+04  0.50400001928E-02 0. -1.
</event>
<event>
 5   0  0.3522569E-07  0.2799595E+04  0.7818609E-02  0.8303394E-01
        2   -1    0    0  501    0  0.00000000000E+00  0.00000000000E+00  0.13247831506E+04  0.13247831506E+04  0.25500000920E-02 0. -1.
       -2   -1    0    0    0  501  0.00000000000E+00  0.00000000000E+00 -0.14790592067E+04  0.14790592067E+04  0.25500000920E-02 0.  1.
    10030    2    1    2    0    0  0.00000000000E+00  0.00000000000E+00 -0.15427605615E+03  0.28038423573E+04  0.27995947677E+04 0.  0.
        1    1    3    3  502    0 -0.95249380048E+03 -0.95284317223E+03  0.30327792760E+03  0.13809895192E+04  0.50400001928E-02 0.  1.
       -1    1    3    3    0  502  0.95249380048E+03  0.95284317223E+03 -0.45755398376E+03  0.14228528381E+04  0.50400001928E-02 0. -1.
</event>
<event>
 5   0  0.3502141E-07  0.2786811E+04  0.7818609E-02  0.8307375E-01
        2   -1    0    0  501    0  0.00000000000E+00  0.00000000000E+00  0.23460642868E+04  0.23460642868E+04  0.25500000920E-02 0.  1.
       -2   -1    0    0    0  501  0.00000000000E+00  0.00000000000E+00 -0.82758992151E+03  0.82758992152E+03  0.25500000920E-02 0. -1.
    10030    2    1    2    0    0  0.00000000000E+00  0.00000000000E+00  0.15184743653E+04  0.31736542083E+04  0.27868111949E+04 0.  0.
        3    1    3    3  502    0 -0.53734298839E+03 -0.12851780055E+04  0.79800960905E+03  0.16053782543E+04  0.10100000352E+00 0. -1.
       -3    1    3    3    0  502  0.53734298839E+03  0.12851780055E+04  0.72046475623E+03  0.15682759541E+04  0.10100000352E+00 0.  1.
</event>
<event>
 5   0  0.1357902E-07  0.2799616E+04  0.7818609E-02  0.8303388E-01
       -1   -1    0    0    0  501  0.00000000000E+00  0.00000000000E+00  0.11938501287E+04  0.11938501287E+04  0.50400001928E-02 0. -1.
        1   -1    0    0  501    0  0.00000000000E+00  0.00000000000E+00 -0.16412963258E+04  0.16412963259E+04  0.50400001928E-02 0.  1.
    10030    2    1    2    0    0  0.00000000000E+00  0.00000000000E+00 -0.44744619715E+03  0.28351464546E+04  0.27996155664E+04 0.  0.
        4    1    3    3  502    0  0.75566476000E+03  0.43149192902E+03 -0.13341084279E+04  0.15928155652E+04  0.12699999809E+01 0.  1.
       -4    1    3    3    0  502 -0.75566476000E+03 -0.43149192902E+03  0.88666223077E+03  0.12423308894E+04  0.12699999809E+01 0. -1.
</event>
<event>
 5   0  0.3502141E-07  0.2801390E+04  0.7818609E-02  0.8302837E-01
       -2   -1    0    0    0  501  0.00000000000E+00  0.00000000000E+00  0.83523137777E+03  0.83523137777E+03  0.25500000920E-02 0. -1.
        2   -1    0    0  501    0  0.00000000000E+00  0.00000000000E+00 -0.23489856176E+04  0.23489856176E+04  0.25500000920E-02 0.  1.
    10030    2    1    2    0    0  0.00000000000E+00  0.00000000000E+00 -0.15137542398E+04  0.31842169954E+04  0.28013900077E+04 0.  0.
        3    1    3    3  502    0  0.30204995798E+03 -0.10960841466E+03 -0.23065268033E+04  0.23288009976E+04  0.10100000352E+00 0.  1.
       -3    1    3    3    0  502 -0.30204995798E+03  0.10960841466E+03  0.79277256348E+03  0.85541599780E+03  0.10100000352E+00 0. -1.
</event>
<event>
 5   0  0.1366235E-07  0.2799484E+04  0.7818609E-02  0.8303429E-01
        1   -1    0    0  501    0  0.00000000000E+00  0.00000000000E+00  0.22167105625E+04  0.22167105625E+04  0.50400001928E-02 0.  1.
       -1   -1    0    0    0  501  0.00000000000E+00  0.00000000000E+00 -0.88386701566E+03  0.88386701567E+03  0.50400001928E-02 0. -1.
    10030    2    1    2    0    0  0.00000000000E+00  0.00000000000E+00  0.13328435468E+04  0.31005775782E+04  0.27994837735E+04 0.  0.
        2    1    3    3  502    0  0.13876726874E+04  0.68179679057E+02  0.47783372282E+03  0.14692205494E+04  0.25500000920E-02 0.  1.
       -2    1    3    3    0  502 -0.13876726874E+04 -0.68179679057E+02  0.85500982402E+03  0.16313570288E+04  0.25500000920E-02 0. -1.
</event>
<event>
 5   0  0.3557628E-07  0.2799826E+04  0.7818609E-02  0.8303322E-01
       -2   -1    0    0    0  501  0.00000000000E+00  0.00000000000E+00  0.17860061061E+04  0.17860061061E+04  0.25500000920E-02 0. -1.
        2   -1    0    0  501    0  0.00000000000E+00  0.00000000000E+00 -0.10972844475E+04  0.10972844475E+04  0.25500000920E-02 0.  1.
    10030    2    1    2    0    0  0.00000000000E+00  0.00000000000E+00  0.68872165859E+03  0.28832905536E+04  0.27998262256E+04 0.  0.
        5    1    3    3  502    0  0.10549653445E+04  0.30987951517E+03 -0.54793149001E+03  0.12285064916E+04  0.46999998093E+01 0.  1.
       -5    1    3    3    0  502 -0.10549653445E+04 -0.30987951517E+03  0.12366531486E+04  0.16547840621E+04  0.46999998093E+01 0. -1.
</event>
<event>
 5   0  0.3502141E-07  0.2799178E+04  0.7818609E-02  0.8303524E-01
       -2   -1    0    0    0  501  0.00000000000E+00  0.00000000000E+00  0.84013087520E+03  0.84013087520E+03  0.25500000920E-02 0.  1.
        2   -1    0    0  501    0  0.00000000000E+00  0.00000000000E+00 -0.23316005411E+04  0.23316005411E+04  0.25500000920E-02 0. -1.
    10030    2    1    2    0    0  0.00000000000E+00  0.00000000000E+00 -0.14914696659E+04  0.31717314163E+04  0.27991781674E+04 0.  0.
        3    1    3    3  502    0  0.94547688002E+03  0.13893948494E+03  0.41291597920E+03  0.10410236919E+04  0.10100000352E+00 0.  1.
       -3    1    3    3    0  502 -0.94547688002E+03 -0.13893948494E+03 -0.19043856451E+04  0.21307077243E+04  0.10100000352E+00 0. -1.
</event>
<event>
 5   0  0.1366235E-07  0.2798848E+04  0.7818609E-02  0.8303626E-01
       -1   -1    0    0    0  501  0.00000000000E+00  0.00000000000E+00  0.14932413057E+04  0.14932413058E+04  0.50400001928E-02 0.  1.
        1   -1    0    0  501    0  0.00000000000E+00  0.00000000000E+00 -0.13115007543E+04  0.13115007543E+04  0.50400001928E-02 0. -1.
    10030    2    1    2    0    0  0.00000000000E+00  0.00000000000E+00  0.18174055142E+03  0.28047420601E+04  0.27988476907E+04 0.  0.
        2    1    3    3  502    0  0.12647561582E+02 -0.24504382491E+03 -0.12897760268E+04  0.13129084645E+04  0.25500000920E-02 0. -1.
       -2    1    3    3    0  502 -0.12647561582E+02  0.24504382491E+03  0.14715165782E+04  0.14918335956E+04  0.25500000920E-02 0.  1.
</event>
<event>
 5   0  0.1366235E-07  0.2800033E+04  0.7818609E-02  0.8303258E-01
        1   -1    0    0  501    0  0.00000000000E+00  0.00000000000E+00  0.16134537914E+04  0.16134537915E+04  0.50400001928E-02 0. -1.
       -1   -1    0    0    0  501  0.00000000000E+00  0.00000000000E+00 -0.12148139675E+04  0.12148139675E+04  0.50400001928E-02 0.  1.
    10030    2    1    2    0    0  0.00000000000E+00  0.00000000000E+00  0.39863982395E+03  0.28282677590E+04  0.28000330011E+04 0.  0.
        2    1    3    3  502    0  0.45074774450E+03 -0.45261171064E+03 -0.10590414467E+04  0.12367698555E+04  0.25500000920E-02 0.  1.
       -2    1    3    3    0  502 -0.45074774450E+03  0.45261171064E+03  0.14576812706E+04  0.15914979034E+04  0.25500000920E-02 0. -1.
</event>
<event>
 5   0  0.1173363E-07  0.2799143E+04  0.7818609E-02  0.8303534E-01
        3   -1    0    0  501    0  0.00000000000E+00  0.00000000000E+00  0.11217554826E+04  0.11217554872E+04  0.10100000352E+00 0.  1.
       -3   -1    0    0    0  501  0.00000000000E+00  0.00000000000E+00 -0.17461925391E+04  0.17461925420E+04  0.10100000352E+00 0. -1.
    10030    2    1    2    0    0  0.00000000000E+00  0.00000000000E+00 -0.62443705648E+03  0.28679480292E+04  0.27991434870E+04 0.  0.
        2    1    3    3  502    0  0.82166950499E+03  0.79320378429E+03 -0.11411086713E+04  0.16144478990E+04  0.25500000920E-02 0. -1.
       -2    1    3    3    0  502 -0.82166950499E+03 -0.79320378429E+03  0.51667161483E+03  0.12535001302E+04  0.25500000920E-02 0.  1.
</event>
<event>
 5   0  0.3571498E-07  0.2818147E+04  0.7818609E-02  0.8297656E-01
       -2   -1    0    0    0  501  0.00000000000E+00  0.00000000000E+00  0.10068294663E+04  0.10068294663E+04  0.25500000920E-02 0. -1.
        2   -1    0    0  501    0  0.00000000000E+00  0.00000000000E+00 -0.19720205038E+04  0.19720205038E+04  0.25500000920E-02 0.  1.
    10030    2    1    2    0    0  0.00000000000E+00  0.00000000000E+00 -0.96519103750E+03  0.29788499701E+04  0.28181471582E+04 0.  0.
        2    1    3    3  502    0 -0.32402108655E+03  0.13328284493E+04 -0.14160562706E+03  0.13789392638E+04  0.25500000920E-02 0.  1.
       -2    1    3    3    0  502  0.32402108655E+03 -0.13328284493E+04 -0.82358541044E+03  0.15999107063E+04  0.25500000920E-02 0. -1.
</event>
<event>
 5   0  0.3571498E-07  0.2799612E+04  0.7818609E-02  0.8303389E-01
        2   -1    0    0  501    0  0.00000000000E+00  0.00000000000E+00  0.16795470925E+04  0.16795470925E+04  0.25500000920E-02 0.  1.
       -2   -1    0    0    0  501  0.00000000000E+00  0.00000000000E+00 -0.11666579039E+04  0.11666579039E+04  0.25500000920E-02 0. -1.
    10030    2    1    2    0    0  0.00000000000E+00  0.00000000000E+00  0.51288918864E+03  0.28462049964E+04  0.27996120378E+04 0.  0.
        2    1    3    3  502    0  0.12644822835E+04  0.53135850631E+03 -0.27851270586E+02  0.13718720789E+04  0.25500000920E-02 0. -1.
       -2    1    3    3    0  502 -0.12644822835E+04 -0.53135850631E+03  0.54074045923E+03  0.14743329176E+04  0.25500000920E-02 0.  1.
</event>
<event>
 5   0  0.1374680E-07  0.2800068E+04  0.7818609E-02  0.8303247E-01
       -1   -1    0    0    0  501  0.00000000000E+00  0.00000000000E+00  0.67310400565E+03  0.67310400567E+03  0.50400001928E-02 0. -1.
        1   -1    0    0  501    0  0.00000000000E+00  0.00000000000E+00 -0.29120250126E+04  0.29120250126E+04  0.50400001928E-02 0.  1.
    10030    2    1    2    0    0  0.00000000000E+00  0.00000000000E+00 -0.22389210070E+04  0.35851290183E+04  0.28000683567E+04 0.  0.
        3    1    3    3  502    0 -0.55834656226E+03  0.57608441601E+03 -0.25885284906E+04  0.27100007186E+04  0.10100000352E+00 0.  1.
       -3    1    3    3    0  502  0.55834656226E+03 -0.57608441601E+03  0.34960748370E+03  0.87512829963E+03  0.10100000352E+00 0. -1.
</event>
<event>
 5   0  0.3406920E-07  0.2797621E+04  0.7818609E-02  0.8304007E-01
       -2   -1    0    0    0  501  0.00000000000E+00  0.00000000000E+00  0.10932569893E+04  0.10932569893E+04  0.25500000920E-02 0. -1.
        2   -1    0    0  501    0  0.00000000000E+00  0.00000000000E+00 -0.17897628484E+04  0.17897628484E+04  0.25500000920E-02 0.  1.
    10030    2    1    2    0    0  0.00000000000E+00  0.00000000000E+00 -0.69650585910E+03  0.28830198376E+04  0.27976209487E+04 0.  0.
        4    1    3    3  502    0  0.23595069947E+03  0.11377179380E+04 -0.11508691248E+04  0.16354131571E+04  0.12699999809E+01 0.  1.
       -4    1    3    3    0  502 -0.23595069947E+03 -0.11377179380E+04  0.45436326570E+03  0.12476066805E+04  0.12699999809E+01 0. -1.
</event>
<event>
 5   0  0.1346049E-07  0.2798725E+04  0.7818609E-02  0.8303664E-01
       -1   -1    0    0    0  501  0.00000000000E+00  0.00000000000E+00  0.18275461288E+04  0.18275461288E+04  0.50400001928E-02 0. -1.
        1   -1    0    0  501    0  0.00000000000E+00  0.00000000000E+00 -0.10715000581E+04  0.10715000581E+04  0.50400001928E-02 0.  1.
    10030    2    1    2    0    0  0.00000000000E+00  0.00000000000E+00  0.75604607071E+03  0.28990461869E+04  0.27987252693E+04 0.  0.
        1    1    3    3  502    0  0.11220797008E+04 -0.23547547593E+03  0.12090938795E+04  0.16662591527E+04  0.50400001928E-02 0. -1.
       -1    1    3    3    0  502 -0.11220797008E+04  0.23547547593E+03 -0.45304780874E+03  0.12327870342E+04  0.50400001928E-02 0.  1.
</event>
<event>
 5   0  0.3571498E-07  0.2795794E+04  0.7818609E-02  0.8304575E-01
        2   -1    0    0  501    0  0.00000000000E+00  0.00000000000E+00  0.18612745551E+04  0.18612745551E+04  0.25500000920E-02 0.  1.
       -2   -1    0    0    0  501  0.00000000000E+00  0.00000000000E+00 -0.10498806322E+04  0.10498806322E+04  0.25500000920E-02 0. -1.
    10030    2    1    2    0    0  0.00000000000E+00  0.00000000000E+00  0.81139392295E+03  0.29111551873E+04  0.27957940601E+04 0.  0.
        2    1    3    3  502    0  0.58446949590E+03 -0.11568708313E+04 -0.13951243197E+03  0.13036174403E+04  0.25500000920E-02 0. -1.
       -2    1    3    3    0  502 -0.58446949590E+03  0.11568708313E+04  0.95090635492E+03  0.16075377470E+04  0.25500000920E-02 0.  1.
</event>
<event>
 5   0  0.1361741E-07  0.2801285E+04  0.7818609E-02  0.8302869E-01
       -1   -1    0    0    0  501  0.00000000000E+00  0.00000000000E+00  0.28285783368E+04  0.28285783368E+04  0.50400001928E-02 0.  1.
        1   -1    0    0  501    0  0.00000000000E+00  0.00000000000E+00 -0.69356386824E+03  0.69356386826E+03  0.50400001928E-02 0. -1.
    10030    2    1    2    0    0  0.00000000000E+00  0.00000000000E+00  0.21350144686E+04  0.35221422051E+04  0.28012852286E+04 0.  0.
        5    1    3    3  502    0 -0.49978145053E+03  0.48125938032E+03 -0.46230093028E+03  0.83374836106E+03  0.46999998093E+01 0. -1.
       -5    1    3    3    0  502  0.49978145053E+03 -0.48125938032E+03  0.25973153989E+04  0.26883938440E+04  0.46999998093E+01 0.  1.
</event>
<event>
 5   0  0.3522569E-07  0.2801069E+04  0.7818609E-02  0.8302937E-01
       -2   -1    0    0    0  501  0.00000000000E+00  0.00000000000E+00  0.14894230080E+04  0.14894230080E+04  0.25500000920E-02 0. -1.
        2   -1    0    0  501    0  0.00000000000E+00  0.00000000000E+00 -0.13169509283E+04  0.13169509283E+04  0.25500000920E-02 0.  1.
    10030    2    1    2    0    0  0.00000000000E+00  0.00000000000E+00  0.17247207974E+03  0.28063739363E+04  0.28010690909E+04 0.  0.
        1    1    3    3  502    0  0.69640358893E+03 -0.87895476794E+03 -0.75437474738E+03  0.13515253243E+04  0.50400001928E-02 0.  1.
       -1    1    3    3    0  502 -0.69640358893E+03  0.87895476794E+03  0.92684682712E+03  0.14548486120E+04  0.50400001928E-02 0. -1.
</event>
<event>
 5   0  0.3557628E-07  0.2800271E+04  0.7818609E-02  0.8303184E-01
       -2   -1    0    0    0  501  0.00000000000E+00  0.00000000000E+00  0.15569055700E+04  0.15569055700E+04  0.25500000920E-02 0. -1.
        2   -1    0    0  501    0  0.00000000000E+00  0.00000000000E+00 -0.12591510532E+04  0.12591510532E+04  0.25500000920E-02 0.  1.
    10030    2    1    2    0    0  0.00000000000E+00  0.00000000000E+00  0.29775451676E+03  0.28160566232E+04  0.28002709070E+04 0.  0.
        5    1    3    3  502    0  0.12130498919E+04 -0.43459079274E+03 -0.40193109109E+03  0.13497888314E+04  0.46999998093E+01 0.  1.
       -5    1    3    3    0  502 -0.12130498919E+04  0.43459079274E+03  0.69968560785E+03  0.14662677918E+04  0.46999998093E+01 0. -1.
</event>
<event>
 5   0  0.1346049E-07  0.2803956E+04  0.7818609E-02  0.8302041E-01
       -1   -1    0    0    0  501  0.00000000000E+00  0.00000000000E+00  0.10157460555E+04  0.10157460555E+04  0.50400001928E-02 0. -1.
        1   -1    0    0  501    0  0.00000000000E+00  0.00000000000E+00 -0.19350722657E+04  0.19350722657E+04  0.50400001928E-02 0.  1.
    10030    2    1    2    0    0  0.00000000000E+00  0.00000000000E+00 -0.91932621019E+03  0.29508183212E+04  0.28039557921E+04 0.  0.
        1    1    3    3  502    0  0.11264100210E+04  0.68216659673E+03 -0.96588945477E+03  0.16331237675E+04  0.50400001928E-02 0. -1.
       -1    1    3    3    0  502 -0.11264100210E+04 -0.68216659673E+03  0.46563244575E+02  0.13176945537E+04  0.50400001928E-02 0.  1.
</event>
<event>
 5   0  0.1357902E-07  0.2799187E+04  0.7818609E-02  0.8303521E-01
        1   -1    0    0  501    0  0.00000000000E+00  0.00000000000E+00  0.23850901098E+04  0.23850901099E+04  0.50400001928E-02 0. -1.
       -1   -1    0    0    0  501  0.00000000000E+00  0.00000000000E+00 -0.82129483809E+03  0.82129483811E+03  0.50400001928E-02 0.  1.
    10030    2    1    2    0    0  0.00000000000E+00  0.00000000000E+00  0.15637952718E+04  0.32063849480E+04  0.27991871646E+04 0.  0.
        4    1    3    3  502    0 -0.85184669269E+03  0.60702848577E+03 -0.28328736870E+03  0.10836880162E+04  0.12699999809E+01 0.  1.
       -4    1    3    3    0  502  0.85184669269E+03 -0.60702848577E+03  0.18470826405E+04  0.21226969317E+04  0.12699999809E+01 0. -1.
</event>
<event>
 5   0  0.1357902E-07  0.2800023E+04  0.7818609E-02  0.8303261E-01
        1   -1    0    0  501    0  0.00000000000E+00  0.00000000000E+00  0.11571201821E+04  0.11571201821E+04  0.50400001928E-02 0. -1.
       -1   -1    0    0    0  501  0.00000000000E+00  0.00000000000E+00 -0.16938878538E+04  0.16938878538E+04  0.50400001928E-02 0.  1.
    10030    2    1    2    0    0  0.00000000000E+00  0.00000000000E+00 -0.53676767171E+03  0.28510080360E+04  0.28000227299E+04 0.  0.
        4    1    3    3  502    0 -0.13232334202E+04  0.34579580898E+03 -0.57301176042E+03  0.14828572137E+04  0.12699999809E+01 0.  1.
       -4    1    3    3    0  502  0.13232334202E+04 -0.34579580898E+03  0.36244088716E+02  0.13681508223E+04  0.12699999809E+01 0. -1.
</event>
<event>
 5   0  0.3571498E-07  0.2799288E+04  0.7818609E-02  0.8303489E-01
        2   -1    0    0  501    0  0.00000000000E+00  0.00000000000E+00  0.14146807189E+04  0.14146807189E+04  0.25500000920E-02 0.  1.
       -2   -1    0    0    0  501  0.00000000000E+00  0.00000000000E+00 -0.13847672454E+04  0.13847672454E+04  0.25500000920E-02 0. -1.
    10030    2    1    2    0    0  0.00000000000E+00  0.00000000000E+00  0.29913473504E+02  0.27994479644E+04  0.27992881397E+04 0.  0.
        2    1    3    3  502    0  0.10134607674E+04 -0.90882226653E+03 -0.31055053060E+03  0.13962457775E+04  0.25500000920E-02 0. -1.
       -2    1    3    3    0  502 -0.10134607674E+04  0.90882226653E+03  0.34046400411E+03  0.14032021869E+04  0.25500000920E-02 0.  1.
</event>
<event>
 5   0  0.3571498E-07  0.2799944E+04  0.7818609E-02  0.8303286E-01
        2   -1    0    0  501    0  0.00000000000E+00  0.00000000000E+00  0.15867441386E+04  0.15867441386E+04  0.25500000920E-02 0.  1.
       -2   -1    0    0    0  501  0.00000000000E+00  0.00000000000E+00 -0.12351843669E+04  0.12351843669E+04  0.25500000920E-02 0. -1.
    10030    2    1    2    0    0  0.00000000000E+00  0.00000000000E+00  0.35155977170E+03  0.28219285055E+04  0.27999439668E+04 0.  0.
        2    1    3    3  502    0  0.66020877668E+03  0.58818988446E+03  0.12696954391E+04  0.15472457714E+04  0.25500000920E-02 0.  1.
       -2    1    3    3    0  502 -0.66020877668E+03 -0.58818988446E+03 -0.91813566737E+03  0.12746827341E+04  0.25500000920E-02 0. -1.
</event>
<event>
 5   0  0.3406920E-07  0.2801486E+04  0.7818609E-02  0.8302807E-01
        2   -1    0    0  501    0  0.00000000000E+00  0.00000000000E+00  0.12564931140E+04  0.12564931140E+04  0.25500000920E-02 0.  1.
       -2   -1    0    0    0  501  0.00000000000E+00  0.00000000000E+00 -0.15615527341E+04  0.15615527341E+04  0.25500000920E-02 0. -1.
    10030    2    1    2    0    0  0.00000000000E+00  0.00000000000E+00 -0.30505962004E+03  0.28180458481E+04  0.28014855042E+04 0.  0.
        4    1    3    3  502    0  0.81014874212E+02 -0.28874132681E+03  0.12238213814E+04  0.12600299005E+04  0.12699999809E+01 0.  1.
       -4    1    3    3    0  502 -0.81014874212E+02  0.28874132681E+03 -0.15288810014E+04  0.15580159476E+04  0.12699999809E+01 0. -1.
</event>
<event>
 5   0  0.3557628E-07  0.2797295E+04  0.7818609E-02  0.8304109E-01
       -2   -1    0    0    0  501  0.00000000000E+00  0.00000000000E+00  0.15344249814E+04  0.15344249814E+04  0.25500000920E-02 0.  1.
        2   -1    0    0  501    0  0.00000000000E+00  0.00000000000E+00 -0.12748845650E+04  0.12748845650E+04  0.25500000920E-02 0. -1.
    10030    2    1    2    0    0  0.00000000000E+00  0.00000000000E+00  0.25954041640E+03  0.28093095464E+04  0.27972949254E+04 0.  0.
        5    1    3    3  502    0 -0.12185808178E+04 -0.63371593509E+03  0.39483094507E+03  0.14291426315E+04  0.46999998093E+01 0.  1.
       -5    1    3    3    0  502  0.12185808178E+04  0.63371593509E+03 -0.13529052867E+03  0.13801669149E+04  0.46999998093E+01 0. -1.
</event>
<event>
 5   0  0.3571498E-07  0.2798721E+04  0.7818609E-02  0.8303666E-01
        2   -1    0    0  501    0  0.00000000000E+00  0.00000000000E+00  0.14251936539E+04  0.14251936539E+04  0.25500000920E-02 0. -1.
       -2   -1    0    0    0  501  0.00000000000E+00  0.00000000000E+00 -0.13739956056E+04  0.13739956056E+04  0.25500000920E-02 0.  1.
    10030    2    1    2    0    0  0.00000000000E+00  0.00000000000E+00  0.51198048343E+02  0.27991892595E+04  0.27987210062E+04 0.  0.
        2    1    3    3  502    0 -0.41079721276E+03 -0.75412041904E+03  0.11306629973E+04  0.14198065960E+04  0.25500000920E-02 0. -1.
       -2    1    3    3    0  502  0.41079721276E+03  0.75412041904E+03 -0.10794649490E+04  0.13793826636E+04  0.25500000920E-02 0.  1.
</event>
<event>
 5   0  0.3522569E-07  0.2800889E+04  0.7818609E-02  0.8302992E-01
       -2   -1    0    0    0  501  0.00000000000E+00  0.00000000000E+00  0.10086019277E+04  0.10086019277E+04  0.25500000920E-02 0.  1.
        2   -1    0    0  501    0  0.00000000000E+00  0.00000000000E+00 -0.19445186948E+04  0.19445186948E+04  0.25500000920E-02 0. -1.
    10030    2    1    2    0    0  0.00000000000E+00  0.00000000000E+00 -0.93591676708E+03  0.29531206225E+04  0.28008893617E+04 0.  0.
        1    1    3    3  502    0 -0.13689690111E+03  0.71216544318E+02  0.99961068713E+03  0.10114514737E+04  0.50400001928E-02 0.  1.
       -1    1    3    3    0  502  0.13689690111E+03 -0.71216544318E+02 -0.19355274542E+04  0.19416691489E+04  0.50400001928E-02 0. -1.
</event>
<event>
 5   0  0.3406920E-07  0.2799284E+04  0.7818609E-02  0.8303491E-01
        2   -1    0    0  501    0  0.00000000000E+00  0.00000000000E+00  0.70037053788E+03  0.70037053788E+03  0.25500000920E-02 0.  1.
       -2   -1    0    0    0  501  0.00000000000E+00  0.00000000000E+00 -0.27970883257E+04  0.27970883257E+04  0.25500000920E-02 0. -1.
    10030    2    1    2    0    0  0.00000000000E+00  0.00000000000E+00 -0.20967177878E+04  0.34974588636E+04  0.27992843765E+04 0.  0.
        4    1    3    3  502    0 -0.10915829831E+04 -0.48027617811E+03 -0.13297564815E+03  0.11999594794E+04  0.12699999809E+01 0.  1.
       -4    1    3    3    0  502  0.10915829831E+04  0.48027617811E+03 -0.19637421397E+04  0.22974993842E+04  0.12699999809E+01 0. -1.
</event>
<event>
 5   0  0.3406920E-07  0.2801471E+04  0.7818609E-02  0.8302812E-01
       -2   -1    0    0    0  501  0.00000000000E+00  0.00000000000E+00  0.16516212573E+04  0.16516212573E+04  0.25500000920E-02 0. -1.
        2   -1    0    0  501    0  0.00000000000E+00  0.00000000000E+00 -0.11879596296E+04  0.11879596296E+04  0.25500000920E-02 0.  1.
    10030    2    1    2    0    0  0.00000000000E+00  0.00000000000E+00  0.46366162769E+03  0.28395808870E+04  0.28014705975E+04 0.  0.
        4    1    3    3  502    0 -0.10703553056E+04  0.27109974716E+03  0.11054738129E+04  0.15624434444E+04  0.12699999809E+01 0. -1.
       -4    1    3    3    0  502  0.10703553056E+04 -0.27109974716E+03 -0.64181218517E+03  0.12771374425E+04  0.12699999809E+01 0.  1.
</event>
<event>
 5   0  0.3557628E-07  0.2800847E+04  0.7818609E-02  0.8303006E-01
        2   -1    0    0  501    0  0.00000000000E+00  0.00000000000E+00  0.17369794592E+04  0.17369794592E+04  0.25500000920E-02 0. -1.
       -2   -1    0    0    0  501  0.00000000000E+00  0.00000000000E+00 -0.11290780978E+04  0.11290780978E+04  0.25500000920E-02 0.  1.
    10030    2    1    2    0    0  0.00000000000E+00  0.00000000000E+00  0.60790136147E+03  0.28660575570E+04  0.28008466318E+04 0.  0.
        5    1    3    3  502    0  0.86891816476E+03 -0.70250663926E+03  0.11677787875E+04  0.16162499008E+04  0.46999998093E+01 0. -1.
       -5    1    3    3    0  502 -0.86891816476E+03  0.70250663926E+03 -0.55987742606E+03  0.12498076562E+04  0.46999998093E+01 0.  1.
</event>
<event>
 5   0  0.1357902E-07  0.2798310E+04  0.7818609E-02  0.8303793E-01
        1   -1    0    0  501    0  0.00000000000E+00  0.00000000000E+00  0.24243986235E+04  0.24243986235E+04  0.50400001928E-02 0.  1.
       -1   -1    0    0    0  501  0.00000000000E+00  0.00000000000E+00 -0.80747202129E+03  0.80747202130E+03  0.50400001928E-02 0. -1.
    10030    2    1    2    0    0  0.00000000000E+00  0.00000000000E+00  0.16169266023E+04  0.32318706448E+04  0.27983095304E+04 0.  0.
        4    1    3    3  502    0 -0.53002849825E+03 -0.12947426103E+04  0.82987821548E+03  0.16266493480E+04  0.12699999809E+01 0. -1.
       -4    1    3    3    0  502  0.53002849825E+03  0.12947426103E+04  0.78704838678E+03  0.16052212969E+04  0.12699999809E+01 0.  1.
</event>
<event>
 5   0  0.3557628E-07  0.2799385E+04  0.7818609E-02  0.8303459E-01
       -2   -1    0    0    0  501  0.00000000000E+00  0.00000000000E+00  0.11951071269E+04  0.11951071269E+04  0.25500000920E-02 0.  1.
        2   -1    0    0  501    0  0.00000000000E+00  0.00000000000E+00 -0.16393004916E+04  0.16393004916E+04  0.25500000920E-02 0. -1.
    10030    2    1    2    0    0  0.00000000000E+00  0.00000000000E+00 -0.44419336463E+03  0.28344076185E+04  0.27993854330E+04 0.  0.
        5    1    3    3  502    0  0.56896021288E+03  0.12356338582E+04 -0.55578132958E+03  0.14694971016E+04  0.46999998093E+01 0. -1.
       -5    1    3    3    0  502 -0.56896021288E+03 -0.12356338582E+04  0.11158796496E+03  0.13649105169E+04  0.46999998093E+01 0.  1.
</event>
<event>
 5   0  0.3502141E-07  0.2802917E+04  0.7818609E-02  0.8302363E-01
       -2   -1    0    0    0  501  0.00000000000E+00  0.00000000000E+00  0.10859185939E+04  0.10859185939E+04  0.25500000920E-02 0. -1.
        2   -1    0    0  501    0  0.00000000000E+00  0.00000000000E+00 -0.18086867874E+04  0.18086867874E+04  0.25500000920E-02 0.  1.
    10030    2    1    2    0    0  0.00000000000E+00  0.00000000000E+00 -0.72276819356E+03  0.28946053813E+04  0.28029174893E+04 0.  0.
        3    1    3    3  502    0  0.71656300847E+02 -0.13900095374E+04 -0.53052656584E+03  0.14895367021E+04  0.10100000352E+00 0.  1.
       -3    1    3    3    0  502 -0.71656300847E+02  0.13900095374E+04 -0.19224162772E+03  0.14050686792E+04  0.10100000352E+00 0. -1.
</event>
<event>
 5   0  0.1173363E-07  0.2804546E+04  0.7818609E-02  0.8301858E-01
        4   -1    0    0  501    0  0.00000000000E+00  0.00000000000E+00  0.13642436353E+04  0.13642442264E+04  0.12699999809E+01 0. -1.
       -4   -1    0    0    0  501  0.00000000000E+00  0.00000000000E+00 -0.14413613776E+04  0.14413619371E+04  0.12699999809E+01 0.  1.
    10030    2    1    2    0    0  0.00000000000E+00  0.00000000000E+00 -0.77117742358E+02  0.28056061635E+04  0.28045460949E+04 0.  0.
        4    1    3    3  502    0 -0.13117791289E+04 -0.47919671983E+03 -0.16499535990E+03  0.14062784436E+04  0.12699999809E+01 0. -1.
       -4    1    3    3    0  502  0.13117791289E+04  0.47919671983E+03  0.87877617537E+02  0.13993277199E+04  0.12699999809E+01 0.  1.
</event>
<event>
 5   0  0.1346049E-07  0.2797760E+04  0.7818609E-02  0.8303964E-01
       -1   -1    0    0    0  501  0.00000000000E+00  0.00000000000E+00  0.14776602623E+04  0.14776602623E+04  0.50400001928E-02 0.  1.
        1   -1    0    0  501    0  0.00000000000E+00  0.00000000000E+00 -0.13243002143E+04  0.13243002144E+04  0.50400001928E-02 0. -1.
    10030    2    1    2    0    0  0.00000000000E+00  0.00000000000E+00  0.15336004795E+03  0.28019604767E+04  0.27977603915E+04 0.  0.
        1    1    3    3  502    0  0.69809417977E+03  0.78799686554E+03 -0.84589302675E+03  0.13504849339E+04  0.50400001928E-02 0. -1.
       -1    1    3    3    0  502 -0.69809417977E+03 -0.78799686554E+03  0.99925307470E+03  0.14514755428E+04  0.50400001928E-02 0.  1.
</event>
<event>
 5   0  0.1361741E-07  0.2800530E+04  0.7818609E-02  0.8303104E-01
        1   -1    0    0  501    0  0.00000000000E+00  0.00000000000E+00  0.59908662505E+03  0.59908662507E+03  0.50400001928E-02 0.  1.
       -1   -1    0    0    0  501  0.00000000000E+00  0.00000000000E+00 -0.32728858695E+04  0.32728858695E+04  0.50400001928E-02 0. -1.
    10030    2    1    2    0    0  0.00000000000E+00  0.00000000000E+00 -0.26737992445E+04  0.38719724946E+04  0.28005300568E+04 0.  0.
        5    1    3    3  502    0 -0.28820773902E+03  0.12913291804E+04 -0.19706689336E+04  0.23736370592E+04  0.46999998093E+01 0.  1.
       -5    1    3    3    0  502  0.28820773902E+03 -0.12913291804E+04 -0.70313031082E+03  0.14983354354E+04  0.46999998093E+01 0. -1.
</event>
<event>
 5   0  0.1361741E-07  0.2798730E+04  0.7818609E-02  0.8303663E-01
        1   -1    0    0  501    0  0.00000000000E+00  0.00000000000E+00  0.11020705835E+04  0.11020705835E+04  0.50400001928E-02 0. -1.
       -1   -1    0    0    0  501  0.00000000000E+00  0.00000000000E+00 -0.17768579193E+04  0.17768579193E+04  0.50400001928E-02 0.  1.
    10030    2    1    2    0    0  0.00000000000E+00  0.00000000000E+00 -0.67478733578E+03  0.28789285028E+04  0.27987303149E+04 0.  0.
        5    1    3    3  502    0 -0.12979134196E+04  0.51894909449E+03 -0.26983563522E+03  0.14236294348E+04  0.46999998093E+01 0. -1.
       -5    1    3    3    0  502  0.12979134196E+04 -0.51894909449E+03 -0.40495170055E+03  0.14552990680E+04  0.46999998093E+01 0.  1.
</event>
<event>
 5   0  0.3522569E-07  0.2799052E+04  0.7818609E-02  0.8303563E-01
        2   -1    0    0  501    0  0.00000000000E+00  0.00000000000E+00  0.22527687226E+04  0.22527687226E+04  0.25500000920E-02 0. -1.
       -2   -1    0    0    0  501  0.00000000000E+00  0.00000000000E+00 -0.86945172996E+03  0.86945172996E+03  0.25500000920E-02 0.  1.
    10030    2    1    2    0    0  0.00000000000E+00  0.00000000000E+00  0.13833169926E+04  0.31222204525E+04  0.27990524561E+04 0.  0.
        1    1    3    3  502    0 -0.72159598901E+03  0.11291298619E+04  0.24125909182E+03  0.13615582859E+04  0.50400001928E-02 0. -1.
       -1    1    3    3    0  502  0.72159598901E+03 -0.11291298619E+04  0.11420579008E+04  0.17606621667E+04  0.50400001928E-02 0.  1.
</event>
<event>
 5   0  0.3522569E-07  0.2806327E+04  0.7818609E-02  0.8301307E-01
        2   -1    0    0  501    0  0.00000000000E+00  0.00000000000E+00  0.16313666509E+04  0.16313666509E+04  0.25500000920E-02 0. -1.
       -2   -1    0    0    0  501  0.00000000000E+00  0.00000000000E+00 -0.12068825409E+04  0.12068825409E+04  0.25500000920E-02 0.  1.
    10030    2    1    2    0    0  0.00000000000E+00  0.00000000000E+00  0.42448410993E+03  0.28382491918E+04  0.28063270863E+04 0.  0.
        1    1    3    3  502    0  0.52282031721E+03 -0.11230438198E+04  0.87875234895E+03  0.15188068330E+04  0.50400001928E-02 0. -1.
       -1    1    3    3    0  502 -0.52282031721E+03  0.11230438198E+04 -0.45426823902E+03  0.13194423588E+04  0.50400001928E-02 0.  1.
</event>
<event>
 5   0  0.1357902E-07  0.2802593E+04  0.7818609E-02  0.8302464E-01
       -1   -1    0    0    0  501  0.00000000000E+00  0.00000000000E+00  0.16962626450E+04  0.16962626450E+04  0.50400001928E-02 0.  1.
        1   -1    0    0  501    0  0.00000000000E+00  0.00000000000E+00 -0.11576224333E+04  0.11576224333E+04  0.50400001928E-02 0. -1.
    10030    2    1    2    0    0  0.00000000000E+00  0.00000000000E+00  0.53864021173E+03  0.28538850783E+04  0.28025928642E+04 0.  0.
        4    1    3    3  502    0  0.11904283840E+04  0.27642797765E+03  0.96750529332E+03  0.15587175080E+04  0.12699999809E+01 0.  1.
       -4    1    3    3    0  502 -0.11904283840E+04 -0.27642797765E+03 -0.42886508159E+03  0.12951675703E+04  0.12699999809E+01 0. -1.
</event>
<event>
 5   0  0.3571498E-07  0.2799147E+04  0.7818609E-02  0.8303533E-01
        2   -1    0    0  501    0  0.00000000000E+00  0.00000000000E+00  0.12380669872E+04  0.12380669872E+04  0.25500000920E-02 0. -1.
       -2   -1    0    0    0  501  0.00000000000E+00  0.00000000000E+00 -0.15821489700E+04  0.15821489700E+04  0.25500000920E-02 0.  1.
    10030    2    1    2    0    0  0.00000000000E+00  0.00000000000E+00 -0.34408198278E+03  0.28202159573E+04  0.27991473049E+04 0.  0.
        2    1    3    3  502    0 -0.12723870424E+04 -0.55208790951E+03  0.16548444073E+02  0.13870990219E+04  0.25500000920E-02 0. -1.
       -2    1    3    3    0  502  0.12723870424E+04  0.55208790951E+03 -0.36063042686E+03  0.14331169353E+04  0.25500000920E-02 0.  1.
</event>
<event>
 5   0  0.3557628E-07  0.2800307E+04  0.7818609E-02  0.8303173E-01
       -2   -1    0    0    0  501  0.00000000000E+00  0.00000000000E+00  0.99058861433E+03  0.99058861433E+03  0.25500000920E-02 0.  1.
        2   -1    0    0  501    0  0.00000000000E+00  0.00000000000E+00 -0.19790554454E+04  0.19790554454E+04  0.25500000920E-02 0. -1.
    10030    2    1    2    0    0  0.00000000000E+00  0.00000000000E+00 -0.98846683107E+03  0.29696440597E+04  0.28003069770E+04 0.  0.
        5    1    3    3  502    0 -0.10304696480E+03  0.13455327174E+04 -0.89007572641E+03  0.16165809164E+04  0.46999998093E+01 0. -1.
       -5    1    3    3    0  502  0.10304696480E+03 -0.13455327174E+04 -0.98391104655E+02  0.13530631434E+04  0.46999998093E+01 0.  1.
</event>
<event>
 5   0  0.3557628E-07  0.2795882E+04  0.7818609E-02  0.8304548E-01
       -2   -1    0    0    0  501  0.00000000000E+00  0.00000000000E+00  0.87397331537E+03  0.87397331537E+03  0.25500000920E-02 0. -1.
        2   -1    0    0  501    0  0.00000000000E+00  0.00000000000E+00 -0.22360397343E+04  0.22360397343E+04  0.25500000920E-02 0.  1.
    10030    2    1    2    0    0  0.00000000000E+00  0.00000000000E+00 -0.13620664189E+04  0.31100130497E+04  0.27958820146E+04 0.  0.
        5    1    3    3  502    0 -0.24428211007E+03 -0.15198029487E+03  0.84067691268E+03  0.88855586254E+03  0.46999998093E+01 0. -1.
       -5    1    3    3    0  502  0.24428211007E+03  0.15198029487E+03 -0.22027433316E+04  0.22214571871E+04  0.46999998093E+01 0.  1.
</event>
<event>
 5   0  0.1346049E-07  0.2791852E+04  0.7818609E-02  0.8305802E-01
        1   -1    0    0  501    0  0.00000000000E+00  0.00000000000E+00  0.10023042304E+04  0.10023042304E+04  0.50400001928E-02 0.  1.
       -1   -1    0    0    0  501  0.00000000000E+00  0.00000000000E+00 -0.19441295328E+04  0.19441295328E+04  0.50400001928E-02 0. -1.
    10030    2    1    2    0    0  0.00000000000E+00  0.00000000000E+00 -0.94182530239E+03  0.29464337632E+04  0.27918518980E+04 0.  0.
        1    1    3    3  502    0  0.25013839392E+03  0.70547822697E+03  0.77260600240E+03  0.10757270936E+04  0.50400001928E-02 0.  1.
       -1    1    3    3    0  502 -0.25013839392E+03 -0.70547822697E+03 -0.17144313048E+04  0.18707066696E+04  0.50400001928E-02 0. -1.
</event>
<event>
 5   0  0.1357902E-07  0.2798362E+04  0.7818609E-02  0.8303777E-01
        1   -1    0    0  501    0  0.00000000000E+00  0.00000000000E+00  0.11346078393E+04  0.11346078393E+04  0.50400001928E-02 0. -1.
       -1   -1    0    0    0  501  0.00000000000E+00  0.00000000000E+00 -0.17254488277E+04  0.17254488277E+04  0.50400001928E-02 0.  1.
    10030    2    1    2    0    0  0.00000000000E+00  0.00000000000E+00 -0.59084098840E+03  0.28600566670E+04  0.27983622112E+04 0.  0.
        4    1    3    3  502    0  0.12340932107E+04  0.39818206953E+03  0.24168532407E+03  0.13190710451E+04  0.12699999809E+01 0. -1.
       -4    1    3    3    0  502 -0.12340932107E+04 -0.39818206953E+03 -0.83252631248E+03  0.15409856220E+04  0.12699999809E+01 0.  1.
</event>
<event>
 5   0  0.3502141E-07  0.2800176E+04  0.7818609E-02  0.8303214E-01
       -2   -1    0    0    0  501  0.00000000000E+00  0.00000000000E+00  0.97221630885E+03  0.97221630885E+03  0.25500000920E-02 0.  1.
        2   -1    0    0  501    0  0.00000000000E+00  0.00000000000E+00 -0.20162656021E+04  0.20162656021E+04  0.25500000920E-02 0. -1.
    10030    2    1    2    0    0  0.00000000000E+00  0.00000000000E+00 -0.10440492933E+04  0.29884819110E+04  0.28001759240E+04 0.  0.
        3    1    3    3  502    0  0.52428123881E+03  0.12893432073E+04 -0.68377369129E+03  0.15507492365E+04  0.10100000352E+00 0. -1.
       -3    1    3    3    0  502 -0.52428123881E+03 -0.12893432073E+04 -0.36027560199E+03  0.14377326744E+04  0.10100000352E+00 0.  1.
</event>
<event>
 5   0  0.3522569E-07  0.2798525E+04  0.7818609E-02  0.8303726E-01
        2   -1    0    0  501    0  0.00000000000E+00  0.00000000000E+00  0.14084872676E+04  0.14084872676E+04  0.25500000920E-02 0. -1.
       -2   -1    0    0    0  501  0.00000000000E+00  0.00000000000E+00 -0.13900980414E+04  0.13900980414E+04  0.25500000920E-02 0.  1.
    10030    2    1    2    0    0  0.00000000000E+00  0.00000000000E+00  0.18389226133E+02  0.27985853090E+04  0.27985248914E+04 0.  0.
        1    1    3    3  502    0  0.10130906550E+04 -0.11305408210E+02 -0.95594533712E+03  0.13929508157E+04  0.50400001928E-02 0.  1.
       -1    1    3    3    0  502 -0.10130906550E+04  0.11305408210E+02  0.97433456325E+03  0.14056344933E+04  0.50400001928E-02 0. -1.
</event>
<event>
 5   0  0.3557628E-07  0.2798704E+04  0.7818609E-02  0.8303671E-01
       -2   -1    0    0    0  501  0.00000000000E+00  0.00000000000E+00  0.81841035330E+03  0.81841035330E+03  0.25500000920E-02 0. -1.
        2   -1    0    0  501    0  0.00000000000E+00  0.00000000000E+00 -0.23926708501E+04  0.23926708501E+04  0.25500000920E-02 0.  1.
    10030    2    1    2    0    0  0.00000000000E+00  0.00000000000E+00 -0.15742604968E+04  0.32110812034E+04  0.27987044115E+04 0.  0.
        5    1    3    3  502    0  0.87195034638E+03  0.10335289115E+04 -0.37395026192E+03  0.14029755186E+04  0.46999998093E+01 0. -1.
       -5    1    3    3    0  502 -0.87195034638E+03 -0.10335289115E+04 -0.12003102349E+04  0.18081056848E+04  0.46999998093E+01 0.  1.
</event>
<event>
 5   0  0.1173363E-07  0.2799178E+04  0.7818609E-02  0.8303524E-01
        4   -1    0    0  501    0  0.00000000000E+00  0.00000000000E+00  0.12582391948E+04  0.12582398357E+04  0.12699999809E+01 0. -1.
       -4   -1    0    0    0  501  0.00000000000E+00  0.00000000000E+00 -0.15568170093E+04  0.15568175273E+04  0.12699999809E+01 0.  1.
    10030    2    1    2    0    0  0.00000000000E+00  0.00000000000E+00 -0.29857781454E+03  0.28150573630E+04  0.27991783162E+04 0.  0.
        3    1    3    3  502    0 -0.76386105929E+03 -0.85229165892E+03 -0.95944243069E+03  0.14934572568E+04  0.10100000352E+00 0.  1.
       -3    1    3    3    0  502  0.76386105929E+03  0.85229165892E+03  0.66086461615E+03  0.13216001062E+04  0.10100000352E+00 0. -1.
</event>
<event>
 5   0  0.3502141E-07  0.2800682E+04  0.7818609E-02  0.8303057E-01
        2   -1    0    0  501    0  0.00000000000E+00  0.00000000000E+00  0.20523159256E+04  0.20523159256E+04  0.25500000920E-02 0. -1.
       -2   -1    0    0    0  501  0.00000000000E+00  0.00000000000E+00 -0.95548373692E+03  0.95548373692E+03  0.25500000920E-02 0.  1.
    10030    2    1    2    0    0  0.00000000000E+00  0.00000000000E+00  0.10968321887E+04  0.30077996625E+04  0.28006816955E+04 0.  0.
        3    1    3    3  502    0 -0.13597012257E+03  0.72974036147E+03 -0.72680748143E+03  0.10388734257E+04  0.10100000352E+00 0.  1.
       -3    1    3    3    0  502  0.13597012257E+03 -0.72974036147E+03  0.18236396701E+04  0.19689262368E+04  0.10100000352E+00 0. -1.
</event>
<event>
 5   0  0.3406920E-07  0.2789599E+04  0.7818609E-02  0.8306505E-01
       -2   -1    0    0    0  501  0.00000000000E+00  0.00000000000E+00  0.13021100453E+04  0.13021100453E+04  0.25500000920E-02 0. -1.
        2   -1    0    0  501    0  0.00000000000E+00  0.00000000000E+00 -0.14940871275E+04  0.14940871275E+04  0.25500000920E-02 0.  1.
    10030    2    1    2    0    0  0.00000000000E+00  0.00000000000E+00 -0.19197708222E+03  0.27961971728E+04  0.27895991521E+04 0.  0.
        4    1    3    3  502    0 -0.13772928007E+04 -0.62852585704E+02  0.11564667017E+03  0.13835684557E+04  0.12699999809E+01 0. -1.
       -4    1    3    3    0  502  0.13772928007E+04  0.62852585704E+02 -0.30762375238E+03  0.14126287171E+04  0.12699999809E+01 0.  1.
</event>
<event>
 5   0  0.1173363E-07  0.2799727E+04  0.7818609E-02  0.8303353E-01
        3   -1    0    0  501    0  0.00000000000E+00  0.00000000000E+00  0.87861769159E+03  0.87861769739E+03  0.10100000352E+00 0.  1.
       -3   -1    0    0    0  501  0.00000000000E+00  0.00000000000E+00 -0.22303423451E+04  0.22303423474E+04  0.10100000352E+00 0. -1.
    10030    2    1    2    0    0  0.00000000000E+00  0.00000000000E+00 -0.13517246535E+04  0.31089600448E+04  0.27997273119E+04 0.  0.
        1    1    3    3  502    0 -0.12883472901E+03  0.29407299808E+03 -0.21889067250E+04  0.22123268218E+04  0.50400001928E-02 0. -1.
       -1    1    3    3    0  502  0.12883472901E+03 -0.29407299808E+03  0.83718207153E+03  0.89663322296E+03  0.50400001928E-02 0.  1.
</event>
<event>
 5   0  0.3502141E-07  0.2798975E+04  0.7818609E-02  0.8303587E-01
        2   -1    0    0  501    0  0.00000000000E+00  0.00000000000E+00  0.18412581678E+04  0.18412581678E+04  0.25500000920E-02 0.  1.
       -2   -1    0    0    0  501  0.00000000000E+00  0.00000000000E+00 -0.10637102382E+04  0.10637102382E+04  0.25500000920E-02 0. -1.
    10030    2    1    2    0    0  0.00000000000E+00  0.00000000000E+00  0.77754792964E+03  0.29049684061E+04  0.27989749297E+04 0.  0.
        3    1    3    3  502    0 -0.11020215917E+04  0.51553416588E+03 -0.32903666790E+03  0.12603539994E+04  0.10100000352E+00 0. -1.
       -3    1    3    3    0  502  0.11020215917E+04 -0.51553416588E+03  0.11065845975E+04  0.16446144066E+04  0.10100000352E+00 0.  1.
</event>
<event>
 5   0  0.3406920E-07  0.2799649E+04  0.7818609E-02  0.8303377E-01
        2   -1    0    0  501    0  0.00000000000E+00  0.00000000000E+00  0.12472456652E+04  0.12472456652E+04  0.25500000920E-02 0. -1.
       -2   -1    0    0    0  501  0.00000000000E+00  0.00000000000E+00 -0.15710683806E+04  0.15710683806E+04  0.25500000920E-02 0.  1.
    10030    2    1    2    0    0  0.00000000000E+00  0.00000000000E+00 -0.32382271541E+03  0.28183140458E+04  0.27996487119E+04 0.  0.
        4    1    3    3  502    0 -0.50246850575E+03 -0.10651048511E+04 -0.92364883488E+03  0.14966802351E+04  0.12699999809E+01 0.  1.
       -4    1    3    3    0  502  0.50246850575E+03  0.10651048511E+04  0.59982611948E+03  0.13216338107E+04  0.12699999809E+01 0. -1.
</event>
<event>
 5   0  0.3522569E-07  0.2800370E+04  0.7818609E-02  0.8303154E-01
       -2   -1    0    0    0  501  0.00000000000E+00  0.00000000000E+00  0.15696401271E+04  0.15696401271E+04  0.25500000920E-02 0.  1.
        2   -1    0    0  501    0  0.00000000000E+00  0.00000000000E+00 -0.12490236660E+04  0.12490236660E+04  0.25500000920E-02 0. -1.
    10030    2    1    2    0    0  0.00000000000E+00  0.00000000000E+00  0.32061646116E+03  0.28186637931E+04  0.28003697369E+04 0.  0.
        1    1    3    3  502    0 -0.85221055179E+03 -0.65097932447E+03 -0.74584001939E+03  0.13062596373E+04  0.50400001928E-02 0. -1.
       -1    1    3    3    0  502  0.85221055179E+03  0.65097932447E+03  0.10664564806E+04  0.15124041558E+04  0.50400001928E-02 0.  1.
</event>
<event>
 5   0  0.1357902E-07  0.2799670E+04  0.7818609E-02  0.8303371E-01
       -1   -1    0    0    0  501  0.00000000000E+00  0.00000000000E+00  0.84114443185E+03  0.84114443186E+03  0.50400001928E-02 0. -1.
        1   -1    0    0  501    0  0.00000000000E+00  0.00000000000E+00 -0.23296093390E+04  0.23296093390E+04  0.50400001928E-02 0.  1.
    10030    2    1    2    0    0  0.00000000000E+00  0.00000000000E+00 -0.14884649071E+04  0.31707537708E+04  0.27996699262E+04 0.  0.
        4    1    3    3  502    0 -0.62197372859E+03 -0.74486954515E+03  0.39837881950E+03  0.10489944018E+04  0.12699999809E+01 0. -1.
       -4    1    3    3    0  502  0.62197372859E+03  0.74486954515E+03 -0.18868437266E+04  0.21217593690E+04  0.12699999809E+01 0.  1.
</event>
<event>
 5   0  0.3502141E-07  0.2800311E+04  0.7818609E-02  0.8303172E-01
        2   -1    0    0  501    0  0.00000000000E+00  0.00000000000E+00  0.16508271553E+04  0.16508271553E+04  0.25500000920E-02 0.  1.
       -2   -1    0    0    0  501  0.00000000000E+00  0.00000000000E+00 -0.11875471205E+04  0.11875471205E+04  0.25500000920E-02 0. -1.
    10030    2    1    2    0    0  0.00000000000E+00  0.00000000000E+00  0.46328003485E+03  0.28383742758E+04  0.28003107219E+04 0.  0.
        3    1    3    3  502    0  0.25315128104E+02  0.35867112175E+03 -0.11399531220E+04  0.11953154227E+04  0.10100000352E+00 0. -1.
       -3    1    3    3    0  502 -0.25315128104E+02 -0.35867112175E+03  0.16032331568E+04  0.16430588531E+04  0.10100000352E+00 0.  1.
</event>
<event>
 5   0  0.3557628E-07  0.2799410E+04  0.7818609E-02  0.8303451E-01
       -2   -1    0    0    0  501  0.00000000000E+00  0.00000000000E+00  0.10301605778E+04  0.10301605778E+04  0.25500000920E-02 0.  1.
        2   -1    0    0  501    0  0.00000000000E+00  0.00000000000E+00 -0.19018148868E+04  0.19018148868E+04  0.25500000920E-02 0. -1.
    10030    2    1    2    0    0  0.00000000000E+00  0.00000000000E+00 -0.87165430900E+03  0.29319754647E+04  0.27994104542E+04 0.  0.
        5    1    3    3  502    0  0.11195693262E+04 -0.34507976352E+03  0.36636520117E+03  0.12275019633E+04  0.46999998093E+01 0.  1.
       -5    1    3    3    0  502 -0.11195693262E+04  0.34507976352E+03 -0.12380195102E+04  0.17044735014E+04  0.46999998093E+01 0. -1.
</event>
<event>
 5   0  0.1374680E-07  0.2798442E+04  0.7818609E-02  0.8303752E-01
       -1   -1    0    0    0  501  0.00000000000E+00  0.00000000000E+00  0.13539828966E+04  0.13539828966E+04  0.50400001928E-02 0. -1.
        1   -1    0    0  501    0  0.00000000000E+00  0.00000000000E+00 -0.14459703976E+04  0.14459703976E+04  0.50400001928E-02 0.  1.
    10030    2    1    2    0    0  0.00000000000E+00  0.00000000000E+00 -0.91987501038E+02  0.27999532942E+04  0.27984418431E+04 0.  0.
        3    1    3    3  502    0  0.95959815059E+03 -0.86681425816E+03 -0.58072005892E+03  0.14175441319E+04  0.10100000352E+00 0.  1.
       -3    1    3    3    0  502 -0.95959815059E+03  0.86681425816E+03  0.48873255788E+03  0.13824091623E+04  0.10100000352E+00 0. -1.
</event>
<event>
 5   0  0.1357902E-07  0.2801834E+04  0.7818609E-02  0.8302699E-01
       -1   -1    0    0    0  501  0.00000000000E+00  0.00000000000E+00  0.16129116544E+04  0.16129116544E+04  0.50400001928E-02 0.  1.
        1   -1    0    0  501    0  0.00000000000E+00  0.00000000000E+00 -0.12167863462E+04  0.12167863462E+04  0.50400001928E-02 0. -1.
    10030    2    1    2    0    0  0.00000000000E+00  0.00000000000E+00  0.39612530821E+03  0.28296980007E+04  0.28018343126E+04 0.  0.
        4    1    3    3  502    0 -0.10770815268E+04  0.55108178185E+03  0.91132362770E+03  0.15146973668E+04  0.12699999809E+01 0.  1.
       -4    1    3    3    0  502  0.10770815268E+04 -0.55108178185E+03 -0.51519831949E+03  0.13150006339E+04  0.12699999809E+01 0. -1.
</event>
<event>
 5   0  0.3406920E-07  0.2798529E+04  0.7818609E-02  0.8303725E-01
       -2   -1    0    0    0  501  0.00000000000E+00  0.00000000000E+00  0.85723493273E+03  0.85723493273E+03  0.25500000920E-02 0.  1.
        2   -1    0    0  501    0  0.00000000000E+00  0.00000000000E+00 -0.22840193510E+04  0.22840193510E+04  0.25500000920E-02 0. -1.
    10030    2    1    2    0    0  0.00000000000E+00  0.00000000000E+00 -0.14267844183E+04  0.31412542837E+04  0.27985290241E+04 0.  0.
        4    1    3    3  502    0 -0.11812181218E+04  0.74778593069E+03 -0.64718085428E+03  0.15405533812E+04  0.12699999809E+01 0.  1.
       -4    1    3    3    0  502  0.11812181218E+04 -0.74778593069E+03 -0.77960356400E+03  0.16007009025E+04  0.12699999809E+01 0. -1.
</event>
<event>
 5   0  0.1374680E-07  0.2793519E+04  0.7818609E-02  0.8305283E-01
        1   -1    0    0  501    0  0.00000000000E+00  0.00000000000E+00  0.14585670541E+04  0.14585670541E+04  0.50400001928E-02 0.  1.
       -1   -1    0    0    0  501  0.00000000000E+00  0.00000000000E+00 -0.13375709245E+04  0.13375709246E+04  0.50400001928E-02 0. -1.
    10030    2    1    2    0    0  0.00000000000E+00  0.00000000000E+00  0.12099612950E+03  0.27961379786E+04  0.27935188441E+04 0.  0.
        3    1    3    3  502    0 -0.23417793234E+03  0.85406931770E+03 -0.10206364617E+04  0.13512854993E+04  0.10100000352E+00 0. -1.
       -3    1    3    3    0  502  0.23417793234E+03 -0.85406931770E+03  0.11416325912E+04  0.14448524793E+04  0.10100000352E+00 0.  1.
</event>
<event>
 5   0  0.3557628E-07  0.2798314E+04  0.7818609E-02  0.8303792E-01
        2   -1    0    0  501    0  0.00000000000E+00  0.00000000000E+00  0.17404095836E+04  0.17404095836E+04  0.25500000920E-02 0.  1.
       -2   -1    0    0    0  501  0.00000000000E+00  0.00000000000E+00 -0.11248160685E+04  0.11248160685E+04  0.25500000920E-02 0. -1.
    10030    2    1    2    0    0  0.00000000000E+00  0.00000000000E+00  0.61559351511E+03  0.28652256521E+04  0.27983142536E+04 0.  0.
        5    1    3    3  502    0  0.10721767207E+04 -0.89346765942E+03  0.20658377505E+03  0.14108672244E+04  0.46999998093E+01 0. -1.
       -5    1    3    3    0  502 -0.10721767207E+04  0.89346765942E+03  0.40900974006E+03  0.14543584277E+04  0.46999998093E+01 0.  1.
</event>
<event>
 5   0  0.3571498E-07  0.2801024E+04  0.7818609E-02  0.8302951E-01
       -2   -1    0    0    0  501  0.00000000000E+00  0.00000000000E+00  0.11307945367E+04  0.11307945367E+04  0.25500000920E-02 0.  1.
        2   -1    0    0  501    0  0.00000000000E+00  0.00000000000E+00 -0.17345619419E+04  0.17345619419E+04  0.25500000920E-02 0. -1.
    10030    2    1    2    0    0  0.00000000000E+00  0.00000000000E+00 -0.60376740517E+03  0.28653564786E+04  0.28010235040E+04 0.  0.
        2    1    3    3  502    0  0.19050839919E+03  0.77814200824E+03 -0.14770214475E+04  0.16802948525E+04  0.25500000920E-02 0. -1.
       -2    1    3    3    0  502 -0.19050839919E+03 -0.77814200824E+03  0.87325404231E+03  0.11850616261E+04  0.25500000920E-02 0.  1.
</event>
<event>
 5   0  0.3557628E-07  0.2799367E+04  0.7818609E-02  0.8303465E-01
       -2   -1    0    0    0  501  0.00000000000E+00  0.00000000000E+00  0.15739993428E+04  0.15739993428E+04  0.25500000920E-02 0.  1.
        2   -1    0    0  501    0  0.00000000000E+00  0.00000000000E+00 -0.12446726943E+04  0.12446726943E+04  0.25500000920E-02 0. -1.
    10030    2    1    2    0    0  0.00000000000E+00  0.00000000000E+00  0.32932664846E+03  0.28186720371E+04  0.27993670734E+04 0.  0.
        5    1    3    3  502    0 -0.42171784603E+03  0.19126771550E+03 -0.11653023330E+04  0.12539461304E+04  0.46999998093E+01 0. -1.
       -5    1    3    3    0  502  0.42171784603E+03 -0.19126771550E+03  0.14946289815E+04  0.15647259067E+04  0.46999998093E+01 0.  1.
</event>
<event>
 5   0  0.1361741E-07  0.2802764E+04  0.7818609E-02  0.8302411E-01
        1   -1    0    0  501    0  0.00000000000E+00  0.00000000000E+00  0.12526821997E+04  0.12526821997E+04  0.50400001928E-02 0.  1.
       -1   -1    0    0    0  501  0.00000000000E+00  0.00000000000E+00 -0.15677331538E+04  0.15677331538E+04  0.50400001928E-02 0. -1.
    10030    2    1    2    0    0  0.00000000000E+00  0.00000000000E+00 -0.31505095416E+03  0.28204153535E+04  0.28027639327E+04 0.  0.
        5    1    3    3  502    0  0.80970035467E+03  0.58080837090E+03  0.83402076404E+03  0.12994482494E+04  0.46999998093E+01 0. -1.
       -5    1    3    3    0  502 -0.80970035467E+03 -0.58080837090E+03 -0.11490717182E+04  0.15209671041E+04  0.46999998093E+01 0.  1.
</event>
<event>
 5   0  0.1357902E-07  0.2801803E+04  0.7818609E-02  0.8302709E-01
        1   -1    0    0  501    0  0.00000000000E+00  0.00000000000E+00  0.17567790315E+04  0.17567790315E+04  0.50400001928E-02 0.  1.
       -1   -1    0    0    0  501  0.00000000000E+00  0.00000000000E+00 -0.11171156712E+04  0.11171156712E+04  0.50400001928E-02 0. -1.
    10030    2    1    2    0    0  0.00000000000E+00  0.00000000000E+00  0.63966336037E+03  0.28738947027E+04  0.28018032671E+04 0.  0.
        4    1    3    3  502    0 -0.47132011838E+03  0.50270023021E+03 -0.93125396874E+03  0.11584842436E+04  0.12699999809E+01 0. -1.
       -4    1    3    3    0  502  0.47132011838E+03 -0.50270023021E+03  0.15709173291E+04  0.17154104591E+04  0.12699999809E+01 0.  1.
</event>
<event>
 5   0  0.3502141E-07  0.2791348E+04  0.7818609E-02  0.8305960E-01
       -2   -1    0    0    0  501  0.00000000000E+00  0.00000000000E+00  0.88010025770E+03  0.88010025771E+03  0.25500000920E-02 0.  1.
        2   -1    0    0  501    0  0.00000000000E+00  0.00000000000E+00 -0.22132765412E+04  0.22132765412E+04  0.25500000920E-02 0. -1.
    10030    2    1    2    0    0  0.00000000000E+00  0.00000000000E+00 -0.13331762835E+04  0.30933767989E+04  0.27913475271E+04 0.  0.
        3    1    3    3  502    0 -0.13037590516E+04  0.48518494626E+03 -0.79154078645E+03  0.16005401974E+04  0.10100000352E+00 0.  1.
       -3    1    3    3    0  502  0.13037590516E+04 -0.48518494626E+03 -0.54163549700E+03  0.14928366014E+04  0.10100000352E+00 0. -1.
</event>
<event>
 5   0  0.1366235E-07  0.2799682E+04  0.7818609E-02  0.8303367E-01
       -1   -1    0    0    0  501  0.00000000000E+00  0.00000000000E+00  0.14615037329E+04  0.14615037329E+04  0.50400001928E-02 0.  1.
        1   -1    0    0  501    0  0.00000000000E+00  0.00000000000E+00 -0.13407799732E+04  0.13407799732E+04  0.50400001928E-02 0. -1.
    10030    2    1    2    0    0  0.00000000000E+00  0.00000000000E+00  0.12072375969E+03  0.28022837061E+04  0.27996820790E+04 0.  0.
        2    1    3    3  502    0  0.97928396708E+03  0.52855092236E+02 -0.93944780672E+03  0.13580695603E+04  0.25500000920E-02 0. -1.
       -2    1    3    3    0  502 -0.97928396708E+03 -0.52855092236E+02  0.10601715664E+04  0.14442141459E+04  0.25500000920E-02 0.  1.
</event>
<event>
 5   0  0.3406920E-07  0.2799845E+04  0.7818609E-02  0.8303316E-01
       -2   -1    0    0    0  501  0.00000000000E+00  0.00000000000E+00  0.66391741377E+03  0.66391741378E+03  0.25500000920E-02 0. -1.
        2   -1    0    0  501    0  0.00000000000E+00  0.00000000000E+00 -0.29518483024E+04  0.29518483024E+04  0.25500000920E-02 0.  1.
    10030    2    1    2    0    0  0.00000000000E+00  0.00000000000E+00 -0.22879308886E+04  0.36157657161E+04  0.27998453463E+04 0.  0.
        4    1    3    3  502    0 -0.13372611657E+04 -0.38678671196E+03 -0.13351233680E+04  0.19288409490E+04  0.12699999809E+01 0.  1.
       -4    1    3    3    0  502  0.13372611657E+04  0.38678671196E+03 -0.95280752056E+03  0.16869247671E+04  0.12699999809E+01 0. -1.
</event>
<event>
 5   0  0.1357902E-07  0.2800012E+04  0.7818609E-02  0.8303265E-01
       -1   -1    0    0    0  501  0.00000000000E+00  0.00000000000E+00  0.17956442370E+04  0.17956442371E+04  0.50400001928E-02 0.  1.
        1   -1    0    0  501    0  0.00000000000E+00  0.00000000000E+00 -0.10915399306E+04  0.10915399306E+04  0.50400001928E-02 0. -1.
    10030    2    1    2    0    0  0.00000000000E+00  0.00000000000E+00  0.70410430641E+03  0.28871841677E+04  0.28000124185E+04 0.  0.
        4    1    3    3  502    0 -0.15537058221E+03  0.48019554372E+03 -0.99446967286E+03  0.11152126798E+04  0.12699999809E+01 0. -1.
       -4    1    3    3    0  502  0.15537058221E+03 -0.48019554372E+03  0.16985739793E+04  0.17719714879E+04  0.12699999809E+01 0.  1.
</event>
<event>
 5   0  0.1346049E-07  0.2801722E+04  0.7818609E-02  0.8302734E-01
       -1   -1    0    0    0  501  0.00000000000E+00  0.00000000000E+00  0.13002861587E+04  0.13002861587E+04  0.50400001928E-02 0. -1.
        1   -1    0    0  501    0  0.00000000000E+00  0.00000000000E+00 -0.15092146084E+04  0.15092146084E+04  0.50400001928E-02 0.  1.
    10030    2    1    2    0    0  0.00000000000E+00  0.00000000000E+00 -0.20892844970E+03  0.28095007671E+04  0.28017215178E+04 0.  0.
        1    1    3    3  502    0 -0.92875039396E+03  0.95909783734E+03 -0.52986483259E+03  0.14363852884E+04  0.50400001928E-02 0.  1.
       -1    1    3    3    0  502  0.92875039396E+03 -0.95909783734E+03  0.32093638289E+03  0.13731154787E+04  0.50400001928E-02 0. -1.
</event>
<event>
 5   0  0.1361741E-07  0.2800678E+04  0.7818609E-02  0.8303058E-01
       -1   -1    0    0    0  501  0.00000000000E+00  0.00000000000E+00  0.17092722138E+04  0.17092722138E+04  0.50400001928E-02 0. -1.
        1   -1    0    0  501    0  0.00000000000E+00  0.00000000000E+00 -0.11472423875E+04  0.11472423875E+04  0.50400001928E-02 0.  1.
    10030    2    1    2    0    0  0.00000000000E+00  0.00000000000E+00  0.56202982637E+03  0.28565146013E+04  0.28006781575E+04 0.  0.
        5    1    3    3  502    0 -0.27248805491E+03 -0.60112041678E+03  0.15406809719E+04  0.16761012626E+04  0.46999998093E+01 0. -1.
       -5    1    3    3    0  502  0.27248805491E+03  0.60112041678E+03 -0.97865114550E+03  0.11804133387E+04  0.46999998093E+01 0.  1.
</event>
<event>
 5   0  0.1374680E-07  0.2796953E+04  0.7818609E-02  0.8304215E-01
       -1   -1    0    0    0  501  0.00000000000E+00  0.00000000000E+00  0.83103168029E+03  0.83103168031E+03  0.50400001928E-02 0. -1.
        1   -1    0    0  501    0  0.00000000000E+00  0.00000000000E+00 -0.23533830457E+04  0.23533830457E+04  0.50400001928E-02 0.  1.
    10030    2    1    2    0    0  0.00000000000E+00  0.00000000000E+00 -0.15223513654E+04  0.31844147260E+04  0.27969525322E+04 0.  0.
        3    1    3    3  502    0 -0.43932831593E+03  0.13029276042E+04 -0.47066940545E+03  0.14533270142E+04  0.10100000352E+00 0. -1.
       -3    1    3    3    0  502  0.43932831593E+03 -0.13029276042E+04 -0.10516819600E+04  0.17310877118E+04  0.10100000352E+00 0.  1.
</event>
<event>
 5   0  0.3571498E-07  0.2791070E+04  0.7818609E-02  0.8306046E-01
       -2   -1    0    0    0  501  0.00000000000E+00  0.00000000000E+00  0.10826586754E+04  0.10826586754E+04  0.25500000920E-02 0. -1.
        2   -1    0    0  501    0  0.00000000000E+00  0.00000000000E+00 -0.17988293757E+04  0.17988293757E+04  0.25500000920E-02 0.  1.
    10030    2    1    2    0    0  0.00000000000E+00  0.00000000000E+00 -0.71617070036E+03  0.28814880511E+04  0.27910702099E+04 0.  0.
        2    1    3    3  502    0 -0.52756405327E+03  0.89545204604E+03 -0.13195775484E+04  0.16797151852E+04  0.25500000920E-02 0.  1.
       -2    1    3    3    0  502  0.52756405327E+03 -0.89545204604E+03  0.60340684801E+03  0.12017728659E+04  0.25500000920E-02 0. -1.
</event>
<event>
 5   0  0.1357902E-07  0.2799004E+04  0.7818609E-02  0.8303578E-01
        1   -1    0    0  501    0  0.00000000000E+00  0.00000000000E+00  0.96077344630E+03  0.96077344631E+03  0.50400001928E-02 0.  1.
       -1   -1    0    0    0  501  0.00000000000E+00  0.00000000000E+00 -0.20385715794E+04  0.20385715794E+04  0.50400001928E-02 0. -1.
    10030    2    1    2    0    0  0.00000000000E+00  0.00000000000E+00 -0.10777981331E+04  0.29993450257E+04  0.27990037098E+04 0.  0.
        4    1    3    3  502    0  0.72790980382E+03 -0.89014857332E+03  0.31593828095E+03  0.11924914152E+04  0.12699999809E+01 0.  1.
       -4    1    3    3    0  502 -0.72790980382E+03  0.89014857332E+03 -0.13937364141E+04  0.18068536105E+04  0.12699999809E+01 0. -1.
</event>
<event>
 5   0  0.3502141E-07  0.2799634E+04  0.7818609E-02  0.8303382E-01
       -2   -1    0    0    0  501  0.00000000000E+00  0.00000000000E+00  0.11464601755E+04  0.11464601755E+04  0.25500000920E-02 0.  1.
        2   -1    0    0  501    0  0.00000000000E+00  0.00000000000E+00 -0.17091626779E+04  0.17091626779E+04  0.25500000920E-02 0. -1.
    10030    2    1    2    0    0  0.00000000000E+00  0.00000000000E+00 -0.56270250237E+03  0.28556228534E+04  0.27996335072E+04 0.  0.
        3    1    3    3  502    0 -0.66482363417E+03 -0.12154798265E+04 -0.48561925068E+03  0.14680625804E+04  0.10100000352E+00 0. -1.
       -3    1    3    3    0  502  0.66482363417E+03  0.12154798265E+04 -0.77083251690E+02  0.13875602729E+04  0.10100000352E+00 0.  1.
</event>
<event>
 5   0  0.3406920E-07  0.2799191E+04  0.7818609E-02  0.8303519E-01
       -2   -1    0    0    0  501  0.00000000000E+00  0.00000000000E+00  0.63256515182E+03  0.63256515182E+03  0.25500000920E-02 0. -1.
        2   -1    0    0  501    0  0.00000000000E+00  0.00000000000E+00 -0.30967056155E+04  0.30967056155E+04  0.25500000920E-02 0.  1.
    10030    2    1    2    0    0  0.00000000000E+00  0.00000000000E+00 -0.24641404636E+04  0.37292707673E+04  0.27991913531E+04 0.  0.
        4    1    3    3  502    0  0.51407152475E+01  0.83214456168E+03 -0.27313150957E+04  0.28552713992E+04  0.12699999809E+01 0.  1.
       -4    1    3    3    0  502 -0.51407152475E+01 -0.83214456168E+03  0.26717463203E+03  0.87399936807E+03  0.12699999809E+01 0. -1.
</event>
<event>
 5   0  0.1346049E-07  0.2798843E+04  0.7818609E-02  0.8303628E-01
        1   -1    0    0  501    0  0.00000000000E+00  0.00000000000E+00  0.14186179876E+04  0.14186179876E+04  0.50400001928E-02 0.  1.
       -1   -1    0    0    0  501  0.00000000000E+00  0.00000000000E+00 -0.13804842998E+04  0.13804842998E+04  0.50400001928E-02 0. -1.
    10030    2    1    2    0    0  0.00000000000E+00  0.00000000000E+00  0.38133687718E+02  0.27991022874E+04  0.27988425174E+04 0.  0.
        1    1    3    3  502    0  0.27348172492E+03  0.64814614467E+03  0.12289287603E+04  0.14160337484E+04  0.50400001928E-02 0.  1.
       -1    1    3    3    0  502 -0.27348172492E+03 -0.64814614467E+03 -0.11907950726E+04  0.13830685390E+04  0.50400001928E-02 0. -1.
</event>
<event>
 5   0  0.3557628E-07  0.2800773E+04  0.7818609E-02  0.8303028E-01
        2   -1    0    0  501    0  0.00000000000E+00  0.00000000000E+00  0.61276226961E+03  0.61276226961E+03  0.25500000920E-02 0.  1.
       -2   -1    0    0    0  501  0.00000000000E+00  0.00000000000E+00 -0.32003965311E+04  0.32003965311E+04  0.25500000920E-02 0. -1.
    10030    2    1    2    0    0  0.00000000000E+00  0.00000000000E+00 -0.25876342615E+04  0.38131588007E+04  0.28007729234E+04 0.  0.
        5    1    3    3  502    0  0.92686206818E+03  0.90511590080E+03 -0.20177693192E+04  0.23978580448E+04  0.46999998093E+01 0. -1.
       -5    1    3    3    0  502 -0.92686206818E+03 -0.90511590080E+03 -0.56986494226E+03  0.14153007559E+04  0.46999998093E+01 0.  1.
</event>
<event>
 5   0  0.3522569E-07  0.2798979E+04  0.7818609E-02  0.8303585E-01
       -2   -1    0    0    0  501  0.00000000000E+00  0.00000000000E+00  0.72080997328E+03  0.72080997329E+03  0.25500000920E-02 0. -1.
        2   -1    0    0  501    0  0.00000000000E+00  0.00000000000E+00 -0.27171806413E+04  0.27171806413E+04  0.25500000920E-02 0.  1.
    10030    2    1    2    0    0  0.00000000000E+00  0.00000000000E+00 -0.19963706680E+04  0.34379906146E+04  0.27989790320E+04 0.  0.
        1    1    3    3  502    0 -0.63221280257E+03 -0.32337706712E+03 -0.24794505097E+04  0.25791356275E+04  0.50400001928E-02 0.  1.
       -1    1    3    3    0  502  0.63221280257E+03  0.32337706712E+03  0.48307984169E+03  0.85885498703E+03  0.50400001928E-02 0. -1.
</event>
<event>
 5   0  0.3502141E-07  0.2799661E+04  0.7818609E-02  0.8303374E-01
        2   -1    0    0  501    0  0.00000000000E+00  0.00000000000E+00  0.30385116452E+04  0.30385116452E+04  0.25500000920E-02 0. -1.
       -2   -1    0    0    0  501  0.00000000000E+00  0.00000000000E+00 -0.64489652882E+03  0.64489652882E+03  0.25500000920E-02 0.  1.
    10030    2    1    2    0    0  0.00000000000E+00  0.00000000000E+00  0.23936151163E+04  0.36834081740E+04  0.27996611314E+04 0.  0.
        3    1    3    3  502    0 -0.61479208207E+03  0.12456076869E+04  0.14247544780E+04  0.19898324418E+04  0.10100000352E+00 0.  1.
       -3    1    3    3    0  502  0.61479208207E+03 -0.12456076869E+04  0.96886063834E+03  0.16935757321E+04  0.10100000352E+00 0. -1.
</event>
<event>
 5   0  0.1346049E-07  0.2804384E+04  0.7818609E-02  0.8301909E-01
       -1   -1    0    0    0  501  0.00000000000E+00  0.00000000000E+00  0.13876602547E+04  0.13876602547E+04  0.50400001928E-02 0.  1.
        1   -1    0    0  501    0  0.00000000000E+00  0.00000000000E+00 -0.14168758181E+04  0.14168758181E+04  0.50400001928E-02 0. -1.
    10030    2    1    2    0    0  0.00000000000E+00  0.00000000000E+00 -0.29215563398E+02  0.28045360727E+04  0.28043838956E+04 0.  0.
        1    1    3    3  502    0  0.78422537712E+02 -0.99522619725E+03 -0.99930174583E+03  0.14125258431E+04  0.50400001928E-02 0. -1.
       -1    1    3    3    0  502 -0.78422537712E+02  0.99522619725E+03  0.97008618244E+03  0.13920102297E+04  0.50400001928E-02 0.  1.
</event>
<event>
 5   0  0.1366235E-07  0.2799803E+04  0.7818609E-02  0.8303329E-01
       -1   -1    0    0    0  501  0.00000000000E+00  0.00000000000E+00  0.75844705991E+03  0.75844705992E+03  0.50400001928E-02 0. -1.
        1   -1    0    0  501    0  0.00000000000E+00  0.00000000000E+00 -0.25838649941E+04  0.25838649941E+04  0.50400001928E-02 0.  1.
    10030    2    1    2    0    0  0.00000000000E+00  0.00000000000E+00 -0.18254179342E+04  0.33423120541E+04  0.27998034274E+04 0.  0.
        2    1    3    3  502    0  0.11526477733E+04  0.58279609650E+03 -0.26821133926E+03  0.13191609083E+04  0.25500000920E-02 0. -1.
       -2    1    3    3    0  502 -0.11526477733E+04 -0.58279609650E+03 -0.15572065950E+04  0.20231511458E+04  0.25500000920E-02 0.  1.
</event>
<event>
 5   0  0.3522569E-07  0.2799594E+04  0.7818609E-02  0.8303395E-01
        2   -1    0    0  501    0  0.00000000000E+00  0.00000000000E+00  0.19049976637E+04  0.19049976637E+04  0.25500000920E-02 0. -1.
       -2   -1    0    0    0  501  0.00000000000E+00  0.00000000000E+00 -0.10285740477E+04  0.10285740477E+04  0.25500000920E-02 0.  1.
    10030    2    1    2    0    0  0.00000000000E+00  0.00000000000E+00  0.87642361601E+03  0.29335717115E+04  0.27995936547E+04 0.  0.
        1    1    3    3  502    0 -0.76103695659E+03 -0.54926060267E+03 -0.65002951274E+03  0.11416666880E+04  0.50400001928E-02 0.  1.
       -1    1    3    3    0  502  0.76103695659E+03  0.54926060267E+03  0.15264531288E+04  0.17919050235E+04  0.50400001928E-02 0. -1.
</event>
<event>
 5   0  0.3502141E-07  0.2803935E+04  0.7818609E-02  0.8302048E-01
       -2   -1    0    0    0  501  0.00000000000E+00  0.00000000000E+00  0.17273078079E+04  0.17273078079E+04  0.25500000920E-02 0. -1.
        2   -1    0    0  501    0  0.00000000000E+00  0.00000000000E+00 -0.11379052662E+04  0.11379052662E+04  0.25500000920E-02 0.  1.
    10030    2    1    2    0    0  0.00000000000E+00  0.00000000000E+00  0.58940254171E+03  0.28652130741E+04  0.28039348430E+04 0.  0.
        3    1    3    3  502    0 -0.11192009793E+02 -0.60878439553E+02 -0.11365082653E+04  0.11381926431E+04  0.10100000352E+00 0.  1.
       -3    1    3    3    0  502  0.11192009793E+02  0.60878439553E+02  0.17259108070E+04  0.17270204311E+04  0.10100000352E+00 0. -1.
</event>
<event>
 5   0  0.1361741E-07  0.2799663E+04  0.7818609E-02  0.8303373E-01
       -1   -1    0    0    0  501  0.00000000000E+00  0.00000000000E+00  0.13279813074E+04  0.13279813074E+04  0.50400001928E-02 0. -1.
        1   -1    0    0  501    0  0.00000000000E+00  0.00000000000E+00 -0.14755696030E+04  0.14755696030E+04  0.50400001928E-02 0.  1.
    10030    2    1    2    0    0  0.00000000000E+00  0.00000000000E+00 -0.14758829553E+03  0.28035509104E+04  0.27996634445E+04 0.  0.
        5    1    3    3  502    0  0.34528817304E+03  0.21627040584E+03  0.12672853262E+04  0.13311765469E+04  0.46999998093E+01 0. -1.
       -5    1    3    3    0  502 -0.34528817304E+03 -0.21627040584E+03 -0.14148736218E+04  0.14723743635E+04  0.46999998093E+01 0.  1.
</event>
<event>
 5   0  0.3502141E-07  0.2798559E+04  0.7818609E-02  0.8303716E-01
        2   -1    0    0  501    0  0.00000000000E+00  0.00000000000E+00  0.17675800789E+04  0.17675800789E+04  0.25500000920E-02 0. -1.
       -2   -1    0    0    0  501  0.00000000000E+00  0.00000000000E+00 -0.11077196857E+04  0.11077196857E+04  0.25500000920E-02 0.  1.
    10030    2    1    2    0    0  0.00000000000E+00  0.00000000000E+00  0.65986039316E+03  0.28752997646E+04  0.27985590931E+04 0.  0.
        3    1    3    3  502    0  0.86477664973E+03  0.55191637390E+03 -0.64775888310E+03  0.12132773461E+04  0.10100000352E+00 0.  1.
       -3    1    3    3    0  502 -0.86477664973E+03 -0.55191637390E+03  0.13076192763E+04  0.16620224185E+04  0.10100000352E+00 0. -1.
</event>
<event>
 5   0  0.1357902E-07  0.2800599E+04  0.7818609E-02  0.8303082E-01
       -1   -1    0    0    0  501  0.00000000000E+00  0.00000000000E+00  0.13340607935E+04  0.13340607935E+04  0.50400001928E-02 0. -1.
        1   -1    0    0  501    0  0.00000000000E+00  0.00000000000E+00 -0.14698275027E+04  0.14698275027E+04  0.50400001928E-02 0.  1.
    10030    2    1    2    0    0  0.00000000000E+00  0.00000000000E+00 -0.13576670920E+03  0.28038882961E+04  0.28005993962E+04 0.  0.
        4    1    3    3  502    0 -0.13783057026E+04 -0.17348784520E+03  0.10842850730E+03  0.13934069744E+04  0.12699999809E+01 0. -1.
       -4    1    3    3    0  502  0.13783057026E+04  0.17348784520E+03 -0.24419521651E+03  0.14104813217E+04  0.12699999809E+01 0.  1.
</event>
<event>
 5   0  0.1357902E-07  0.2802270E+04  0.7818609E-02  0.8302564E-01
        1   -1    0    0  501    0  0.00000000000E+00  0.00000000000E+00  0.18481763969E+04  0.18481763969E+04  0.50400001928E-02 0.  1.
       -1   -1    0    0    0  501  0.00000000000E+00  0.00000000000E+00 -0.10622250887E+04  0.10622250888E+04  0.50400001928E-02 0. -1.
    10030    2    1    2    0    0  0.00000000000E+00  0.00000000000E+00  0.78595130811E+03  0.29104014856E+04  0.28022700349E+04 0.  0.
        4    1    3    3  502    0 -0.10197574709E+04 -0.94177430418E+03  0.19500671977E+03  0.14017394098E+04  0.12699999809E+01 0.  1.
       -4    1    3    3    0  502  0.10197574709E+04  0.94177430418E+03  0.59094458834E+03  0.15086620758E+04  0.12699999809E+01 0. -1.
</event>
<event>
 5   0  0.3502141E-07  0.2799529E+04  0.7818609E-02  0.8303415E-01
        2   -1    0    0  501    0  0.00000000000E+00  0.00000000000E+00  0.18288529158E+04  0.18288529158E+04  0.25500000920E-02 0.  1.
       -2   -1    0    0    0  501  0.00000000000E+00  0.00000000000E+00 -0.10713493115E+04  0.10713493115E+04  0.25500000920E-02 0. -1.
    10030    2    1    2    0    0  0.00000000000E+00  0.00000000000E+00  0.75750360434E+03  0.29002022273E+04  0.27995287547E+04 0.  0.
        3    1    3    3  502    0  0.17027976618E+03 -0.24808796025E+03 -0.10374477983E+04  0.10802040452E+04  0.10100000352E+00 0. -1.
       -3    1    3    3    0  502 -0.17027976618E+03  0.24808796025E+03  0.17949514026E+04  0.18199981821E+04  0.10100000352E+00 0.  1.
</event>
<event>
 5   0  0.1361741E-07  0.2799659E+04  0.7818609E-02  0.8303374E-01
        1   -1    0    0  501    0  0.00000000000E+00  0.00000000000E+00  0.12279594270E+04  0.12279594270E+04  0.50400001928E-02 0. -1.
       -1   -1    0    0    0  501  0.00000000000E+00  0.00000000000E+00 -0.15957549628E+04  0.15957549628E+04  0.50400001928E-02 0.  1.
    10030    2    1    2    0    0  0.00000000000E+00  0.00000000000E+00 -0.36779553584E+03  0.28237143899E+04  0.27996588005E+04 0.  0.
        5    1    3    3  502    0 -0.21577622307E+03 -0.30231771825E+03 -0.15451405771E+04  0.15891623183E+04  0.46999998093E+01 0.  1.
       -5    1    3    3    0  502  0.21577622307E+03  0.30231771825E+03  0.11773450412E+04  0.12345520715E+04  0.46999998093E+01 0. -1.
</event>
<event>
 5   0  0.1346049E-07  0.2800417E+04  0.7818609E-02  0.8303139E-01
       -1   -1    0    0    0  501  0.00000000000E+00  0.00000000000E+00  0.10771370543E+04  0.10771370543E+04  0.50400001928E-02 0. -1.
        1   -1    0    0  501    0  0.00000000000E+00  0.00000000000E+00 -0.18201805571E+04  0.18201805571E+04  0.50400001928E-02 0.  1.
    10030    2    1    2    0    0  0.00000000000E+00  0.00000000000E+00 -0.74304350277E+03  0.28973176114E+04  0.28004170572E+04 0.  0.
        1    1    3    3  502    0 -0.79395423542E+03  0.62408060889E+03 -0.13750026686E+04  0.17060106310E+04  0.50400001928E-02 0.  1.
       -1    1    3    3    0  502  0.79395423542E+03 -0.62408060889E+03  0.63195916584E+03  0.11913069804E+04  0.50400001928E-02 0. -1.
</event>
<event>
 5   0  0.1357902E-07  0.2799863E+04  0.7818609E-02  0.8303311E-01
       -1   -1    0    0    0  501  0.00000000000E+00  0.00000000000E+00  0.80342738163E+03  0.80342738165E+03  0.50400001928E-02 0. -1.
        1   -1    0    0  501    0  0.00000000000E+00  0.00000000000E+00 -0.24393088630E+04  0.24393088630E+04  0.50400001928E-02 0.  1.
    10030    2    1    2    0    0  0.00000000000E+00  0.00000000000E+00 -0.16358814814E+04  0.32427362447E+04  0.27998625201E+04 0.  0.
        4    1    3    3  502    0  0.77383760303E+03 -0.86990765793E+03  0.82344967117E+02  0.11671959029E+04  0.12699999809E+01 0. -1.
       -4    1    3    3    0  502 -0.77383760303E+03  0.86990765793E+03 -0.17182264485E+04  0.20755403418E+04  0.12699999809E+01 0.  1.
</event>
<event>
 5   0  0.3571498E-07  0.2799067E+04  0.7818609E-02  0.8303558E-01
        2   -1    0    0  501    0  0.00000000000E+00  0.00000000000E+00  0.17836713780E+04  0.17836713780E+04  0.25500000920E-02 0.  1.
       -2   -1    0    0    0  501  0.00000000000E+00  0.00000000000E+00 -0.10981246148E+04  0.10981246148E+04  0.25500000920E-02 0. -1.
    10030    2    1    2    0    0  0.00000000000E+00  0.00000000000E+00  0.68554676319E+03  0.28817959928E+04  0.27990665908E+04 0.  0.
        2    1    3    3  502    0  0.14586375265E+03 -0.80219229706E+03 -0.82834595726E+03  0.11623019146E+04  0.25500000920E-02 0. -1.
       -2    1    3    3    0  502 -0.14586375265E+03  0.80219229706E+03  0.15138927205E+04  0.17194940782E+04  0.25500000920E-02 0.  1.
</event>
<event>
 5   0  0.3571498E-07  0.2808602E+04  0.7818609E-02  0.8300603E-01
       -2   -1    0    0    0  501  0.00000000000E+00  0.00000000000E+00  0.18348411083E+04  0.18348411083E+04  0.25500000920E-02 0. -1.
        2   -1    0    0  501    0  0.00000000000E+00  0.00000000000E+00 -0.10747861799E+04  0.10747861799E+04  0.25500000920E-02 0.  1.
    10030    2    1    2    0    0  0.00000000000E+00  0.00000000000E+00  0.76005492834E+03  0.29096272882E+04  0.28086024037E+04 0.  0.
        2    1    3    3  502    0  0.12605984485E+04  0.31321533435E+03  0.93293802239E+03  0.15992453369E+04  0.25500000920E-02 0. -1.
       -2    1    3    3    0  502 -0.12605984485E+04 -0.31321533435E+03 -0.17288309405E+03  0.13103819513E+04  0.25500000920E-02 0.  1.
</event>
<event>
 5   0  0.3571498E-07  0.2799525E+04  0.7818609E-02  0.8303416E-01
        2   -1    0    0  501    0  0.00000000000E+00  0.00000000000E+00  0.15980635670E+04  0.15980635670E+04  0.25500000920E-02 0. -1.
       -2   -1    0    0    0  501  0.00000000000E+00  0.00000000000E+00 -0.12260678716E+04  0.12260678716E+04  0.25500000920E-02 0.  1.
    10030    2    1    2    0    0  0.00000000000E+00  0.00000000000E+00  0.37199569544E+03  0.28241314386E+04  0.27995245284E+04 0.  0.
        2    1    3    3  502    0  0.10178181670E+04  0.31141677976E+03 -0.73105808741E+03  0.12912707536E+04  0.25500000920E-02 0.  1.
       -2    1    3    3    0  502 -0.10178181670E+04 -0.31141677976E+03  0.11030537828E+04  0.15328606850E+04  0.25500000920E-02 0. -1.
</event>
<event>
 5   0  0.1366235E-07  0.2799059E+04  0.7818609E-02  0.8303561E-01
        1   -1    0    0  501    0  0.00000000000E+00  0.00000000000E+00  0.20466695686E+04  0.20466695686E+04  0.50400001928E-02 0.  1.
       -1   -1    0    0    0  501  0.00000000000E+00  0.00000000000E+00 -0.95700981290E+03  0.95700981291E+03  0.50400001928E-02 0. -1.
    10030    2    1    2    0    0  0.00000000000E+00  0.00000000000E+00  0.10896597557E+04  0.30036793815E+04  0.27990590282E+04 0.  0.
        2    1    3    3  502    0 -0.21938468152E+03  0.73396758186E+03 -0.71205068076E+03  0.10458748595E+04  0.25500000920E-02 0. -1.
       -2    1    3    3    0  502  0.21938468152E+03 -0.73396758186E+03  0.18017104364E+04  0.19578045220E+04  0.25500000920E-02 0.  1.
</event>
<event>
 5   0  0.1357902E-07  0.2801817E+04  0.7818609E-02  0.8302705E-01
        1   -1    0    0  501    0  0.00000000000E+00  0.00000000000E+00  0.13993851882E+04  0.13993851882E+04  0.50400001928E-02 0.  1.
       -1   -1    0    0    0  501  0.00000000000E+00  0.00000000000E+00 -0.14024332454E+04  0.14024332454E+04  0.50400001928E-02 0. -1.
    10030    2    1    2    0    0  0.00000000000E+00  0.00000000000E+00 -0.30480571258E+01  0.28018184336E+04  0.28018167757E+04 0.  0.
        4    1    3    3  502    0 -0.25991391568E+03  0.48984941630E+03  0.12849583703E+04  0.13995096715E+04  0.12699999809E+01 0.  1.
       -4    1    3    3    0  502  0.25991391568E+03 -0.48984941630E+03 -0.12880064275E+04  0.14023087621E+04  0.12699999809E+01 0. -1.
</event>
<event>
 5   0  0.1374680E-07  0.2800634E+04  0.7818609E-02  0.8303072E-01
        1   -1    0    0  501    0  0.00000000000E+00  0.00000000000E+00  0.17360745180E+04  0.17360745180E+04  0.50400001928E-02 0. -1.
       -1   -1    0    0    0  501  0.00000000000E+00  0.00000000000E+00 -0.11294951775E+04  0.11294951775E+04  0.50400001928E-02 0.  1.
    10030    2    1    2    0    0  0.00000000000E+00  0.00000000000E+00  0.60657934055E+03  0.28655696955E+04  0.28006340681E+04 0.  0.
        3    1    3    3  502    0  0.81117802530E+03  0.77420582030E+03 -0.55489651298E+03  0.12511253299E+04  0.10100000352E+00 0.  1.
       -3    1    3    3    0  502 -0.81117802530E+03 -0.77420582030E+03  0.11614758535E+04  0.16144443656E+04  0.10100000352E+00 0. -1.
</event>
<event>
 5   0  0.3557628E-07  0.2799705E+04  0.7818609E-02  0.8303360E-01
       -2   -1    0    0    0  501  0.00000000000E+00  0.00000000000E+00  0.30512376133E+04  0.30512376133E+04  0.25500000920E-02 0.  1.
        2   -1    0    0  501    0  0.00000000000E+00  0.00000000000E+00 -0.64222709178E+03  0.64222709178E+03  0.25500000920E-02 0. -1.
    10030    2    1    2    0    0  0.00000000000E+00  0.00000000000E+00  0.24090105215E+04  0.36934647050E+04  0.27997053121E+04 0.  0.
        5    1    3    3  502    0  0.56936009948E+03  0.51685090937E+03 -0.33863670202E+03  0.84023966305E+03  0.46999998093E+01 0. -1.
       -5    1    3    3    0  502 -0.56936009948E+03 -0.51685090937E+03  0.27476472235E+04  0.28532250420E+04  0.46999998093E+01 0.  1.
</event>
<event>
 5   0  0.1357902E-07  0.2798421E+04  0.7818609E-02  0.8303759E-01
       -1   -1    0    0    0  501  0.00000000000E+00  0.00000000000E+00  0.27994889695E+04  0.27994889695E+04  0.50400001928E-02 0.  1.
        1   -1    0    0  501    0  0.00000000000E+00  0.00000000000E+00 -0.69933822563E+03  0.69933822565E+03  0.50400001928E-02 0. -1.
    10030    2    1    2    0    0  0.00000000000E+00  0.00000000000E+00  0.21001507439E+04  0.34988271951E+04  0.27984207322E+04 0.  0.
        4    1    3    3  502    0  0.96454054682E+03 -0.89372346188E+03  0.16480050468E+04  0.21083174192E+04  0.12699999809E+01 0.  1.
       -4    1    3    3    0  502 -0.96454054682E+03  0.89372346188E+03  0.45214569703E+03  0.13905097760E+04  0.12699999809E+01 0. -1.
</event>
<event>
 5   0  0.3557628E-07  0.2805081E+04  0.7818609E-02  0.8301693E-01
        2   -1    0    0  501    0  0.00000000000E+00  0.00000000000E+00  0.14297901391E+04  0.14297901391E+04  0.25500000920E-02 0. -1.
       -2   -1    0    0    0  501  0.00000000000E+00  0.00000000000E+00 -0.13758103471E+04  0.13758103471E+04  0.25500000920E-02 0.  1.
    10030    2    1    2    0    0  0.00000000000E+00  0.00000000000E+00  0.53979792073E+02  0.28056004862E+04  0.28050811522E+04 0.  0.
        5    1    3    3  502    0  0.11082684385E+04 -0.41812425939E+03 -0.72415590296E+03  0.13883481876E+04  0.46999998093E+01 0.  1.
       -5    1    3    3    0  502 -0.11082684385E+04  0.41812425939E+03  0.77813569504E+03  0.14172522987E+04  0.46999998093E+01 0. -1.
</event>
<event>
 5   0  0.1357902E-07  0.2813455E+04  0.7818609E-02  0.8299103E-01
       -1   -1    0    0    0  501  0.00000000000E+00  0.00000000000E+00  0.75143616061E+03  0.75143616062E+03  0.50400001928E-02 0.  1.
        1   -1    0    0  501    0  0.00000000000E+00  0.00000000000E+00 -0.26334675601E+04  0.26334675601E+04  0.50400001928E-02 0. -1.
    10030    2    1    2    0    0  0.00000000000E+00  0.00000000000E+00 -0.18820313995E+04  0.33849037207E+04  0.28134553506E+04 0.  0.
        4    1    3    3  502    0  0.21605938904E+03  0.60218225731E+03 -0.24483079592E+04  0.25305174583E+04  0.12699999809E+01 0. -1.
       -4    1    3    3    0  502 -0.21605938904E+03 -0.60218225731E+03  0.56627655967E+03  0.85438626250E+03  0.12699999809E+01 0.  1.
</event>
<event>
 5   0  0.1173363E-07  0.2799348E+04  0.7818609E-02  0.8303471E-01
        3   -1    0    0  501    0  0.00000000000E+00  0.00000000000E+00  0.20900847934E+04  0.20900847958E+04  0.10100000352E+00 0. -1.
       -3   -1    0    0    0  501  0.00000000000E+00  0.00000000000E+00 -0.93732462950E+03  0.93732463494E+03  0.10100000352E+00 0.  1.
    10030    2    1    2    0    0  0.00000000000E+00  0.00000000000E+00  0.11527601639E+04  0.30274094308E+04  0.27993484717E+04 0.  0.
        2    1    3    3  502    0 -0.40608414719E+03  0.11906301075E+04  0.12400389236E+04  0.17664090465E+04  0.25500000920E-02 0. -1.
       -2    1    3    3    0  502  0.40608414719E+03 -0.11906301075E+04 -0.87278759687E+02  0.12610003843E+04  0.25500000920E-02 0.  1.
</event>
<event>
 5   0  0.1374680E-07  0.2799788E+04  0.7818609E-02  0.8303334E-01
        1   -1    0    0  501    0  0.00000000000E+00  0.00000000000E+00  0.23378607182E+04  0.23378607182E+04  0.50400001928E-02 0. -1.
       -1   -1    0    0    0  501  0.00000000000E+00  0.00000000000E+00 -0.83824660700E+03  0.83824660701E+03  0.50400001928E-02 0.  1.
    10030    2    1    2    0    0  0.00000000000E+00  0.00000000000E+00  0.14996141112E+04  0.31761073252E+04  0.27997884311E+04 0.  0.
        3    1    3    3  502    0 -0.11875551990E+04  0.56156501065E+03  0.12986330357E+04  0.18471844476E+04  0.10100000352E+00 0. -1.
       -3    1    3    3    0  502  0.11875551990E+04 -0.56156501065E+03  0.20098107550E+03  0.13289228776E+04  0.10100000352E+00 0.  1.
</event>
<event>
 5   0  0.1374680E-07  0.2799151E+04  0.7818609E-02  0.8303532E-01
        1   -1    0    0  501    0  0.00000000000E+00  0.00000000000E+00  0.16959550965E+04  0.16959550965E+04  0.50400001928E-02 0. -1.
       -1   -1    0    0    0  501  0.00000000000E+00  0.00000000000E+00 -0.11549903248E+04  0.11549903248E+04  0.50400001928E-02 0.  1.
    10030    2    1    2    0    0  0.00000000000E+00  0.00000000000E+00  0.54096477173E+03  0.28509454213E+04  0.27991511055E+04 0.  0.
        3    1    3    3  502    0 -0.92848452581E+03  0.72243749933E+03  0.10426748731E+04  0.15719956604E+04  0.10100000352E+00 0.  1.
       -3    1    3    3    0  502  0.92848452581E+03 -0.72243749933E+03 -0.50171010133E+03  0.12789497610E+04  0.10100000352E+00 0. -1.
</event>
<event>
 5   0  0.3406920E-07  0.2800014E+04  0.7818609E-02  0.8303264E-01
       -2   -1    0    0    0  501  0.00000000000E+00  0.00000000000E+00  0.95695207389E+03  0.95695207389E+03  0.25500000920E-02 0. -1.
        2   -1    0    0  501    0  0.00000000000E+00  0.00000000000E+00 -0.20481898459E+04  0.20481898459E+04  0.25500000920E-02 0.  1.
    10030    2    1    2    0    0  0.00000000000E+00  0.00000000000E+00 -0.10912377720E+04  0.30051419198E+04  0.28000139434E+04 0.  0.
        4    1    3    3  502    0  0.35307606502E+03 -0.57447911542E+03  0.77118317934E+03  0.10244091325E+04  0.12699999809E+01 0. -1.
       -4    1    3    3    0  502 -0.35307606502E+03  0.57447911542E+03 -0.18624209514E+04  0.19807327873E+04  0.12699999809E+01 0.  1.
</event>
<event>
 5   0  0.3571498E-07  0.2797486E+04  0.7818609E-02  0.8304049E-01
       -2   -1    0    0    0  501  0.00000000000E+00  0.00000000000E+00  0.94522379945E+03  0.94522379945E+03  0.25500000920E-02 0. -1.
        2   -1    0    0  501    0  0.00000000000E+00  0.00000000000E+00 -0.20698615749E+04  0.20698615749E+04  0.25500000920E-02 0.  1.
    10030    2    1    2    0    0  0.00000000000E+00  0.00000000000E+00 -0.11246377754E+04  0.30150853743E+04  0.27974863161E+04 0.  0.
        2    1    3    3  502    0  0.24313380027E+02  0.83804604952E+03  0.64439957007E+03  0.10574323276E+04  0.25500000920E-02 0. -1.
       -2    1    3    3    0  502 -0.24313380027E+02 -0.83804604952E+03 -0.17690373455E+04  0.19576530467E+04  0.25500000920E-02 0.  1.
</event>
<event>
 5   0  0.1374680E-07  0.2804488E+04  0.7818609E-02  0.8301877E-01
        1   -1    0    0  501    0  0.00000000000E+00  0.00000000000E+00  0.89566616998E+03  0.89566616999E+03  0.50400001928E-02 0. -1.
       -1   -1    0    0    0  501  0.00000000000E+00  0.00000000000E+00 -0.21953353787E+04  0.21953353787E+04  0.50400001928E-02 0.  1.
    10030    2    1    2    0    0  0.00000000000E+00  0.00000000000E+00 -0.12996692088E+04  0.30910015487E+04  0.28044875685E+04 0.  0.
        3    1    3    3  502    0  0.77289381405E+03 -0.10892167857E+04 -0.11207168483E+04  0.17434919898E+04  0.10100000352E+00 0.  1.
       -3    1    3    3    0  502 -0.77289381405E+03  0.10892167857E+04 -0.17895236043E+03  0.13475095590E+04  0.10100000352E+00 0. -1.
</event>
<event>
 5   0  0.3502141E-07  0.2799642E+04  0.7818609E-02  0.8303380E-01
        2   -1    0    0  501    0  0.00000000000E+00  0.00000000000E+00  0.16298361116E+04  0.16298361116E+04  0.25500000920E-02 0. -1.
       -2   -1    0    0    0  501  0.00000000000E+00  0.00000000000E+00 -0.12022671297E+04  0.12022671297E+04  0.25500000920E-02 0.  1.
    10030    2    1    2    0    0  0.00000000000E+00  0.00000000000E+00  0.42756898194E+03  0.28321032412E+04  0.27996416797E+04 0.  0.
        3    1    3    3  502    0 -0.11562574705E+04  0.61326282444E+03 -0.28843518479E+03  0.13402303891E+04  0.10100000352E+00 0.  1.
       -3    1    3    3    0  502  0.11562574705E+04 -0.61326282444E+03  0.71600416673E+03  0.14918728521E+04  0.10100000352E+00 0. -1.
</event>
<event>
 5   0  0.1346049E-07  0.2793380E+04  0.7818609E-02  0.8305327E-01
        1   -1    0    0  501    0  0.00000000000E+00  0.00000000000E+00  0.11701103035E+04  0.11701103035E+04  0.50400001928E-02 0. -1.
       -1   -1    0    0    0  501  0.00000000000E+00  0.00000000000E+00 -0.16671442710E+04  0.16671442710E+04  0.50400001928E-02 0.  1.
    10030    2    1    2    0    0  0.00000000000E+00  0.00000000000E+00 -0.49703396752E+03  0.28372545745E+04  0.27933798087E+04 0.  0.
        1    1    3    3  502    0 -0.61695940470E+03  0.12424793421E+04 -0.41338988579E+03  0.14475099379E+04  0.50400001928E-02 0.  1.
       -1    1    3    3    0  502  0.61695940470E+03 -0.12424793421E+04 -0.83644081729E+02  0.13897446366E+04  0.50400001928E-02 0. -1.
</event>
<event>
 5   0  0.1357902E-07  0.2800411E+04  0.7818609E-02  0.8303141E-01
       -1   -1    0    0    0  501  0.00000000000E+00  0.00000000000E+00  0.11132378577E+04  0.11132378578E+04  0.50400001928E-02 0.  1.
        1   -1    0    0  501    0  0.00000000000E+00  0.00000000000E+00 -0.17611470516E+04  0.17611470516E+04  0.50400001928E-02 0. -1.
    10030    2    1    2    0    0  0.00000000000E+00  0.00000000000E+00 -0.64790919383E+03  0.28743849093E+04  0.28004110919E+04 0.  0.
        4    1    3    3  502    0  0.61435331160E+03  0.12274070204E+04 -0.39847033915E+02  0.13731523529E+04  0.12699999809E+01 0.  1.
       -4    1    3    3    0  502 -0.61435331160E+03 -0.12274070204E+04 -0.60806215991E+03  0.15012325564E+04  0.12699999809E+01 0. -1.
</event>
<event>
 5   0  0.1361741E-07  0.2799391E+04  0.7818609E-02  0.8303458E-01
       -1   -1    0    0    0  501  0.00000000000E+00  0.00000000000E+00  0.92696844319E+03  0.92696844320E+03  0.50400001928E-02 0. -1.
        1   -1    0    0  501    0  0.00000000000E+00  0.00000000000E+00 -0.21134991989E+04  0.21134991989E+04  0.50400001928E-02 0.  1.
    10030    2    1    2    0    0  0.00000000000E+00  0.00000000000E+00 -0.11865307557E+04  0.30404676421E+04  0.27993906924E+04 0.  0.
        5    1    3    3  502    0 -0.29581623014E+03  0.13526529721E+04 -0.37081621337E+03  0.14334238937E+04  0.46999998093E+01 0. -1.
       -5    1    3    3    0  502  0.29581623014E+03 -0.13526529721E+04 -0.81571454237E+03  0.16070437485E+04  0.46999998093E+01 0.  1.
</event>
<event>
 5   0  0.3502141E-07  0.2799450E+04  0.7818609E-02  0.8303439E-01
        2   -1    0    0  501    0  0.00000000000E+00  0.00000000000E+00  0.23016811028E+04  0.23016811028E+04  0.25500000920E-02 0. -1.
       -2   -1    0    0    0  501  0.00000000000E+00  0.00000000000E+00 -0.85121709327E+03  0.85121709327E+03  0.25500000920E-02 0.  1.
    10030    2    1    2    0    0  0.00000000000E+00  0.00000000000E+00  0.14504640096E+04  0.31528981961E+04  0.27994501589E+04 0.  0.
        3    1    3    3  502    0 -0.69529222437E+03  0.11748008830E+04  0.10735382779E+04  0.17366844378E+04  0.10100000352E+00 0. -1.
       -3    1    3    3    0  502  0.69529222437E+03 -0.11748008830E+04  0.37692573164E+03  0.14162137584E+04  0.10100000352E+00 0.  1.
</event>
<event>
 5   0  0.1346049E-07  0.2797947E+04  0.7818609E-02  0.8303906E-01
        1   -1    0    0  501    0  0.00000000000E+00  0.00000000000E+00  0.16481646848E+04  0.16481646848E+04  0.50400001928E-02 0. -1.
       -1   -1    0    0    0  501  0.00000000000E+00  0.00000000000E+00 -0.11874585428E+04  0.11874585428E+04  0.50400001928E-02 0.  1.
    10030    2    1    2    0    0  0.00000000000E+00  0.00000000000E+00  0.46070614198E+03  0.28356232276E+04  0.27979472725E+04 0.  0.
        1    1    3    3  502    0  0.11260977917E+04 -0.41983215822E+03  0.95607648078E+03  0.15357205197E+04  0.50400001928E-02 0. -1.
       -1    1    3    3    0  502 -0.11260977917E+04  0.41983215822E+03 -0.49537033880E+03  0.12999027079E+04  0.50400001928E-02 0.  1.
</event>
<event>
 5   0  0.3522569E-07  0.2801153E+04  0.7818609E-02  0.8302911E-01
        2   -1    0    0  501    0  0.00000000000E+00  0.00000000000E+00  0.17320100704E+04  0.17320100704E+04  0.25500000920E-02 0.  1.
       -2   -1    0    0    0  501  0.00000000000E+00  0.00000000000E+00 -0.11325650735E+04  0.11325650735E+04  0.25500000920E-02 0. -1.
    10030    2    1    2    0    0  0.00000000000E+00  0.00000000000E+00  0.59944499691E+03  0.28645751440E+04  0.28011527004E+04 0.  0.
        1    1    3    3  502    0 -0.35574695538E+03  0.70010686320E+03 -0.88623689599E+03  0.11841120521E+04  0.50400001928E-02 0. -1.
       -1    1    3    3    0  502  0.35574695538E+03 -0.70010686320E+03  0.14856818929E+04  0.16804630919E+04  0.50400001928E-02 0.  1.
</event>
<event>
 5   0  0.1357902E-07  0.2799850E+04  0.7818609E-02  0.8303315E-01
        1   -1    0    0  501    0  0.00000000000E+00  0.00000000000E+00  0.19435377109E+04  0.19435377109E+04  0.50400001928E-02 0. -1.
       -1   -1    0    0    0  501  0.00000000000E+00  0.00000000000E+00 -0.10083623441E+04  0.10083623441E+04  0.50400001928E-02 0.  1.
    10030    2    1    2    0    0  0.00000000000E+00  0.00000000000E+00  0.93517536685E+03  0.29519000550E+04  0.27998501688E+04 0.  0.
        4    1    3    3  502    0  0.62478531709E+03  0.37357731962E+03  0.17282983496E+04  0.18753489021E+04  0.12699999809E+01 0. -1.
       -4    1    3    3    0  502 -0.62478531709E+03 -0.37357731962E+03 -0.79312298278E+03  0.10765511529E+04  0.12699999809E+01 0.  1.
</event>
<event>
 5   0  0.1361741E-07  0.2800942E+04  0.7818609E-02  0.8302976E-01
        1   -1    0    0  501    0  0.00000000000E+00  0.00000000000E+00  0.18105448497E+04  0.18105448497E+04  0.50400001928E-02 0. -1.
       -1   -1    0    0    0  501  0.00000000000E+00  0.00000000000E+00 -0.10832758388E+04  0.10832758388E+04  0.50400001928E-02 0.  1.
    10030    2    1    2    0    0  0.00000000000E+00  0.00000000000E+00  0.72726901099E+03  0.28938206885E+04  0.28009423348E+04 0.  0.
        5    1    3    3  502    0 -0.14563255867E+03 -0.12599609678E+04  0.97711470031E+03  0.16010889139E+04  0.46999998093E+01 0. -1.
       -5    1    3    3    0  502  0.14563255867E+03  0.12599609678E+04 -0.24984568932E+03  0.12927317746E+04  0.46999998093E+01 0.  1.
</event>
<event>
 5   0  0.1366235E-07  0.2802892E+04  0.7818609E-02  0.8302371E-01
       -1   -1    0    0    0  501  0.00000000000E+00  0.00000000000E+00  0.96059252222E+03  0.96059252224E+03  0.50400001928E-02 0. -1.
        1   -1    0    0  501    0  0.00000000000E+00  0.00000000000E+00 -0.20446239413E+04  0.20446239413E+04  0.50400001928E-02 0.  1.
    10030    2    1    2    0    0  0.00000000000E+00  0.00000000000E+00 -0.10840314191E+04  0.30052164635E+04  0.28028916988E+04 0.  0.
        2    1    3    3  502    0  0.36625816854E+03 -0.57741667015E+03  0.76960159216E+03  0.10294861182E+04  0.25500000920E-02 0. -1.
       -2    1    3    3    0  502 -0.36625816854E+03  0.57741667015E+03 -0.18536330112E+04  0.19757303453E+04  0.25500000920E-02 0.  1.
</event>
<event>
 5   0  0.1357902E-07  0.2798480E+04  0.7818609E-02  0.8303740E-01
        1   -1    0    0  501    0  0.00000000000E+00  0.00000000000E+00  0.17727770952E+04  0.17727770952E+04  0.50400001928E-02 0.  1.
       -1   -1    0    0    0  501  0.00000000000E+00  0.00000000000E+00 -0.11044096949E+04  0.11044096949E+04  0.50400001928E-02 0. -1.
    10030    2    1    2    0    0  0.00000000000E+00  0.00000000000E+00  0.66836740028E+03  0.28771867901E+04  0.27984797379E+04 0.  0.
        4    1    3    3  502    0 -0.10333249537E+04 -0.92071137290E+03  0.54588934286E+03  0.14877723884E+04  0.12699999809E+01 0. -1.
       -4    1    3    3    0  502  0.10333249537E+04  0.92071137290E+03  0.12247805742E+03  0.13894144017E+04  0.12699999809E+01 0.  1.
</event>
<event>
 5   0  0.1361741E-07  0.2803632E+04  0.7818609E-02  0.8302142E-01
        1   -1    0    0  501    0  0.00000000000E+00  0.00000000000E+00  0.21449244616E+04  0.21449244616E+04  0.50400001928E-02 0.  1.
       -1   -1    0    0    0  501  0.00000000000E+00  0.00000000000E+00 -0.91615735005E+03  0.91615735006E+03  0.50400001928E-02 0. -1.
    10030    2    1    2    0    0  0.00000000000E+00  0.00000000000E+00  0.12287671115E+04  0.30610818116E+04  0.28036321519E+04 0.  0.
        5    1    3    3  502    0 -0.11866578920E+04 -0.61509949346E+03  0.10757524189E+04  0.17157417336E+04  0.46999998093E+01 0.  1.
       -5    1    3    3    0  502  0.11866578920E+04  0.61509949346E+03  0.15301469262E+03  0.13453400781E+04  0.46999998093E+01 0. -1.
</event>
<event>
 5   0  0.3571498E-07  0.2800122E+04  0.7818609E-02  0.8303230E-01
        2   -1    0    0  501    0  0.00000000000E+00  0.00000000000E+00  0.12390485776E+04  0.12390485776E+04  0.25500000920E-02 0.  1.
       -2   -1    0    0    0  501  0.00000000000E+00  0.00000000000E+00 -0.15819972380E+04  0.15819972380E+04  0.25500000920E-02 0. -1.
    10030    2    1    2    0    0  0.00000000000E+00  0.00000000000E+00 -0.34294866037E+03  0.28210458157E+04  0.28001224456E+04 0.  0.
        2    1    3    3  502    0  0.96321301766E+03 -0.41956894108E+03  0.76083447388E+03  0.12971840696E+04  0.25500000920E-02 0. -1.
       -2    1    3    3    0  502 -0.96321301766E+03  0.41956894108E+03 -0.11037831342E+04  0.15238617461E+04  0.25500000920E-02 0.  1.
</event>
<event>
 5   0  0.1346049E-07  0.2799184E+04  0.7818609E-02  0.8303522E-01
        1   -1    0    0  501    0  0.00000000000E+00  0.00000000000E+00  0.64064040712E+03  0.64064040714E+03  0.50400001928E-02 0.  1.
       -1   -1    0    0    0  501  0.00000000000E+00  0.00000000000E+00 -0.30576567066E+04  0.30576567066E+04  0.50400001928E-02 0. -1.
    10030    2    1    2    0    0  0.00000000000E+00  0.00000000000E+00 -0.24170162995E+04  0.36982971137E+04  0.27991844794E+04 0.  0.
        1    1    3    3  502    0 -0.80909165052E+03  0.12208096314E+03  0.29170007616E+03  0.86868981516E+03  0.50400001928E-02 0.  1.
       -1    1    3    3    0  502  0.80909165052E+03 -0.12208096314E+03 -0.27087163756E+04  0.28296072986E+04  0.50400001928E-02 0. -1.
</event>
<event>
 5   0  0.1346049E-07  0.2799722E+04  0.7818609E-02  0.8303355E-01
       -1   -1    0    0    0  501  0.00000000000E+00  0.00000000000E+00  0.24329981442E+04  0.24329981442E+04  0.50400001928E-02 0. -1.
        1   -1    0    0  501    0  0.00000000000E+00  0.00000000000E+00 -0.80543067856E+03  0.80543067857E+03  0.50400001928E-02 0.  1.
    10030    2    1    2    0    0  0.00000000000E+00  0.00000000000E+00  0.16275674656E+04  0.32384288227E+04  0.27997223764E+04 0.  0.
        1    1    3    3  502    0 -0.75608082702E+03 -0.16566529300E+03  0.21629639360E+04  0.22972845263E+04  0.50400001928E-02 0. -1.
       -1    1    3    3    0  502  0.75608082702E+03  0.16566529300E+03 -0.53539647036E+03  0.94114429648E+03  0.50400001928E-02 0.  1.
</event>
<event>
 5   0  0.1346049E-07  0.2807645E+04  0.7818609E-02  0.8300899E-01
        1   -1    0    0  501    0  0.00000000000E+00  0.00000000000E+00  0.18836402919E+04  0.18836402919E+04  0.50400001928E-02 0. -1.
       -1   -1    0    0    0  501  0.00000000000E+00  0.00000000000E+00 -0.10462284852E+04  0.10462284852E+04  0.50400001928E-02 0.  1.
    10030    2    1    2    0    0  0.00000000000E+00  0.00000000000E+00  0.83741180676E+03  0.29298687771E+04  0.28076453688E+04 0.  0.
        1    1    3    3  502    0 -0.40376139029E+03 -0.32882938342E+03 -0.94172017589E+03  0.10760989329E+04  0.50400001928E-02 0.  1.
       -1    1    3    3    0  502  0.40376139029E+03  0.32882938342E+03  0.17791319826E+04  0.18537698442E+04  0.50400001928E-02 0. -1.
</event>
<event>
 5   0  0.3406920E-07  0.2801295E+04  0.7818609E-02  0.8302866E-01
        2   -1    0    0  501    0  0.00000000000E+00  0.00000000000E+00  0.11934568894E+04  0.11934568894E+04  0.25500000920E-02 0.  1.
       -2   -1    0    0    0  501  0.00000000000E+00  0.00000000000E+00 -0.16438072759E+04  0.16438072759E+04  0.25500000920E-02 0. -1.
    10030    2    1    2    0    0  0.00000000000E+00  0.00000000000E+00 -0.45035038649E+03  0.28372641652E+04  0.28012947850E+04 0.  0.
        4    1    3    3  502    0 -0.44497166523E+03 -0.12900855192E+03  0.11136021615E+04  0.12061319896E+04  0.12699999809E+01 0.  1.
       -4    1    3    3    0  502  0.44497166523E+03  0.12900855192E+03 -0.15639525479E+04  0.16311321757E+04  0.12699999809E+01 0. -1.
</event>
<event>
 5   0  0.1374680E-07  0.2798469E+04  0.7818609E-02  0.8303744E-01
       -1   -1    0    0    0  501  0.00000000000E+00  0.00000000000E+00  0.25226170082E+04  0.25226170082E+04  0.50400001928E-02 0.  1.
        1   -1    0    0  501    0  0.00000000000E+00  0.00000000000E+00 -0.77612120382E+03  0.77612120384E+03  0.50400001928E-02 0. -1.
    10030    2    1    2    0    0  0.00000000000E+00  0.00000000000E+00  0.17464958044E+04  0.32987382121E+04  0.27984685449E+04 0.  0.
        3    1    3    3  502    0  0.11039693487E+04 -0.38980309915E+02 -0.13911113491E+03  0.11133821022E+04  0.10100000352E+00 0. -1.
       -3    1    3    3    0  502 -0.11039693487E+04  0.38980309915E+02  0.18856069393E+04  0.21853561099E+04  0.10100000352E+00 0.  1.
</event>
<event>
 5   0  0.3406920E-07  0.2796907E+04  0.7818609E-02  0.8304229E-01
       -2   -1    0    0    0  501  0.00000000000E+00  0.00000000000E+00  0.62124957703E+03  0.62124957704E+03  0.25500000920E-02 0.  1.
        2   -1    0    0  501    0  0.00000000000E+00  0.00000000000E+00 -0.31479653152E+04  0.31479653152E+04  0.25500000920E-02 0. -1.
    10030    2    1    2    0    0  0.00000000000E+00  0.00000000000E+00 -0.25267157381E+04  0.37692148922E+04  0.27969069492E+04 0.  0.
        4    1    3    3  502    0 -0.66007110063E+03 -0.72604162227E+03 -0.26061616635E+04  0.27847639980E+04  0.12699999809E+01 0. -1.
       -4    1    3    3    0  502  0.66007110063E+03  0.72604162227E+03  0.79445925401E+02  0.98445089421E+03  0.12699999809E+01 0.  1.
</event>
<event>
 5   0  0.3502141E-07  0.2794906E+04  0.7818609E-02  0.8304851E-01
       -2   -1    0    0    0  501  0.00000000000E+00  0.00000000000E+00  0.10642534774E+04  0.10642534774E+04  0.25500000920E-02 0.  1.
        2   -1    0    0  501    0  0.00000000000E+00  0.00000000000E+00 -0.18349721491E+04  0.18349721491E+04  0.25500000920E-02 0. -1.
    10030    2    1    2    0    0  0.00000000000E+00  0.00000000000E+00 -0.77071867167E+03  0.28992256265E+04  0.27949064318E+04 0.  0.
        3    1    3    3  502    0  0.85248019190E+03  0.10088854668E+04 -0.85879680553E+03  0.15754695574E+04  0.10100000352E+00 0. -1.
       -3    1    3    3    0  502 -0.85248019190E+03 -0.10088854668E+04  0.88078133863E+02  0.13237560692E+04  0.10100000352E+00 0.  1.
</event>
<event>
 5   0  0.3522569E-07  0.2798247E+04  0.7818609E-02  0.8303813E-01
       -2   -1    0    0    0  501  0.00000000000E+00  0.00000000000E+00  0.14444645599E+04  0.14444645599E+04  0.25500000920E-02 0. -1.
        2   -1    0    0  501    0  0.00000000000E+00  0.00000000000E+00 -0.13552060984E+04  0.13552060984E+04  0.25500000920E-02 0.  1.
    10030    2    1    2    0    0  0.00000000000E+00  0.00000000000E+00  0.89258461479E+02  0.27996706583E+04  0.27982474376E+04 0.  0.
        1    1    3    3  502    0 -0.44826001340E+03  0.86240629828E+03  0.10515533041E+04  0.14319378528E+04  0.50400001928E-02 0. -1.
       -1    1    3    3    0  502  0.44826001340E+03 -0.86240629828E+03 -0.96229484265E+03  0.13677328055E+04  0.50400001928E-02 0.  1.
</event>
<event>
 5   0  0.3406920E-07  0.2799707E+04  0.7818609E-02  0.8303359E-01
        2   -1    0    0  501    0  0.00000000000E+00  0.00000000000E+00  0.21804245376E+04  0.21804245376E+04  0.25500000920E-02 0. -1.
       -2   -1    0    0    0  501  0.00000000000E+00  0.00000000000E+00 -0.89871963288E+03  0.89871963289E+03  0.25500000920E-02 0.  1.
    10030    2    1    2    0    0  0.00000000000E+00  0.00000000000E+00  0.12817049047E+04  0.30791441705E+04  0.27997073704E+04 0.  0.
        4    1    3    3  502    0 -0.92534966626E+03 -0.75767096592E+03  0.14409600659E+04  0.18726197750E+04  0.12699999809E+01 0.  1.
       -4    1    3    3    0  502  0.92534966626E+03  0.75767096592E+03 -0.15925516122E+03  0.12065243954E+04  0.12699999809E+01 0. -1.
</event>
<event>
 5   0  0.1374680E-07  0.2782868E+04  0.7818609E-02  0.8308607E-01
       -1   -1    0    0    0  501  0.00000000000E+00  0.00000000000E+00  0.12761816855E+04  0.12761816855E+04  0.50400001928E-02 0. -1.
        1   -1    0    0  501    0  0.00000000000E+00  0.00000000000E+00 -0.15170948865E+04  0.15170948865E+04  0.50400001928E-02 0.  1.
    10030    2    1    2    0    0  0.00000000000E+00  0.00000000000E+00 -0.24091320100E+03  0.27932765720E+04  0.27828680956E+04 0.  0.
        3    1    3    3  502    0  0.14990603548E+03 -0.10603053692E+04 -0.10122442665E+04  0.14735527682E+04  0.10100000352E+00 0.  1.
       -3    1    3    3    0  502 -0.14990603548E+03  0.10603053692E+04  0.77133106550E+03  0.13197238038E+04  0.10100000352E+00 0. -1.
</event>
<event>
 5   0  0.3502141E-07  0.2802334E+04  0.7818609E-02  0.8302544E-01
       -2   -1    0    0    0  501  0.00000000000E+00  0.00000000000E+00  0.13484799795E+04  0.13484799796E+04  0.25500000920E-02 0. -1.
        2   -1    0    0  501    0  0.00000000000E+00  0.00000000000E+00 -0.14559124529E+04  0.14559124529E+04  0.25500000920E-02 0.  1.
    10030    2    1    2    0    0  0.00000000000E+00  0.00000000000E+00 -0.10743247337E+03  0.28043924325E+04  0.28023338807E+04 0.  0.
        3    1    3    3  502    0 -0.24563196532E+03  0.55524446223E+03  0.12100008845E+04  0.13537849260E+04  0.10100000352E+00 0. -1.
       -3    1    3    3    0  502  0.24563196532E+03 -0.55524446223E+03 -0.13174333579E+04  0.14506075065E+04  0.10100000352E+00 0.  1.
</event>
<event>
 5   0  0.1374680E-07  0.2799438E+04  0.7818609E-02  0.8303443E-01
        1   -1    0    0  501    0  0.00000000000E+00  0.00000000000E+00  0.11178528573E+04  0.11178528573E+04  0.50400001928E-02 0. -1.
       -1   -1    0    0    0  501  0.00000000000E+00  0.00000000000E+00 -0.17526574781E+04  0.17526574781E+04  0.50400001928E-02 0.  1.
    10030    2    1    2    0    0  0.00000000000E+00  0.00000000000E+00 -0.63480462076E+03  0.28705103354E+04  0.27994379220E+04 0.  0.
        3    1    3    3  502    0  0.46731022989E+03  0.50857753662E+03 -0.15657605048E+04  0.17113257815E+04  0.10100000352E+00 0.  1.
       -3    1    3    3    0  502 -0.46731022989E+03 -0.50857753662E+03  0.93095588406E+03  0.11591845539E+04  0.10100000352E+00 0. -1.
</event>
<event>
 5   0  0.3406920E-07  0.2799473E+04  0.7818609E-02  0.8303432E-01
        2   -1    0    0  501    0  0.00000000000E+00  0.00000000000E+00  0.18306687335E+04  0.18306687336E+04  0.25500000920E-02 0. -1.
       -2   -1    0    0    0  501  0.00000000000E+00  0.00000000000E+00 -0.10702442924E+04  0.10702442924E+04  0.25500000920E-02 0.  1.
    10030    2    1    2    0    0  0.00000000000E+00  0.00000000000E+00  0.76042444114E+03  0.29009130260E+04  0.27994733529E+04 0.  0.
        4    1    3    3  502    0  0.80031309369E+03  0.88328207558E+03  0.11406796349E+04  0.16497999622E+04  0.12699999809E+01 0. -1.
       -4    1    3    3    0  502 -0.80031309369E+03 -0.88328207558E+03 -0.38025519377E+03  0.12511130637E+04  0.12699999809E+01 0.  1.
</event>
<event>
 5   0  0.3571498E-07  0.2800265E+04  0.7818609E-02  0.8303186E-01
        2   -1    0    0  501    0  0.00000000000E+00  0.00000000000E+00  0.28501870605E+04  0.28501870605E+04  0.25500000920E-02 0. -1.
       -2   -1    0    0    0  501  0.00000000000E+00  0.00000000000E+00 -0.68780437095E+03  0.68780437095E+03  0.25500000920E-02 0.  1.
    10030    2    1    2    0    0  0.00000000000E+00  0.00000000000E+00  0.21623826896E+04  0.35379914315E+04  0.28002650719E+04 0.  0.
        2    1    3    3  502    0 -0.50312786399E+03  0.16655057926E+03 -0.55617896154E+03  0.76825241961E+03  0.25500000920E-02 0.  1.
       -2    1    3    3    0  502  0.50312786399E+03 -0.16655057926E+03  0.27185616511E+04  0.27697390119E+04  0.25500000920E-02 0. -1.
</event>
<event>
 5   0  0.3522569E-07  0.2799362E+04  0.7818609E-02  0.8303466E-01
        2   -1    0    0  501    0  0.00000000000E+00  0.00000000000E+00  0.24597870102E+04  0.24597870102E+04  0.25500000920E-02 0. -1.
       -2   -1    0    0    0  501  0.00000000000E+00  0.00000000000E+00 -0.79645401162E+03  0.79645401163E+03  0.25500000920E-02 0.  1.
    10030    2    1    2    0    0  0.00000000000E+00  0.00000000000E+00  0.16633329986E+04  0.32562410218E+04  0.27993622360E+04 0.  0.
        1    1    3    3  502    0  0.81095396024E+03  0.88217507358E+03 -0.97343597120E+01  0.11983213024E+04  0.50400001928E-02 0.  1.
       -1    1    3    3    0  502 -0.81095396024E+03 -0.88217507358E+03  0.16730673583E+04  0.20579197194E+04  0.50400001928E-02 0. -1.
</event>
<event>
 5   0  0.3502141E-07  0.2799849E+04  0.7818609E-02  0.8303315E-01
        2   -1    0    0  501    0  0.00000000000E+00  0.00000000000E+00  0.18636739651E+04  0.18636739651E+04  0.25500000920E-02 0. -1.
       -2   -1    0    0    0  501  0.00000000000E+00  0.00000000000E+00 -0.10515723431E+04  0.10515723431E+04  0.25500000920E-02 0.  1.
    10030    2    1    2    0    0  0.00000000000E+00  0.00000000000E+00  0.81210162194E+03  0.29152463082E+04  0.27998485661E+04 0.  0.
        3    1    3    3  502    0 -0.58512077241E+03  0.65207720418E+03  0.15429405970E+04  0.17743271103E+04  0.10100000352E+00 0. -1.
       -3    1    3    3    0  502  0.58512077241E+03 -0.65207720418E+03 -0.73083897502E+03  0.11409191979E+04  0.10100000352E+00 0.  1.
</event>
<event>
 5   0  0.3571498E-07  0.2799141E+04  0.7818609E-02  0.8303535E-01
       -2   -1    0    0    0  501  0.00000000000E+00  0.00000000000E+00  0.10890059729E+04  0.10890059729E+04  0.25500000920E-02 0.  1.
        2   -1    0    0  501    0  0.00000000000E+00  0.00000000000E+00 -0.17987019996E+04  0.17987019996E+04  0.25500000920E-02 0. -1.
    10030    2    1    2    0    0  0.00000000000E+00  0.00000000000E+00 -0.70969602672E+03  0.28877079726E+04  0.27991407404E+04 0.  0.
        2    1    3    3  502    0  0.90606985475E+03 -0.33023814263E+03  0.69153154295E+03  0.11866910665E+04  0.25500000920E-02 0.  1.
       -2    1    3    3    0  502 -0.90606985475E+03  0.33023814263E+03 -0.14012275697E+04  0.17010169060E+04  0.25500000920E-02 0. -1.
</event>
<event>
 5   0  0.1366235E-07  0.2798548E+04  0.7818609E-02  0.8303719E-01
        1   -1    0    0  501    0  0.00000000000E+00  0.00000000000E+00  0.14882459354E+04  0.14882459354E+04  0.50400001928E-02 0. -1.
       -1   -1    0    0    0  501  0.00000000000E+00  0.00000000000E+00 -0.13156209246E+04  0.13156209246E+04  0.50400001928E-02 0.  1.
    10030    2    1    2    0    0  0.00000000000E+00  0.00000000000E+00  0.17262501075E+03  0.28038668600E+04  0.27985478331E+04 0.  0.
        2    1    3    3  502    0  0.52768129657E+03 -0.10465293293E+04  0.85215810875E+03  0.14490840659E+04  0.25500000920E-02 0.  1.
       -2    1    3    3    0  502 -0.52768129657E+03  0.10465293293E+04 -0.67953309799E+03  0.13547827941E+04  0.25500000920E-02 0. -1.
</event>
<event>
 5   0  0.1366235E-07  0.2801973E+04  0.7818609E-02  0.8302656E-01
       -1   -1    0    0    0  501  0.00000000000E+00  0.00000000000E+00  0.96987140298E+03  0.96987140299E+03  0.50400001928E-02 0. -1.
        1   -1    0    0  501    0  0.00000000000E+00  0.00000000000E+00 -0.20237353378E+04  0.20237353378E+04  0.50400001928E-02 0.  1.
    10030    2    1    2    0    0  0.00000000000E+00  0.00000000000E+00 -0.10538639348E+04  0.29936067408E+04  0.28019728988E+04 0.  0.
        2    1    3    3  502    0 -0.81720184020E+03 -0.88485626204E+03  0.23752772689E+03  0.12276843540E+04  0.25500000920E-02 0. -1.
       -2    1    3    3    0  502  0.81720184020E+03  0.88485626204E+03 -0.12913916617E+04  0.17659223867E+04  0.25500000920E-02 0.  1.
</event>
<event>
 5   0  0.1357902E-07  0.2800275E+04  0.7818609E-02  0.8303183E-01
       -1   -1    0    0    0  501  0.00000000000E+00  0.00000000000E+00  0.10032464211E+04  0.10032464212E+04  0.50400001928E-02 0. -1.
        1   -1    0    0  501    0  0.00000000000E+00  0.00000000000E+00 -0.19540410832E+04  0.19540410833E+04  0.50400001928E-02 0.  1.
    10030    2    1    2    0    0  0.00000000000E+00  0.00000000000E+00 -0.95079466210E+03  0.29572875044E+04  0.28002747891E+04 0.  0.
        4    1    3    3  502    0 -0.68601778229E+03  0.64365069047E+03 -0.15705971434E+04  0.18307603908E+04  0.12699999809E+01 0.  1.
       -4    1    3    3    0  502  0.68601778229E+03 -0.64365069047E+03  0.61980248127E+03  0.11265271136E+04  0.12699999809E+01 0. -1.
</event>
<event>
 5   0  0.1361741E-07  0.2800264E+04  0.7818609E-02  0.8303186E-01
        1   -1    0    0  501    0  0.00000000000E+00  0.00000000000E+00  0.16962989217E+04  0.16962989217E+04  0.50400001928E-02 0.  1.
       -1   -1    0    0    0  501  0.00000000000E+00  0.00000000000E+00 -0.11556745874E+04  0.11556745874E+04  0.50400001928E-02 0. -1.
    10030    2    1    2    0    0  0.00000000000E+00  0.00000000000E+00  0.54062433438E+03  0.28519735091E+04  0.28002639565E+04 0.  0.
        5    1    3    3  502    0 -0.59452289058E+03  0.25981055185E+02  0.15610806522E+04  0.16706667457E+04  0.46999998093E+01 0.  1.
       -5    1    3    3    0  502  0.59452289058E+03 -0.25981055185E+02 -0.10204563178E+04  0.11813067634E+04  0.46999998093E+01 0. -1.
</event>
<event>
 5   0  0.1361741E-07  0.2799824E+04  0.7818609E-02  0.8303323E-01
       -1   -1    0    0    0  501  0.00000000000E+00  0.00000000000E+00  0.10655894880E+04  0.10655894881E+04  0.50400001928E-02 0. -1.
        1   -1    0    0  501    0  0.00000000000E+00  0.00000000000E+00 -0.18391268669E+04  0.18391268669E+04  0.50400001928E-02 0.  1.
    10030    2    1    2    0    0  0.00000000000E+00  0.00000000000E+00 -0.77353737889E+03  0.29047163550E+04  0.27998244635E+04 0.  0.
        5    1    3    3  502    0  0.58296224120E+02  0.87202090977E+03 -0.15213164030E+04  0.17544926916E+04  0.46999998093E+01 0.  1.
       -5    1    3    3    0  502 -0.58296224120E+02 -0.87202090977E+03  0.74777902415E+03  0.11502236634E+04  0.46999998093E+01 0. -1.
</event>
<event>
 5   0  0.3502141E-07  0.2792365E+04  0.7818609E-02  0.8305643E-01
        2   -1    0    0  501    0  0.00000000000E+00  0.00000000000E+00  0.22801903362E+04  0.22801903362E+04  0.25500000920E-02 0. -1.
       -2   -1    0    0    0  501  0.00000000000E+00  0.00000000000E+00 -0.85489592252E+03  0.85489592252E+03  0.25500000920E-02 0.  1.
    10030    2    1    2    0    0  0.00000000000E+00  0.00000000000E+00  0.14252944137E+04  0.31350862587E+04  0.27923648909E+04 0.  0.
        3    1    3    3  502    0 -0.95562787458E+02 -0.76118890456E+03  0.20223477905E+04  0.21629681899E+04  0.10100000352E+00 0. -1.
       -3    1    3    3    0  502  0.95562787458E+02  0.76118890456E+03 -0.59705337679E+03  0.97211806881E+03  0.10100000352E+00 0.  1.
</event>
<event>
 5   0  0.3502141E-07  0.2799800E+04  0.7818609E-02  0.8303330E-01
        2   -1    0    0  501    0  0.00000000000E+00  0.00000000000E+00  0.18903818069E+04  0.18903818069E+04  0.25500000920E-02 0. -1.
       -2   -1    0    0    0  501  0.00000000000E+00  0.00000000000E+00 -0.10366794635E+04  0.10366794635E+04  0.25500000920E-02 0.  1.
    10030    2    1    2    0    0  0.00000000000E+00  0.00000000000E+00  0.85370234343E+03  0.29270612704E+04  0.27997999910E+04 0.  0.
        3    1    3    3  502    0  0.73438944670E+03 -0.11666212103E+04  0.17207970367E+03  0.13892243672E+04  0.10100000352E+00 0.  1.
       -3    1    3    3    0  502 -0.73438944670E+03  0.11666212103E+04  0.68162263976E+03  0.15378369033E+04  0.10100000352E+00 0. -1.
</event>
<event>
 5   0  0.1173363E-07  0.2799208E+04  0.7818609E-02  0.8303514E-01
       -3   -1    0    0    0  501  0.00000000000E+00  0.00000000000E+00  0.17253177422E+04  0.17253177452E+04  0.10100000352E+00 0. -1.
        3   -1    0    0  501    0  0.00000000000E+00  0.00000000000E+00 -0.11353804412E+04  0.11353804457E+04  0.10100000352E+00 0.  1.
    10030    2    1    2    0    0  0.00000000000E+00  0.00000000000E+00  0.58993730104E+03  0.28606981909E+04  0.27992084810E+04 0.  0.
        2    1    3    3  502    0  0.40899401557E+03 -0.11011824863E+04  0.10726129178E+04  0.15907160162E+04  0.25500000920E-02 0. -1.
       -2    1    3    3    0  502 -0.40899401557E+03  0.11011824863E+04 -0.48267561679E+03  0.12699821746E+04  0.25500000920E-02 0.  1.
</event>
<event>
 5   0  0.3522569E-07  0.2794647E+04  0.7818609E-02  0.8304932E-01
       -2   -1    0    0    0  501  0.00000000000E+00  0.00000000000E+00  0.18188517809E+04  0.18188517809E+04  0.25500000920E-02 0.  1.
        2   -1    0    0  501    0  0.00000000000E+00  0.00000000000E+00 -0.10734863313E+04  0.10734863313E+04  0.25500000920E-02 0. -1.
    10030    2    1    2    0    0  0.00000000000E+00  0.00000000000E+00  0.74536544965E+03  0.28923381122E+04  0.27946466864E+04 0.  0.
        1    1    3    3  502    0  0.60539072942E+03 -0.21099101399E+01  0.16760749616E+04  0.17820577050E+04  0.50400001928E-02 0.  1.
       -1    1    3    3    0  502 -0.60539072942E+03  0.21099101399E+01 -0.93070951194E+03  0.11102804072E+04  0.50400001928E-02 0. -1.
</event>
<event>
 5   0  0.1366235E-07  0.2790922E+04  0.7818609E-02  0.8306092E-01
        1   -1    0    0  501    0  0.00000000000E+00  0.00000000000E+00  0.27246572985E+04  0.27246572985E+04  0.50400001928E-02 0. -1.
       -1   -1    0    0    0  501  0.00000000000E+00  0.00000000000E+00 -0.71469963115E+03  0.71469963117E+03  0.50400001928E-02 0.  1.
    10030    2    1    2    0    0  0.00000000000E+00  0.00000000000E+00  0.20099576674E+04  0.34393569297E+04  0.27909221174E+04 0.  0.
        2    1    3    3  502    0 -0.61148676256E+03 -0.18016728084E+03 -0.52477562247E+03  0.82569108256E+03  0.25500000920E-02 0.  1.
       -2    1    3    3    0  502  0.61148676256E+03  0.18016728084E+03  0.25347332899E+04  0.26136658472E+04  0.25500000920E-02 0. -1.
</event>
<event>
 5   0  0.3502141E-07  0.2799733E+04  0.7818609E-02  0.8303351E-01
       -2   -1    0    0    0  501  0.00000000000E+00  0.00000000000E+00  0.89319662837E+03  0.89319662837E+03  0.25500000920E-02 0.  1.
        2   -1    0    0  501    0  0.00000000000E+00  0.00000000000E+00 -0.21939465525E+04  0.21939465525E+04  0.25500000920E-02 0. -1.
    10030    2    1    2    0    0  0.00000000000E+00  0.00000000000E+00 -0.13007499241E+04  0.30871431808E+04  0.27997326040E+04 0.  0.
        3    1    3    3  502    0 -0.91650377993E+03  0.75963544410E+03  0.16185741834E+03  0.12013421747E+04  0.10100000352E+00 0.  1.
       -3    1    3    3    0  502  0.91650377993E+03 -0.75963544410E+03 -0.14626073424E+04  0.18858010062E+04  0.10100000352E+00 0. -1.
</event>
<event>
 5   0  0.3406920E-07  0.2801532E+04  0.7818609E-02  0.8302793E-01
        2   -1    0    0  501    0  0.00000000000E+00  0.00000000000E+00  0.23287723296E+04  0.23287723296E+04  0.25500000920E-02 0.  1.
       -2   -1    0    0    0  501  0.00000000000E+00  0.00000000000E+00 -0.84256671564E+03  0.84256671564E+03  0.25500000920E-02 0. -1.
    10030    2    1    2    0    0  0.00000000000E+00  0.00000000000E+00  0.14862056140E+04  0.31713390452E+04  0.28015324758E+04 0.  0.
        4    1    3    3  502    0 -0.50554775597E+03 -0.11455652765E+04  0.14538754739E+04  0.19187636235E+04  0.12699999809E+01 0.  1.
       -4    1    3    3    0  502  0.50554775597E+03  0.11455652765E+04  0.32330140040E+02  0.12525754217E+04  0.12699999809E+01 0. -1.
</event>
<event>
 5   0  0.3557628E-07  0.2799555E+04  0.7818609E-02  0.8303407E-01
        2   -1    0    0  501    0  0.00000000000E+00  0.00000000000E+00  0.19122889454E+04  0.19122889454E+04  0.25500000920E-02 0. -1.
       -2   -1    0    0    0  501  0.00000000000E+00  0.00000000000E+00 -0.10246239036E+04  0.10246239036E+04  0.25500000920E-02 0.  1.
    10030    2    1    2    0    0  0.00000000000E+00  0.00000000000E+00  0.88766504180E+03  0.29369128489E+04  0.27995549389E+04 0.  0.
        5    1    3    3  502    0  0.26473594816E+03 -0.65984446634E+03 -0.82109489012E+03  0.10861393790E+04  0.46999998093E+01 0.  1.
       -5    1    3    3    0  502 -0.26473594816E+03  0.65984446634E+03  0.17087599319E+04  0.18507734699E+04  0.46999998093E+01 0. -1.
</event>
<event>
 5   0  0.1346049E-07  0.2798001E+04  0.7818609E-02  0.8303889E-01
        1   -1    0    0  501    0  0.00000000000E+00  0.00000000000E+00  0.11130045029E+04  0.11130045030E+04  0.50400001928E-02 0.  1.
       -1   -1    0    0    0  501  0.00000000000E+00  0.00000000000E+00 -0.17584852536E+04  0.17584852536E+04  0.50400001928E-02 0. -1.
    10030    2    1    2    0    0  0.00000000000E+00  0.00000000000E+00 -0.64548075065E+03  0.28714897566E+04  0.27980007188E+04 0.  0.
        1    1    3    3  502    0 -0.10368487265E+04 -0.21818810764E+03 -0.12602661228E+04  0.16464908236E+04  0.50400001928E-02 0. -1.
       -1    1    3    3    0  502  0.10368487265E+04  0.21818810764E+03  0.61478537212E+03  0.12249989330E+04  0.50400001928E-02 0.  1.
</event>
<event>
 5   0  0.1374680E-07  0.2792761E+04  0.7818609E-02  0.8305519E-01
       -1   -1    0    0    0  501  0.00000000000E+00  0.00000000000E+00  0.15268089552E+04  0.15268089552E+04  0.50400001928E-02 0. -1.
        1   -1    0    0  501    0  0.00000000000E+00  0.00000000000E+00 -0.12770941437E+04  0.12770941437E+04  0.50400001928E-02 0.  1.
    10030    2    1    2    0    0  0.00000000000E+00  0.00000000000E+00  0.24971481149E+03  0.28039030988E+04  0.27927611965E+04 0.  0.
        3    1    3    3  502    0 -0.37273579429E+03  0.44264472925E+03 -0.11510440544E+04  0.12883201287E+04  0.10100000352E+00 0.  1.
       -3    1    3    3    0  502  0.37273579429E+03 -0.44264472925E+03  0.14007588659E+04  0.15155829701E+04  0.10100000352E+00 0. -1.
</event>
<event>
 5   0  0.1357902E-07  0.2801033E+04  0.7818609E-02  0.8302948E-01
        1   -1    0    0  501    0  0.00000000000E+00  0.00000000000E+00  0.28007387647E+04  0.28007387647E+04  0.50400001928E-02 0.  1.
       -1   -1    0    0    0  501  0.00000000000E+00  0.00000000000E+00 -0.70033177028E+03  0.70033177030E+03  0.50400001928E-02 0. -1.
    10030    2    1    2    0    0  0.00000000000E+00  0.00000000000E+00  0.21004069945E+04  0.35010705350E+04  0.28010329075E+04 0.  0.
        4    1    3    3  502    0  0.55083093201E+03 -0.61968982642E+03  0.24610177534E+04  0.25969289925E+04  0.12699999809E+01 0.  1.
       -4    1    3    3    0  502 -0.55083093201E+03  0.61968982642E+03 -0.36061075892E+03  0.90414154256E+03  0.12699999809E+01 0. -1.
</event>
<event>
 5   0  0.1361741E-07  0.2798960E+04  0.7818609E-02  0.8303591E-01
        1   -1    0    0  501    0  0.00000000000E+00  0.00000000000E+00  0.13081414076E+04  0.13081414076E+04  0.50400001928E-02 0.  1.
       -1   -1    0    0    0  501  0.00000000000E+00  0.00000000000E+00 -0.14971965007E+04  0.14971965007E+04  0.50400001928E-02 0. -1.
    10030    2    1    2    0    0  0.00000000000E+00  0.00000000000E+00 -0.18905509316E+03  0.28053379083E+04  0.27989603340E+04 0.  0.
        5    1    3    3  502    0 -0.18870919577E+02  0.13906589044E+04 -0.25055610808E+03  0.14131839064E+04  0.46999998093E+01 0. -1.
       -5    1    3    3    0  502  0.18870919577E+02 -0.13906589044E+04  0.61501014926E+02  0.13921540019E+04  0.46999998093E+01 0.  1.
</event>
<event>
 5   0  0.3502141E-07  0.2800350E+04  0.7818609E-02  0.8303160E-01
        2   -1    0    0  501    0  0.00000000000E+00  0.00000000000E+00  0.23786426253E+04  0.23786426253E+04  0.25500000920E-02 0.  1.
       -2   -1    0    0    0  501  0.00000000000E+00  0.00000000000E+00 -0.82420534348E+03  0.82420534348E+03  0.25500000920E-02 0. -1.
    10030    2    1    2    0    0  0.00000000000E+00  0.00000000000E+00  0.15544372818E+04  0.32028479688E+04  0.28003499510E+04 0.  0.
        3    1    3    3  502    0 -0.86345191367E+03 -0.80055176709E+03  0.16437848646E+04  0.20219943200E+04  0.10100000352E+00 0.  1.
       -3    1    3    3    0  502  0.86345191367E+03  0.80055176709E+03 -0.89347582760E+02  0.11808536487E+04  0.10100000352E+00 0. -1.
</event>
<event>
 5   0  0.1366235E-07  0.2799839E+04  0.7818609E-02  0.8303318E-01
       -1   -1    0    0    0  501  0.00000000000E+00  0.00000000000E+00  0.82973631087E+03  0.82973631088E+03  0.50400001928E-02 0.  1.
        1   -1    0    0  501    0  0.00000000000E+00  0.00000000000E+00 -0.23619241100E+04  0.23619241100E+04  0.50400001928E-02 0. -1.
    10030    2    1    2    0    0  0.00000000000E+00  0.00000000000E+00 -0.15321877991E+04  0.31916604209E+04  0.27998387079E+04 0.  0.
        2    1    3    3  502    0  0.12468568072E+04 -0.24361728842E+03 -0.14364092289E+04  0.19176216399E+04  0.25500000920E-02 0. -1.
       -2    1    3    3    0  502 -0.12468568072E+04  0.24361728842E+03 -0.95778570218E+02  0.12740387810E+04  0.25500000920E-02 0.  1.
</event>
<event>
 5   0  0.1357902E-07  0.2799078E+04  0.7818609E-02  0.8303555E-01
        1   -1    0    0  501    0  0.00000000000E+00  0.00000000000E+00  0.61992823291E+03  0.61992823293E+03  0.50400001928E-02 0.  1.
       -1   -1    0    0    0  501  0.00000000000E+00  0.00000000000E+00 -0.31595755700E+04  0.31595755700E+04  0.50400001928E-02 0. -1.
    10030    2    1    2    0    0  0.00000000000E+00  0.00000000000E+00 -0.25396473371E+04  0.37795038029E+04  0.27990784911E+04 0.  0.
        4    1    3    3  502    0 -0.54136802728E+03 -0.11092858790E+04 -0.37914463226E+03  0.12912578238E+04  0.12699999809E+01 0.  1.
       -4    1    3    3    0  502  0.54136802728E+03  0.11092858790E+04 -0.21605027048E+04  0.24882459791E+04  0.12699999809E+01 0. -1.
</event>
<event>
 5   0  0.1374680E-07  0.2799899E+04  0.7818609E-02  0.8303300E-01
        1   -1    0    0  501    0  0.00000000000E+00  0.00000000000E+00  0.19566935457E+04  0.19566935457E+04  0.50400001928E-02 0.  1.
       -1   -1    0    0    0  501  0.00000000000E+00  0.00000000000E+00 -0.10016175683E+04  0.10016175683E+04  0.50400001928E-02 0. -1.
    10030    2    1    2    0    0  0.00000000000E+00  0.00000000000E+00  0.95507597735E+03  0.29583111140E+04  0.27998990204E+04 0.  0.
        3    1    3    3  502    0 -0.11759087708E+04  0.28118533353E+03 -0.26810355540E+03  0.12384289062E+04  0.10100000352E+00 0. -1.
       -3    1    3    3    0  502  0.11759087708E+04 -0.28118533353E+03  0.12231795328E+04  0.17198822078E+04  0.10100000352E+00 0.  1.
</event>
<event>
 5   0  0.1357902E-07  0.2804496E+04  0.7818609E-02  0.8301874E-01
       -1   -1    0    0    0  501  0.00000000000E+00  0.00000000000E+00  0.11045868925E+04  0.11045868925E+04  0.50400001928E-02 0.  1.
        1   -1    0    0  501    0  0.00000000000E+00  0.00000000000E+00 -0.17801223070E+04  0.17801223070E+04  0.50400001928E-02 0. -1.
    10030    2    1    2    0    0  0.00000000000E+00  0.00000000000E+00 -0.67553541451E+03  0.28847091995E+04  0.28044962238E+04 0.  0.
        4    1    3    3  502    0  0.12029597204E+03  0.82268947539E+03 -0.14992265249E+04  0.17143426961E+04  0.12699999809E+01 0. -1.
       -4    1    3    3    0  502 -0.12029597204E+03 -0.82268947539E+03  0.82369111044E+03  0.11703665033E+04  0.12699999809E+01 0.  1.
</event>
<event>
 5   0  0.3571498E-07  0.2798662E+04  0.7818609E-02  0.8303684E-01
       -2   -1    0    0    0  501  0.00000000000E+00  0.00000000000E+00  0.11259613645E+04  0.11259613645E+04  0.25500000920E-02 0.  1.
        2   -1    0    0  501    0  0.00000000000E+00  0.00000000000E+00 -0.17390712291E+04  0.17390712291E+04  0.25500000920E-02 0. -1.
    10030    2    1    2    0    0  0.00000000000E+00  0.00000000000E+00 -0.61310986460E+03  0.28650325936E+04  0.27986618331E+04 0.  0.
        2    1    3    3  502    0 -0.43062549154E+03  0.10903845301E+04  0.47559982573E+03  0.12651371197E+04  0.25500000920E-02 0.  1.
       -2    1    3    3    0  502  0.43062549154E+03 -0.10903845301E+04 -0.10887096903E+04  0.15998954739E+04  0.25500000920E-02 0. -1.
</event>
<event>
 5   0  0.3557628E-07  0.2797500E+04  0.7818609E-02  0.8304045E-01
        2   -1    0    0  501    0  0.00000000000E+00  0.00000000000E+00  0.12610514555E+04  0.12610514555E+04  0.25500000920E-02 0. -1.
       -2   -1    0    0    0  501  0.00000000000E+00  0.00000000000E+00 -0.15514842897E+04  0.15514842897E+04  0.25500000920E-02 0.  1.
    10030    2    1    2    0    0  0.00000000000E+00  0.00000000000E+00 -0.29043283420E+03  0.28125357452E+04  0.27974999708E+04 0.  0.
        5    1    3    3  502    0  0.34384487590E+03  0.11053659278E+04  0.64412522851E+03  0.13247575374E+04  0.46999998093E+01 0. -1.
       -5    1    3    3    0  502 -0.34384487590E+03 -0.11053659278E+04 -0.93455806271E+03  0.14877782078E+04  0.46999998093E+01 0.  1.
</event>
<event>
 5   0  0.3502141E-07  0.2799518E+04  0.7818609E-02  0.8303418E-01
       -2   -1    0    0    0  501  0.00000000000E+00  0.00000000000E+00  0.14768731255E+04  0.14768731255E+04  0.25500000920E-02 0. -1.
        2   -1    0    0  501    0  0.00000000000E+00  0.00000000000E+00 -0.13266714831E+04  0.13266714831E+04  0.25500000920E-02 0.  1.
    10030    2    1    2    0    0  0.00000000000E+00  0.00000000000E+00  0.15020164234E+03  0.28035446086E+04  0.27995181441E+04 0.  0.
        3    1    3    3  502    0 -0.10392962662E+04 -0.90919461741E+03  0.30467684420E+03  0.14140719822E+04  0.10100000352E+00 0.  1.
       -3    1    3    3    0  502  0.10392962662E+04  0.90919461741E+03 -0.15447520186E+03  0.13894726264E+04  0.10100000352E+00 0. -1.
</event>
<event>
 5   0  0.3557628E-07  0.2800473E+04  0.7818609E-02  0.8303121E-01
        2   -1    0    0  501    0  0.00000000000E+00  0.00000000000E+00  0.32836038507E+04  0.32836038507E+04  0.25500000920E-02 0. -1.
       -2   -1    0    0    0  501  0.00000000000E+00  0.00000000000E+00 -0.59710689572E+03  0.59710689572E+03  0.25500000920E-02 0.  1.
    10030    2    1    2    0    0  0.00000000000E+00  0.00000000000E+00  0.26864969550E+04  0.38807107464E+04  0.28004731758E+04 0.  0.
        5    1    3    3  502    0 -0.78700494800E+02  0.13450973278E+04  0.18712109704E+04  0.23058476044E+04  0.46999998093E+01 0. -1.
       -5    1    3    3    0  502  0.78700494800E+02 -0.13450973278E+04  0.81528598461E+03  0.15748631420E+04  0.46999998093E+01 0.  1.
</event>
<event>
 5   0  0.1357902E-07  0.2798858E+04  0.7818609E-02  0.8303623E-01
        1   -1    0    0  501    0  0.00000000000E+00  0.00000000000E+00  0.16347162211E+04  0.16347162211E+04  0.50400001928E-02 0.  1.
       -1   -1    0    0    0  501  0.00000000000E+00  0.00000000000E+00 -0.11980067707E+04  0.11980067708E+04  0.50400001928E-02 0. -1.
    10030    2    1    2    0    0  0.00000000000E+00  0.00000000000E+00  0.43670945035E+03  0.28327229919E+04  0.27988576964E+04 0.  0.
        4    1    3    3  502    0 -0.13544738284E+04 -0.11537486714E+03 -0.11806571273E+03  0.13644969172E+04  0.12699999809E+01 0. -1.
       -4    1    3    3    0  502  0.13544738284E+04  0.11537486714E+03  0.55477516308E+03  0.14682260746E+04  0.12699999809E+01 0.  1.
</event>
<event>
 5   0  0.1361741E-07  0.2800443E+04  0.7818609E-02  0.8303131E-01
        1   -1    0    0  501    0  0.00000000000E+00  0.00000000000E+00  0.14854165334E+04  0.14854165334E+04  0.50400001928E-02 0.  1.
       -1   -1    0    0    0  501  0.00000000000E+00  0.00000000000E+00 -0.13199131737E+04  0.13199131737E+04  0.50400001928E-02 0. -1.
    10030    2    1    2    0    0  0.00000000000E+00  0.00000000000E+00  0.16550335966E+03  0.28053297071E+04  0.28004434298E+04 0.  0.
        5    1    3    3  502    0  0.11955438959E+04  0.50791108167E+03  0.60644475678E+03  0.14335606743E+04  0.46999998093E+01 0.  1.
       -5    1    3    3    0  502 -0.11955438959E+04 -0.50791108167E+03 -0.44094139712E+03  0.13717690329E+04  0.46999998093E+01 0. -1.
</event>
<event>
 5   0  0.1374680E-07  0.2796369E+04  0.7818609E-02  0.8304396E-01
       -1   -1    0    0    0  501  0.00000000000E+00  0.00000000000E+00  0.11970596021E+04  0.11970596021E+04  0.50400001928E-02 0.  1.
        1   -1    0    0  501    0  0.00000000000E+00  0.00000000000E+00 -0.16331019597E+04  0.16331019598E+04  0.50400001928E-02 0. -1.
    10030    2    1    2    0    0  0.00000000000E+00  0.00000000000E+00 -0.43604235768E+03  0.28301615618E+04  0.27963693476E+04 0.  0.
        3    1    3    3  502    0 -0.13960095463E+03 -0.12878076198E+04  0.31463090312E+03  0.13330151940E+04  0.10100000352E+00 0. -1.
       -3    1    3    3    0  502  0.13960095463E+03  0.12878076198E+04 -0.75067326080E+03  0.14971463678E+04  0.10100000352E+00 0.  1.
</event>
<event>
 5   0  0.1361741E-07  0.2797128E+04  0.7818609E-02  0.8304160E-01
        1   -1    0    0  501    0  0.00000000000E+00  0.00000000000E+00  0.14097420643E+04  0.14097420643E+04  0.50400001928E-02 0.  1.
       -1   -1    0    0    0  501  0.00000000000E+00  0.00000000000E+00 -0.13874747968E+04  0.13874747968E+04  0.50400001928E-02 0. -1.
    10030    2    1    2    0    0  0.00000000000E+00  0.00000000000E+00  0.22267267512E+02  0.27972168612E+04  0.27971282304E+04 0.  0.
        5    1    3    3  502    0  0.47388308262E+03  0.12170045605E+04  0.51144361773E+03  0.14025911523E+04  0.46999998093E+01 0. -1.
       -5    1    3    3    0  502 -0.47388308262E+03 -0.12170045605E+04 -0.48917635022E+03  0.13946257089E+04  0.46999998093E+01 0.  1.
</event>
<event>
 5   0  0.3571498E-07  0.2801082E+04  0.7818609E-02  0.8302933E-01
       -2   -1    0    0    0  501  0.00000000000E+00  0.00000000000E+00  0.81510726188E+03  0.81510726189E+03  0.25500000920E-02 0.  1.
        2   -1    0    0  501    0  0.00000000000E+00  0.00000000000E+00 -0.24064498433E+04  0.24064498433E+04  0.25500000920E-02 0. -1.
    10030    2    1    2    0    0  0.00000000000E+00  0.00000000000E+00 -0.15913425814E+04  0.32215571052E+04  0.28010817501E+04 0.  0.
        2    1    3    3  502    0  0.12220230493E+03  0.36486414981E+03 -0.23444647309E+04  0.23758312494E+04  0.25500000920E-02 0. -1.
       -2    1    3    3    0  502 -0.12220230493E+03 -0.36486414981E+03  0.75312214947E+03  0.84572585581E+03  0.25500000920E-02 0.  1.
</event>
<event>
 5   0  0.3502141E-07  0.2802129E+04  0.7818609E-02  0.8302608E-01
       -2   -1    0    0    0  501  0.00000000000E+00  0.00000000000E+00  0.79198714046E+03  0.79198714047E+03  0.25500000920E-02 0. -1.
        2   -1    0    0  501    0  0.00000000000E+00  0.00000000000E+00 -0.24785530778E+04  0.24785530778E+04  0.25500000920E-02 0.  1.
    10030    2    1    2    0    0  0.00000000000E+00  0.00000000000E+00 -0.16865659373E+04  0.32705402182E+04  0.28021293079E+04 0.  0.
        3    1    3    3  502    0  0.13336873576E+03 -0.18854099935E+03  0.76961871319E+03  0.80352218514E+03  0.10100000352E+00 0. -1.
       -3    1    3    3    0  502 -0.13336873576E+03  0.18854099935E+03 -0.24561846505E+04  0.24670180331E+04  0.10100000352E+00 0.  1.
</event>
<event>
 5   0  0.3502141E-07  0.2794227E+04  0.7818609E-02  0.8305063E-01
       -2   -1    0    0    0  501  0.00000000000E+00  0.00000000000E+00  0.15999465933E+04  0.15999465933E+04  0.25500000920E-02 0. -1.
        2   -1    0    0  501    0  0.00000000000E+00  0.00000000000E+00 -0.12199944969E+04  0.12199944969E+04  0.25500000920E-02 0.  1.
    10030    2    1    2    0    0  0.00000000000E+00  0.00000000000E+00  0.37995209640E+03  0.28199410903E+04  0.27942269337E+04 0.  0.
        3    1    3    3  502    0 -0.58731716759E+03 -0.52413713680E+03  0.13548358108E+04  0.15669209546E+04  0.10100000352E+00 0. -1.
       -3    1    3    3    0  502  0.58731716759E+03  0.52413713680E+03 -0.97488371441E+03  0.12530201357E+04  0.10100000352E+00 0.  1.
</event>
<event>
 5   0  0.1366235E-07  0.2799842E+04  0.7818609E-02  0.8303317E-01
        1   -1    0    0  501    0  0.00000000000E+00  0.00000000000E+00  0.18555689739E+04  0.18555689739E+04  0.50400001928E-02 0. -1.
       -1   -1    0    0    0  501  0.00000000000E+00  0.00000000000E+00 -0.10561607978E+04  0.10561607978E+04  0.50400001928E-02 0.  1.
    10030    2    1    2    0    0  0.00000000000E+00  0.00000000000E+00  0.79940817608E+03  0.29117297718E+04  0.27998422870E+04 0.  0.
        2    1    3    3  502    0  0.57969206179E+03 -0.41854812892E+03  0.16513595854E+04  0.17995037936E+04  0.25500000920E-02 0. -1.
       -2    1    3    3    0  502 -0.57969206179E+03  0.41854812892E+03 -0.85195140933E+03  0.11122259782E+04  0.25500000920E-02 0.  1.
</event>
<event>
 5   0  0.3406920E-07  0.2800228E+04  0.7818609E-02  0.8303197E-01
        2   -1    0    0  501    0  0.00000000000E+00  0.00000000000E+00  0.23836624523E+04  0.23836624523E+04  0.25500000920E-02 0. -1.
       -2   -1    0    0    0  501  0.00000000000E+00  0.00000000000E+00 -0.82239823394E+03  0.82239823394E+03  0.25500000920E-02 0.  1.
    10030    2    1    2    0    0  0.00000000000E+00  0.00000000000E+00  0.15612642183E+04  0.32060606862E+04  0.28002284129E+04 0.  0.
        4    1    3    3  502    0  0.27150996851E+03 -0.99383488234E+03 -0.30487386409E+03  0.10744185042E+04  0.12699999809E+01 0.  1.
       -4    1    3    3    0  502 -0.27150996851E+03  0.99383488234E+03  0.18661380824E+04  0.21316421820E+04  0.12699999809E+01 0. -1.
</event>
<event>
 5   0  0.3502141E-07  0.2801345E+04  0.7818609E-02  0.8302851E-01
        2   -1    0    0  501    0  0.00000000000E+00  0.00000000000E+00  0.16562206669E+04  0.16562206669E+04  0.25500000920E-02 0.  1.
       -2   -1    0    0    0  501  0.00000000000E+00  0.00000000000E+00 -0.11845547126E+04  0.11845547126E+04  0.25500000920E-02 0. -1.
    10030    2    1    2    0    0  0.00000000000E+00  0.00000000000E+00  0.47166595431E+03  0.28407753794E+04  0.28013453882E+04 0.  0.
        3    1    3    3  502    0  0.85602297053E+03  0.86753707152E+03  0.93583011132E+03  0.15366111753E+04  0.10100000352E+00 0.  1.
       -3    1    3    3    0  502 -0.85602297053E+03 -0.86753707152E+03 -0.46416415701E+03  0.13041642041E+04  0.10100000352E+00 0. -1.
</event>
<event>
 5   0  0.3502141E-07  0.2799869E+04  0.7818609E-02  0.8303309E-01
       -2   -1    0    0    0  501  0.00000000000E+00  0.00000000000E+00  0.77734531629E+03  0.77734531630E+03  0.25500000920E-02 0. -1.
        2   -1    0    0  501    0  0.00000000000E+00  0.00000000000E+00 -0.25211660154E+04  0.25211660154E+04  0.25500000920E-02 0.  1.
    10030    2    1    2    0    0  0.00000000000E+00  0.00000000000E+00 -0.17438206991E+04  0.32985113317E+04  0.27998689924E+04 0.  0.
        3    1    3    3  502    0 -0.13638444103E+04 -0.17135110482E+03 -0.11844582934E+04  0.18144900759E+04  0.10100000352E+00 0.  1.
       -3    1    3    3    0  502  0.13638444103E+04  0.17135110482E+03 -0.55936240569E+03  0.14840212558E+04  0.10100000352E+00 0. -1.
</event>
<event>
 5   0  0.3502141E-07  0.2799623E+04  0.7818609E-02  0.8303386E-01
        2   -1    0    0  501    0  0.00000000000E+00  0.00000000000E+00  0.16340995298E+04  0.16340995298E+04  0.25500000920E-02 0. -1.
       -2   -1    0    0    0  501  0.00000000000E+00  0.00000000000E+00 -0.11991140823E+04  0.11991140823E+04  0.25500000920E-02 0.  1.
    10030    2    1    2    0    0  0.00000000000E+00  0.00000000000E+00  0.43498544747E+03  0.28332136121E+04  0.27996226589E+04 0.  0.
        3    1    3    3  502    0  0.11687939884E+04 -0.67252635065E+02 -0.55909286954E+03  0.12973770274E+04  0.10100000352E+00 0.  1.
       -3    1    3    3    0  502 -0.11687939884E+04  0.67252635065E+02  0.99407831701E+03  0.15358365847E+04  0.10100000352E+00 0. -1.
</event>
<event>
 5   0  0.3557628E-07  0.2800112E+04  0.7818609E-02  0.8303234E-01
       -2   -1    0    0    0  501  0.00000000000E+00  0.00000000000E+00  0.71799352521E+03  0.71799352522E+03  0.25500000920E-02 0. -1.
        2   -1    0    0  501    0  0.00000000000E+00  0.00000000000E+00 -0.27300479520E+04  0.27300479520E+04  0.25500000920E-02 0.  1.
    10030    2    1    2    0    0  0.00000000000E+00  0.00000000000E+00 -0.20120544268E+04  0.34480414772E+04  0.28001119642E+04 0.  0.
        5    1    3    3  502    0  0.86610868959E+03  0.77745445934E+03 -0.47788155716E+02  0.11648542812E+04  0.46999998093E+01 0. -1.
       -5    1    3    3    0  502 -0.86610868959E+03 -0.77745445934E+03 -0.19642662711E+04  0.22831871961E+04  0.46999998093E+01 0.  1.
</event>
<event>
 5   0  0.1374680E-07  0.2801438E+04  0.7818609E-02  0.8302822E-01
        1   -1    0    0  501    0  0.00000000000E+00  0.00000000000E+00  0.18709580599E+04  0.18709580599E+04  0.50400001928E-02 0.  1.
       -1   -1    0    0    0  501  0.00000000000E+00  0.00000000000E+00 -0.10486682788E+04  0.10486682788E+04  0.50400001928E-02 0. -1.
    10030    2    1    2    0    0  0.00000000000E+00  0.00000000000E+00  0.82228978108E+03  0.29196263388E+04  0.28014384651E+04 0.  0.
        3    1    3    3  502    0 -0.84116955123E+03 -0.85069246782E+03  0.11704206965E+04  0.16736572247E+04  0.10100000352E+00 0.  1.
       -3    1    3    3    0  502  0.84116955123E+03  0.85069246782E+03 -0.34813091543E+03  0.12459691141E+04  0.10100000352E+00 0. -1.
</event>
<event>
 5   0  0.1366235E-07  0.2799819E+04  0.7818609E-02  0.8303324E-01
       -1   -1    0    0    0  501  0.00000000000E+00  0.00000000000E+00  0.12957869544E+04  0.12957869545E+04  0.50400001928E-02 0.  1.
        1   -1    0    0  501    0  0.00000000000E+00  0.00000000000E+00 -0.15123990972E+04  0.15123990972E+04  0.50400001928E-02 0. -1.
    10030    2    1    2    0    0  0.00000000000E+00  0.00000000000E+00 -0.21661214276E+03  0.28081860517E+04  0.27998192943E+04 0.  0.
        2    1    3    3  502    0  0.72620008113E+03  0.11939367106E+04 -0.19159393005E+03  0.14105175152E+04  0.25500000920E-02 0. -1.
       -2    1    3    3    0  502 -0.72620008113E+03 -0.11939367106E+04 -0.25018212710E+02  0.13976685364E+04  0.25500000920E-02 0.  1.
</event>
<event>
 5   0  0.1357902E-07  0.2799667E+04  0.7818609E-02  0.8303372E-01
       -1   -1    0    0    0  501  0.00000000000E+00  0.00000000000E+00  0.16689282052E+04  0.16689282052E+04  0.50400001928E-02 0.  1.
        1   -1    0    0  501    0  0.00000000000E+00  0.00000000000E+00 -0.11741270852E+04  0.11741270852E+04  0.50400001928E-02 0. -1.
    10030    2    1    2    0    0  0.00000000000E+00  0.00000000000E+00  0.49480111993E+03  0.28430552904E+04  0.27996669866E+04 0.  0.
        4    1    3    3  502    0 -0.37915267403E+03 -0.74784357581E+03  0.13857120373E+04  0.16196376840E+04  0.12699999809E+01 0.  1.
       -4    1    3    3    0  502  0.37915267403E+03  0.74784357581E+03 -0.89091091738E+03  0.12234176064E+04  0.12699999809E+01 0. -1.
</event>
<event>
 5   0  0.3502141E-07  0.2812380E+04  0.7818609E-02  0.8299435E-01
        2   -1    0    0  501    0  0.00000000000E+00  0.00000000000E+00  0.16314361024E+04  0.16314361024E+04  0.25500000920E-02 0.  1.
       -2   -1    0    0    0  501  0.00000000000E+00  0.00000000000E+00 -0.12120426337E+04  0.12120426337E+04  0.25500000920E-02 0. -1.
    10030    2    1    2    0    0  0.00000000000E+00  0.00000000000E+00  0.41939346869E+03  0.28434787361E+04  0.28123798536E+04 0.  0.
        3    1    3    3  502    0 -0.45531609469E+02 -0.30306654478E+03  0.15972599640E+04  0.16263953581E+04  0.10100000352E+00 0.  1.
       -3    1    3    3    0  502  0.45531609469E+02  0.30306654478E+03 -0.11778664953E+04  0.12170833780E+04  0.10100000352E+00 0. -1.
</event>
<event>
 5   0  0.3502141E-07  0.2801033E+04  0.7818609E-02  0.8302948E-01
        2   -1    0    0  501    0  0.00000000000E+00  0.00000000000E+00  0.27172349250E+04  0.27172349250E+04  0.25500000920E-02 0. -1.
       -2   -1    0    0    0  501  0.00000000000E+00  0.00000000000E+00 -0.72185372686E+03  0.72185372687E+03  0.25500000920E-02 0.  1.
    10030    2    1    2    0    0  0.00000000000E+00  0.00000000000E+00  0.19953811981E+04  0.34390886518E+04  0.28010327791E+04 0.  0.
        3    1    3    3  502    0  0.29121300137E+03  0.49545456689E+02 -0.68316950427E+03  0.74429855986E+03  0.10100000352E+00 0.  1.
       -3    1    3    3    0  502 -0.29121300137E+03 -0.49545456689E+02  0.26785507024E+04  0.26947900920E+04  0.10100000352E+00 0. -1.
</event>
<event>
 5   0  0.3522569E-07  0.2800662E+04  0.7818609E-02  0.8303063E-01
        2   -1    0    0  501    0  0.00000000000E+00  0.00000000000E+00  0.13051995399E+04  0.13051995399E+04  0.25500000920E-02 0.  1.
       -2   -1    0    0    0  501  0.00000000000E+00  0.00000000000E+00 -0.15023959996E+04  0.15023959996E+04  0.25500000920E-02 0. -1.
    10030    2    1    2    0    0  0.00000000000E+00  0.00000000000E+00 -0.19719645965E+03  0.28075955395E+04  0.28006617557E+04 0.  0.
        1    1    3    3  502    0 -0.26564209292E+03  0.13455634488E+04 -0.38182176507E+03  0.14236904778E+04  0.50400001928E-02 0. -1.
       -1    1    3    3    0  502  0.26564209292E+03 -0.13455634488E+04  0.18462530542E+03  0.13839050617E+04  0.50400001928E-02 0.  1.
</event>
<event>
 5   0  0.1346049E-07  0.2800163E+04  0.7818609E-02  0.8303218E-01
        1   -1    0    0  501    0  0.00000000000E+00  0.00000000000E+00  0.15872156754E+04  0.15872156754E+04  0.50400001928E-02 0. -1.
       -1   -1    0    0    0  501  0.00000000000E+00  0.00000000000E+00 -0.12350109667E+04  0.12350109667E+04  0.50400001928E-02 0.  1.
    10030    2    1    2    0    0  0.00000000000E+00  0.00000000000E+00  0.35220470872E+03  0.28222266420E+04  0.28001633992E+04 0.  0.
        1    1    3    3  502    0  0.13065194249E+04 -0.50313933067E+03  0.18548006326E+03  0.14122836286E+04  0.50400001928E-02 0. -1.
       -1    1    3    3    0  502 -0.13065194249E+04  0.50313933067E+03  0.16672464546E+03  0.14099430134E+04  0.50400001928E-02 0.  1.
</event>
<event>
 5   0  0.3571498E-07  0.2799742E+04  0.7818609E-02  0.8303348E-01
        2   -1    0    0  501    0  0.00000000000E+00  0.00000000000E+00  0.18095233130E+04  0.18095233130E+04  0.25500000920E-02 0.  1.
       -2   -1    0    0    0  501  0.00000000000E+00  0.00000000000E+00 -0.10829585876E+04  0.10829585876E+04  0.25500000920E-02 0. -1.
    10030    2    1    2    0    0  0.00000000000E+00  0.00000000000E+00  0.72656472535E+03  0.28924819006E+04  0.27997419962E+04 0.  0.
        2    1    3    3  502    0  0.78100943323E+03 -0.72438996859E+03 -0.57505529759E+03  0.12105392008E+04  0.25500000920E-02 0. -1.
       -2    1    3    3    0  502 -0.78100943323E+03  0.72438996859E+03  0.13016200229E+04  0.16819426998E+04  0.25500000920E-02 0.  1.
</event>
<event>
 5   0  0.3502141E-07  0.2802000E+04  0.7818609E-02  0.8302648E-01
       -2   -1    0    0    0  501  0.00000000000E+00  0.00000000000E+00  0.13775892571E+04  0.13775892571E+04  0.25500000920E-02 0. -1.
        2   -1    0    0  501    0  0.00000000000E+00  0.00000000000E+00 -0.14248089749E+04  0.14248089750E+04  0.25500000920E-02 0.  1.
    10030    2    1    2    0    0  0.00000000000E+00  0.00000000000E+00 -0.47219717811E+02  0.28023982321E+04  0.28020003836E+04 0.  0.
        3    1    3    3  502    0 -0.12933855763E+03 -0.11879849278E+04  0.70777016986E+03  0.13888755433E+04  0.10100000352E+00 0. -1.
       -3    1    3    3    0  502  0.12933855763E+03  0.11879849278E+04 -0.75498988767E+03  0.14135226888E+04  0.10100000352E+00 0.  1.
</event>
<event>
 5   0  0.1346049E-07  0.2797967E+04  0.7818609E-02  0.8303900E-01
        1   -1    0    0  501    0  0.00000000000E+00  0.00000000000E+00  0.22052195326E+04  0.22052195326E+04  0.50400001928E-02 0.  1.
       -1   -1    0    0    0  501  0.00000000000E+00  0.00000000000E+00 -0.88751007563E+03  0.88751007565E+03  0.50400001928E-02 0. -1.
    10030    2    1    2    0    0  0.00000000000E+00  0.00000000000E+00  0.13177094569E+04  0.30927296082E+04  0.27979668005E+04 0.  0.
        1    1    3    3  502    0  0.90469544633E+03  0.56672286524E+03  0.16582673786E+04  0.19721813698E+04  0.50400001928E-02 0.  1.
       -1    1    3    3    0  502 -0.90469544633E+03 -0.56672286524E+03 -0.34055792163E+03  0.11205482384E+04  0.50400001928E-02 0. -1.
</event>
<event>
 5   0  0.3406920E-07  0.2797104E+04  0.7818609E-02  0.8304168E-01
        2   -1    0    0  501    0  0.00000000000E+00  0.00000000000E+00  0.14775262773E+04  0.14775262773E+04  0.25500000920E-02 0. -1.
       -2   -1    0    0    0  501  0.00000000000E+00  0.00000000000E+00 -0.13237988129E+04  0.13237988129E+04  0.25500000920E-02 0.  1.
    10030    2    1    2    0    0  0.00000000000E+00  0.00000000000E+00  0.15372746436E+03  0.28013250902E+04  0.27971038821E+04 0.  0.
        4    1    3    3  502    0  0.12160199047E+04 -0.63462934849E+03 -0.19647139583E+03  0.13856628164E+04  0.12699999809E+01 0.  1.
       -4    1    3    3    0  502 -0.12160199047E+04  0.63462934849E+03  0.35019886020E+03  0.14156622737E+04  0.12699999809E+01 0. -1.
</event>
<event>
 5   0  0.1173363E-07  0.2800671E+04  0.7818609E-02  0.8303060E-01
        3   -1    0    0  501    0  0.00000000000E+00  0.00000000000E+00  0.14395595618E+04  0.14395595654E+04  0.10100000352E+00 0.  1.
       -3   -1    0    0    0  501  0.00000000000E+00  0.00000000000E+00 -0.13621803829E+04  0.13621803866E+04  0.10100000352E+00 0. -1.
    10030    2    1    2    0    0  0.00000000000E+00  0.00000000000E+00  0.77379178961E+02  0.28017399520E+04  0.28006712091E+04 0.  0.
        4    1    3    3  502    0 -0.56706692791E+02 -0.89010584348E+03  0.11186542952E+04  0.14306967207E+04  0.12699999809E+01 0.  1.
       -4    1    3    3    0  502  0.56706692791E+02  0.89010584348E+03 -0.10412751162E+04  0.13710432313E+04  0.12699999809E+01 0. -1.
</event>
<event>
 5   0  0.3557628E-07  0.2800179E+04  0.7818609E-02  0.8303213E-01
       -2   -1    0    0    0  501  0.00000000000E+00  0.00000000000E+00  0.71001261370E+03  0.71001261370E+03  0.25500000920E-02 0.  1.
        2   -1    0    0  501    0  0.00000000000E+00  0.00000000000E+00 -0.27608667591E+04  0.27608667591E+04  0.25500000920E-02 0. -1.
    10030    2    1    2    0    0  0.00000000000E+00  0.00000000000E+00 -0.20508541454E+04  0.34708793728E+04  0.28001787255E+04 0.  0.
        5    1    3    3  502    0  0.19876818674E+03  0.13772162899E+04 -0.83342283265E+03  0.16219892753E+04  0.46999998093E+01 0.  1.
       -5    1    3    3    0  502 -0.19876818674E+03 -0.13772162899E+04 -0.12174313127E+04  0.18488900975E+04  0.46999998093E+01 0. -1.
</event>
<event>
 5   0  0.3406920E-07  0.2800254E+04  0.7818609E-02  0.8303190E-01
        2   -1    0    0  501    0  0.00000000000E+00  0.00000000000E+00  0.20058577094E+04  0.20058577094E+04  0.25500000920E-02 0.  1.
       -2   -1    0    0    0  501  0.00000000000E+00  0.00000000000E+00 -0.97731516988E+03  0.97731516989E+03  0.25500000920E-02 0. -1.
    10030    2    1    2    0    0  0.00000000000E+00  0.00000000000E+00  0.10285425395E+04  0.29831728793E+04  0.28002536800E+04 0.  0.
        4    1    3    3  502    0  0.48254406978E+03 -0.12934793874E+04  0.26576133487E+03  0.14059048349E+04  0.12699999809E+01 0. -1.
       -4    1    3    3    0  502 -0.48254406978E+03  0.12934793874E+04  0.76278120464E+03  0.15772680444E+04  0.12699999809E+01 0.  1.
</event>
<event>
 5   0  0.3502141E-07  0.2799767E+04  0.7818609E-02  0.8303341E-01
       -2   -1    0    0    0  501  0.00000000000E+00  0.00000000000E+00  0.15490786449E+04  0.15490786449E+04  0.25500000920E-02 0.  1.
        2   -1    0    0  501    0  0.00000000000E+00  0.00000000000E+00 -0.12650572440E+04  0.12650572440E+04  0.25500000920E-02 0. -1.
    10030    2    1    2    0    0  0.00000000000E+00  0.00000000000E+00  0.28402140090E+03  0.28141358889E+04  0.27997665341E+04 0.  0.
        3    1    3    3  502    0 -0.12733950102E+04 -0.44233011133E+03 -0.23739496747E+03  0.13687757889E+04  0.10100000352E+00 0. -1.
       -3    1    3    3    0  502  0.12733950102E+04  0.44233011133E+03  0.52141636838E+03  0.14453601001E+04  0.10100000352E+00 0.  1.
</event>
<event>
 5   0  0.3502141E-07  0.2798610E+04  0.7818609E-02  0.8303700E-01
        2   -1    0    0  501    0  0.00000000000E+00  0.00000000000E+00  0.11261343600E+04  0.11261343600E+04  0.25500000920E-02 0. -1.
       -2   -1    0    0    0  501  0.00000000000E+00  0.00000000000E+00 -0.17387398584E+04  0.17387398584E+04  0.25500000920E-02 0.  1.
    10030    2    1    2    0    0  0.00000000000E+00  0.00000000000E+00 -0.61260549843E+03  0.28648742184E+04  0.27986101533E+04 0.  0.
        3    1    3    3  502    0  0.91435147511E+03  0.23428721816E+03  0.75117421660E+03  0.12063133235E+04  0.10100000352E+00 0. -1.
       -3    1    3    3    0  502 -0.91435147511E+03 -0.23428721816E+03 -0.13637797150E+04  0.16585608949E+04  0.10100000352E+00 0.  1.
</event>
<event>
 5   0  0.3406920E-07  0.2802328E+04  0.7818609E-02  0.8302546E-01
       -2   -1    0    0    0  501  0.00000000000E+00  0.00000000000E+00  0.70136915891E+03  0.70136915892E+03  0.25500000920E-02 0.  1.
        2   -1    0    0  501    0  0.00000000000E+00  0.00000000000E+00 -0.27991820065E+04  0.27991820065E+04  0.25500000920E-02 0. -1.
    10030    2    1    2    0    0  0.00000000000E+00  0.00000000000E+00 -0.20978128476E+04  0.35005511655E+04  0.28023275537E+04 0.  0.
        4    1    3    3  502    0 -0.41797104545E+03 -0.13025869526E+04 -0.67037688014E+03  0.15234301226E+04  0.12699999809E+01 0.  1.
       -4    1    3    3    0  502  0.41797104545E+03  0.13025869526E+04 -0.14274359675E+04  0.19771210429E+04  0.12699999809E+01 0. -1.
</event>
<event>
 5   0  0.3502141E-07  0.2799969E+04  0.7818609E-02  0.8303278E-01
       -2   -1    0    0    0  501  0.00000000000E+00  0.00000000000E+00  0.14793584716E+04  0.14793584716E+04  0.25500000920E-02 0.  1.
        2   -1    0    0  501    0  0.00000000000E+00  0.00000000000E+00 -0.13248696029E+04  0.13248696029E+04  0.25500000920E-02 0. -1.
    10030    2    1    2    0    0  0.00000000000E+00  0.00000000000E+00  0.15448886872E+03  0.28042280744E+04  0.27999693361E+04 0.  0.
        3    1    3    3  502    0 -0.10987931801E+04  0.32259113377E+03 -0.72930372747E+03  0.13576801646E+04  0.10100000352E+00 0. -1.
       -3    1    3    3    0  502  0.10987931801E+04 -0.32259113377E+03  0.88379259619E+03  0.14465479099E+04  0.10100000352E+00 0.  1.
</event>
<event>
 5   0  0.1361741E-07  0.2800856E+04  0.7818609E-02  0.8303003E-01
       -1   -1    0    0    0  501  0.00000000000E+00  0.00000000000E+00  0.93760485907E+03  0.93760485909E+03  0.50400001928E-02 0.  1.
        1   -1    0    0  501    0  0.00000000000E+00  0.00000000000E+00 -0.20917111097E+04  0.20917111097E+04  0.50400001928E-02 0. -1.
    10030    2    1    2    0    0  0.00000000000E+00  0.00000000000E+00 -0.11541062506E+04  0.30293159688E+04  0.28008559408E+04 0.  0.
        5    1    3    3  502    0 -0.12662433513E+04 -0.16458811542E+03  0.44933015977E+02  0.12776942273E+04  0.46999998093E+01 0.  1.
       -5    1    3    3    0  502  0.12662433513E+04  0.16458811542E+03 -0.11990392666E+04  0.17516217415E+04  0.46999998093E+01 0. -1.
</event>
<event>
 5   0  0.3522569E-07  0.2793548E+04  0.7818609E-02  0.8305274E-01
        2   -1    0    0  501    0  0.00000000000E+00  0.00000000000E+00  0.27370742803E+04  0.27370742803E+04  0.25500000920E-02 0. -1.
       -2   -1    0    0    0  501  0.00000000000E+00  0.00000000000E+00 -0.71279660377E+03  0.71279660378E+03  0.25500000920E-02 0.  1.
    10030    2    1    2    0    0  0.00000000000E+00  0.00000000000E+00  0.20242776765E+04  0.34498708841E+04  0.27935477453E+04 0.  0.
        1    1    3    3  502    0 -0.89537287688E+03 -0.10719652622E+04  0.99579559095E+03  0.17153457293E+04  0.50400001928E-02 0. -1.
       -1    1    3    3    0  502  0.89537287688E+03  0.10719652622E+04  0.10284820856E+04  0.17345251547E+04  0.50400001928E-02 0.  1.
</event>
<event>
 5   0  0.1374680E-07  0.2800036E+04  0.7818609E-02  0.8303257E-01
        1   -1    0    0  501    0  0.00000000000E+00  0.00000000000E+00  0.19957885310E+04  0.19957885310E+04  0.50400001928E-02 0.  1.
       -1   -1    0    0    0  501  0.00000000000E+00  0.00000000000E+00 -0.98209340594E+03  0.98209340595E+03  0.50400001928E-02 0. -1.
    10030    2    1    2    0    0  0.00000000000E+00  0.00000000000E+00  0.10136951251E+04  0.29778819370E+04  0.28000362540E+04 0.  0.
        3    1    3    3  502    0 -0.98869049511E+02  0.11936044885E+04  0.12778662092E+04  0.17514019592E+04  0.10100000352E+00 0.  1.
       -3    1    3    3    0  502  0.98869049511E+02 -0.11936044885E+04 -0.26417108412E+03  0.12264799778E+04  0.10100000352E+00 0. -1.
</event>
<event>
 5   0  0.3406920E-07  0.2800262E+04  0.7818609E-02  0.8303187E-01
       -2   -1    0    0    0  501  0.00000000000E+00  0.00000000000E+00  0.66608190589E+03  0.66608190590E+03  0.25500000920E-02 0.  1.
        2   -1    0    0  501    0  0.00000000000E+00  0.00000000000E+00 -0.29431328185E+04  0.29431328185E+04  0.25500000920E-02 0. -1.
    10030    2    1    2    0    0  0.00000000000E+00  0.00000000000E+00 -0.22770509126E+04  0.36092147244E+04  0.28002624999E+04 0.  0.
        4    1    3    3  502    0  0.16206696837E+03  0.35961557744E+03  0.59298743936E+03  0.71219715102E+03  0.12699999809E+01 0.  1.
       -4    1    3    3    0  502 -0.16206696837E+03 -0.35961557744E+03 -0.28700383520E+04  0.28970175734E+04  0.12699999809E+01 0. -1.
</event>
<event>
 5   0  0.3406920E-07  0.2803200E+04  0.7818609E-02  0.8302276E-01
       -2   -1    0    0    0  501  0.00000000000E+00  0.00000000000E+00  0.10569119039E+04  0.10569119039E+04  0.25500000920E-02 0.  1.
        2   -1    0    0  501    0  0.00000000000E+00  0.00000000000E+00 -0.18587005777E+04  0.18587005777E+04  0.25500000920E-02 0. -1.
    10030    2    1    2    0    0  0.00000000000E+00  0.00000000000E+00 -0.80178867380E+03  0.29156124816E+04  0.28032001473E+04 0.  0.
        4    1    3    3  502    0 -0.89426194743E+03 -0.78963863960E+02  0.71862468761E+03  0.11499403363E+04  0.12699999809E+01 0.  1.
       -4    1    3    3    0  502  0.89426194743E+03  0.78963863960E+02 -0.15204133614E+04  0.17656721454E+04  0.12699999809E+01 0. -1.
</event>
<event>
 5   0  0.3406920E-07  0.2798716E+04  0.7818609E-02  0.8303667E-01
       -2   -1    0    0    0  501  0.00000000000E+00  0.00000000000E+00  0.67594261770E+03  0.67594261770E+03  0.25500000920E-02 0.  1.
        2   -1    0    0  501    0  0.00000000000E+00  0.00000000000E+00 -0.28969952741E+04  0.28969952741E+04  0.25500000920E-02 0. -1.
    10030    2    1    2    0    0  0.00000000000E+00  0.00000000000E+00 -0.22210526564E+04  0.35729378918E+04  0.27987158263E+04 0.  0.
        4    1    3    3  502    0 -0.72120570853E+03  0.39771080595E+03  0.33375861563E+03  0.88865515562E+03  0.12699999809E+01 0.  1.
       -4    1    3    3    0  502  0.72120570853E+03 -0.39771080595E+03 -0.25548112720E+04  0.26842827362E+04  0.12699999809E+01 0. -1.
</event>
<event>
 5   0  0.3522569E-07  0.2800055E+04  0.7818609E-02  0.8303251E-01
       -2   -1    0    0    0  501  0.00000000000E+00  0.00000000000E+00  0.11106857176E+04  0.11106857176E+04  0.25500000920E-02 0.  1.
        2   -1    0    0  501    0  0.00000000000E+00  0.00000000000E+00 -0.17647451751E+04  0.17647451751E+04  0.25500000920E-02 0. -1.
    10030    2    1    2    0    0  0.00000000000E+00  0.00000000000E+00 -0.65405945753E+03  0.28754308927E+04  0.28000551860E+04 0.  0.
        1    1    3    3  502    0 -0.11776412321E+04 -0.56180266866E+03 -0.84825190726E+03  0.15562751712E+04  0.50400001928E-02 0. -1.
       -1    1    3    3    0  502  0.11776412321E+04  0.56180266866E+03  0.19419244973E+03  0.13191557216E+04  0.50400001928E-02 0.  1.
</event>
<event>
 5   0  0.1357902E-07  0.2800738E+04  0.7818609E-02  0.8303039E-01
        1   -1    0    0  501    0  0.00000000000E+00  0.00000000000E+00  0.60420088375E+03  0.60420088377E+03  0.50400001928E-02 0.  1.
       -1   -1    0    0    0  501  0.00000000000E+00  0.00000000000E+00 -0.32456647658E+04  0.32456647658E+04  0.50400001928E-02 0. -1.
    10030    2    1    2    0    0  0.00000000000E+00  0.00000000000E+00 -0.26414638821E+04  0.38498656496E+04  0.28007381312E+04 0.  0.
        4    1    3    3  502    0  0.30604238617E+02  0.89409757797E+03  0.16018335867E+03  0.90884950330E+03  0.12699999809E+01 0.  1.
       -4    1    3    3    0  502 -0.30604238617E+02 -0.89409757797E+03 -0.28016472408E+04  0.29410161463E+04  0.12699999809E+01 0. -1.
</event>
<event>
 5   0  0.1361741E-07  0.2800276E+04  0.7818609E-02  0.8303183E-01
        1   -1    0    0  501    0  0.00000000000E+00  0.00000000000E+00  0.17616571088E+04  0.17616571088E+04  0.50400001928E-02 0. -1.
       -1   -1    0    0    0  501  0.00000000000E+00  0.00000000000E+00 -0.11128083225E+04  0.11128083225E+04  0.50400001928E-02 0.  1.
    10030    2    1    2    0    0  0.00000000000E+00  0.00000000000E+00  0.64884878629E+03  0.28744654313E+04  0.28002761950E+04 0.  0.
        5    1    3    3  502    0 -0.12150590909E+04 -0.64819827598E+03  0.58377404083E+03  0.14957753241E+04  0.46999998093E+01 0. -1.
       -5    1    3    3    0  502  0.12150590909E+04  0.64819827598E+03  0.65074745468E+02  0.13786901073E+04  0.46999998093E+01 0.  1.
</event>
<event>
 5   0  0.3406920E-07  0.2799476E+04  0.7818609E-02  0.8303431E-01
       -2   -1    0    0    0  501  0.00000000000E+00  0.00000000000E+00  0.10941540763E+04  0.10941540763E+04  0.25500000920E-02 0. -1.
        2   -1    0    0  501    0  0.00000000000E+00  0.00000000000E+00 -0.17906673036E+04  0.17906673036E+04  0.25500000920E-02 0.  1.
    10030    2    1    2    0    0  0.00000000000E+00  0.00000000000E+00 -0.69651322723E+03  0.28848213799E+04  0.27994756149E+04 0.  0.
        4    1    3    3  502    0 -0.12253069771E+04  0.14796708789E+03  0.33217100361E+03  0.12781277854E+04  0.12699999809E+01 0. -1.
       -4    1    3    3    0  502  0.12253069771E+04 -0.14796708789E+03 -0.10286842308E+04  0.16066935946E+04  0.12699999809E+01 0.  1.
</event>
<event>
 5   0  0.3522569E-07  0.2800885E+04  0.7818609E-02  0.8302994E-01
        2   -1    0    0  501    0  0.00000000000E+00  0.00000000000E+00  0.32448519294E+04  0.32448519294E+04  0.25500000920E-02 0. -1.
       -2   -1    0    0    0  501  0.00000000000E+00  0.00000000000E+00 -0.60441553793E+03  0.60441553793E+03  0.25500000920E-02 0.  1.
    10030    2    1    2    0    0  0.00000000000E+00  0.00000000000E+00  0.26404363914E+04  0.38492674673E+04  0.28008848062E+04 0.  0.
        1    1    3    3  502    0  0.10868893834E+04  0.61883621942E+03  0.21860866305E+04  0.25185832434E+04  0.50400001928E-02 0. -1.
       -1    1    3    3    0  502 -0.10868893834E+04 -0.61883621942E+03  0.45434976098E+03  0.13306842239E+04  0.50400001928E-02 0.  1.
</event>
<event>
 5   0  0.3571498E-07  0.2801073E+04  0.7818609E-02  0.8302935E-01
       -2   -1    0    0    0  501  0.00000000000E+00  0.00000000000E+00  0.13766642638E+04  0.13766642638E+04  0.25500000920E-02 0.  1.
        2   -1    0    0  501    0  0.00000000000E+00  0.00000000000E+00 -0.14248228151E+04  0.14248228151E+04  0.25500000920E-02 0. -1.
    10030    2    1    2    0    0  0.00000000000E+00  0.00000000000E+00 -0.48158551356E+02  0.28014870789E+04  0.28010731170E+04 0.  0.
        2    1    3    3  502    0 -0.69101683195E+03  0.96901331090E+03  0.71427883258E+03  0.13880509030E+04  0.25500000920E-02 0.  1.
       -2    1    3    3    0  502  0.69101683195E+03 -0.96901331090E+03 -0.76243738394E+03  0.14134361758E+04  0.25500000920E-02 0. -1.
</event>
<event>
 5   0  0.3557628E-07  0.2800709E+04  0.7818609E-02  0.8303048E-01
       -2   -1    0    0    0  501  0.00000000000E+00  0.00000000000E+00  0.10395906404E+04  0.10395906405E+04  0.25500000920E-02 0.  1.
        2   -1    0    0  501    0  0.00000000000E+00  0.00000000000E+00 -0.18863121138E+04  0.18863121138E+04  0.25500000920E-02 0. -1.
    10030    2    1    2    0    0  0.00000000000E+00  0.00000000000E+00 -0.84672147332E+03  0.29259027542E+04  0.28007087806E+04 0.  0.
        5    1    3    3  502    0 -0.44366979752E+03 -0.70257541558E+03 -0.16009175553E+04  0.18037223214E+04  0.46999998093E+01 0. -1.
       -5    1    3    3    0  502  0.44366979752E+03  0.70257541558E+03  0.75419608196E+03  0.11221804328E+04  0.46999998093E+01 0.  1.
</event>
<event>
 5   0  0.3571498E-07  0.2800282E+04  0.7818609E-02  0.8303181E-01
        2   -1    0    0  501    0  0.00000000000E+00  0.00000000000E+00  0.13962320619E+04  0.13962320619E+04  0.25500000920E-02 0. -1.
       -2   -1    0    0    0  501  0.00000000000E+00  0.00000000000E+00 -0.14040611932E+04  0.14040611932E+04  0.25500000920E-02 0.  1.
    10030    2    1    2    0    0  0.00000000000E+00  0.00000000000E+00 -0.78291312299E+01  0.28002932551E+04  0.28002823107E+04 0.  0.
        2    1    3    3  502    0 -0.10846314593E+03  0.76950141974E+03  0.11607781703E+04  0.13968903499E+04  0.25500000920E-02 0. -1.
       -2    1    3    3    0  502  0.10846314593E+03 -0.76950141974E+03 -0.11686073016E+04  0.14034029052E+04  0.25500000920E-02 0.  1.
</event>
<event>
 5   0  0.1374680E-07  0.2798660E+04  0.7818609E-02  0.8303684E-01
        1   -1    0    0  501    0  0.00000000000E+00  0.00000000000E+00  0.16529741461E+04  0.16529741461E+04  0.50400001928E-02 0.  1.
       -1   -1    0    0    0  501  0.00000000000E+00  0.00000000000E+00 -0.11846068494E+04  0.11846068495E+04  0.50400001928E-02 0. -1.
    10030    2    1    2    0    0  0.00000000000E+00  0.00000000000E+00  0.46836729661E+03  0.28375809955E+04  0.27986600332E+04 0.  0.
        3    1    3    3  502    0 -0.12919194725E+04  0.44083543280E+03  0.54625078760E+03  0.14702998794E+04  0.10100000352E+00 0.  1.
       -3    1    3    3    0  502  0.12919194725E+04 -0.44083543280E+03 -0.77883490999E+02  0.13672811161E+04  0.10100000352E+00 0. -1.
</event>
<event>
 5   0  0.3522569E-07  0.2799910E+04  0.7818609E-02  0.8303296E-01
        2   -1    0    0  501    0  0.00000000000E+00  0.00000000000E+00  0.21188526910E+04  0.21188526910E+04  0.25500000920E-02 0.  1.
       -2   -1    0    0    0  501  0.00000000000E+00  0.00000000000E+00 -0.92496916863E+03  0.92496916863E+03  0.25500000920E-02 0. -1.
    10030    2    1    2    0    0  0.00000000000E+00  0.00000000000E+00  0.11938835223E+04  0.30438218596E+04  0.27999095786E+04 0.  0.
        1    1    3    3  502    0 -0.71515416157E+03 -0.70018372462E+03  0.16610766103E+04  0.19392983856E+04  0.50400001928E-02 0.  1.
       -1    1    3    3    0  502  0.71515416157E+03  0.70018372462E+03 -0.46719308801E+03  0.11045234740E+04  0.50400001928E-02 0. -1.
</event>
<event>
 5   0  0.1366235E-07  0.2800486E+04  0.7818609E-02  0.8303117E-01
        1   -1    0    0  501    0  0.00000000000E+00  0.00000000000E+00  0.15895264339E+04  0.15895264339E+04  0.50400001928E-02 0.  1.
       -1   -1    0    0    0  501  0.00000000000E+00  0.00000000000E+00 -0.12334997756E+04  0.12334997757E+04  0.50400001928E-02 0. -1.
    10030    2    1    2    0    0  0.00000000000E+00  0.00000000000E+00  0.35602665829E+03  0.28230262096E+04  0.28004860290E+04 0.  0.
        2    1    3    3  502    0  0.74584241095E+03  0.75469305772E+03  0.10990620437E+04  0.15276713944E+04  0.25500000920E-02 0. -1.
       -2    1    3    3    0  502 -0.74584241095E+03 -0.75469305772E+03 -0.74303538540E+03  0.12953548152E+04  0.25500000920E-02 0.  1.
</event>
<event>
 5   0  0.1357902E-07  0.2800136E+04  0.7818609E-02  0.8303226E-01
       -1   -1    0    0    0  501  0.00000000000E+00  0.00000000000E+00  0.15291969758E+04  0.15291969758E+04  0.50400001928E-02 0. -1.
        1   -1    0    0  501    0  0.00000000000E+00  0.00000000000E+00 -0.12818425462E+04  0.12818425462E+04  0.50400001928E-02 0.  1.
    10030    2    1    2    0    0  0.00000000000E+00  0.00000000000E+00  0.24735442958E+03  0.28110395220E+04  0.28001355289E+04 0.  0.
        4    1    3    3  502    0 -0.94612855211E+03 -0.83190485841E+03  0.73676249867E+03  0.14594675477E+04  0.12699999809E+01 0. -1.
       -4    1    3    3    0  502  0.94612855211E+03  0.83190485841E+03 -0.48940806908E+03  0.13515719742E+04  0.12699999809E+01 0.  1.
</event>
<event>
 5   0  0.3502141E-07  0.2802349E+04  0.7818609E-02  0.8302540E-01
       -2   -1    0    0    0  501  0.00000000000E+00  0.00000000000E+00  0.14299423539E+04  0.14299423539E+04  0.25500000920E-02 0.  1.
        2   -1    0    0  501    0  0.00000000000E+00  0.00000000000E+00 -0.13729852729E+04  0.13729852729E+04  0.25500000920E-02 0. -1.
    10030    2    1    2    0    0  0.00000000000E+00  0.00000000000E+00  0.56957080949E+02  0.28029276268E+04  0.28023488670E+04 0.  0.
        3    1    3    3  502    0  0.63955255026E+03  0.35973544075E+03  0.12223970184E+04  0.14257249148E+04  0.10100000352E+00 0.  1.
       -3    1    3    3    0  502 -0.63955255026E+03 -0.35973544075E+03 -0.11654399375E+04  0.13772027120E+04  0.10100000352E+00 0. -1.
</event>
<event>
 5   0  0.3557628E-07  0.2799498E+04  0.7818609E-02  0.8303424E-01
        2   -1    0    0  501    0  0.00000000000E+00  0.00000000000E+00  0.97237202320E+03  0.97237202320E+03  0.25500000920E-02 0.  1.
       -2   -1    0    0    0  501  0.00000000000E+00  0.00000000000E+00 -0.20149673617E+04  0.20149673617E+04  0.25500000920E-02 0. -1.
    10030    2    1    2    0    0  0.00000000000E+00  0.00000000000E+00 -0.10425953385E+04  0.29873393849E+04  0.27994984481E+04 0.  0.
        5    1    3    3  502    0  0.38710679450E+03 -0.59782587677E+03  0.76455698623E+03  0.10449004376E+04  0.46999998093E+01 0.  1.
       -5    1    3    3    0  502 -0.38710679450E+03  0.59782587677E+03 -0.18071523247E+04  0.19424389473E+04  0.46999998093E+01 0. -1.
</event>
<event>
 5   0  0.3557628E-07  0.2799220E+04  0.7818609E-02  0.8303511E-01
       -2   -1    0    0    0  501  0.00000000000E+00  0.00000000000E+00  0.10799074407E+04  0.10799074407E+04  0.25500000920E-02 0. -1.
        2   -1    0    0  501    0  0.00000000000E+00  0.00000000000E+00 -0.18139593282E+04  0.18139593282E+04  0.25500000920E-02 0.  1.
    10030    2    1    2    0    0  0.00000000000E+00  0.00000000000E+00 -0.73405188746E+03  0.28938667689E+04  0.27992200169E+04 0.  0.
        5    1    3    3  502    0  0.12518149840E+04  0.53698059631E+03 -0.34438586127E+02  0.13625700060E+04  0.46999998093E+01 0. -1.
       -5    1    3    3    0  502 -0.12518149840E+04 -0.53698059631E+03 -0.69961330133E+03  0.15312967630E+04  0.46999998093E+01 0.  1.
</event>
<event>
 5   0  0.3522569E-07  0.2801621E+04  0.7818609E-02  0.8302765E-01
        2   -1    0    0  501    0  0.00000000000E+00  0.00000000000E+00  0.19517928830E+04  0.19517928830E+04  0.25500000920E-02 0. -1.
       -2   -1    0    0    0  501  0.00000000000E+00  0.00000000000E+00 -0.10053679426E+04  0.10053679426E+04  0.25500000920E-02 0.  1.
    10030    2    1    2    0    0  0.00000000000E+00  0.00000000000E+00  0.94642494043E+03  0.29571608256E+04  0.28016209559E+04 0.  0.
        1    1    3    3  502    0  0.10240431829E+04  0.11796997158E+03 -0.52796642386E+03  0.11581579769E+04  0.50400001928E-02 0.  1.
       -1    1    3    3    0  502 -0.10240431829E+04 -0.11796997158E+03  0.14743913643E+04  0.17990028487E+04  0.50400001928E-02 0. -1.
</event>
<event>
 5   0  0.1357902E-07  0.2800871E+04  0.7818609E-02  0.8302998E-01
        1   -1    0    0  501    0  0.00000000000E+00  0.00000000000E+00  0.14058107384E+04  0.14058107384E+04  0.50400001928E-02 0. -1.
       -1   -1    0    0    0  501  0.00000000000E+00  0.00000000000E+00 -0.13950807856E+04  0.13950807856E+04  0.50400001928E-02 0.  1.
    10030    2    1    2    0    0  0.00000000000E+00  0.00000000000E+00  0.10729952808E+02  0.28008915240E+04  0.28008709712E+04 0.  0.
        4    1    3    3  502    0  0.38872728532E+03  0.11150106191E+04 -0.74754183899E+03  0.13975614466E+04  0.12699999809E+01 0.  1.
       -4    1    3    3    0  502 -0.38872728532E+03 -0.11150106191E+04  0.75827179180E+03  0.14033300774E+04  0.12699999809E+01 0. -1.
</event>
<event>
 5   0  0.1173363E-07  0.2796128E+04  0.7818609E-02  0.8304471E-01
       -3   -1    0    0    0  501  0.00000000000E+00  0.00000000000E+00  0.16384591904E+04  0.16384591935E+04  0.10100000352E+00 0.  1.
        3   -1    0    0  501    0  0.00000000000E+00  0.00000000000E+00 -0.11929395817E+04  0.11929395860E+04  0.10100000352E+00 0. -1.
    10030    2    1    2    0    0  0.00000000000E+00  0.00000000000E+00  0.44551960874E+03  0.28313987795E+04  0.27961279167E+04 0.  0.
        4    1    3    3  502    0  0.99416317871E+03 -0.68988474534E+03 -0.48627249383E+03  0.13041334053E+04  0.12699999809E+01 0. -1.
       -4    1    3    3    0  502 -0.99416317871E+03  0.68988474534E+03  0.93179210257E+03  0.15272653742E+04  0.12699999809E+01 0.  1.
</event>
<event>
 5   0  0.3557628E-07  0.2799596E+04  0.7818609E-02  0.8303394E-01
        2   -1    0    0  501    0  0.00000000000E+00  0.00000000000E+00  0.18160709224E+04  0.18160709224E+04  0.25500000920E-02 0. -1.
       -2   -1    0    0    0  501  0.00000000000E+00  0.00000000000E+00 -0.10789414892E+04  0.10789414893E+04  0.25500000920E-02 0.  1.
    10030    2    1    2    0    0  0.00000000000E+00  0.00000000000E+00  0.73712943318E+03  0.28950124117E+04  0.27995958749E+04 0.  0.
        5    1    3    3  502    0 -0.97475388470E+03 -0.99139556700E+03  0.53658914481E+03  0.14902886654E+04  0.46999998093E+01 0.  1.
       -5    1    3    3    0  502  0.97475388470E+03  0.99139556700E+03  0.20054028837E+03  0.14047237462E+04  0.46999998093E+01 0. -1.
</event>
<event>
 5   0  0.3571498E-07  0.2799998E+04  0.7818609E-02  0.8303269E-01
       -2   -1    0    0    0  501  0.00000000000E+00  0.00000000000E+00  0.11440108339E+04  0.11440108339E+04  0.25500000920E-02 0. -1.
        2   -1    0    0  501    0  0.00000000000E+00  0.00000000000E+00 -0.17132679320E+04  0.17132679320E+04  0.25500000920E-02 0.  1.
    10030    2    1    2    0    0  0.00000000000E+00  0.00000000000E+00 -0.56925709808E+03  0.28572787660E+04  0.27999979112E+04 0.  0.
        2    1    3    3  502    0 -0.77205412075E+03 -0.48439684605E+03  0.79979139147E+03  0.12125898481E+04  0.25500000920E-02 0. -1.
       -2    1    3    3    0  502  0.77205412075E+03  0.48439684605E+03 -0.13690484895E+04  0.16446889179E+04  0.25500000920E-02 0.  1.
</event>
<event>
 5   0  0.3502141E-07  0.2800879E+04  0.7818609E-02  0.8302995E-01
       -2   -1    0    0    0  501  0.00000000000E+00  0.00000000000E+00  0.11818580988E+04  0.11818580988E+04  0.25500000920E-02 0.  1.
        2   -1    0    0  501    0  0.00000000000E+00  0.00000000000E+00 -0.16594474906E+04  0.16594474906E+04  0.25500000920E-02 0. -1.
    10030    2    1    2    0    0  0.00000000000E+00  0.00000000000E+00 -0.47758939180E+03  0.28413055893E+04  0.28008794735E+04 0.  0.
        3    1    3    3  502    0  0.12291890573E+04  0.14248410032E+02 -0.91939004632E+03  0.15350527102E+04  0.10100000352E+00 0. -1.
       -3    1    3    3    0  502 -0.12291890573E+04 -0.14248410032E+02  0.44180065452E+03  0.13062528791E+04  0.10100000352E+00 0.  1.
</event>
<event>
 5   0  0.1346049E-07  0.2802211E+04  0.7818609E-02  0.8302582E-01
       -1   -1    0    0    0  501  0.00000000000E+00  0.00000000000E+00  0.11996878327E+04  0.11996878327E+04  0.50400001928E-02 0.  1.
        1   -1    0    0  501    0  0.00000000000E+00  0.00000000000E+00 -0.16363398234E+04  0.16363398234E+04  0.50400001928E-02 0. -1.
    10030    2    1    2    0    0  0.00000000000E+00  0.00000000000E+00 -0.43665199073E+03  0.28360276562E+04  0.28022112528E+04 0.  0.
        1    1    3    3  502    0  0.84568184528E+02  0.18176228793E+03  0.11850976994E+04  0.12019342180E+04  0.50400001928E-02 0.  1.
       -1    1    3    3    0  502 -0.84568184528E+02 -0.18176228793E+03 -0.16217496902E+04  0.16340934382E+04  0.50400001928E-02 0. -1.
</event>
<event>
 5   0  0.3502141E-07  0.2800213E+04  0.7818609E-02  0.8303202E-01
        2   -1    0    0  501    0  0.00000000000E+00  0.00000000000E+00  0.18006612582E+04  0.18006612582E+04  0.25500000920E-02 0.  1.
       -2   -1    0    0    0  501  0.00000000000E+00  0.00000000000E+00 -0.10886548651E+04  0.10886548651E+04  0.25500000920E-02 0. -1.
    10030    2    1    2    0    0  0.00000000000E+00  0.00000000000E+00  0.71200639313E+03  0.28893161233E+04  0.28002133056E+04 0.  0.
        3    1    3    3  502    0 -0.88966366641E+03  0.56689733758E+02 -0.75797229201E+03  0.11701440813E+04  0.10100000352E+00 0. -1.
       -3    1    3    3    0  502  0.88966366641E+03 -0.56689733758E+02  0.14699786851E+04  0.17191720421E+04  0.10100000352E+00 0.  1.
</event>
<event>
 5   0  0.3557628E-07  0.2801994E+04  0.7818609E-02  0.8302650E-01
        2   -1    0    0  501    0  0.00000000000E+00  0.00000000000E+00  0.17048603082E+04  0.17048603082E+04  0.25500000920E-02 0.  1.
       -2   -1    0    0    0  501  0.00000000000E+00  0.00000000000E+00 -0.11512923274E+04  0.11512923275E+04  0.25500000920E-02 0. -1.
    10030    2    1    2    0    0  0.00000000000E+00  0.00000000000E+00  0.55356798076E+03  0.28561526357E+04  0.28019939987E+04 0.  0.
        5    1    3    3  502    0  0.48941365790E+03  0.12437644233E+04 -0.15120638637E+03  0.13451249497E+04  0.46999998093E+01 0. -1.
       -5    1    3    3    0  502 -0.48941365790E+03 -0.12437644233E+04  0.70477436713E+03  0.15110276859E+04  0.46999998093E+01 0.  1.
</event>
<event>
 5   0  0.1346049E-07  0.2800561E+04  0.7818609E-02  0.8303094E-01
       -1   -1    0    0    0  501  0.00000000000E+00  0.00000000000E+00  0.88336334034E+03  0.88336334036E+03  0.50400001928E-02 0. -1.
        1   -1    0    0  501    0  0.00000000000E+00  0.00000000000E+00 -0.22196821964E+04  0.22196821965E+04  0.50400001928E-02 0.  1.
    10030    2    1    2    0    0  0.00000000000E+00  0.00000000000E+00 -0.13363188561E+04  0.31030455368E+04  0.28005612863E+04 0.  0.
        1    1    3    3  502    0  0.78414637037E+03  0.93809755574E+03 -0.14244296320E+04  0.18772086541E+04  0.50400001928E-02 0. -1.
       -1    1    3    3    0  502 -0.78414637037E+03 -0.93809755574E+03  0.88110775924E+02  0.12258368827E+04  0.50400001928E-02 0.  1.
</event>
<event>
 5   0  0.1366235E-07  0.2801307E+04  0.7818609E-02  0.8302863E-01
       -1   -1    0    0    0  501  0.00000000000E+00  0.00000000000E+00  0.80344028437E+03  0.80344028439E+03  0.50400001928E-02 0. -1.
        1   -1    0    0  501    0  0.00000000000E+00  0.00000000000E+00 -0.24417865093E+04  0.24417865093E+04  0.50400001928E-02 0.  1.
    10030    2    1    2    0    0  0.00000000000E+00  0.00000000000E+00 -0.16383462249E+04  0.32452267937E+04  0.28013065862E+04 0.  0.
        2    1    3    3  502    0 -0.11787848903E+04  0.75650205926E+03 -0.81838389538E+03  0.16222149622E+04  0.25500000920E-02 0. -1.
       -2    1    3    3    0  502  0.11787848903E+04 -0.75650205926E+03 -0.81996232956E+03  0.16230118315E+04  0.25500000920E-02 0.  1.
</event>
<event>
 5   0  0.3406920E-07  0.2799469E+04  0.7818609E-02  0.8303433E-01
        2   -1    0    0  501    0  0.00000000000E+00  0.00000000000E+00  0.11960254603E+04  0.11960254603E+04  0.25500000920E-02 0.  1.
       -2   -1    0    0    0  501  0.00000000000E+00  0.00000000000E+00 -0.16381397165E+04  0.16381397165E+04  0.25500000920E-02 0. -1.
    10030    2    1    2    0    0  0.00000000000E+00  0.00000000000E+00 -0.44211425621E+03  0.28341651768E+04  0.27994690985E+04 0.  0.
        4    1    3    3  502    0 -0.20703795532E+03  0.54605041153E+03 -0.15089157362E+04  0.16179814828E+04  0.12699999809E+01 0. -1.
       -4    1    3    3    0  502  0.20703795532E+03 -0.54605041153E+03  0.10668014800E+04  0.12161836940E+04  0.12699999809E+01 0.  1.
</event>
<event>
 5   0  0.3406920E-07  0.2799988E+04  0.7818609E-02  0.8303272E-01
       -2   -1    0    0    0  501  0.00000000000E+00  0.00000000000E+00  0.14636021048E+04  0.14636021048E+04  0.25500000920E-02 0. -1.
        2   -1    0    0  501    0  0.00000000000E+00  0.00000000000E+00 -0.13391502222E+04  0.13391502222E+04  0.25500000920E-02 0.  1.
    10030    2    1    2    0    0  0.00000000000E+00  0.00000000000E+00  0.12445188261E+03  0.28027523270E+04  0.27999879170E+04 0.  0.
        4    1    3    3  502    0 -0.65439268728E+03  0.68325260926E+03  0.10951932032E+04  0.14472434773E+04  0.12699999809E+01 0. -1.
       -4    1    3    3    0  502  0.65439268728E+03 -0.68325260926E+03 -0.97074132061E+03  0.13555088497E+04  0.12699999809E+01 0.  1.
</event>
<event>
 5   0  0.3571498E-07  0.2799855E+04  0.7818609E-02  0.8303313E-01
       -2   -1    0    0    0  501  0.00000000000E+00  0.00000000000E+00  0.13461583291E+04  0.13461583291E+04  0.25500000920E-02 0. -1.
        2   -1    0    0  501    0  0.00000000000E+00  0.00000000000E+00 -0.14558447768E+04  0.14558447768E+04  0.25500000920E-02 0.  1.
    10030    2    1    2    0    0  0.00000000000E+00  0.00000000000E+00 -0.10968644779E+03  0.28020031059E+04  0.27998554050E+04 0.  0.
        2    1    3    3  502    0  0.94239673369E+03  0.20465112409E+03 -0.10704141800E+04  0.14407568160E+04  0.25500000920E-02 0.  1.
       -2    1    3    3    0  502 -0.94239673369E+03 -0.20465112409E+03  0.96072773219E+03  0.13612462899E+04  0.25500000920E-02 0. -1.
</event>
<event>
 5   0  0.3522569E-07  0.2799738E+04  0.7818609E-02  0.8303350E-01
        2   -1    0    0  501    0  0.00000000000E+00  0.00000000000E+00  0.20259202340E+04  0.20259202340E+04  0.25500000920E-02 0. -1.
       -2   -1    0    0    0  501  0.00000000000E+00  0.00000000000E+00 -0.96728071165E+03  0.96728071166E+03  0.25500000920E-02 0.  1.
    10030    2    1    2    0    0  0.00000000000E+00  0.00000000000E+00  0.10586395223E+04  0.29932009456E+04  0.27997382489E+04 0.  0.
        1    1    3    3  502    0 -0.10712545548E+04 -0.24688375198E+03 -0.39722428303E+03  0.11688990715E+04  0.50400001928E-02 0.  1.
       -1    1    3    3    0  502  0.10712545548E+04  0.24688375198E+03  0.14558638053E+04  0.18243018741E+04  0.50400001928E-02 0. -1.
</event>
<event>
 5   0  0.3406920E-07  0.2800078E+04  0.7818609E-02  0.8303244E-01
       -2   -1    0    0    0  501  0.00000000000E+00  0.00000000000E+00  0.13033049492E+04  0.13033049492E+04  0.25500000920E-02 0. -1.
        2   -1    0    0  501    0  0.00000000000E+00  0.00000000000E+00 -0.15039532538E+04  0.15039532538E+04  0.25500000920E-02 0.  1.
    10030    2    1    2    0    0  0.00000000000E+00  0.00000000000E+00 -0.20064830465E+03  0.28072582030E+04  0.28000783696E+04 0.  0.
        4    1    3    3  502    0  0.54213184307E+03  0.99435394272E+03 -0.92551509568E+03  0.14626094844E+04  0.12699999809E+01 0.  1.
       -4    1    3    3    0  502 -0.54213184307E+03 -0.99435394272E+03  0.72486679103E+03  0.13446487186E+04  0.12699999809E+01 0. -1.
</event>
<event>
 5   0  0.3502141E-07  0.2795426E+04  0.7818609E-02  0.8304690E-01
        2   -1    0    0  501    0  0.00000000000E+00  0.00000000000E+00  0.15828381139E+04  0.15828381139E+04  0.25500000920E-02 0. -1.
       -2   -1    0    0    0  501  0.00000000000E+00  0.00000000000E+00 -0.12342397618E+04  0.12342397618E+04  0.25500000920E-02 0.  1.
    10030    2    1    2    0    0  0.00000000000E+00  0.00000000000E+00  0.34859835211E+03  0.28170778757E+04  0.27954260760E+04 0.  0.
        3    1    3    3  502    0 -0.68813668167E+03 -0.96662688076E+03 -0.57013903402E+03  0.13164186825E+04  0.10100000352E+00 0.  1.
       -3    1    3    3    0  502  0.68813668167E+03  0.96662688076E+03  0.91873738613E+03  0.15006591932E+04  0.10100000352E+00 0. -1.
</event>
<event>
 5   0  0.1374680E-07  0.2800860E+04  0.7818609E-02  0.8303002E-01
       -1   -1    0    0    0  501  0.00000000000E+00  0.00000000000E+00  0.91513218193E+03  0.91513218195E+03  0.50400001928E-02 0. -1.
        1   -1    0    0  501    0  0.00000000000E+00  0.00000000000E+00 -0.21430823954E+04  0.21430823954E+04  0.50400001928E-02 0.  1.
    10030    2    1    2    0    0  0.00000000000E+00  0.00000000000E+00 -0.12279502135E+04  0.30582145774E+04  0.28008596313E+04 0.  0.
        3    1    3    3  502    0 -0.32445052919E+02 -0.94201476916E+03  0.51693405925E+03  0.10750187620E+04  0.10100000352E+00 0. -1.
       -3    1    3    3    0  502  0.32445052919E+02  0.94201476916E+03 -0.17448842728E+04  0.19831958154E+04  0.10100000352E+00 0.  1.
</event>
<event>
 5   0  0.1374680E-07  0.2800164E+04  0.7818609E-02  0.8303218E-01
       -1   -1    0    0    0  501  0.00000000000E+00  0.00000000000E+00  0.98020596314E+03  0.98020596315E+03  0.50400001928E-02 0.  1.
        1   -1    0    0  501    0  0.00000000000E+00  0.00000000000E+00 -0.19998133397E+04  0.19998133397E+04  0.50400001928E-02 0. -1.
    10030    2    1    2    0    0  0.00000000000E+00  0.00000000000E+00 -0.10196073766E+04  0.29800193029E+04  0.28001635386E+04 0.  0.
        3    1    3    3  502    0  0.12453031495E+04  0.38773768666E+03 -0.10515257383E+04  0.16753587187E+04  0.10100000352E+00 0. -1.
       -3    1    3    3    0  502 -0.12453031495E+04 -0.38773768666E+03  0.31918361734E+02  0.13046605842E+04  0.10100000352E+00 0.  1.
</event>
<event>
 5   0  0.1357902E-07  0.2802955E+04  0.7818609E-02  0.8302352E-01
       -1   -1    0    0    0  501  0.00000000000E+00  0.00000000000E+00  0.11838568325E+04  0.11838568325E+04  0.50400001928E-02 0. -1.
        1   -1    0    0  501    0  0.00000000000E+00  0.00000000000E+00 -0.16591018859E+04  0.16591018859E+04  0.50400001928E-02 0.  1.
    10030    2    1    2    0    0  0.00000000000E+00  0.00000000000E+00 -0.47524505335E+03  0.28429587184E+04  0.28029549432E+04 0.  0.
        4    1    3    3  502    0 -0.59385364172E+03  0.11816265332E+04  0.23293199904E+03  0.13428188042E+04  0.12699999809E+01 0. -1.
       -4    1    3    3    0  502  0.59385364172E+03 -0.11816265332E+04 -0.70817705239E+03  0.15001399142E+04  0.12699999809E+01 0.  1.
</event>
<event>
 5   0  0.1346049E-07  0.2800266E+04  0.7818609E-02  0.8303186E-01
       -1   -1    0    0    0  501  0.00000000000E+00  0.00000000000E+00  0.12885512330E+04  0.12885512330E+04  0.50400001928E-02 0. -1.
        1   -1    0    0  501    0  0.00000000000E+00  0.00000000000E+00 -0.15213773945E+04  0.15213773945E+04  0.50400001928E-02 0.  1.
    10030    2    1    2    0    0  0.00000000000E+00  0.00000000000E+00 -0.23282616149E+03  0.28099286276E+04  0.28002662142E+04 0.  0.
        1    1    3    3  502    0 -0.62281151545E+03 -0.12534569228E+04 -0.15292925793E+03  0.14079899854E+04  0.50400001928E-02 0. -1.
       -1    1    3    3    0  502  0.62281151545E+03  0.12534569228E+04 -0.79896903561E+02  0.14019386421E+04  0.50400001928E-02 0.  1.
</event>
<event>
 5   0  0.3522569E-07  0.2800798E+04  0.7818609E-02  0.8303021E-01
        2   -1    0    0  501    0  0.00000000000E+00  0.00000000000E+00  0.13059752535E+04  0.13059752535E+04  0.25500000920E-02 0. -1.
       -2   -1    0    0    0  501  0.00000000000E+00  0.00000000000E+00 -0.15016499272E+04  0.15016499272E+04  0.25500000920E-02 0.  1.
    10030    2    1    2    0    0  0.00000000000E+00  0.00000000000E+00 -0.19567467373E+03  0.28076251807E+04  0.28007982036E+04 0.  0.
        1    1    3    3  502    0 -0.83933793128E+03  0.10654604824E+04  0.25147070104E+03  0.13794679104E+04  0.50400001928E-02 0. -1.
       -1    1    3    3    0  502  0.83933793128E+03 -0.10654604824E+04 -0.44714537477E+03  0.14281572703E+04  0.50400001928E-02 0.  1.
</event>
<event>
 5   0  0.3406920E-07  0.2801268E+04  0.7818609E-02  0.8302875E-01
       -2   -1    0    0    0  501  0.00000000000E+00  0.00000000000E+00  0.10277536984E+04  0.10277536984E+04  0.25500000920E-02 0.  1.
        2   -1    0    0  501    0  0.00000000000E+00  0.00000000000E+00 -0.19087992960E+04  0.19087992960E+04  0.25500000920E-02 0. -1.
    10030    2    1    2    0    0  0.00000000000E+00  0.00000000000E+00 -0.88104559766E+03  0.29365529944E+04  0.28012679528E+04 0.  0.
        4    1    3    3  502    0  0.87191717532E+02 -0.12943753704E+04  0.11295662155E+03  0.13022176494E+04  0.12699999809E+01 0.  1.
       -4    1    3    3    0  502 -0.87191717532E+02  0.12943753704E+04 -0.99400221920E+03  0.16343353450E+04  0.12699999809E+01 0. -1.
</event>
<event>
 5   0  0.3571498E-07  0.2802814E+04  0.7818609E-02  0.8302395E-01
       -2   -1    0    0    0  501  0.00000000000E+00  0.00000000000E+00  0.11610531749E+04  0.11610531749E+04  0.25500000920E-02 0. -1.
        2   -1    0    0  501    0  0.00000000000E+00  0.00000000000E+00 -0.16915176111E+04  0.16915176112E+04  0.25500000920E-02 0.  1.
    10030    2    1    2    0    0  0.00000000000E+00  0.00000000000E+00 -0.53046443624E+03  0.28525707861E+04  0.28028142235E+04 0.  0.
        2    1    3    3  502    0 -0.99383671883E+03  0.85289308011E+03  0.24242513024E+03  0.13318813662E+04  0.25500000920E-02 0. -1.
       -2    1    3    3    0  502  0.99383671883E+03 -0.85289308011E+03 -0.77288956648E+03  0.15206894199E+04  0.25500000920E-02 0.  1.
</event>
<event>
 5   0  0.1361741E-07  0.2799455E+04  0.7818609E-02  0.8303438E-01
       -1   -1    0    0    0  501  0.00000000000E+00  0.00000000000E+00  0.96944200872E+03  0.96944200873E+03  0.50400001928E-02 0. -1.
        1   -1    0    0  501    0  0.00000000000E+00  0.00000000000E+00 -0.20209939395E+04  0.20209939395E+04  0.50400001928E-02 0.  1.
    10030    2    1    2    0    0  0.00000000000E+00  0.00000000000E+00 -0.10515519308E+04  0.29904359482E+04  0.27994545357E+04 0.  0.
        5    1    3    3  502    0  0.18521801167E+03  0.10923916821E+04  0.38790521566E+03  0.11739326409E+04  0.46999998093E+01 0. -1.
       -5    1    3    3    0  502 -0.18521801167E+03 -0.10923916821E+04 -0.14394571464E+04  0.18165033073E+04  0.46999998093E+01 0.  1.
</event>
<event>
 5   0  0.1374680E-07  0.2799234E+04  0.7818609E-02  0.8303506E-01
       -1   -1    0    0    0  501  0.00000000000E+00  0.00000000000E+00  0.12612451038E+04  0.12612451038E+04  0.50400001928E-02 0.  1.
        1   -1    0    0  501    0  0.00000000000E+00  0.00000000000E+00 -0.15531692235E+04  0.15531692235E+04  0.50400001928E-02 0. -1.
    10030    2    1    2    0    0  0.00000000000E+00  0.00000000000E+00 -0.29192411974E+03  0.28144143273E+04  0.27992335226E+04 0.  0.
        3    1    3    3  502    0 -0.87185285786E+03  0.10662950782E+04  0.10401144113E+03  0.13812787516E+04  0.10100000352E+00 0.  1.
       -3    1    3    3    0  502  0.87185285786E+03 -0.10662950782E+04 -0.39593556086E+03  0.14331355756E+04  0.10100000352E+00 0. -1.
</event>
<event>
 5   0  0.3522569E-07  0.2800346E+04  0.7818609E-02  0.8303161E-01
       -2   -1    0    0    0  501  0.00000000000E+00  0.00000000000E+00  0.82391880128E+03  0.82391880128E+03  0.25500000920E-02 0.  1.
        2   -1    0    0  501    0  0.00000000000E+00  0.00000000000E+00 -0.23794624566E+04  0.23794624566E+04  0.25500000920E-02 0. -1.
    10030    2    1    2    0    0  0.00000000000E+00  0.00000000000E+00 -0.15555436553E+04  0.32033812579E+04  0.28003455893E+04 0.  0.
        1    1    3    3  502    0  0.70387573915E+03  0.99162908393E+03  0.16175855243E+02  0.12161541656E+04  0.50400001928E-02 0.  1.
       -1    1    3    3    0  502 -0.70387573915E+03 -0.99162908393E+03 -0.15717195106E+04  0.19872270923E+04  0.50400001928E-02 0. -1.
</event>
<event>
 5   0  0.1357902E-07  0.2799458E+04  0.7818609E-02  0.8303437E-01
        1   -1    0    0  501    0  0.00000000000E+00  0.00000000000E+00  0.18921943938E+04  0.18921943938E+04  0.50400001928E-02 0.  1.
       -1   -1    0    0    0  501  0.00000000000E+00  0.00000000000E+00 -0.10354337488E+04  0.10354337488E+04  0.50400001928E-02 0. -1.
    10030    2    1    2    0    0  0.00000000000E+00  0.00000000000E+00  0.85676064498E+03  0.29276281427E+04  0.27994584724E+04 0.  0.
        4    1    3    3  502    0 -0.81768049326E+03  0.39978085792E+03 -0.68370346696E+03  0.11383664467E+04  0.12699999809E+01 0. -1.
       -4    1    3    3    0  502  0.81768049326E+03 -0.39978085792E+03  0.15404641119E+04  0.17892616959E+04  0.12699999809E+01 0.  1.
</event>
<event>
 5   0  0.1374680E-07  0.2799574E+04  0.7818609E-02  0.8303401E-01
       -1   -1    0    0    0  501  0.00000000000E+00  0.00000000000E+00  0.18124291662E+04  0.18124291662E+04  0.50400001928E-02 0. -1.
        1   -1    0    0  501    0  0.00000000000E+00  0.00000000000E+00 -0.10810921667E+04  0.10810921667E+04  0.50400001928E-02 0.  1.
    10030    2    1    2    0    0  0.00000000000E+00  0.00000000000E+00  0.73133699943E+03  0.28935213329E+04  0.27995735206E+04 0.  0.
        3    1    3    3  502    0  0.77993093826E+03 -0.16295465245E+02  0.15669301038E+04  0.17503793221E+04  0.10100000352E+00 0. -1.
       -3    1    3    3    0  502 -0.77993093826E+03  0.16295465245E+02 -0.83559310440E+03  0.11431420108E+04  0.10100000352E+00 0.  1.
</event>
<event>
 5   0  0.1346049E-07  0.2800387E+04  0.7818609E-02  0.8303148E-01
       -1   -1    0    0    0  501  0.00000000000E+00  0.00000000000E+00  0.12743788185E+04  0.12743788185E+04  0.50400001928E-02 0.  1.
        1   -1    0    0  501    0  0.00000000000E+00  0.00000000000E+00 -0.15384290257E+04  0.15384290257E+04  0.50400001928E-02 0. -1.
    10030    2    1    2    0    0  0.00000000000E+00  0.00000000000E+00 -0.26405020722E+03  0.28128078442E+04  0.28003866619E+04 0.  0.
        1    1    3    3  502    0  0.36040912087E+03 -0.20790013478E+03 -0.14749009931E+04  0.15324653797E+04  0.50400001928E-02 0. -1.
       -1    1    3    3    0  502 -0.36040912087E+03  0.20790013478E+03  0.12108507859E+04  0.12803424644E+04  0.50400001928E-02 0.  1.
</event>
<event>
 5   0  0.1361741E-07  0.2799216E+04  0.7818609E-02  0.8303512E-01
       -1   -1    0    0    0  501  0.00000000000E+00  0.00000000000E+00  0.83708322313E+03  0.83708322315E+03  0.50400001928E-02 0.  1.
        1   -1    0    0  501    0  0.00000000000E+00  0.00000000000E+00 -0.23401521896E+04  0.23401521896E+04  0.50400001928E-02 0. -1.
    10030    2    1    2    0    0  0.00000000000E+00  0.00000000000E+00 -0.15030689665E+04  0.31772354128E+04  0.27992157027E+04 0.  0.
        5    1    3    3  502    0  0.78859374510E+03 -0.15646397270E+02  0.56078313851E+03  0.96779373990E+03  0.46999998093E+01 0.  1.
       -5    1    3    3    0  502 -0.78859374510E+03  0.15646397270E+02 -0.20638521050E+04  0.22094416729E+04  0.46999998093E+01 0. -1.
</event>
<event>
 5   0  0.1374680E-07  0.2798597E+04  0.7818609E-02  0.8303704E-01
       -1   -1    0    0    0  501  0.00000000000E+00  0.00000000000E+00  0.10108200912E+04  0.10108200912E+04  0.50400001928E-02 0.  1.
        1   -1    0    0  501    0  0.00000000000E+00  0.00000000000E+00 -0.19370766773E+04  0.19370766773E+04  0.50400001928E-02 0. -1.
    10030    2    1    2    0    0  0.00000000000E+00  0.00000000000E+00 -0.92625658612E+03  0.29478967685E+04  0.27985968081E+04 0.  0.
        3    1    3    3  502    0 -0.43354744499E+03  0.10486364912E+03 -0.18601857509E+04  0.19129168330E+04  0.10100000352E+00 0. -1.
       -3    1    3    3    0  502  0.43354744499E+03 -0.10486364912E+03  0.93392916473E+03  0.10349799355E+04  0.10100000352E+00 0.  1.
</event>
<event>
 5   0  0.3406920E-07  0.2798897E+04  0.7818609E-02  0.8303611E-01
        2   -1    0    0  501    0  0.00000000000E+00  0.00000000000E+00  0.16101167806E+04  0.16101167806E+04  0.25500000920E-02 0.  1.
       -2   -1    0    0    0  501  0.00000000000E+00  0.00000000000E+00 -0.12163442523E+04  0.12163442523E+04  0.25500000920E-02 0. -1.
    10030    2    1    2    0    0  0.00000000000E+00  0.00000000000E+00  0.39377252822E+03  0.28264610329E+04  0.27988971340E+04 0.  0.
        4    1    3    3  502    0 -0.96228349349E+03 -0.51644467435E+03 -0.68680300936E+03  0.12901180605E+04  0.12699999809E+01 0. -1.
       -4    1    3    3    0  502  0.96228349349E+03  0.51644467435E+03  0.10805755376E+04  0.15363429724E+04  0.12699999809E+01 0.  1.
</event>
<event>
 5   0  0.3522569E-07  0.2806942E+04  0.7818609E-02  0.8301116E-01
        2   -1    0    0  501    0  0.00000000000E+00  0.00000000000E+00  0.16201808899E+04  0.16201808899E+04  0.25500000920E-02 0.  1.
       -2   -1    0    0    0  501  0.00000000000E+00  0.00000000000E+00 -0.12157477518E+04  0.12157477518E+04  0.25500000920E-02 0. -1.
    10030    2    1    2    0    0  0.00000000000E+00  0.00000000000E+00  0.40443313811E+03  0.28359286418E+04  0.28069423040E+04 0.  0.
        1    1    3    3  502    0 -0.48164075717E+03  0.90531420603E+03 -0.76588497551E+03  0.12799028972E+04  0.50400001928E-02 0. -1.
       -1    1    3    3    0  502  0.48164075717E+03 -0.90531420603E+03  0.11703181136E+04  0.15560257445E+04  0.50400001928E-02 0.  1.
</event>
<event>
 5   0  0.1357902E-07  0.2799345E+04  0.7818609E-02  0.8303472E-01
       -1   -1    0    0    0  501  0.00000000000E+00  0.00000000000E+00  0.17710308257E+04  0.17710308257E+04  0.50400001928E-02 0.  1.
        1   -1    0    0  501    0  0.00000000000E+00  0.00000000000E+00 -0.11061825683E+04  0.11061825683E+04  0.50400001928E-02 0. -1.
    10030    2    1    2    0    0  0.00000000000E+00  0.00000000000E+00  0.66484825740E+03  0.28772133940E+04  0.27993452287E+04 0.  0.
        4    1    3    3  502    0  0.12499549947E+04  0.53729620623E+03  0.67021024079E+03  0.15166601735E+04  0.12699999809E+01 0.  1.
       -4    1    3    3    0  502 -0.12499549947E+04 -0.53729620623E+03 -0.53619833870E+01  0.13605532205E+04  0.12699999809E+01 0. -1.
</event>
<event>
 5   0  0.3557628E-07  0.2798687E+04  0.7818609E-02  0.8303676E-01
       -2   -1    0    0    0  501  0.00000000000E+00  0.00000000000E+00  0.14096892841E+04  0.14096892842E+04  0.25500000920E-02 0. -1.
        2   -1    0    0  501    0  0.00000000000E+00  0.00000000000E+00 -0.13890733732E+04  0.13890733732E+04  0.25500000920E-02 0.  1.
    10030    2    1    2    0    0  0.00000000000E+00  0.00000000000E+00  0.20615910971E+02  0.27987626573E+04  0.27986867271E+04 0.  0.
        5    1    3    3  502    0  0.60367222270E+03 -0.51088961933E+03 -0.11441545685E+04  0.13908774648E+04  0.46999998093E+01 0.  1.
       -5    1    3    3    0  502 -0.60367222270E+03  0.51088961933E+03  0.11647704794E+04  0.14078851925E+04  0.46999998093E+01 0. -1.
</event>
<event>
 5   0  0.1357902E-07  0.2799762E+04  0.7818609E-02  0.8303342E-01
       -1   -1    0    0    0  501  0.00000000000E+00  0.00000000000E+00  0.98275802131E+03  0.98275802133E+03  0.50400001928E-02 0.  1.
        1   -1    0    0  501    0  0.00000000000E+00  0.00000000000E+00 -0.19940475320E+04  0.19940475320E+04  0.50400001928E-02 0. -1.
    10030    2    1    2    0    0  0.00000000000E+00  0.00000000000E+00 -0.10112895107E+04  0.29768055533E+04  0.27997615663E+04 0.  0.
        4    1    3    3  502    0  0.11208953545E+04  0.77323310183E+03 -0.16051264106E+03  0.13711534365E+04  0.12699999809E+01 0. -1.
       -4    1    3    3    0  502 -0.11208953545E+04 -0.77323310183E+03 -0.85077686963E+03  0.16056521168E+04  0.12699999809E+01 0.  1.
</event>
<event>
 5   0  0.1346049E-07  0.2800936E+04  0.7818609E-02  0.8302978E-01
       -1   -1    0    0    0  501  0.00000000000E+00  0.00000000000E+00  0.16117978768E+04  0.16117978768E+04  0.50400001928E-02 0.  1.
        1   -1    0    0  501    0  0.00000000000E+00  0.00000000000E+00 -0.12168460947E+04  0.12168460947E+04  0.50400001928E-02 0. -1.
    10030    2    1    2    0    0  0.00000000000E+00  0.00000000000E+00  0.39495178214E+03  0.28286439715E+04  0.28009355236E+04 0.  0.
        1    1    3    3  502    0  0.24191586427E+03  0.93184834423E+02 -0.11924031359E+04  0.12202589633E+04  0.50400001928E-02 0. -1.
       -1    1    3    3    0  502 -0.24191586427E+03 -0.93184834423E+02  0.15873549181E+04  0.16083850082E+04  0.50400001928E-02 0.  1.
</event>
<event>
 5   0  0.1346049E-07  0.2800594E+04  0.7818609E-02  0.8303084E-01
       -1   -1    0    0    0  501  0.00000000000E+00  0.00000000000E+00  0.13107679014E+04  0.13107679014E+04  0.50400001928E-02 0. -1.
        1   -1    0    0  501    0  0.00000000000E+00  0.00000000000E+00 -0.14959408758E+04  0.14959408758E+04  0.50400001928E-02 0.  1.
    10030    2    1    2    0    0  0.00000000000E+00  0.00000000000E+00 -0.18517297440E+03  0.28067087772E+04  0.28005937102E+04 0.  0.
        1    1    3    3  502    0 -0.54924278324E+03  0.11990556650E+04 -0.56417655469E+03  0.14344676043E+04  0.50400001928E-02 0.  1.
       -1    1    3    3    0  502  0.54924278324E+03 -0.11990556650E+04  0.37900358029E+03  0.13722411729E+04  0.50400001928E-02 0. -1.
</event>
<event>
 5   0  0.1374680E-07  0.2799921E+04  0.7818609E-02  0.8303293E-01
       -1   -1    0    0    0  501  0.00000000000E+00  0.00000000000E+00  0.10013864844E+04  0.10013864844E+04  0.50400001928E-02 0.  1.
        1   -1    0    0  501    0  0.00000000000E+00  0.00000000000E+00 -0.19571761973E+04  0.19571761973E+04  0.50400001928E-02 0. -1.
    10030    2    1    2    0    0  0.00000000000E+00  0.00000000000E+00 -0.95578971290E+03  0.29585626817E+04  0.27999212786E+04 0.  0.
        3    1    3    3  502    0 -0.12482779576E+04 -0.47881446751E+03 -0.91666759832E+03  0.16210307368E+04  0.10100000352E+00 0.  1.
       -3    1    3    3    0  502  0.12482779576E+04  0.47881446751E+03 -0.39122114581E+02  0.13375319449E+04  0.10100000352E+00 0. -1.
</event>
<event>
 5   0  0.3557628E-07  0.2801139E+04  0.7818609E-02  0.8302915E-01
       -2   -1    0    0    0  501  0.00000000000E+00  0.00000000000E+00  0.11926237777E+04  0.11926237777E+04  0.25500000920E-02 0. -1.
        2   -1    0    0  501    0  0.00000000000E+00  0.00000000000E+00 -0.16447724608E+04  0.16447724608E+04  0.25500000920E-02 0.  1.
    10030    2    1    2    0    0  0.00000000000E+00  0.00000000000E+00 -0.45214868303E+03  0.28373962385E+04  0.28011388724E+04 0.  0.
        5    1    3    3  502    0  0.10490975436E+03 -0.13920066223E+04 -0.34105199661E+03  0.14370201973E+04  0.46999998093E+01 0. -1.
       -5    1    3    3    0  502 -0.10490975436E+03  0.13920066223E+04 -0.11109668642E+03  0.14003760412E+04  0.46999998093E+01 0.  1.
</event>
<event>
 5   0  0.3522569E-07  0.2798903E+04  0.7818609E-02  0.8303609E-01
       -2   -1    0    0    0  501  0.00000000000E+00  0.00000000000E+00  0.20815381431E+04  0.20815381431E+04  0.25500000920E-02 0. -1.
        2   -1    0    0  501    0  0.00000000000E+00  0.00000000000E+00 -0.94087371398E+03  0.94087371399E+03  0.25500000920E-02 0.  1.
    10030    2    1    2    0    0  0.00000000000E+00  0.00000000000E+00  0.11406644292E+04  0.30224118571E+04  0.27989030162E+04 0.  0.
        1    1    3    3  502    0  0.35396951920E+03 -0.78016615638E+03  0.17652750146E+04  0.19621797903E+04  0.50400001928E-02 0. -1.
       -1    1    3    3    0  502 -0.35396951920E+03  0.78016615638E+03 -0.62461058547E+03  0.10602320669E+04  0.50400001928E-02 0.  1.
</event>
<event>
 5   0  0.1357902E-07  0.2801619E+04  0.7818609E-02  0.8302766E-01
        1   -1    0    0  501    0  0.00000000000E+00  0.00000000000E+00  0.17899208024E+04  0.17899208025E+04  0.50400001928E-02 0.  1.
       -1   -1    0    0    0  501  0.00000000000E+00  0.00000000000E+00 -0.10962875259E+04  0.10962875259E+04  0.50400001928E-02 0. -1.
    10030    2    1    2    0    0  0.00000000000E+00  0.00000000000E+00  0.69363327655E+03  0.28862083284E+04  0.28016194232E+04 0.  0.
        4    1    3    3  502    0  0.88301019270E+03 -0.10838049938E+04  0.43853256388E+03  0.14651459611E+04  0.12699999809E+01 0.  1.
       -4    1    3    3    0  502 -0.88301019270E+03  0.10838049938E+04  0.25510071267E+03  0.14210623672E+04  0.12699999809E+01 0. -1.
</event>
<event>
 5   0  0.1374680E-07  0.2799389E+04  0.7818609E-02  0.8303458E-01
        1   -1    0    0  501    0  0.00000000000E+00  0.00000000000E+00  0.22355607520E+04  0.22355607520E+04  0.50400001928E-02 0.  1.
       -1   -1    0    0    0  501  0.00000000000E+00  0.00000000000E+00 -0.87635523380E+03  0.87635523381E+03  0.50400001928E-02 0. -1.
    10030    2    1    2    0    0  0.00000000000E+00  0.00000000000E+00  0.13592055182E+04  0.31119159858E+04  0.27993894802E+04 0.  0.
        3    1    3    3  502    0  0.23357424072E+03  0.21811997536E+03 -0.83525517112E+03  0.89430669273E+03  0.10100000352E+00 0. -1.
       -3    1    3    3    0  502 -0.23357424072E+03 -0.21811997536E+03  0.21944606893E+04  0.22176092931E+04  0.10100000352E+00 0.  1.
</event>
<event>
 5   0  0.3557628E-07  0.2791028E+04  0.7818609E-02  0.8306059E-01
        2   -1    0    0  501    0  0.00000000000E+00  0.00000000000E+00  0.13296885765E+04  0.13296885765E+04  0.25500000920E-02 0. -1.
       -2   -1    0    0    0  501  0.00000000000E+00  0.00000000000E+00 -0.14645979888E+04  0.14645979888E+04  0.25500000920E-02 0.  1.
    10030    2    1    2    0    0  0.00000000000E+00  0.00000000000E+00 -0.13490941228E+03  0.27942865653E+04  0.27910279217E+04 0.  0.
        5    1    3    3  502    0  0.34386768060E+03  0.13407739657E+04  0.11028373864E+03  0.13885619906E+04  0.46999998093E+01 0. -1.
       -5    1    3    3    0  502 -0.34386768060E+03 -0.13407739657E+04 -0.24519315091E+03  0.14057245747E+04  0.46999998093E+01 0.  1.
</event>
<event>
 5   0  0.1374680E-07  0.2799787E+04  0.7818609E-02  0.8303335E-01
       -1   -1    0    0    0  501  0.00000000000E+00  0.00000000000E+00  0.63951845232E+03  0.63951845234E+03  0.50400001928E-02 0. -1.
        1   -1    0    0  501    0  0.00000000000E+00  0.00000000000E+00 -0.30643390251E+04  0.30643390251E+04  0.50400001928E-02 0.  1.
    10030    2    1    2    0    0  0.00000000000E+00  0.00000000000E+00 -0.24248205728E+04  0.37038574775E+04  0.27997866710E+04 0.  0.
        3    1    3    3  502    0 -0.10552669099E+04  0.84393449201E+03 -0.16964707422E+04  0.21688307142E+04  0.10100000352E+00 0. -1.
       -3    1    3    3    0  502  0.10552669099E+04 -0.84393449201E+03 -0.72834983066E+03  0.15350267632E+04  0.10100000352E+00 0.  1.
</event>
<event>
 5   0  0.1374680E-07  0.2800990E+04  0.7818609E-02  0.8302961E-01
       -1   -1    0    0    0  501  0.00000000000E+00  0.00000000000E+00  0.10058560843E+04  0.10058560843E+04  0.50400001928E-02 0.  1.
        1   -1    0    0  501    0  0.00000000000E+00  0.00000000000E+00 -0.19499676520E+04  0.19499676520E+04  0.50400001928E-02 0. -1.
    10030    2    1    2    0    0  0.00000000000E+00  0.00000000000E+00 -0.94411156772E+03  0.29558237363E+04  0.28009904155E+04 0.  0.
        3    1    3    3  502    0 -0.55126525277E+03 -0.93470536599E+02 -0.18270741940E+04  0.19107145890E+04  0.10100000352E+00 0. -1.
       -3    1    3    3    0  502  0.55126525277E+03  0.93470536599E+02  0.88296262628E+03  0.10451091473E+04  0.10100000352E+00 0.  1.
</event>
<event>
 5   0  0.3406920E-07  0.2799494E+04  0.7818609E-02  0.8303426E-01
        2   -1    0    0  501    0  0.00000000000E+00  0.00000000000E+00  0.86577219998E+03  0.86577219999E+03  0.25500000920E-02 0. -1.
       -2   -1    0    0    0  501  0.00000000000E+00  0.00000000000E+00 -0.22630565789E+04  0.22630565789E+04  0.25500000920E-02 0.  1.
    10030    2    1    2    0    0  0.00000000000E+00  0.00000000000E+00 -0.13972843789E+04  0.31288287789E+04  0.27994938635E+04 0.  0.
        4    1    3    3  502    0  0.11764275032E+04 -0.75238848663E+02  0.14489707269E+03  0.11877033844E+04  0.12699999809E+01 0. -1.
       -4    1    3    3    0  502 -0.11764275032E+04  0.75238848663E+02 -0.15421814516E+04  0.19411253945E+04  0.12699999809E+01 0.  1.
</event>
<event>
 5   0  0.3571498E-07  0.2802123E+04  0.7818609E-02  0.8302610E-01
        2   -1    0    0  501    0  0.00000000000E+00  0.00000000000E+00  0.16870391727E+04  0.16870391727E+04  0.25500000920E-02 0.  1.
       -2   -1    0    0    0  501  0.00000000000E+00  0.00000000000E+00 -0.11635610206E+04  0.11635610206E+04  0.25500000920E-02 0. -1.
    10030    2    1    2    0    0  0.00000000000E+00  0.00000000000E+00  0.52347815209E+03  0.28506001933E+04  0.28021227822E+04 0.  0.
        2    1    3    3  502    0 -0.92318832751E+03  0.10534336471E+04  0.29348609184E+03  0.14311300511E+04  0.25500000920E-02 0. -1.
       -2    1    3    3    0  502  0.92318832751E+03 -0.10534336471E+04  0.22999206025E+03  0.14194701422E+04  0.25500000920E-02 0.  1.
</event>
<event>
 5   0  0.1366235E-07  0.2801364E+04  0.7818609E-02  0.8302845E-01
        1   -1    0    0  501    0  0.00000000000E+00  0.00000000000E+00  0.19336950513E+04  0.19336950513E+04  0.50400001928E-02 0.  1.
       -1   -1    0    0    0  501  0.00000000000E+00  0.00000000000E+00 -0.10145914388E+04  0.10145914388E+04  0.50400001928E-02 0. -1.
    10030    2    1    2    0    0  0.00000000000E+00  0.00000000000E+00  0.91910361247E+03  0.29482864901E+04  0.28013642707E+04 0.  0.
        2    1    3    3  502    0 -0.23009731763E+03 -0.20196344478E+03 -0.97894546380E+03  0.10257037729E+04  0.25500000920E-02 0. -1.
       -2    1    3    3    0  502  0.23009731763E+03  0.20196344478E+03  0.18980490763E+04  0.19225827172E+04  0.25500000920E-02 0.  1.
</event>
<event>
 5   0  0.3571498E-07  0.2800176E+04  0.7818609E-02  0.8303214E-01
       -2   -1    0    0    0  501  0.00000000000E+00  0.00000000000E+00  0.78206300139E+03  0.78206300139E+03  0.25500000920E-02 0.  1.
        2   -1    0    0  501    0  0.00000000000E+00  0.00000000000E+00 -0.25065063857E+04  0.25065063857E+04  0.25500000920E-02 0. -1.
    10030    2    1    2    0    0  0.00000000000E+00  0.00000000000E+00 -0.17244433843E+04  0.32885693871E+04  0.28001756424E+04 0.  0.
        2    1    3    3  502    0  0.29837890092E+03 -0.10854101141E+04  0.11551056445E+03  0.11315863974E+04  0.25500000920E-02 0.  1.
       -2    1    3    3    0  502 -0.29837890092E+03  0.10854101141E+04 -0.18399539488E+04  0.21569829897E+04  0.25500000920E-02 0. -1.
</event>
<event>
 5   0  0.1366235E-07  0.2801875E+04  0.7818609E-02  0.8302686E-01
       -1   -1    0    0    0  501  0.00000000000E+00  0.00000000000E+00  0.14899138196E+04  0.14899138196E+04  0.50400001928E-02 0.  1.
        1   -1    0    0  501    0  0.00000000000E+00  0.00000000000E+00 -0.13172751822E+04  0.13172751822E+04  0.50400001928E-02 0. -1.
    10030    2    1    2    0    0  0.00000000000E+00  0.00000000000E+00  0.17263863742E+03  0.28071890017E+04  0.28018754420E+04 0.  0.
        2    1    3    3  502    0 -0.97395388161E+03 -0.98761211630E+03  0.28332039318E+03  0.14157098223E+04  0.25500000920E-02 0. -1.
       -2    1    3    3    0  502  0.97395388161E+03  0.98761211630E+03 -0.11068175576E+03  0.13914791794E+04  0.25500000920E-02 0.  1.
</event>
<event>
 5   0  0.1346049E-07  0.2799905E+04  0.7818609E-02  0.8303298E-01
       -1   -1    0    0    0  501  0.00000000000E+00  0.00000000000E+00  0.10187917664E+04  0.10187917664E+04  0.50400001928E-02 0. -1.
        1   -1    0    0  501    0  0.00000000000E+00  0.00000000000E+00 -0.19237170729E+04  0.19237170729E+04  0.50400001928E-02 0.  1.
    10030    2    1    2    0    0  0.00000000000E+00  0.00000000000E+00 -0.90492530654E+03  0.29425088393E+04  0.27999050803E+04 0.  0.
        1    1    3    3  502    0  0.12832892435E+04  0.65497799181E+02 -0.10364118245E+04  0.16508393968E+04  0.50400001928E-02 0.  1.
       -1    1    3    3    0  502 -0.12832892435E+04 -0.65497799181E+02  0.13148651799E+03  0.12916694424E+04  0.50400001928E-02 0. -1.
</event>
<event>
 5   0  0.3571498E-07  0.2800350E+04  0.7818609E-02  0.8303160E-01
       -2   -1    0    0    0  501  0.00000000000E+00  0.00000000000E+00  0.16916524103E+04  0.16916524103E+04  0.25500000920E-02 0. -1.
        2   -1    0    0  501    0  0.00000000000E+00  0.00000000000E+00 -0.11589200678E+04  0.11589200678E+04  0.25500000920E-02 0.  1.
    10030    2    1    2    0    0  0.00000000000E+00  0.00000000000E+00  0.53273234254E+03  0.28505724781E+04  0.28003499253E+04 0.  0.
        2    1    3    3  502    0 -0.70532080830E+03  0.10193374317E+04 -0.39643629085E+03  0.13014176789E+04  0.25500000920E-02 0.  1.
       -2    1    3    3    0  502  0.70532080830E+03 -0.10193374317E+04  0.92916863339E+03  0.15491547991E+04  0.25500000920E-02 0. -1.
</event>
<event>
 5   0  0.3406920E-07  0.2799516E+04  0.7818609E-02  0.8303419E-01
        2   -1    0    0  501    0  0.00000000000E+00  0.00000000000E+00  0.19766365034E+04  0.19766365034E+04  0.25500000920E-02 0.  1.
       -2   -1    0    0    0  501  0.00000000000E+00  0.00000000000E+00 -0.99124036903E+03  0.99124036903E+03  0.25500000920E-02 0. -1.
    10030    2    1    2    0    0  0.00000000000E+00  0.00000000000E+00  0.98539613438E+03  0.29678768724E+04  0.27995155989E+04 0.  0.
        4    1    3    3  502    0 -0.56698242821E+03 -0.48661360024E+03 -0.76214989330E+03  0.10673031166E+04  0.12699999809E+01 0. -1.
       -4    1    3    3    0  502  0.56698242821E+03  0.48661360024E+03  0.17475460277E+04  0.19005737559E+04  0.12699999809E+01 0.  1.
</event>
<event>
 5   0  0.3522569E-07  0.2800076E+04  0.7818609E-02  0.8303245E-01
       -2   -1    0    0    0  501  0.00000000000E+00  0.00000000000E+00  0.14216831321E+04  0.14216831321E+04  0.25500000920E-02 0.  1.
        2   -1    0    0  501    0  0.00000000000E+00  0.00000000000E+00 -0.13787223074E+04  0.13787223074E+04  0.25500000920E-02 0. -1.
    10030    2    1    2    0    0  0.00000000000E+00  0.00000000000E+00  0.42960824735E+02  0.28004054395E+04  0.28000758906E+04 0.  0.
        1    1    3    3  502    0  0.12276638329E+04 -0.67251049036E+03 -0.45495977127E+01  0.13998033952E+04  0.50400001928E-02 0. -1.
       -1    1    3    3    0  502 -0.12276638329E+04  0.67251049036E+03  0.47510422447E+02  0.14006020443E+04  0.50400001928E-02 0.  1.
</event>
<event>
 5   0  0.3522569E-07  0.2786246E+04  0.7818609E-02  0.8307551E-01
        2   -1    0    0  501    0  0.00000000000E+00  0.00000000000E+00  0.11043548462E+04  0.11043548462E+04  0.25500000920E-02 0.  1.
       -2   -1    0    0    0  501  0.00000000000E+00  0.00000000000E+00 -0.17573986659E+04  0.17573986659E+04  0.25500000920E-02 0. -1.
    10030    2    1    2    0    0  0.00000000000E+00  0.00000000000E+00 -0.65304381975E+03  0.28617535121E+04  0.27862460289E+04 0.  0.
        1    1    3    3  502    0  0.85931100609E+03  0.18820695361E+03  0.78300979844E+03  0.11776848505E+04  0.50400001928E-02 0.  1.
       -1    1    3    3    0  502 -0.85931100609E+03 -0.18820695361E+03 -0.14360536182E+04  0.16840686616E+04  0.50400001928E-02 0. -1.
</event>
<event>
 5   0  0.1366235E-07  0.2807523E+04  0.7818609E-02  0.8300936E-01
        1   -1    0    0  501    0  0.00000000000E+00  0.00000000000E+00  0.30478469195E+04  0.30478469195E+04  0.50400001928E-02 0. -1.
       -1   -1    0    0    0  501  0.00000000000E+00  0.00000000000E+00 -0.64653739716E+03  0.64653739718E+03  0.50400001928E-02 0.  1.
    10030    2    1    2    0    0  0.00000000000E+00  0.00000000000E+00  0.24013095223E+04  0.36943843166E+04  0.28075234740E+04 0.  0.
        2    1    3    3  502    0 -0.36250999823E+03  0.79135180639E+03 -0.24855225504E+03  0.90522339993E+03  0.25500000920E-02 0.  1.
       -2    1    3    3    0  502  0.36250999823E+03 -0.79135180639E+03  0.26498617773E+04  0.27891609167E+04  0.25500000920E-02 0. -1.
</event>
<event>
 5   0  0.1173363E-07  0.2799371E+04  0.7818609E-02  0.8303464E-01
       -4   -1    0    0    0  501  0.00000000000E+00  0.00000000000E+00  0.17951032450E+04  0.17951036942E+04  0.12699999809E+01 0. -1.
        4   -1    0    0  501    0  0.00000000000E+00  0.00000000000E+00 -0.10913674434E+04  0.10913681823E+04  0.12699999809E+01 0.  1.
    10030    2    1    2    0    0  0.00000000000E+00  0.00000000000E+00  0.70373580160E+03  0.28864718765E+04  0.27993706106E+04 0.  0.
        5    1    3    3  502    0 -0.72296901409E+03  0.10578218835E+04 -0.22906752290E+03  0.13016010727E+04  0.46999998093E+01 0.  1.
       -5    1    3    3    0  502  0.72296901409E+03 -0.10578218835E+04  0.93280332450E+03  0.15848708038E+04  0.46999998093E+01 0. -1.
</event>
<event>
 5   0  0.3522569E-07  0.2798532E+04  0.7818609E-02  0.8303724E-01
       -2   -1    0    0    0  501  0.00000000000E+00  0.00000000000E+00  0.85388517203E+03  0.85388517204E+03  0.25500000920E-02 0. -1.
        2   -1    0    0  501    0  0.00000000000E+00  0.00000000000E+00 -0.22929836944E+04  0.22929836944E+04  0.25500000920E-02 0.  1.
    10030    2    1    2    0    0  0.00000000000E+00  0.00000000000E+00 -0.14390985223E+04  0.31468688664E+04  0.27985315981E+04 0.  0.
        1    1    3    3  502    0  0.25562673750E+03  0.84300124371E+03  0.50294755137E+03  0.10143728926E+04  0.50400001928E-02 0. -1.
       -1    1    3    3    0  502 -0.25562673750E+03 -0.84300124371E+03 -0.19420460737E+04  0.21324959738E+04  0.50400001928E-02 0.  1.
</event>
<event>
 5   0  0.3557628E-07  0.2799102E+04  0.7818609E-02  0.8303547E-01
        2   -1    0    0  501    0  0.00000000000E+00  0.00000000000E+00  0.22129659715E+04  0.22129659715E+04  0.25500000920E-02 0.  1.
       -2   -1    0    0    0  501  0.00000000000E+00  0.00000000000E+00 -0.88512089336E+03  0.88512089336E+03  0.25500000920E-02 0. -1.
    10030    2    1    2    0    0  0.00000000000E+00  0.00000000000E+00  0.13278450781E+04  0.30980868649E+04  0.27991015828E+04 0.  0.
        5    1    3    3  502    0  0.12642015278E+04  0.60041482792E+03  0.66846711988E+03  0.15509912472E+04  0.46999998093E+01 0.  1.
       -5    1    3    3    0  502 -0.12642015278E+04 -0.60041482792E+03  0.65937795826E+03  0.15470956177E+04  0.46999998093E+01 0. -1.
</event>
<event>
 5   0  0.3406920E-07  0.2799667E+04  0.7818609E-02  0.8303372E-01
        2   -1    0    0  501    0  0.00000000000E+00  0.00000000000E+00  0.26997544092E+04  0.26997544093E+04  0.25500000920E-02 0.  1.
       -2   -1    0    0    0  501  0.00000000000E+00  0.00000000000E+00 -0.72581913541E+03  0.72581913542E+03  0.25500000920E-02 0. -1.
    10030    2    1    2    0    0  0.00000000000E+00  0.00000000000E+00  0.19739352738E+04  0.34255735447E+04  0.27996667024E+04 0.  0.
        4    1    3    3  502    0  0.43845771887E+03  0.18702437294E+02  0.26134055054E+04  0.26499971511E+04  0.12699999809E+01 0.  1.
       -4    1    3    3    0  502 -0.43845771887E+03 -0.18702437294E+02 -0.63947023152E+03  0.77557639359E+03  0.12699999809E+01 0. -1.
</event>
<event>
 5   0  0.1346049E-07  0.2798665E+04  0.7818609E-02  0.8303683E-01
       -1   -1    0    0    0  501  0.00000000000E+00  0.00000000000E+00  0.11016355918E+04  0.11016355918E+04  0.50400001928E-02 0. -1.
        1   -1    0    0  501    0  0.00000000000E+00  0.00000000000E+00 -0.17774771228E+04  0.17774771228E+04  0.50400001928E-02 0.  1.
    10030    2    1    2    0    0  0.00000000000E+00  0.00000000000E+00 -0.67584153101E+03  0.28791127147E+04  0.27986654407E+04 0.  0.
        1    1    3    3  502    0  0.86921310733E+03  0.46256667601E+03 -0.13608019016E+04  0.16796669822E+04  0.50400001928E-02 0.  1.
       -1    1    3    3    0  502 -0.86921310733E+03 -0.46256667601E+03  0.68496037061E+03  0.11994457324E+04  0.50400001928E-02 0. -1.
</event>
<event>
 5   0  0.3502141E-07  0.2799295E+04  0.7818609E-02  0.8303487E-01
        2   -1    0    0  501    0  0.00000000000E+00  0.00000000000E+00  0.24953521380E+04  0.24953521380E+04  0.25500000920E-02 0. -1.
       -2   -1    0    0    0  501  0.00000000000E+00  0.00000000000E+00 -0.78506497230E+03  0.78506497231E+03  0.25500000920E-02 0.  1.
    10030    2    1    2    0    0  0.00000000000E+00  0.00000000000E+00  0.17102871657E+04  0.32804171103E+04  0.27992953093E+04 0.  0.
        3    1    3    3  502    0  0.75311564542E+03 -0.61967104657E+03  0.20315997544E+04  0.22535689369E+04  0.10100000352E+00 0. -1.
       -3    1    3    3    0  502 -0.75311564542E+03  0.61967104657E+03 -0.32131258868E+03  0.10268481734E+04  0.10100000352E+00 0.  1.
</event>
<event>
 5   0  0.3522569E-07  0.2799755E+04  0.7818609E-02  0.8303345E-01
       -2   -1    0    0    0  501  0.00000000000E+00  0.00000000000E+00  0.10671269811E+04  0.10671269811E+04  0.25500000920E-02 0. -1.
        2   -1    0    0  501    0  0.00000000000E+00  0.00000000000E+00 -0.18363854016E+04  0.18363854016E+04  0.25500000920E-02 0.  1.
    10030    2    1    2    0    0  0.00000000000E+00  0.00000000000E+00 -0.76925842049E+03  0.29035123828E+04  0.27997545677E+04 0.  0.
        1    1    3    3  502    0  0.13652143042E+04  0.15911462846E+03 -0.66004391041E+03  0.15247247375E+04  0.50400001928E-02 0. -1.
       -1    1    3    3    0  502 -0.13652143042E+04 -0.15911462846E+03 -0.10921451008E+03  0.13787876453E+04  0.50400001928E-02 0.  1.
</event>
<event>
 5   0  0.1357902E-07  0.2800058E+04  0.7818609E-02  0.8303250E-01
        1   -1    0    0  501    0  0.00000000000E+00  0.00000000000E+00  0.20469656129E+04  0.20469656129E+04  0.50400001928E-02 0.  1.
       -1   -1    0    0    0  501  0.00000000000E+00  0.00000000000E+00 -0.95755425969E+03  0.95755425970E+03  0.50400001928E-02 0. -1.
    10030    2    1    2    0    0  0.00000000000E+00  0.00000000000E+00  0.10894113532E+04  0.30045198726E+04  0.28000576009E+04 0.  0.
        4    1    3    3  502    0 -0.54044575511E+03 -0.21493480245E+03  0.19111968259E+04  0.19977370958E+04  0.12699999809E+01 0.  1.
       -4    1    3    3    0  502  0.54044575511E+03  0.21493480245E+03 -0.82178547275E+03  0.10067827768E+04  0.12699999809E+01 0. -1.
</event>
<event>
 5   0  0.3502141E-07  0.2798920E+04  0.7818609E-02  0.8303604E-01
        2   -1    0    0  501    0  0.00000000000E+00  0.00000000000E+00  0.15951631875E+04  0.15951631875E+04  0.25500000920E-02 0.  1.
       -2   -1    0    0    0  501  0.00000000000E+00  0.00000000000E+00 -0.12277665245E+04  0.12277665245E+04  0.25500000920E-02 0. -1.
    10030    2    1    2    0    0  0.00000000000E+00  0.00000000000E+00  0.36739666299E+03  0.28229297120E+04  0.27989197650E+04 0.  0.
        3    1    3    3  502    0 -0.40129123155E+03  0.91727703220E+03  0.11698672594E+04  0.15398120733E+04  0.10100000352E+00 0.  1.
       -3    1    3    3    0  502  0.40129123155E+03 -0.91727703220E+03 -0.80247059640E+03  0.12831176386E+04  0.10100000352E+00 0. -1.
</event>
<event>
 5   0  0.3522569E-07  0.2799909E+04  0.7818609E-02  0.8303297E-01
       -2   -1    0    0    0  501  0.00000000000E+00  0.00000000000E+00  0.23457919033E+04  0.23457919033E+04  0.25500000920E-02 0. -1.
        2   -1    0    0  501    0  0.00000000000E+00  0.00000000000E+00 -0.83548454863E+03  0.83548454863E+03  0.25500000920E-02 0.  1.
    10030    2    1    2    0    0  0.00000000000E+00  0.00000000000E+00  0.15103073547E+04  0.31812764519E+04  0.27999092053E+04 0.  0.
        1    1    3    3  502    0  0.88556116796E+03  0.31159448806E+03 -0.42484156973E+03  0.10304368329E+04  0.50400001928E-02 0.  1.
       -1    1    3    3    0  502 -0.88556116796E+03 -0.31159448806E+03  0.19351489244E+04  0.21508396190E+04  0.50400001928E-02 0. -1.
</event>
<event>
 5   0  0.1366235E-07  0.2800046E+04  0.7818609E-02  0.8303254E-01
       -1   -1    0    0    0  501  0.00000000000E+00  0.00000000000E+00  0.15472124132E+04  0.15472124132E+04  0.50400001928E-02 0. -1.
        1   -1    0    0  501    0  0.00000000000E+00  0.00000000000E+00 -0.12668357762E+04  0.12668357763E+04  0.50400001928E-02 0.  1.
    10030    2    1    2    0    0  0.00000000000E+00  0.00000000000E+00  0.28037663691E+03  0.28140481894E+04  0.28000457414E+04 0.  0.
        2    1    3    3  502    0  0.96760913919E+03  0.97121332006E+03 -0.14502885106E+03  0.13786065889E+04  0.25500000920E-02 0.  1.
       -2    1    3    3    0  502 -0.96760913919E+03 -0.97121332006E+03  0.42540548797E+03  0.14354416005E+04  0.25500000920E-02 0. -1.
</event>
<event>
 5   0  0.3557628E-07  0.2800900E+04  0.7818609E-02  0.8302989E-01
       -2   -1    0    0    0  501  0.00000000000E+00  0.00000000000E+00  0.85750177111E+03  0.85750177111E+03  0.25500000920E-02 0. -1.
        2   -1    0    0  501    0  0.00000000000E+00  0.00000000000E+00 -0.22871791563E+04  0.22871791563E+04  0.25500000920E-02 0.  1.
    10030    2    1    2    0    0  0.00000000000E+00  0.00000000000E+00 -0.14296773852E+04  0.31446809274E+04  0.28008999821E+04 0.  0.
        5    1    3    3  502    0  0.34369343312E+03 -0.11786162916E+04 -0.14713156352E+04  0.19162602452E+04  0.46999998093E+01 0.  1.
       -5    1    3    3    0  502 -0.34369343312E+03  0.11786162916E+04  0.41638250063E+02  0.12284206822E+04  0.46999998093E+01 0. -1.
</event>
<event>
 5   0  0.1346049E-07  0.2799767E+04  0.7818609E-02  0.8303341E-01
        1   -1    0    0  501    0  0.00000000000E+00  0.00000000000E+00  0.16325436234E+04  0.16325436234E+04  0.50400001928E-02 0.  1.
       -1   -1    0    0    0  501  0.00000000000E+00  0.00000000000E+00 -0.12003806748E+04  0.12003806748E+04  0.50400001928E-02 0. -1.
    10030    2    1    2    0    0  0.00000000000E+00  0.00000000000E+00  0.43216294856E+03  0.28329242982E+04  0.27997670020E+04 0.  0.
        1    1    3    3  502    0  0.28775606627E+03 -0.55881359877E+03 -0.10495708238E+04  0.12233867361E+04  0.50400001928E-02 0. -1.
       -1    1    3    3    0  502 -0.28775606627E+03  0.55881359877E+03  0.14817337723E+04  0.16095375622E+04  0.50400001928E-02 0.  1.
</event>
<event>
 5   0  0.3522569E-07  0.2799427E+04  0.7818609E-02  0.8303446E-01
        2   -1    0    0  501    0  0.00000000000E+00  0.00000000000E+00  0.14202679984E+04  0.14202679984E+04  0.25500000920E-02 0.  1.
       -2   -1    0    0    0  501  0.00000000000E+00  0.00000000000E+00 -0.13794566232E+04  0.13794566232E+04  0.25500000920E-02 0. -1.
    10030    2    1    2    0    0  0.00000000000E+00  0.00000000000E+00  0.40811375163E+02  0.27997246216E+04  0.27994271536E+04 0.  0.
        1    1    3    3  502    0 -0.92181440735E+03  0.27857732493E+03 -0.99550290611E+03  0.13850534877E+04  0.50400001928E-02 0. -1.
       -1    1    3    3    0  502  0.92181440735E+03 -0.27857732493E+03  0.10363142813E+04  0.14146711339E+04  0.50400001928E-02 0.  1.
</event>
<event>
 5   0  0.3571498E-07  0.2800044E+04  0.7818609E-02  0.8303255E-01
       -2   -1    0    0    0  501  0.00000000000E+00  0.00000000000E+00  0.11570776583E+04  0.11570776583E+04  0.25500000920E-02 0.  1.
        2   -1    0    0  501    0  0.00000000000E+00  0.00000000000E+00 -0.16939755881E+04  0.16939755881E+04  0.25500000920E-02 0. -1.
    10030    2    1    2    0    0  0.00000000000E+00  0.00000000000E+00 -0.53689792981E+03  0.28510532463E+04  0.28000437901E+04 0.  0.
        2    1    3    3  502    0  0.29383491441E+03  0.71336836249E+03  0.92109214456E+03  0.12015174224E+04  0.25500000920E-02 0.  1.
       -2    1    3    3    0  502 -0.29383491441E+03 -0.71336836249E+03 -0.14579900744E+04  0.16495358239E+04  0.25500000920E-02 0. -1.
</event>
<event>
 5   0  0.1361741E-07  0.2799991E+04  0.7818609E-02  0.8303271E-01
        1   -1    0    0  501    0  0.00000000000E+00  0.00000000000E+00  0.18846917394E+04  0.18846917394E+04  0.50400001928E-02 0.  1.
       -1   -1    0    0    0  501  0.00000000000E+00  0.00000000000E+00 -0.10399513588E+04  0.10399513588E+04  0.50400001928E-02 0. -1.
    10030    2    1    2    0    0  0.00000000000E+00  0.00000000000E+00  0.84474038064E+03  0.29246430982E+04  0.27999912395E+04 0.  0.
        5    1    3    3  502    0  0.31778182542E+03 -0.84722144750E+03  0.15381958822E+04  0.17846114792E+04  0.46999998093E+01 0.  1.
       -5    1    3    3    0  502 -0.31778182542E+03  0.84722144750E+03 -0.69345550159E+03  0.11400316190E+04  0.46999998093E+01 0. -1.
</event>
<event>
 5   0  0.1374680E-07  0.2799562E+04  0.7818609E-02  0.8303404E-01
       -1   -1    0    0    0  501  0.00000000000E+00  0.00000000000E+00  0.12455842694E+04  0.12455842694E+04  0.50400001928E-02 0.  1.
        1   -1    0    0  501    0  0.00000000000E+00  0.00000000000E+00 -0.15730664255E+04  0.15730664255E+04  0.50400001928E-02 0. -1.
    10030    2    1    2    0    0  0.00000000000E+00  0.00000000000E+00 -0.32748215618E+03  0.28186506949E+04  0.27995619617E+04 0.  0.
        3    1    3    3  502    0 -0.11507361755E+03  0.13771039085E+04  0.60780957805E+02  0.13832394757E+04  0.10100000352E+00 0.  1.
       -3    1    3    3    0  502  0.11507361755E+03 -0.13771039085E+04 -0.38826311399E+03  0.14354112192E+04  0.10100000352E+00 0. -1.
</event>
<event>
 5   0  0.3502141E-07  0.2799887E+04  0.7818609E-02  0.8303303E-01
       -2   -1    0    0    0  501  0.00000000000E+00  0.00000000000E+00  0.14460443415E+04  0.14460443415E+04  0.25500000920E-02 0. -1.
        2   -1    0    0  501    0  0.00000000000E+00  0.00000000000E+00 -0.13553125322E+04  0.13553125322E+04  0.25500000920E-02 0.  1.
    10030    2    1    2    0    0  0.00000000000E+00  0.00000000000E+00  0.90731809249E+02  0.28013568737E+04  0.27998871536E+04 0.  0.
        3    1    3    3  502    0  0.65179992658E+03  0.11857504606E+04  0.40471276846E+03  0.14123171507E+04  0.10100000352E+00 0. -1.
       -3    1    3    3    0  502 -0.65179992658E+03 -0.11857504606E+04 -0.31398095921E+03  0.13890397230E+04  0.10100000352E+00 0.  1.
</event>
<event>
 5   0  0.3557628E-07  0.2798454E+04  0.7818609E-02  0.8303748E-01
       -2   -1    0    0    0  501  0.00000000000E+00  0.00000000000E+00  0.86173037969E+03  0.86173037969E+03  0.25500000920E-02 0. -1.
        2   -1    0    0  501    0  0.00000000000E+00  0.00000000000E+00 -0.22719826945E+04  0.22719826945E+04  0.25500000920E-02 0.  1.
    10030    2    1    2    0    0  0.00000000000E+00  0.00000000000E+00 -0.14102523148E+04  0.31337130742E+04  0.27984542233E+04 0.  0.
        5    1    3    3  502    0  0.34176622207E+03 -0.10166690901E+04  0.30107275427E+03  0.11140408802E+04  0.46999998093E+01 0. -1.
       -5    1    3    3    0  502 -0.34176622207E+03  0.10166690901E+04 -0.17113250691E+04  0.20196721940E+04  0.46999998093E+01 0.  1.
</event>
<event>
 5   0  0.1361741E-07  0.2799816E+04  0.7818609E-02  0.8303326E-01
        1   -1    0    0  501    0  0.00000000000E+00  0.00000000000E+00  0.56860284179E+03  0.56860284181E+03  0.50400001928E-02 0.  1.
       -1   -1    0    0    0  501  0.00000000000E+00  0.00000000000E+00 -0.34465920412E+04  0.34465920412E+04  0.50400001928E-02 0. -1.
    10030    2    1    2    0    0  0.00000000000E+00  0.00000000000E+00 -0.28779891994E+04  0.40151948830E+04  0.27998157291E+04 0.  0.
        5    1    3    3  502    0  0.16370459464E+03 -0.12626249638E+04 -0.60438360319E+03  0.14093695837E+04  0.46999998093E+01 0.  1.
       -5    1    3    3    0  502 -0.16370459464E+03  0.12626249638E+04 -0.22736055962E+04  0.26058252993E+04  0.46999998093E+01 0. -1.
</event>
<event>
 5   0  0.3522569E-07  0.2799813E+04  0.7818609E-02  0.8303326E-01
       -2   -1    0    0    0  501  0.00000000000E+00  0.00000000000E+00  0.10775913473E+04  0.10775913473E+04  0.25500000920E-02 0. -1.
        2   -1    0    0  501    0  0.00000000000E+00  0.00000000000E+00 -0.18186286792E+04  0.18186286792E+04  0.25500000920E-02 0.  1.
    10030    2    1    2    0    0  0.00000000000E+00  0.00000000000E+00 -0.74103733191E+03  0.28962200265E+04  0.27998132286E+04 0.  0.
        1    1    3    3  502    0 -0.23881139903E+03 -0.11488126681E+04 -0.11603117717E+04  0.16501893340E+04  0.50400001928E-02 0. -1.
       -1    1    3    3    0  502  0.23881139903E+03  0.11488126681E+04  0.41927443975E+03  0.12460306925E+04  0.50400001928E-02 0.  1.
</event>
<event>
 5   0  0.1346049E-07  0.2798593E+04  0.7818609E-02  0.8303705E-01
        1   -1    0    0  501    0  0.00000000000E+00  0.00000000000E+00  0.10010611298E+04  0.10010611298E+04  0.50400001928E-02 0.  1.
       -1   -1    0    0    0  501  0.00000000000E+00  0.00000000000E+00 -0.19559546512E+04  0.19559546512E+04  0.50400001928E-02 0. -1.
    10030    2    1    2    0    0  0.00000000000E+00  0.00000000000E+00 -0.95489352138E+03  0.29570157810E+04  0.27985926271E+04 0.  0.
        1    1    3    3  502    0  0.12185392337E+04 -0.68708135255E+03 -0.51267357314E+03  0.14898834994E+04  0.50400001928E-02 0.  1.
       -1    1    3    3    0  502 -0.12185392337E+04  0.68708135255E+03 -0.44221994823E+03  0.14671322816E+04  0.50400001928E-02 0. -1.
</event>
<event>
 5   0  0.3502141E-07  0.2799142E+04  0.7818609E-02  0.8303535E-01
        2   -1    0    0  501    0  0.00000000000E+00  0.00000000000E+00  0.11986974368E+04  0.11986974368E+04  0.25500000920E-02 0. -1.
       -2   -1    0    0    0  501  0.00000000000E+00  0.00000000000E+00 -0.16341067494E+04  0.16341067494E+04  0.25500000920E-02 0.  1.
    10030    2    1    2    0    0  0.00000000000E+00  0.00000000000E+00 -0.43540931260E+03  0.28328041861E+04  0.27991424200E+04 0.  0.
        3    1    3    3  502    0 -0.59348723186E+03  0.55653133665E+03 -0.13701906401E+04  0.15935421624E+04  0.10100000352E+00 0.  1.
       -3    1    3    3    0  502  0.59348723186E+03 -0.55653133665E+03  0.93478132748E+03  0.12392620237E+04  0.10100000352E+00 0. -1.
</event>
<event>
 5   0  0.3406920E-07  0.2798837E+04  0.7818609E-02  0.8303629E-01
       -2   -1    0    0    0  501  0.00000000000E+00  0.00000000000E+00  0.85096119667E+03  0.85096119667E+03  0.25500000920E-02 0.  1.
        2   -1    0    0  501    0  0.00000000000E+00  0.00000000000E+00 -0.23013651221E+04  0.23013651221E+04  0.25500000920E-02 0. -1.
    10030    2    1    2    0    0  0.00000000000E+00  0.00000000000E+00 -0.14504039254E+04  0.31523263188E+04  0.27988372002E+04 0.  0.
        4    1    3    3  502    0  0.35728983632E+03 -0.93703410407E+03 -0.18245304437E+04  0.20819706751E+04  0.12699999809E+01 0. -1.
       -4    1    3    3    0  502 -0.35728983632E+03  0.93703410407E+03  0.37412651824E+03  0.10703556436E+04  0.12699999809E+01 0.  1.
</event>
<event>
 5   0  0.3571498E-07  0.2800685E+04  0.7818609E-02  0.8303056E-01
       -2   -1    0    0    0  501  0.00000000000E+00  0.00000000000E+00  0.10419355535E+04  0.10419355535E+04  0.25500000920E-02 0.  1.
        2   -1    0    0  501    0  0.00000000000E+00  0.00000000000E+00 -0.18820347859E+04  0.18820347859E+04  0.25500000920E-02 0. -1.
    10030    2    1    2    0    0  0.00000000000E+00  0.00000000000E+00 -0.84009923242E+03  0.29239703395E+04  0.28006848851E+04 0.  0.
        2    1    3    3  502    0  0.49364557512E+03 -0.57395209339E+03 -0.16499793269E+04  0.18153618753E+04  0.25500000920E-02 0. -1.
       -2    1    3    3    0  502 -0.49364557512E+03  0.57395209339E+03  0.80988009445E+03  0.11086084641E+04  0.25500000920E-02 0.  1.
</event>
<event>
 5   0  0.3571498E-07  0.2805453E+04  0.7818609E-02  0.8301577E-01
        2   -1    0    0  501    0  0.00000000000E+00  0.00000000000E+00  0.29783380834E+04  0.29783380834E+04  0.25500000920E-02 0.  1.
       -2   -1    0    0    0  501  0.00000000000E+00  0.00000000000E+00 -0.66065093679E+03  0.66065093680E+03  0.25500000920E-02 0. -1.
    10030    2    1    2    0    0  0.00000000000E+00  0.00000000000E+00  0.23176871466E+04  0.36389890202E+04  0.28054531505E+04 0.  0.
        2    1    3    3  502    0 -0.13676608524E+04  0.31123008728E+03  0.11370818020E+04  0.18056343480E+04  0.25500000920E-02 0.  1.
       -2    1    3    3    0  502  0.13676608524E+04 -0.31123008728E+03  0.11806053446E+04  0.18333546722E+04  0.25500000920E-02 0. -1.
</event>
<event>
 5   0  0.3522569E-07  0.2800116E+04  0.7818609E-02  0.8303232E-01
        2   -1    0    0  501    0  0.00000000000E+00  0.00000000000E+00  0.24689012743E+04  0.24689012743E+04  0.25500000920E-02 0. -1.
       -2   -1    0    0    0  501  0.00000000000E+00  0.00000000000E+00 -0.79394128177E+03  0.79394128177E+03  0.25500000920E-02 0.  1.
    10030    2    1    2    0    0  0.00000000000E+00  0.00000000000E+00  0.16749599925E+04  0.32628425561E+04  0.28001161706E+04 0.  0.
        1    1    3    3  502    0  0.98280693414E+03 -0.93161727412E+03  0.42329470108E+03  0.14188018252E+04  0.50400001928E-02 0. -1.
       -1    1    3    3    0  502 -0.98280693414E+03  0.93161727412E+03  0.12516652915E+04  0.18440407309E+04  0.50400001928E-02 0.  1.
</event>
<event>
 5   0  0.1361741E-07  0.2796494E+04  0.7818609E-02  0.8304358E-01
        1   -1    0    0  501    0  0.00000000000E+00  0.00000000000E+00  0.25894074762E+04  0.25894074762E+04  0.50400001928E-02 0.  1.
       -1   -1    0    0    0  501  0.00000000000E+00  0.00000000000E+00 -0.75503545451E+03  0.75503545453E+03  0.50400001928E-02 0. -1.
    10030    2    1    2    0    0  0.00000000000E+00  0.00000000000E+00  0.18343720217E+04  0.33444429308E+04  0.27964938411E+04 0.  0.
        5    1    3    3  502    0  0.11006853132E+04 -0.32466298876E+03  0.18725614693E+04  0.21962292142E+04  0.46999998093E+01 0.  1.
       -5    1    3    3    0  502 -0.11006853132E+04  0.32466298876E+03 -0.38189447561E+02  0.11482137166E+04  0.46999998093E+01 0. -1.
</event>
<event>
 5   0  0.1346049E-07  0.2799374E+04  0.7818609E-02  0.8303463E-01
        1   -1    0    0  501    0  0.00000000000E+00  0.00000000000E+00  0.24300738615E+04  0.24300738615E+04  0.50400001928E-02 0.  1.
       -1   -1    0    0    0  501  0.00000000000E+00  0.00000000000E+00 -0.80619898823E+03  0.80619898824E+03  0.50400001928E-02 0. -1.
    10030    2    1    2    0    0  0.00000000000E+00  0.00000000000E+00  0.16238748732E+04  0.32362728497E+04  0.27993735645E+04 0.  0.
        1    1    3    3  502    0  0.10598320585E+04  0.62876610963E+03  0.44623407012E+02  0.12331188350E+04  0.50400001928E-02 0. -1.
       -1    1    3    3    0  502 -0.10598320585E+04 -0.62876610963E+03  0.15792514662E+04  0.20031540147E+04  0.50400001928E-02 0.  1.
</event>
<event>
 5   0  0.3522569E-07  0.2802719E+04  0.7818609E-02  0.8302425E-01
        2   -1    0    0  501    0  0.00000000000E+00  0.00000000000E+00  0.13560065690E+04  0.13560065690E+04  0.25500000920E-02 0. -1.
       -2   -1    0    0    0  501  0.00000000000E+00  0.00000000000E+00 -0.14482295564E+04  0.14482295564E+04  0.25500000920E-02 0.  1.
    10030    2    1    2    0    0  0.00000000000E+00  0.00000000000E+00 -0.92222987364E+02  0.28042361254E+04  0.28027192452E+04 0.  0.
        1    1    3    3  502    0 -0.11175648066E+04  0.35901754473E+03  0.71978571676E+03  0.13769299809E+04  0.50400001928E-02 0.  1.
       -1    1    3    3    0  502  0.11175648066E+04 -0.35901754473E+03 -0.81200870412E+03  0.14273061444E+04  0.50400001928E-02 0. -1.
</event>
<event>
 5   0  0.1366235E-07  0.2811543E+04  0.7818609E-02  0.8299694E-01
       -1   -1    0    0    0  501  0.00000000000E+00  0.00000000000E+00  0.13634593434E+04  0.13634593434E+04  0.50400001928E-02 0. -1.
        1   -1    0    0  501    0  0.00000000000E+00  0.00000000000E+00 -0.14493968039E+04  0.14493968039E+04  0.50400001928E-02 0.  1.
    10030    2    1    2    0    0  0.00000000000E+00  0.00000000000E+00 -0.85937460503E+02  0.28128561473E+04  0.28115430743E+04 0.  0.
        2    1    3    3  502    0 -0.83997930350E+03 -0.11232426085E+04  0.51703296609E+02  0.14035356849E+04  0.25500000920E-02 0.  1.
       -2    1    3    3    0  502  0.83997930350E+03  0.11232426085E+04 -0.13764075711E+03  0.14093204624E+04  0.25500000920E-02 0. -1.
</event>
<event>
 5   0  0.1374680E-07  0.2797904E+04  0.7818609E-02  0.8303919E-01
        1   -1    0    0  501    0  0.00000000000E+00  0.00000000000E+00  0.10829502052E+04  0.10829502052E+04  0.50400001928E-02 0.  1.
       -1   -1    0    0    0  501  0.00000000000E+00  0.00000000000E+00 -0.18071617585E+04  0.18071617585E+04  0.50400001928E-02 0. -1.
    10030    2    1    2    0    0  0.00000000000E+00  0.00000000000E+00 -0.72421155332E+03  0.28901119637E+04  0.27979036418E+04 0.  0.
        3    1    3    3  502    0  0.41642160463E+03 -0.10715864787E+03  0.10129976720E+04  0.11004790876E+04  0.10100000352E+00 0.  1.
       -3    1    3    3    0  502 -0.41642160463E+03  0.10715864787E+03 -0.17372092253E+04  0.17896328761E+04  0.10100000352E+00 0. -1.
</event>
<event>
 5   0  0.1357902E-07  0.2800219E+04  0.7818609E-02  0.8303200E-01
       -1   -1    0    0    0  501  0.00000000000E+00  0.00000000000E+00  0.81318310142E+03  0.81318310143E+03  0.50400001928E-02 0.  1.
        1   -1    0    0  501    0  0.00000000000E+00  0.00000000000E+00 -0.24106578599E+04  0.24106578599E+04  0.50400001928E-02 0. -1.
    10030    2    1    2    0    0  0.00000000000E+00  0.00000000000E+00 -0.15974747585E+04  0.32238409613E+04  0.28002187307E+04 0.  0.
        4    1    3    3  502    0  0.79597837552E+03 -0.53267244977E+03  0.37702697720E+03  0.10293067898E+04  0.12699999809E+01 0.  1.
       -4    1    3    3    0  502 -0.79597837552E+03  0.53267244977E+03 -0.19745017357E+04  0.21945341715E+04  0.12699999809E+01 0. -1.
</event>
<event>
 5   0  0.3522569E-07  0.2799639E+04  0.7818609E-02  0.8303380E-01
       -2   -1    0    0    0  501  0.00000000000E+00  0.00000000000E+00  0.88589648478E+03  0.88589648479E+03  0.25500000920E-02 0. -1.
        2   -1    0    0  501    0  0.00000000000E+00  0.00000000000E+00 -0.22118775150E+04  0.22118775150E+04  0.25500000920E-02 0.  1.
    10030    2    1    2    0    0  0.00000000000E+00  0.00000000000E+00 -0.13259810302E+04  0.30977739998E+04  0.27996389162E+04 0.  0.
        1    1    3    3  502    0 -0.24051839971E+03 -0.18171876275E+02 -0.21887102661E+04  0.22019609322E+04  0.50400001928E-02 0.  1.
       -1    1    3    3    0  502  0.24051839971E+03  0.18171876275E+02  0.86272923589E+03  0.89581306765E+03  0.50400001928E-02 0. -1.
</event>
<event>
 5   0  0.1366235E-07  0.2800579E+04  0.7818609E-02  0.8303089E-01
       -1   -1    0    0    0  501  0.00000000000E+00  0.00000000000E+00  0.20657546667E+04  0.20657546667E+04  0.50400001928E-02 0. -1.
        1   -1    0    0  501    0  0.00000000000E+00  0.00000000000E+00 -0.94919813991E+03  0.94919813992E+03  0.50400001928E-02 0.  1.
    10030    2    1    2    0    0  0.00000000000E+00  0.00000000000E+00  0.11165565268E+04  0.30149528066E+04  0.28005788596E+04 0.  0.
        2    1    3    3  502    0 -0.25874869986E+03  0.12454387358E+04  0.11885333301E+04  0.17408848357E+04  0.25500000920E-02 0. -1.
       -2    1    3    3    0  502  0.25874869986E+03 -0.12454387358E+04 -0.71976803348E+02  0.12740679709E+04  0.25500000920E-02 0.  1.
</event>
<event>
 5   0  0.1361741E-07  0.2800086E+04  0.7818609E-02  0.8303242E-01
        1   -1    0    0  501    0  0.00000000000E+00  0.00000000000E+00  0.11823759626E+04  0.11823759626E+04  0.50400001928E-02 0.  1.
       -1   -1    0    0    0  501  0.00000000000E+00  0.00000000000E+00 -0.16577806404E+04  0.16577806404E+04  0.50400001928E-02 0. -1.
    10030    2    1    2    0    0  0.00000000000E+00  0.00000000000E+00 -0.47540467781E+03  0.28401566030E+04  0.28000856991E+04 0.  0.
        5    1    3    3  502    0 -0.11522322686E+04 -0.78148076109E+03 -0.38727965828E+03  0.14451155679E+04  0.46999998093E+01 0.  1.
       -5    1    3    3    0  502  0.11522322686E+04  0.78148076109E+03 -0.88125019528E+02  0.13950410352E+04  0.46999998093E+01 0. -1.
</event>
<event>
 5   0  0.1361741E-07  0.2784857E+04  0.7818609E-02  0.8307985E-01
        1   -1    0    0  501    0  0.00000000000E+00  0.00000000000E+00  0.94068875269E+03  0.94068875270E+03  0.50400001928E-02 0.  1.
       -1   -1    0    0    0  501  0.00000000000E+00  0.00000000000E+00 -0.20611039034E+04  0.20611039034E+04  0.50400001928E-02 0. -1.
    10030    2    1    2    0    0  0.00000000000E+00  0.00000000000E+00 -0.11204151507E+04  0.30017926561E+04  0.27848570951E+04 0.  0.
        5    1    3    3  502    0 -0.42788894623E+03 -0.10651514998E+04  0.28935031237E+03  0.11837999667E+04  0.46999998093E+01 0.  1.
       -5    1    3    3    0  502  0.42788894623E+03  0.10651514998E+04 -0.14097654631E+04  0.18179926894E+04  0.46999998093E+01 0. -1.
</event>
<event>
 5   0  0.3522569E-07  0.2799057E+04  0.7818609E-02  0.8303561E-01
        2   -1    0    0  501    0  0.00000000000E+00  0.00000000000E+00  0.28965110945E+04  0.28965110945E+04  0.25500000920E-02 0.  1.
       -2   -1    0    0    0  501  0.00000000000E+00  0.00000000000E+00 -0.67622045411E+03  0.67622045412E+03  0.25500000920E-02 0. -1.
    10030    2    1    2    0    0  0.00000000000E+00  0.00000000000E+00  0.22202906404E+04  0.35727315486E+04  0.27990570181E+04 0.  0.
        1    1    3    3  502    0 -0.15423390014E+03  0.10305947414E+04 -0.82297756617E+02  0.10453164773E+04  0.50400001928E-02 0. -1.
       -1    1    3    3    0  502  0.15423390014E+03 -0.10305947414E+04  0.23025883970E+04  0.25274150714E+04  0.50400001928E-02 0.  1.
</event>
<event>
 5   0  0.1361741E-07  0.2799849E+04  0.7818609E-02  0.8303315E-01
        1   -1    0    0  501    0  0.00000000000E+00  0.00000000000E+00  0.14049229317E+04  0.14049229317E+04  0.50400001928E-02 0. -1.
       -1   -1    0    0    0  501  0.00000000000E+00  0.00000000000E+00 -0.13949441680E+04  0.13949441680E+04  0.50400001928E-02 0.  1.
    10030    2    1    2    0    0  0.00000000000E+00  0.00000000000E+00  0.99787637076E+01  0.27998670998E+04  0.27998493175E+04 0.  0.
        5    1    3    3  502    0  0.63516704140E+03 -0.86966818357E+03 -0.88944742537E+03  0.13967457652E+04  0.46999998093E+01 0.  1.
       -5    1    3    3    0  502 -0.63516704140E+03  0.86966818357E+03  0.89942618908E+03  0.14031213346E+04  0.46999998093E+01 0. -1.
</event>
<event>
 5   0  0.3571498E-07  0.2801872E+04  0.7818609E-02  0.8302688E-01
       -2   -1    0    0    0  501  0.00000000000E+00  0.00000000000E+00  0.99287119702E+03  0.99287119702E+03  0.25500000920E-02 0. -1.
        2   -1    0    0  501    0  0.00000000000E+00  0.00000000000E+00 -0.19767126955E+04  0.19767126955E+04  0.25500000920E-02 0.  1.
    10030    2    1    2    0    0  0.00000000000E+00  0.00000000000E+00 -0.98384149848E+03  0.29695838925E+04  0.28018715889E+04 0.  0.
        2    1    3    3  502    0  0.20160858929E+03  0.13111685140E+04 -0.96922402450E+03  0.16429254715E+04  0.25500000920E-02 0.  1.
       -2    1    3    3    0  502 -0.20160858929E+03 -0.13111685140E+04 -0.14617473973E+02  0.13266584210E+04  0.25500000920E-02 0. -1.
</event>
<event>
 5   0  0.1366235E-07  0.2801456E+04  0.7818609E-02  0.8302817E-01
       -1   -1    0    0    0  501  0.00000000000E+00  0.00000000000E+00  0.13112295228E+04  0.13112295228E+04  0.50400001928E-02 0.  1.
        1   -1    0    0  501    0  0.00000000000E+00  0.00000000000E+00 -0.14963350482E+04  0.14963350483E+04  0.50400001928E-02 0. -1.
    10030    2    1    2    0    0  0.00000000000E+00  0.00000000000E+00 -0.18510552546E+03  0.28075645710E+04  0.28014558296E+04 0.  0.
        2    1    3    3  502    0  0.12310732081E+04  0.40446871715E+03  0.44049284614E+03  0.13686380582E+04  0.25500000920E-02 0.  1.
       -2    1    3    3    0  502 -0.12310732081E+04 -0.40446871715E+03 -0.62559837160E+03  0.14389265128E+04  0.25500000920E-02 0. -1.
</event>
<event>
 5   0  0.3557628E-07  0.2801232E+04  0.7818609E-02  0.8302886E-01
        2   -1    0    0  501    0  0.00000000000E+00  0.00000000000E+00  0.15808052595E+04  0.15808052595E+04  0.25500000920E-02 0.  1.
       -2   -1    0    0    0  501  0.00000000000E+00  0.00000000000E+00 -0.12409653109E+04  0.12409653109E+04  0.25500000920E-02 0. -1.
    10030    2    1    2    0    0  0.00000000000E+00  0.00000000000E+00  0.33983994858E+03  0.28217705704E+04  0.28012315080E+04 0.  0.
        5    1    3    3  502    0 -0.13015720620E+04 -0.39707687040E+03  0.50392696305E+03  0.14511114181E+04  0.46999998093E+01 0.  1.
       -5    1    3    3    0  502  0.13015720620E+04  0.39707687040E+03 -0.16408701448E+03  0.13706591523E+04  0.46999998093E+01 0. -1.
</event>
<event>
 5   0  0.3406920E-07  0.2801467E+04  0.7818609E-02  0.8302813E-01
       -2   -1    0    0    0  501  0.00000000000E+00  0.00000000000E+00  0.15707335412E+04  0.15707335412E+04  0.25500000920E-02 0.  1.
        2   -1    0    0  501    0  0.00000000000E+00  0.00000000000E+00 -0.12491320695E+04  0.12491320695E+04  0.25500000920E-02 0. -1.
    10030    2    1    2    0    0  0.00000000000E+00  0.00000000000E+00  0.32160147173E+03  0.28198656107E+04  0.28014665010E+04 0.  0.
        4    1    3    3  502    0 -0.63443215289E+03  0.16820252116E+03 -0.10847655606E+04  0.12678778250E+04  0.12699999809E+01 0. -1.
       -4    1    3    3    0  502  0.63443215289E+03 -0.16820252116E+03  0.14063670323E+04  0.15519877858E+04  0.12699999809E+01 0.  1.
</event>
<event>
 5   0  0.3406920E-07  0.2793880E+04  0.7818609E-02  0.8305171E-01
        2   -1    0    0  501    0  0.00000000000E+00  0.00000000000E+00  0.12402021971E+04  0.12402021971E+04  0.25500000920E-02 0. -1.
       -2   -1    0    0    0  501  0.00000000000E+00  0.00000000000E+00 -0.15734864578E+04  0.15734864578E+04  0.25500000920E-02 0.  1.
    10030    2    1    2    0    0  0.00000000000E+00  0.00000000000E+00 -0.33328426068E+03  0.28136886549E+04  0.27938799989E+04 0.  0.
        4    1    3    3  502    0 -0.50037372516E+02  0.12490316416E+04 -0.79464651449E+03  0.14812320805E+04  0.12699999809E+01 0.  1.
       -4    1    3    3    0  502  0.50037372516E+02 -0.12490316416E+04  0.46136225382E+03  0.13324565744E+04  0.12699999809E+01 0. -1.
</event>
<event>
 5   0  0.1173363E-07  0.2797482E+04  0.7818609E-02  0.8304051E-01
       -3   -1    0    0    0  501  0.00000000000E+00  0.00000000000E+00  0.24302949273E+04  0.24302949294E+04  0.10100000352E+00 0. -1.
        3   -1    0    0  501    0  0.00000000000E+00  0.00000000000E+00 -0.80503632214E+03  0.80503632848E+03  0.10100000352E+00 0.  1.
    10030    2    1    2    0    0  0.00000000000E+00  0.00000000000E+00  0.16252586052E+04  0.32353312579E+04  0.27974815128E+04 0.  0.
        2    1    3    3  502    0 -0.12326029997E+04  0.61594389588E+03  0.53463539156E+03  0.14780162515E+04  0.25500000920E-02 0. -1.
       -2    1    3    3    0  502  0.12326029997E+04 -0.61594389588E+03  0.10906232136E+04  0.17573150064E+04  0.25500000920E-02 0.  1.
</event>
<event>
 5   0  0.1173363E-07  0.2798267E+04  0.7818609E-02  0.8303807E-01
       -3   -1    0    0    0  501  0.00000000000E+00  0.00000000000E+00  0.13188747408E+04  0.13188747447E+04  0.10100000352E+00 0. -1.
        3   -1    0    0  501    0  0.00000000000E+00  0.00000000000E+00 -0.14842757986E+04  0.14842758020E+04  0.10100000352E+00 0.  1.
    10030    2    1    2    0    0  0.00000000000E+00  0.00000000000E+00 -0.16540105772E+03  0.28031505467E+04  0.27982665130E+04 0.  0.
        1    1    3    3  502    0 -0.16085671918E+03 -0.13784530304E+04 -0.26067950078E+03  0.14120769962E+04  0.50400001928E-02 0.  1.
       -1    1    3    3    0  502  0.16085671918E+03  0.13784530304E+04  0.95278443063E+02  0.13910735505E+04  0.50400001928E-02 0. -1.
</event>
<event>
 5   0  0.1361741E-07  0.2798784E+04  0.7818609E-02  0.8303646E-01
        1   -1    0    0  501    0  0.00000000000E+00  0.00000000000E+00  0.15077884526E+04  0.15077884526E+04  0.50400001928E-02 0.  1.
       -1   -1    0    0    0  501  0.00000000000E+00  0.00000000000E+00 -0.12987879542E+04  0.12987879542E+04  0.50400001928E-02 0. -1.
    10030    2    1    2    0    0  0.00000000000E+00  0.00000000000E+00  0.20900049834E+03  0.28065764068E+04  0.27987836499E+04 0.  0.
        5    1    3    3  502    0  0.54731608175E+03  0.52520616886E+03 -0.10747327641E+04  0.13154729254E+04  0.46999998093E+01 0. -1.
       -5    1    3    3    0  502 -0.54731608175E+03 -0.52520616886E+03  0.12837332625E+04  0.14911034814E+04  0.46999998093E+01 0.  1.
</event>
<event>
 5   0  0.3406920E-07  0.2801950E+04  0.7818609E-02  0.8302663E-01
        2   -1    0    0  501    0  0.00000000000E+00  0.00000000000E+00  0.29115784710E+04  0.29115784710E+04  0.25500000920E-02 0. -1.
       -2   -1    0    0    0  501  0.00000000000E+00  0.00000000000E+00 -0.67411242350E+03  0.67411242351E+03  0.25500000920E-02 0.  1.
    10030    2    1    2    0    0  0.00000000000E+00  0.00000000000E+00  0.22374660475E+04  0.35856908945E+04  0.28019501918E+04 0.  0.
        4    1    3    3  502    0 -0.15916030883E+03 -0.11253095138E+04  0.70402276576E+02  0.11386885435E+04  0.12699999809E+01 0.  1.
       -4    1    3    3    0  502  0.15916030883E+03  0.11253095138E+04  0.21670637709E+04  0.24470023510E+04  0.12699999809E+01 0. -1.
</event>
<event>
 5   0  0.3557628E-07  0.2799516E+04  0.7818609E-02  0.8303418E-01
        2   -1    0    0  501    0  0.00000000000E+00  0.00000000000E+00  0.13260114874E+04  0.13260114874E+04  0.25500000920E-02 0.  1.
       -2   -1    0    0    0  501  0.00000000000E+00  0.00000000000E+00 -0.14776064524E+04  0.14776064524E+04  0.25500000920E-02 0. -1.
    10030    2    1    2    0    0  0.00000000000E+00  0.00000000000E+00 -0.15159496499E+03  0.28036179398E+04  0.27995164795E+04 0.  0.
        5    1    3    3  502    0 -0.90880439547E+03  0.70023495209E+03 -0.87887419532E+03  0.14452322853E+04  0.46999998093E+01 0. -1.
       -5    1    3    3    0  502  0.90880439547E+03 -0.70023495209E+03  0.72727923032E+03  0.13583856545E+04  0.46999998093E+01 0.  1.
</event>
<event>
 5   0  0.1374680E-07  0.2800938E+04  0.7818609E-02  0.8302977E-01
       -1   -1    0    0    0  501  0.00000000000E+00  0.00000000000E+00  0.28873848095E+04  0.28873848095E+04  0.50400001928E-02 0.  1.
        1   -1    0    0  501    0  0.00000000000E+00  0.00000000000E+00 -0.67926985758E+03  0.67926985760E+03  0.50400001928E-02 0. -1.
    10030    2    1    2    0    0  0.00000000000E+00  0.00000000000E+00  0.22081149519E+04  0.35666546671E+04  0.28009380346E+04 0.  0.
        3    1    3    3  502    0 -0.46848366895E+03  0.79502000788E+03 -0.23739702976E+03  0.95283320730E+03  0.10100000352E+00 0. -1.
       -3    1    3    3    0  502  0.46848366895E+03 -0.79502000788E+03  0.24455119817E+04  0.26138214598E+04  0.10100000352E+00 0.  1.
</event>
<event>
 5   0  0.3406920E-07  0.2800429E+04  0.7818609E-02  0.8303135E-01
        2   -1    0    0  501    0  0.00000000000E+00  0.00000000000E+00  0.22582706448E+04  0.22582706448E+04  0.25500000920E-02 0.  1.
       -2   -1    0    0    0  501  0.00000000000E+00  0.00000000000E+00 -0.86818645637E+03  0.86818645638E+03  0.25500000920E-02 0. -1.
    10030    2    1    2    0    0  0.00000000000E+00  0.00000000000E+00  0.13900841884E+04  0.31264571012E+04  0.28004285305E+04 0.  0.
        4    1    3    3  502    0 -0.22090928739E+03 -0.13106866294E+04  0.20343892966E+03  0.13446521352E+04  0.12699999809E+01 0.  1.
       -4    1    3    3    0  502  0.22090928739E+03  0.13106866294E+04  0.11866452588E+04  0.17818049660E+04  0.12699999809E+01 0. -1.
</event>
<event>
 5   0  0.3522569E-07  0.2795828E+04  0.7818609E-02  0.8304565E-01
       -2   -1    0    0    0  501  0.00000000000E+00  0.00000000000E+00  0.12462511430E+04  0.12462511430E+04  0.25500000920E-02 0.  1.
        2   -1    0    0  501    0  0.00000000000E+00  0.00000000000E+00 -0.15680332740E+04  0.15680332740E+04  0.25500000920E-02 0. -1.
    10030    2    1    2    0    0  0.00000000000E+00  0.00000000000E+00 -0.32178213097E+03  0.28142844171E+04  0.27958277916E+04 0.  0.
        1    1    3    3  502    0 -0.20565949682E+03  0.31411523801E+01  0.12309361848E+04  0.12480022382E+04  0.50400001928E-02 0.  1.
       -1    1    3    3    0  502  0.20565949682E+03 -0.31411523801E+01 -0.15527183158E+04  0.15662821788E+04  0.50400001928E-02 0. -1.
</event>
<event>
 5   0  0.1374680E-07  0.2799875E+04  0.7818609E-02  0.8303307E-01
        1   -1    0    0  501    0  0.00000000000E+00  0.00000000000E+00  0.95852140524E+03  0.95852140526E+03  0.50400001928E-02 0. -1.
       -1   -1    0    0    0  501  0.00000000000E+00  0.00000000000E+00 -0.20446336143E+04  0.20446336143E+04  0.50400001928E-02 0.  1.
    10030    2    1    2    0    0  0.00000000000E+00  0.00000000000E+00 -0.10861122090E+04  0.30031550195E+04  0.27998750581E+04 0.  0.
        3    1    3    3  502    0 -0.12673941329E+02 -0.29251478506E+03  0.92531363748E+03  0.97053122885E+03  0.10100000352E+00 0. -1.
       -3    1    3    3    0  502  0.12673941329E+02  0.29251478506E+03 -0.20114258465E+04  0.20326237907E+04  0.10100000352E+00 0.  1.
</event>
<event>
 5   0  0.3502141E-07  0.2799822E+04  0.7818609E-02  0.8303324E-01
       -2   -1    0    0    0  501  0.00000000000E+00  0.00000000000E+00  0.72357482351E+03  0.72357482351E+03  0.25500000920E-02 0.  1.
        2   -1    0    0  501    0  0.00000000000E+00  0.00000000000E+00 -0.27084287001E+04  0.27084287001E+04  0.25500000920E-02 0. -1.
    10030    2    1    2    0    0  0.00000000000E+00  0.00000000000E+00 -0.19848538766E+04  0.34320035236E+04  0.27998220077E+04 0.  0.
        3    1    3    3  502    0  0.12786408150E+04 -0.23705946499E+03 -0.16277514286E+04  0.20834332836E+04  0.10100000352E+00 0. -1.
       -3    1    3    3    0  502 -0.12786408150E+04  0.23705946499E+03 -0.35710244801E+03  0.13485702400E+04  0.10100000352E+00 0.  1.
</event>
<event>
 5   0  0.1374680E-07  0.2798719E+04  0.7818609E-02  0.8303666E-01
        1   -1    0    0  501    0  0.00000000000E+00  0.00000000000E+00  0.18125740263E+04  0.18125740263E+04  0.50400001928E-02 0.  1.
       -1   -1    0    0    0  501  0.00000000000E+00  0.00000000000E+00 -0.10803457279E+04  0.10803457279E+04  0.50400001928E-02 0. -1.
    10030    2    1    2    0    0  0.00000000000E+00  0.00000000000E+00  0.73222829846E+03  0.28929197542E+04  0.27987187110E+04 0.  0.
        3    1    3    3  502    0  0.37525871808E+03  0.17029687353E+03 -0.10162034041E+04  0.10965808220E+04  0.10100000352E+00 0. -1.
       -3    1    3    3    0  502 -0.37525871808E+03 -0.17029687353E+03  0.17484317025E+04  0.17963389322E+04  0.10100000352E+00 0.  1.
</event>
<event>
 5   0  0.1361741E-07  0.2780287E+04  0.7818609E-02  0.8309415E-01
        1   -1    0    0  501    0  0.00000000000E+00  0.00000000000E+00  0.22776987720E+04  0.22776987720E+04  0.50400001928E-02 0. -1.
       -1   -1    0    0    0  501  0.00000000000E+00  0.00000000000E+00 -0.84844329889E+03  0.84844329891E+03  0.50400001928E-02 0.  1.
    10030    2    1    2    0    0  0.00000000000E+00  0.00000000000E+00  0.14292554731E+04  0.31261420709E+04  0.27802865033E+04 0.  0.
        5    1    3    3  502    0  0.11938990680E+03  0.11833744920E+04 -0.94505247320E+02  0.11931397529E+04  0.46999998093E+01 0.  1.
       -5    1    3    3    0  502 -0.11938990680E+03 -0.11833744920E+04  0.15237607205E+04  0.19330023180E+04  0.46999998093E+01 0. -1.
</event>
<event>
 5   0  0.1346049E-07  0.2800097E+04  0.7818609E-02  0.8303238E-01
       -1   -1    0    0    0  501  0.00000000000E+00  0.00000000000E+00  0.88912057053E+03  0.88912057054E+03  0.50400001928E-02 0.  1.
        1   -1    0    0  501    0  0.00000000000E+00  0.00000000000E+00 -0.22045775331E+04  0.22045775331E+04  0.50400001928E-02 0. -1.
    10030    2    1    2    0    0  0.00000000000E+00  0.00000000000E+00 -0.13154569626E+04  0.30936981037E+04  0.28000965941E+04 0.  0.
        1    1    3    3  502    0  0.22993868089E+03 -0.20291101270E+03 -0.21670135496E+04  0.21886051267E+04  0.50400001928E-02 0. -1.
       -1    1    3    3    0  502 -0.22993868089E+03  0.20291101270E+03  0.85155658706E+03  0.90509297701E+03  0.50400001928E-02 0.  1.
</event>
<event>
 5   0  0.1346049E-07  0.2799898E+04  0.7818609E-02  0.8303300E-01
        1   -1    0    0  501    0  0.00000000000E+00  0.00000000000E+00  0.11124893452E+04  0.11124893452E+04  0.50400001928E-02 0.  1.
       -1   -1    0    0    0  501  0.00000000000E+00  0.00000000000E+00 -0.17616858179E+04  0.17616858179E+04  0.50400001928E-02 0. -1.
    10030    2    1    2    0    0  0.00000000000E+00  0.00000000000E+00 -0.64919647271E+03  0.28741751632E+04  0.27998976425E+04 0.  0.
        1    1    3    3  502    0  0.12914122920E+04 -0.67164478563E+02  0.22591208148E+03  0.13127425656E+04  0.50400001928E-02 0.  1.
       -1    1    3    3    0  502 -0.12914122920E+04  0.67164478563E+02 -0.87510855419E+03  0.15614325975E+04  0.50400001928E-02 0. -1.
</event>
<event>
 5   0  0.3502141E-07  0.2800239E+04  0.7818609E-02  0.8303194E-01
        2   -1    0    0  501    0  0.00000000000E+00  0.00000000000E+00  0.31296222516E+04  0.31296222516E+04  0.25500000920E-02 0. -1.
       -2   -1    0    0    0  501  0.00000000000E+00  0.00000000000E+00 -0.62638059140E+03  0.62638059140E+03  0.25500000920E-02 0.  1.
    10030    2    1    2    0    0  0.00000000000E+00  0.00000000000E+00  0.25032416602E+04  0.37560028430E+04  0.28002390161E+04 0.  0.
        3    1    3    3  502    0  0.88724569455E+03  0.76581654779E+03  0.22426215087E+03  0.11933035783E+04  0.10100000352E+00 0.  1.
       -3    1    3    3    0  502 -0.88724569455E+03 -0.76581654779E+03  0.22789795093E+04  0.25626992647E+04  0.10100000352E+00 0. -1.
</event>
<event>
 5   0  0.1346049E-07  0.2797603E+04  0.7818609E-02  0.8304013E-01
       -1   -1    0    0    0  501  0.00000000000E+00  0.00000000000E+00  0.12635041514E+04  0.12635041514E+04  0.50400001928E-02 0.  1.
        1   -1    0    0  501    0  0.00000000000E+00  0.00000000000E+00 -0.15485861961E+04  0.15485861961E+04  0.50400001928E-02 0. -1.
    10030    2    1    2    0    0  0.00000000000E+00  0.00000000000E+00 -0.28508204469E+03  0.28120903475E+04  0.27976026076E+04 0.  0.
        1    1    3    3  502    0 -0.66207539336E+03  0.12222569752E+04 -0.29952002207E+03  0.14219592763E+04  0.50400001928E-02 0. -1.
       -1    1    3    3    0  502  0.66207539336E+03 -0.12222569752E+04  0.14437977384E+02  0.13901310712E+04  0.50400001928E-02 0.  1.
</event>
<event>
 5   0  0.1366235E-07  0.2800243E+04  0.7818609E-02  0.8303193E-01
        1   -1    0    0  501    0  0.00000000000E+00  0.00000000000E+00  0.12248319402E+04  0.12248319403E+04  0.50400001928E-02 0.  1.
       -1   -1    0    0    0  501  0.00000000000E+00  0.00000000000E+00 -0.16004970429E+04  0.16004970429E+04  0.50400001928E-02 0. -1.
    10030    2    1    2    0    0  0.00000000000E+00  0.00000000000E+00 -0.37566510269E+03  0.28253289832E+04  0.28002427741E+04 0.  0.
        2    1    3    3  502    0  0.10495272891E+04 -0.90874714668E+03 -0.45156016658E+01  0.13882900626E+04  0.25500000920E-02 0.  1.
       -2    1    3    3    0  502 -0.10495272891E+04  0.90874714668E+03 -0.37114950103E+03  0.14370389206E+04  0.25500000920E-02 0. -1.
</event>
<event>
 5   0  0.1361741E-07  0.2800555E+04  0.7818609E-02  0.8303096E-01
        1   -1    0    0  501    0  0.00000000000E+00  0.00000000000E+00  0.10046956090E+04  0.10046956090E+04  0.50400001928E-02 0.  1.
       -1   -1    0    0    0  501  0.00000000000E+00  0.00000000000E+00 -0.19516126472E+04  0.19516126472E+04  0.50400001928E-02 0. -1.
    10030    2    1    2    0    0  0.00000000000E+00  0.00000000000E+00 -0.94691703823E+03  0.29563082562E+04  0.28005547001E+04 0.  0.
        5    1    3    3  502    0  0.35461873771E+03  0.86340604967E+03  0.62839858289E+03  0.11252250107E+04  0.46999998093E+01 0.  1.
       -5    1    3    3    0  502 -0.35461873771E+03 -0.86340604967E+03 -0.15753156211E+04  0.18310832455E+04  0.46999998093E+01 0. -1.
</event>
<event>
 5   0  0.3406920E-07  0.2800003E+04  0.7818609E-02  0.8303268E-01
       -2   -1    0    0    0  501  0.00000000000E+00  0.00000000000E+00  0.16827883513E+04  0.16827883513E+04  0.25500000920E-02 0.  1.
        2   -1    0    0  501    0  0.00000000000E+00  0.00000000000E+00 -0.11647356061E+04  0.11647356061E+04  0.25500000920E-02 0. -1.
    10030    2    1    2    0    0  0.00000000000E+00  0.00000000000E+00  0.51805274521E+03  0.28475239574E+04  0.28000025074E+04 0.  0.
        4    1    3    3  502    0 -0.88693368696E+03  0.83439153180E+03  0.96150396064E+03  0.15515643953E+04  0.12699999809E+01 0.  1.
       -4    1    3    3    0  502  0.88693368696E+03 -0.83439153180E+03 -0.44345121543E+03  0.12959595622E+04  0.12699999809E+01 0. -1.
</event>
<event>
 5   0  0.3502141E-07  0.2800429E+04  0.7818609E-02  0.8303135E-01
       -2   -1    0    0    0  501  0.00000000000E+00  0.00000000000E+00  0.12089036457E+04  0.12089036457E+04  0.25500000920E-02 0.  1.
        2   -1    0    0  501    0  0.00000000000E+00  0.00000000000E+00 -0.16218006333E+04  0.16218006333E+04  0.25500000920E-02 0. -1.
    10030    2    1    2    0    0  0.00000000000E+00  0.00000000000E+00 -0.41289698761E+03  0.28307042790E+04  0.28004290373E+04 0.  0.
        3    1    3    3  502    0 -0.34347506799E+03  0.11342761615E+04 -0.96019303295E+03  0.15252961036E+04  0.10100000352E+00 0. -1.
       -3    1    3    3    0  502  0.34347506799E+03 -0.11342761615E+04  0.54729604534E+03  0.13054081754E+04  0.10100000352E+00 0.  1.
</event>
<event>
 5   0  0.1357902E-07  0.2799778E+04  0.7818609E-02  0.8303337E-01
       -1   -1    0    0    0  501  0.00000000000E+00  0.00000000000E+00  0.11146854849E+04  0.11146854850E+04  0.50400001928E-02 0. -1.
        1   -1    0    0  501    0  0.00000000000E+00  0.00000000000E+00 -0.17580648854E+04  0.17580648854E+04  0.50400001928E-02 0.  1.
    10030    2    1    2    0    0  0.00000000000E+00  0.00000000000E+00 -0.64337940044E+03  0.28727503703E+04  0.27997781407E+04 0.  0.
        4    1    3    3  502    0 -0.92175913154E+03  0.14238697079E+03 -0.13928203884E+04  0.16762649532E+04  0.12699999809E+01 0.  1.
       -4    1    3    3    0  502  0.92175913154E+03 -0.14238697079E+03  0.74944098800E+03  0.11964854171E+04  0.12699999809E+01 0. -1.
</event>
<event>
 5   0  0.1366235E-07  0.2800741E+04  0.7818609E-02  0.8303038E-01
       -1   -1    0    0    0  501  0.00000000000E+00  0.00000000000E+00  0.14092750343E+04  0.14092750343E+04  0.50400001928E-02 0. -1.
        1   -1    0    0  501    0  0.00000000000E+00  0.00000000000E+00 -0.13915221285E+04  0.13915221285E+04  0.50400001928E-02 0.  1.
    10030    2    1    2    0    0  0.00000000000E+00  0.00000000000E+00  0.17752905772E+02  0.28007971628E+04  0.28007408986E+04 0.  0.
        2    1    3    3  502    0 -0.81700696529E+02  0.10176953474E+04  0.96736248906E+03  0.14064739632E+04  0.25500000920E-02 0. -1.
       -2    1    3    3    0  502  0.81700696529E+02 -0.10176953474E+04 -0.94960958329E+03  0.13943231995E+04  0.25500000920E-02 0.  1.
</event>
<event>
 5   0  0.1357902E-07  0.2800255E+04  0.7818609E-02  0.8303189E-01
       -1   -1    0    0    0  501  0.00000000000E+00  0.00000000000E+00  0.20390978746E+04  0.20390978746E+04  0.50400001928E-02 0. -1.
        1   -1    0    0  501    0  0.00000000000E+00  0.00000000000E+00 -0.96138438681E+03  0.96138438682E+03  0.50400001928E-02 0.  1.
    10030    2    1    2    0    0  0.00000000000E+00  0.00000000000E+00  0.10777134878E+04  0.30004822615E+04  0.28002548883E+04 0.  0.
        4    1    3    3  502    0  0.61235365297E+03  0.67494755950E+03  0.16777916560E+04  0.19093238746E+04  0.12699999809E+01 0. -1.
       -4    1    3    3    0  502 -0.61235365297E+03 -0.67494755950E+03 -0.60007816816E+03  0.10911583868E+04  0.12699999809E+01 0.  1.
</event>
<event>
 5   0  0.1374680E-07  0.2799639E+04  0.7818609E-02  0.8303380E-01
       -1   -1    0    0    0  501  0.00000000000E+00  0.00000000000E+00  0.13363709516E+04  0.13363709516E+04  0.50400001928E-02 0.  1.
        1   -1    0    0  501    0  0.00000000000E+00  0.00000000000E+00 -0.14662805009E+04  0.14662805009E+04  0.50400001928E-02 0. -1.
    10030    2    1    2    0    0  0.00000000000E+00  0.00000000000E+00 -0.12990954931E+03  0.28026514524E+04  0.27996390254E+04 0.  0.
        3    1    3    3  502    0  0.14081893666E+03 -0.11074020776E+04  0.78053989329E+03  0.13621350409E+04  0.10100000352E+00 0.  1.
       -3    1    3    3    0  502 -0.14081893666E+03  0.11074020776E+04 -0.91044944260E+03  0.14405164116E+04  0.10100000352E+00 0. -1.
</event>
<event>
 5   0  0.1346049E-07  0.2800107E+04  0.7818609E-02  0.8303235E-01
       -1   -1    0    0    0  501  0.00000000000E+00  0.00000000000E+00  0.88605037284E+03  0.88605037286E+03  0.50400001928E-02 0. -1.
        1   -1    0    0  501    0  0.00000000000E+00  0.00000000000E+00 -0.22122333486E+04  0.22122333486E+04  0.50400001928E-02 0.  1.
    10030    2    1    2    0    0  0.00000000000E+00  0.00000000000E+00 -0.13261829758E+04  0.30982837215E+04  0.28001072718E+04 0.  0.
        1    1    3    3  502    0  0.23594795756E+03  0.97140232869E+03  0.42152381560E+03  0.10848853626E+04  0.50400001928E-02 0. -1.
       -1    1    3    3    0  502 -0.23594795756E+03 -0.97140232869E+03 -0.17477067914E+04  0.20133983589E+04  0.50400001928E-02 0.  1.
</event>
<event>
 5   0  0.3406920E-07  0.2813341E+04  0.7818609E-02  0.8299138E-01
        2   -1    0    0  501    0  0.00000000000E+00  0.00000000000E+00  0.31601764918E+04  0.31601764918E+04  0.25500000920E-02 0.  1.
       -2   -1    0    0    0  501  0.00000000000E+00  0.00000000000E+00 -0.62614282472E+03  0.62614282472E+03  0.25500000920E-02 0. -1.
    10030    2    1    2    0    0  0.00000000000E+00  0.00000000000E+00  0.25340336671E+04  0.37863193165E+04  0.28133409571E+04 0.  0.
        4    1    3    3  502    0  0.35982893868E+03  0.11082337623E+04  0.23276424137E+04  0.26029943826E+04  0.12699999809E+01 0.  1.
       -4    1    3    3    0  502 -0.35982893868E+03 -0.11082337623E+04  0.20639125342E+03  0.11833249339E+04  0.12699999809E+01 0. -1.
</event>
<event>
 5   0  0.3406920E-07  0.2801927E+04  0.7818609E-02  0.8302670E-01
        2   -1    0    0  501    0  0.00000000000E+00  0.00000000000E+00  0.17470122556E+04  0.17470122556E+04  0.25500000920E-02 0. -1.
       -2   -1    0    0    0  501  0.00000000000E+00  0.00000000000E+00 -0.11234604703E+04  0.11234604703E+04  0.25500000920E-02 0.  1.
    10030    2    1    2    0    0  0.00000000000E+00  0.00000000000E+00  0.62355178530E+03  0.28704727260E+04  0.28019273441E+04 0.  0.
        4    1    3    3  502    0  0.10560906986E+04 -0.19657145625E+03 -0.60951812373E+03  0.12351039864E+04  0.12699999809E+01 0.  1.
       -4    1    3    3    0  502 -0.10560906986E+04  0.19657145625E+03  0.12330699090E+04  0.16353687396E+04  0.12699999809E+01 0. -1.
</event>
<event>
 5   0  0.1346049E-07  0.2800472E+04  0.7818609E-02  0.8303122E-01
        1   -1    0    0  501    0  0.00000000000E+00  0.00000000000E+00  0.20990690075E+04  0.20990690075E+04  0.50400001928E-02 0. -1.
       -1   -1    0    0    0  501  0.00000000000E+00  0.00000000000E+00 -0.93406201285E+03  0.93406201286E+03  0.50400001928E-02 0.  1.
    10030    2    1    2    0    0  0.00000000000E+00  0.00000000000E+00  0.11650069946E+04  0.30331310203E+04  0.28004718333E+04 0.  0.
        1    1    3    3  502    0 -0.21363931419E+03 -0.12290306770E+04  0.12713469671E+04  0.17811460558E+04  0.50400001928E-02 0. -1.
       -1    1    3    3    0  502  0.21363931419E+03  0.12290306770E+04 -0.10633997242E+03  0.12519849645E+04  0.50400001928E-02 0.  1.
</event>
<event>
 5   0  0.1357902E-07  0.2799892E+04  0.7818609E-02  0.8303302E-01
       -1   -1    0    0    0  501  0.00000000000E+00  0.00000000000E+00  0.87730000329E+03  0.87730000330E+03  0.50400001928E-02 0.  1.
        1   -1    0    0  501    0  0.00000000000E+00  0.00000000000E+00 -0.22339552274E+04  0.22339552274E+04  0.50400001928E-02 0. -1.
    10030    2    1    2    0    0  0.00000000000E+00  0.00000000000E+00 -0.13566552241E+04  0.31112552307E+04  0.27998920896E+04 0.  0.
        4    1    3    3  502    0 -0.26241612646E+03  0.11088411484E+03  0.84474947784E+03  0.89149358021E+03  0.12699999809E+01 0.  1.
       -4    1    3    3    0  502  0.26241612646E+03 -0.11088411484E+03 -0.22014047019E+04  0.22197616505E+04  0.12699999809E+01 0. -1.
</event>
<event>
 5   0  0.3406920E-07  0.2800200E+04  0.7818609E-02  0.8303206E-01
       -2   -1    0    0    0  501  0.00000000000E+00  0.00000000000E+00  0.25728057447E+04  0.25728057447E+04  0.25500000920E-02 0. -1.
        2   -1    0    0  501    0  0.00000000000E+00  0.00000000000E+00 -0.76192303060E+03  0.76192303060E+03  0.25500000920E-02 0.  1.
    10030    2    1    2    0    0  0.00000000000E+00  0.00000000000E+00  0.18108827141E+04  0.33347287753E+04  0.28001999572E+04 0.  0.
        4    1    3    3  502    0  0.30160607640E+02  0.12070182838E+04  0.61273262106E+02  0.12089494718E+04  0.12699999809E+01 0.  1.
       -4    1    3    3    0  502 -0.30160607640E+02 -0.12070182838E+04  0.17496094520E+04  0.21257793035E+04  0.12699999809E+01 0. -1.
</event>
<event>
 5   0  0.3406920E-07  0.2801052E+04  0.7818609E-02  0.8302942E-01
       -2   -1    0    0    0  501  0.00000000000E+00  0.00000000000E+00  0.56598594532E+03  0.56598594533E+03  0.25500000920E-02 0.  1.
        2   -1    0    0  501    0  0.00000000000E+00  0.00000000000E+00 -0.34655872437E+04  0.34655872437E+04  0.25500000920E-02 0. -1.
    10030    2    1    2    0    0  0.00000000000E+00  0.00000000000E+00 -0.28996012983E+04  0.40315731890E+04  0.28010524252E+04 0.  0.
        4    1    3    3  502    0  0.60755145626E+03  0.98458124603E+03 -0.31379374228E+03  0.11987439792E+04  0.12699999809E+01 0.  1.
       -4    1    3    3    0  502 -0.60755145626E+03 -0.98458124603E+03 -0.25858075561E+04  0.28328292098E+04  0.12699999809E+01 0. -1.
</event>
<event>
 5   0  0.3557628E-07  0.2799848E+04  0.7818609E-02  0.8303315E-01
       -2   -1    0    0    0  501  0.00000000000E+00  0.00000000000E+00  0.80071642319E+03  0.80071642319E+03  0.25500000920E-02 0.  1.
        2   -1    0    0  501    0  0.00000000000E+00  0.00000000000E+00 -0.24475427154E+04  0.24475427154E+04  0.25500000920E-02 0. -1.
    10030    2    1    2    0    0  0.00000000000E+00  0.00000000000E+00 -0.16468262922E+04  0.32482591386E+04  0.27998483164E+04 0.  0.
        5    1    3    3  502    0 -0.12223651615E+04  0.66585602304E+03 -0.65045764342E+03  0.15364433173E+04  0.46999998093E+01 0.  1.
       -5    1    3    3    0  502  0.12223651615E+04 -0.66585602304E+03 -0.99636864877E+03  0.17118158212E+04  0.46999998093E+01 0. -1.
</event>
<event>
 5   0  0.3522569E-07  0.2802512E+04  0.7818609E-02  0.8302489E-01
        2   -1    0    0  501    0  0.00000000000E+00  0.00000000000E+00  0.26409638326E+04  0.26409638326E+04  0.25500000920E-02 0.  1.
       -2   -1    0    0    0  501  0.00000000000E+00  0.00000000000E+00 -0.74348544328E+03  0.74348544328E+03  0.25500000920E-02 0. -1.
    10030    2    1    2    0    0  0.00000000000E+00  0.00000000000E+00  0.18974783893E+04  0.33844492759E+04  0.28025118489E+04 0.  0.
        1    1    3    3  502    0  0.65183509004E+03 -0.44158225222E+03 -0.45110948604E+03  0.90740489227E+03  0.50400001928E-02 0. -1.
       -1    1    3    3    0  502 -0.65183509004E+03  0.44158225222E+03  0.23485878754E+04  0.24770443836E+04  0.50400001928E-02 0.  1.
</event>
<event>
 5   0  0.1361741E-07  0.2799639E+04  0.7818609E-02  0.8303381E-01
       -1   -1    0    0    0  501  0.00000000000E+00  0.00000000000E+00  0.98420165697E+03  0.98420165699E+03  0.50400001928E-02 0.  1.
        1   -1    0    0  501    0  0.00000000000E+00  0.00000000000E+00 -0.19909479867E+04  0.19909479867E+04  0.50400001928E-02 0. -1.
    10030    2    1    2    0    0  0.00000000000E+00  0.00000000000E+00 -0.10067463297E+04  0.29751496437E+04  0.27996387678E+04 0.  0.
        5    1    3    3  502    0  0.12005645709E+04  0.37703122525E+03  0.14822547388E+03  0.12670835469E+04  0.46999998093E+01 0.  1.
       -5    1    3    3    0  502 -0.12005645709E+04 -0.37703122525E+03 -0.11549718036E+04  0.17080660968E+04  0.46999998093E+01 0. -1.
</event>
<event>
 5   0  0.3557628E-07  0.2799844E+04  0.7818609E-02  0.8303317E-01
        2   -1    0    0  501    0  0.00000000000E+00  0.00000000000E+00  0.19649950376E+04  0.19649950376E+04  0.25500000920E-02 0. -1.
       -2   -1    0    0    0  501  0.00000000000E+00  0.00000000000E+00 -0.99734660130E+03  0.99734660130E+03  0.25500000920E-02 0.  1.
    10030    2    1    2    0    0  0.00000000000E+00  0.00000000000E+00  0.96764843627E+03  0.29623416389E+04  0.27998436544E+04 0.  0.
        5    1    3    3  502    0  0.71334934523E+03 -0.11871291283E+04  0.69966447635E+03  0.15516750063E+04  0.46999998093E+01 0.  1.
       -5    1    3    3    0  502 -0.71334934523E+03  0.11871291283E+04  0.26798395992E+03  0.14106666326E+04  0.46999998093E+01 0. -1.
</event>
<event>
 5   0  0.1366235E-07  0.2800971E+04  0.7818609E-02  0.8302967E-01
        1   -1    0    0  501    0  0.00000000000E+00  0.00000000000E+00  0.18985253380E+04  0.18985253380E+04  0.50400001928E-02 0. -1.
       -1   -1    0    0    0  501  0.00000000000E+00  0.00000000000E+00 -0.10330961844E+04  0.10330961844E+04  0.50400001928E-02 0.  1.
    10030    2    1    2    0    0  0.00000000000E+00  0.00000000000E+00  0.86542915361E+03  0.29316215223E+04  0.28009707478E+04 0.  0.
        2    1    3    3  502    0  0.48307674510E+03 -0.12193270271E+04  0.94678421609E+03  0.16175666578E+04  0.25500000920E-02 0. -1.
       -2    1    3    3    0  502 -0.48307674510E+03  0.12193270271E+04 -0.81355062480E+02  0.13140548645E+04  0.25500000920E-02 0.  1.
</event>
<event>
 5   0  0.3557628E-07  0.2797341E+04  0.7818609E-02  0.8304094E-01
       -2   -1    0    0    0  501  0.00000000000E+00  0.00000000000E+00  0.14894235183E+04  0.14894235183E+04  0.25500000920E-02 0. -1.
        2   -1    0    0  501    0  0.00000000000E+00  0.00000000000E+00 -0.13134473337E+04  0.13134473337E+04  0.25500000920E-02 0.  1.
    10030    2    1    2    0    0  0.00000000000E+00  0.00000000000E+00  0.17597618462E+03  0.28028708520E+04  0.27973411297E+04 0.  0.
        5    1    3    3  502    0 -0.11617854095E+04  0.66712856587E+03 -0.31461634859E+03  0.13761582024E+04  0.46999998093E+01 0.  1.
       -5    1    3    3    0  502  0.11617854095E+04 -0.66712856587E+03  0.49059253322E+03  0.14267126497E+04  0.46999998093E+01 0. -1.
</event>
<event>
 5   0  0.1374680E-07  0.2797379E+04  0.7818609E-02  0.8304082E-01
       -1   -1    0    0    0  501  0.00000000000E+00  0.00000000000E+00  0.13013381330E+04  0.13013381330E+04  0.50400001928E-02 0. -1.
        1   -1    0    0  501    0  0.00000000000E+00  0.00000000000E+00 -0.15033240063E+04  0.15033240063E+04  0.50400001928E-02 0.  1.
    10030    2    1    2    0    0  0.00000000000E+00  0.00000000000E+00 -0.20198587329E+03  0.28046621393E+04  0.27973793848E+04 0.  0.
        3    1    3    3  502    0  0.18247498268E+03 -0.80122442315E+01 -0.14913156222E+04  0.15024591877E+04  0.10100000352E+00 0.  1.
       -3    1    3    3    0  502 -0.18247498268E+03  0.80122442315E+01  0.12893297490E+04  0.13022029516E+04  0.10100000352E+00 0. -1.
</event>
<event>
 5   0  0.1357902E-07  0.2800674E+04  0.7818609E-02  0.8303059E-01
       -1   -1    0    0    0  501  0.00000000000E+00  0.00000000000E+00  0.84235709452E+03  0.84235709454E+03  0.50400001928E-02 0. -1.
        1   -1    0    0  501    0  0.00000000000E+00  0.00000000000E+00 -0.23279251798E+04  0.23279251798E+04  0.50400001928E-02 0.  1.
    10030    2    1    2    0    0  0.00000000000E+00  0.00000000000E+00 -0.14855680853E+04  0.31702822743E+04  0.28006744122E+04 0.  0.
        4    1    3    3  502    0 -0.60722751056E+03 -0.11975138036E+04 -0.11929871742E+04  0.17961026057E+04  0.12699999809E+01 0.  1.
       -4    1    3    3    0  502  0.60722751056E+03  0.11975138036E+04 -0.29258091104E+03  0.13741796687E+04  0.12699999809E+01 0. -1.
</event>
<event>
 5   0  0.1374680E-07  0.2798161E+04  0.7818609E-02  0.8303840E-01
        1   -1    0    0  501    0  0.00000000000E+00  0.00000000000E+00  0.12897668941E+04  0.12897668941E+04  0.50400001928E-02 0.  1.
       -1   -1    0    0    0  501  0.00000000000E+00  0.00000000000E+00 -0.15176583909E+04  0.15176583909E+04  0.50400001928E-02 0. -1.
    10030    2    1    2    0    0  0.00000000000E+00  0.00000000000E+00 -0.22789149681E+03  0.28074252850E+04  0.27981605022E+04 0.  0.
        3    1    3    3  502    0  0.26226093452E+03  0.12003159144E+04 -0.78540481959E+03  0.14582180335E+04  0.10100000352E+00 0. -1.
       -3    1    3    3    0  502 -0.26226093452E+03 -0.12003159144E+04  0.55751332278E+03  0.13492072515E+04  0.10100000352E+00 0.  1.
</event>
<event>
 5   0  0.1374680E-07  0.2797920E+04  0.7818609E-02  0.8303914E-01
       -1   -1    0    0    0  501  0.00000000000E+00  0.00000000000E+00  0.15379505012E+04  0.15379505012E+04  0.50400001928E-02 0.  1.
        1   -1    0    0  501    0  0.00000000000E+00  0.00000000000E+00 -0.12725308072E+04  0.12725308072E+04  0.50400001928E-02 0. -1.
    10030    2    1    2    0    0  0.00000000000E+00  0.00000000000E+00  0.26541969400E+03  0.28104813084E+04  0.27979202224E+04 0.  0.
        3    1    3    3  502    0  0.86845192669E+03  0.10967221377E+04  0.14176063625E+03  0.14060954038E+04  0.10100000352E+00 0.  1.
       -3    1    3    3    0  502 -0.86845192669E+03 -0.10967221377E+04  0.12365905775E+03  0.14043859046E+04  0.10100000352E+00 0. -1.
</event>
<event>
 5   0  0.3571498E-07  0.2798448E+04  0.7818609E-02  0.8303750E-01
        2   -1    0    0  501    0  0.00000000000E+00  0.00000000000E+00  0.23318168341E+04  0.23318168341E+04  0.25500000920E-02 0. -1.
       -2   -1    0    0    0  501  0.00000000000E+00  0.00000000000E+00 -0.83961461145E+03  0.83961461146E+03  0.25500000920E-02 0.  1.
    10030    2    1    2    0    0  0.00000000000E+00  0.00000000000E+00  0.14922022226E+04  0.31714314455E+04  0.27984477734E+04 0.  0.
        2    1    3    3  502    0 -0.61217212275E+02 -0.84009833775E+03 -0.52009264548E+03  0.98995410199E+03  0.25500000920E-02 0.  1.
       -2    1    3    3    0  502  0.61217212275E+02  0.84009833775E+03  0.20122948681E+04  0.21814773435E+04  0.25500000920E-02 0. -1.
</event>
<event>
 5   0  0.1361741E-07  0.2799079E+04  0.7818609E-02  0.8303554E-01
       -1   -1    0    0    0  501  0.00000000000E+00  0.00000000000E+00  0.12917843420E+04  0.12917843420E+04  0.50400001928E-02 0.  1.
        1   -1    0    0  501    0  0.00000000000E+00  0.00000000000E+00 -0.15162827008E+04  0.15162827008E+04  0.50400001928E-02 0. -1.
    10030    2    1    2    0    0  0.00000000000E+00  0.00000000000E+00 -0.22449835879E+03  0.28080670428E+04  0.27990785991E+04 0.  0.
        5    1    3    3  502    0  0.12602920100E+04 -0.60430763684E+03 -0.18434434219E+03  0.14097973602E+04  0.46999998093E+01 0.  1.
       -5    1    3    3    0  502 -0.12602920100E+04  0.60430763684E+03 -0.40154016594E+02  0.13982696826E+04  0.46999998093E+01 0. -1.
</event>
<event>
 5   0  0.1366235E-07  0.2800067E+04  0.7818609E-02  0.8303248E-01
        1   -1    0    0  501    0  0.00000000000E+00  0.00000000000E+00  0.71998134823E+03  0.71998134824E+03  0.50400001928E-02 0.  1.
       -1   -1    0    0    0  501  0.00000000000E+00  0.00000000000E+00 -0.27224229969E+04  0.27224229969E+04  0.50400001928E-02 0. -1.
    10030    2    1    2    0    0  0.00000000000E+00  0.00000000000E+00 -0.20024416486E+04  0.34424043451E+04  0.28000669847E+04 0.  0.
        2    1    3    3  502    0  0.10145748849E+04  0.91678763235E+03 -0.13705161410E+04  0.19360207263E+04  0.25500000920E-02 0. -1.
       -2    1    3    3    0  502 -0.10145748849E+04 -0.91678763235E+03 -0.63192550766E+03  0.15063836188E+04  0.25500000920E-02 0.  1.
</event>
<event>
 5   0  0.1374680E-07  0.2801006E+04  0.7818609E-02  0.8302956E-01
       -1   -1    0    0    0  501  0.00000000000E+00  0.00000000000E+00  0.11772570568E+04  0.11772570568E+04  0.50400001928E-02 0.  1.
        1   -1    0    0  501    0  0.00000000000E+00  0.00000000000E+00 -0.16660841674E+04  0.16660841674E+04  0.50400001928E-02 0. -1.
    10030    2    1    2    0    0  0.00000000000E+00  0.00000000000E+00 -0.48882711065E+03  0.28433412242E+04  0.28010064929E+04 0.  0.
        3    1    3    3  502    0  0.10077165700E+04 -0.77064169063E+03 -0.84670055663E+03  0.15252157695E+04  0.10100000352E+00 0. -1.
       -3    1    3    3    0  502 -0.10077165700E+04  0.77064169063E+03  0.35787344598E+03  0.13181254547E+04  0.10100000352E+00 0.  1.
</event>
<event>
 5   0  0.3522569E-07  0.2800107E+04  0.7818609E-02  0.8303235E-01
        2   -1    0    0  501    0  0.00000000000E+00  0.00000000000E+00  0.78585662155E+03  0.78585662155E+03  0.25500000920E-02 0.  1.
       -2   -1    0    0    0  501  0.00000000000E+00  0.00000000000E+00 -0.24942847080E+04  0.24942847080E+04  0.25500000920E-02 0. -1.
    10030    2    1    2    0    0  0.00000000000E+00  0.00000000000E+00 -0.17084280865E+04  0.32801413296E+04  0.28001072507E+04 0.  0.
        1    1    3    3  502    0 -0.12987638859E+04 -0.27074616921E+03 -0.13781726448E+04  0.19129691472E+04  0.50400001928E-02 0. -1.
       -1    1    3    3    0  502  0.12987638859E+04  0.27074616921E+03 -0.33025544166E+03  0.13671721823E+04  0.50400001928E-02 0.  1.
</event>
<event>
 5   0  0.3571498E-07  0.2799510E+04  0.7818609E-02  0.8303420E-01
       -2   -1    0    0    0  501  0.00000000000E+00  0.00000000000E+00  0.17245229032E+04  0.17245229032E+04  0.25500000920E-02 0.  1.
        2   -1    0    0  501    0  0.00000000000E+00  0.00000000000E+00 -0.11361486268E+04  0.11361486268E+04  0.25500000920E-02 0. -1.
    10030    2    1    2    0    0  0.00000000000E+00  0.00000000000E+00  0.58837427638E+03  0.28606715300E+04  0.27995101917E+04 0.  0.
        2    1    3    3  502    0 -0.26105347107E+03 -0.94035260644E+02  0.16961386405E+04  0.17186849138E+04  0.25500000920E-02 0.  1.
       -2    1    3    3    0  502  0.26105347107E+03  0.94035260644E+02 -0.11077643642E+04  0.11419866162E+04  0.25500000920E-02 0. -1.
</event>
<event>
 5   0  0.1374680E-07  0.2799420E+04  0.7818609E-02  0.8303449E-01
        1   -1    0    0  501    0  0.00000000000E+00  0.00000000000E+00  0.28927043183E+04  0.28927043183E+04  0.50400001928E-02 0. -1.
       -1   -1    0    0    0  501  0.00000000000E+00  0.00000000000E+00 -0.67728581589E+03  0.67728581591E+03  0.50400001928E-02 0.  1.
    10030    2    1    2    0    0  0.00000000000E+00  0.00000000000E+00  0.22154185024E+04  0.35699901342E+04  0.27994196573E+04 0.  0.
        3    1    3    3  502    0 -0.41049675700E+03 -0.42816064045E+02  0.28133422167E+04  0.28434548073E+04  0.10100000352E+00 0. -1.
       -3    1    3    3    0  502  0.41049675700E+03  0.42816064045E+02 -0.59792371431E+03  0.72653532687E+03  0.10100000352E+00 0.  1.
</event>
<event>
 5   0  0.3522569E-07  0.2799801E+04  0.7818609E-02  0.8303330E-01
       -2   -1    0    0    0  501  0.00000000000E+00  0.00000000000E+00  0.24894062697E+04  0.24894062697E+04  0.25500000920E-02 0. -1.
        2   -1    0    0  501    0  0.00000000000E+00  0.00000000000E+00 -0.78722414780E+03  0.78722414781E+03  0.25500000920E-02 0.  1.
    10030    2    1    2    0    0  0.00000000000E+00  0.00000000000E+00  0.17021821219E+04  0.32766304175E+04  0.27998005138E+04 0.  0.
        1    1    3    3  502    0  0.55760233462E+03 -0.95413556857E+03  0.18567570578E+04  0.21607502906E+04  0.50400001928E-02 0. -1.
       -1    1    3    3    0  502 -0.55760233462E+03  0.95413556857E+03 -0.15457493587E+03  0.11158801269E+04  0.50400001928E-02 0.  1.
</event>
<event>
 5   0  0.1346049E-07  0.2798537E+04  0.7818609E-02  0.8303723E-01
        1   -1    0    0  501    0  0.00000000000E+00  0.00000000000E+00  0.20465718780E+04  0.20465718780E+04  0.50400001928E-02 0. -1.
       -1   -1    0    0    0  501  0.00000000000E+00  0.00000000000E+00 -0.95669856862E+03  0.95669856863E+03  0.50400001928E-02 0.  1.
    10030    2    1    2    0    0  0.00000000000E+00  0.00000000000E+00  0.10898733094E+04  0.30032704467E+04  0.27985370366E+04 0.  0.
        1    1    3    3  502    0 -0.73087337986E+02 -0.61193016830E+03 -0.80321209081E+03  0.10123981197E+04  0.50400001928E-02 0.  1.
       -1    1    3    3    0  502  0.73087337986E+02  0.61193016830E+03  0.18930854002E+04  0.19908723270E+04  0.50400001928E-02 0. -1.
</event>
<event>
 5   0  0.1374680E-07  0.2803642E+04  0.7818609E-02  0.8302139E-01
       -1   -1    0    0    0  501  0.00000000000E+00  0.00000000000E+00  0.11852470242E+04  0.11852470242E+04  0.50400001928E-02 0.  1.
        1   -1    0    0  501    0  0.00000000000E+00  0.00000000000E+00 -0.16579678723E+04  0.16579678723E+04  0.50400001928E-02 0. -1.
    10030    2    1    2    0    0  0.00000000000E+00  0.00000000000E+00 -0.47272084810E+03  0.28432148965E+04  0.28036415511E+04 0.  0.
        3    1    3    3  502    0 -0.12251392999E+04 -0.97791318621E+02 -0.92009659134E+03  0.15352873327E+04  0.10100000352E+00 0. -1.
       -3    1    3    3    0  502  0.12251392999E+04  0.97791318621E+02  0.44737574324E+03  0.13079275638E+04  0.10100000352E+00 0.  1.
</event>
<event>
 5   0  0.3406920E-07  0.2799976E+04  0.7818609E-02  0.8303276E-01
       -2   -1    0    0    0  501  0.00000000000E+00  0.00000000000E+00  0.10046090003E+04  0.10046090003E+04  0.25500000920E-02 0.  1.
        2   -1    0    0  501    0  0.00000000000E+00  0.00000000000E+00 -0.19509745730E+04  0.19509745730E+04  0.25500000920E-02 0. -1.
    10030    2    1    2    0    0  0.00000000000E+00  0.00000000000E+00 -0.94636557276E+03  0.29555835733E+04  0.27999761537E+04 0.  0.
        4    1    3    3  502    0  0.21380330318E+03 -0.18546344529E+03 -0.19204584392E+04  0.19412034338E+04  0.12699999809E+01 0. -1.
       -4    1    3    3    0  502 -0.21380330318E+03  0.18546344529E+03  0.97409286643E+03  0.10143801395E+04  0.12699999809E+01 0.  1.
</event>
<event>
 5   0  0.3557628E-07  0.2800569E+04  0.7818609E-02  0.8303092E-01
        2   -1    0    0  501    0  0.00000000000E+00  0.00000000000E+00  0.19110897078E+04  0.19110897078E+04  0.25500000920E-02 0. -1.
       -2   -1    0    0    0  501  0.00000000000E+00  0.00000000000E+00 -0.10260097976E+04  0.10260097976E+04  0.25500000920E-02 0.  1.
    10030    2    1    2    0    0  0.00000000000E+00  0.00000000000E+00  0.88507991014E+03  0.29370995054E+04  0.28005690596E+04 0.  0.
        5    1    3    3  502    0 -0.49292376648E+03  0.92991414501E+03 -0.52609981158E+03  0.11766551145E+04  0.46999998093E+01 0.  1.
       -5    1    3    3    0  502  0.49292376648E+03 -0.92991414501E+03  0.14111797217E+04  0.17604443910E+04  0.46999998093E+01 0. -1.
</event>
<event>
 5   0  0.3522569E-07  0.2797422E+04  0.7818609E-02  0.8304069E-01
       -2   -1    0    0    0  501  0.00000000000E+00  0.00000000000E+00  0.17574340822E+04  0.17574340822E+04  0.25500000920E-02 0. -1.
        2   -1    0    0  501    0  0.00000000000E+00  0.00000000000E+00 -0.11132095391E+04  0.11132095391E+04  0.25500000920E-02 0.  1.
    10030    2    1    2    0    0  0.00000000000E+00  0.00000000000E+00  0.64422454313E+03  0.28706436213E+04  0.27974219451E+04 0.  0.
        1    1    3    3  502    0  0.25056346267E+03  0.10189001350E+04 -0.62700383053E+03  0.12223229268E+04  0.50400001928E-02 0.  1.
       -1    1    3    3    0  502 -0.25056346267E+03 -0.10189001350E+04  0.12712283737E+04  0.16483206945E+04  0.50400001928E-02 0. -1.
</event>
<event>
 5   0  0.3557628E-07  0.2799610E+04  0.7818609E-02  0.8303390E-01
        2   -1    0    0  501    0  0.00000000000E+00  0.00000000000E+00  0.22417980082E+04  0.22417980082E+04  0.25500000920E-02 0. -1.
       -2   -1    0    0    0  501  0.00000000000E+00  0.00000000000E+00 -0.87405437063E+03  0.87405437063E+03  0.25500000920E-02 0.  1.
    10030    2    1    2    0    0  0.00000000000E+00  0.00000000000E+00  0.13677436376E+04  0.31158523788E+04  0.27996095064E+04 0.  0.
        5    1    3    3  502    0 -0.63691899114E+03 -0.12113819176E+04  0.35688263805E+03  0.14143900660E+04  0.46999998093E+01 0. -1.
       -5    1    3    3    0  502  0.63691899114E+03  0.12113819176E+04  0.10108609995E+04  0.17014623128E+04  0.46999998093E+01 0.  1.
</event>
<event>
 5   0  0.3406920E-07  0.2801900E+04  0.7818609E-02  0.8302679E-01
       -2   -1    0    0    0  501  0.00000000000E+00  0.00000000000E+00  0.82807002799E+03  0.82807002799E+03  0.25500000920E-02 0. -1.
        2   -1    0    0  501    0  0.00000000000E+00  0.00000000000E+00 -0.23701628471E+04  0.23701628471E+04  0.25500000920E-02 0.  1.
    10030    2    1    2    0    0  0.00000000000E+00  0.00000000000E+00 -0.15420928191E+04  0.31982328751E+04  0.28018999377E+04 0.  0.
        4    1    3    3  502    0 -0.11322442668E+04 -0.82341385487E+03 -0.71204599531E+03  0.15706681917E+04  0.12699999809E+01 0. -1.
       -4    1    3    3    0  502  0.11322442668E+04  0.82341385487E+03 -0.83004682383E+03  0.16275646834E+04  0.12699999809E+01 0.  1.
</event>
<event>
 5   0  0.1374680E-07  0.2800015E+04  0.7818609E-02  0.8303264E-01
        1   -1    0    0  501    0  0.00000000000E+00  0.00000000000E+00  0.31327896482E+04  0.31327896482E+04  0.50400001928E-02 0. -1.
       -1   -1    0    0    0  501  0.00000000000E+00  0.00000000000E+00 -0.62564734813E+03  0.62564734815E+03  0.50400001928E-02 0.  1.
    10030    2    1    2    0    0  0.00000000000E+00  0.00000000000E+00  0.25071423000E+04  0.37584369963E+04  0.28000153826E+04 0.  0.
        3    1    3    3  502    0 -0.13093143166E+04  0.25964414713E+03  0.18203655204E+04  0.22573102802E+04  0.10100000352E+00 0.  1.
       -3    1    3    3    0  502  0.13093143166E+04 -0.25964414713E+03  0.68677677963E+03  0.15011267162E+04  0.10100000352E+00 0. -1.
</event>
<event>
 5   0  0.1374680E-07  0.2799689E+04  0.7818609E-02  0.8303365E-01
       -1   -1    0    0    0  501  0.00000000000E+00  0.00000000000E+00  0.97471265335E+03  0.97471265336E+03  0.50400001928E-02 0.  1.
        1   -1    0    0  501    0  0.00000000000E+00  0.00000000000E+00 -0.20104028884E+04  0.20104028884E+04  0.50400001928E-02 0. -1.
    10030    2    1    2    0    0  0.00000000000E+00  0.00000000000E+00 -0.10356902350E+04  0.29851155418E+04  0.27996893640E+04 0.  0.
        3    1    3    3  502    0  0.12397140574E+04  0.77954870734E+01 -0.12109882661E+04  0.17330448075E+04  0.10100000352E+00 0. -1.
       -3    1    3    3    0  502 -0.12397140574E+04 -0.77954870734E+01  0.17529803109E+03  0.12520707343E+04  0.10100000352E+00 0.  1.
</event>
<event>
 5   0  0.3502141E-07  0.2797718E+04  0.7818609E-02  0.8303977E-01
        2   -1    0    0  501    0  0.00000000000E+00  0.00000000000E+00  0.23743650326E+04  0.23743650326E+04  0.25500000920E-02 0.  1.
       -2   -1    0    0    0  501  0.00000000000E+00  0.00000000000E+00 -0.82413915500E+03  0.82413915500E+03  0.25500000920E-02 0. -1.
    10030    2    1    2    0    0  0.00000000000E+00  0.00000000000E+00  0.15502258776E+04  0.31985041876E+04  0.27977184931E+04 0.  0.
        3    1    3    3  502    0  0.23028409816E+03  0.84585641307E+03  0.20213669517E+04  0.22032766964E+04  0.10100000352E+00 0.  1.
       -3    1    3    3    0  502 -0.23028409816E+03 -0.84585641307E+03 -0.47114107406E+03  0.99522749121E+03  0.10100000352E+00 0. -1.
</event>
<event>
 5   0  0.3406920E-07  0.2799324E+04  0.7818609E-02  0.8303478E-01
        2   -1    0    0  501    0  0.00000000000E+00  0.00000000000E+00  0.16260974175E+04  0.16260974175E+04  0.25500000920E-02 0. -1.
       -2   -1    0    0    0  501  0.00000000000E+00  0.00000000000E+00 -0.12047579154E+04  0.12047579154E+04  0.25500000920E-02 0.  1.
    10030    2    1    2    0    0  0.00000000000E+00  0.00000000000E+00  0.42133950208E+03  0.28308553330E+04  0.27993240149E+04 0.  0.
        4    1    3    3  502    0  0.58866280985E+03 -0.91928712918E+02  0.14914574758E+04  0.16060578467E+04  0.12699999809E+01 0. -1.
       -4    1    3    3    0  502 -0.58866280985E+03  0.91928712918E+02 -0.10701179737E+04  0.12247974863E+04  0.12699999809E+01 0.  1.
</event>
<event>
 5   0  0.1366235E-07  0.2801985E+04  0.7818609E-02  0.8302653E-01
       -1   -1    0    0    0  501  0.00000000000E+00  0.00000000000E+00  0.12981269164E+04  0.12981269164E+04  0.50400001928E-02 0. -1.
        1   -1    0    0  501    0  0.00000000000E+00  0.00000000000E+00 -0.15120087892E+04  0.15120087892E+04  0.50400001928E-02 0.  1.
    10030    2    1    2    0    0  0.00000000000E+00  0.00000000000E+00 -0.21388187274E+03  0.28101357056E+04  0.28019845161E+04 0.  0.
        2    1    3    3  502    0 -0.10233398346E+04  0.53764402715E+03  0.68687524486E+03  0.13446498128E+04  0.25500000920E-02 0. -1.
       -2    1    3    3    0  502  0.10233398346E+04 -0.53764402715E+03 -0.90075711760E+03  0.14654858928E+04  0.25500000920E-02 0.  1.
</event>
<event>
 5   0  0.1346049E-07  0.2801492E+04  0.7818609E-02  0.8302805E-01
        1   -1    0    0  501    0  0.00000000000E+00  0.00000000000E+00  0.18864847139E+04  0.18864847139E+04  0.50400001928E-02 0.  1.
       -1   -1    0    0    0  501  0.00000000000E+00  0.00000000000E+00 -0.10400767704E+04  0.10400767704E+04  0.50400001928E-02 0. -1.
    10030    2    1    2    0    0  0.00000000000E+00  0.00000000000E+00  0.84640794346E+03  0.29265614843E+04  0.28014916946E+04 0.  0.
        1    1    3    3  502    0  0.13195100177E+04 -0.28686640799E+03  0.81224082155E+03  0.15757963622E+04  0.50400001928E-02 0.  1.
       -1    1    3    3    0  502 -0.13195100177E+04  0.28686640799E+03  0.34167121911E+02  0.13507651221E+04  0.50400001928E-02 0. -1.
</event>
<event>
 5   0  0.1366235E-07  0.2797613E+04  0.7818609E-02  0.8304010E-01
        1   -1    0    0  501    0  0.00000000000E+00  0.00000000000E+00  0.84677500651E+03  0.84677500653E+03  0.50400001928E-02 0.  1.
       -1   -1    0    0    0  501  0.00000000000E+00  0.00000000000E+00 -0.23107200343E+04  0.23107200343E+04  0.50400001928E-02 0. -1.
    10030    2    1    2    0    0  0.00000000000E+00  0.00000000000E+00 -0.14639450278E+04  0.31574950409E+04  0.27976132486E+04 0.  0.
        2    1    3    3  502    0 -0.56544767251E+03  0.11834707424E+04 -0.12806418192E+04  0.18331332569E+04  0.25500000920E-02 0.  1.
       -2    1    3    3    0  502  0.56544767251E+03 -0.11834707424E+04 -0.18330320865E+03  0.13243617840E+04  0.25500000920E-02 0. -1.
</event>
<event>
 5   0  0.3406920E-07  0.2798326E+04  0.7818609E-02  0.8303788E-01
        2   -1    0    0  501    0  0.00000000000E+00  0.00000000000E+00  0.21264350699E+04  0.21264350699E+04  0.25500000920E-02 0.  1.
       -2   -1    0    0    0  501  0.00000000000E+00  0.00000000000E+00 -0.92062889192E+03  0.92062889192E+03  0.25500000920E-02 0. -1.
    10030    2    1    2    0    0  0.00000000000E+00  0.00000000000E+00  0.12058061780E+04  0.30470639618E+04  0.27983263299E+04 0.  0.
        4    1    3    3  502    0 -0.14236324291E+03 -0.13482681681E+04  0.97941530967E+03  0.16725281187E+04  0.12699999809E+01 0.  1.
       -4    1    3    3    0  502  0.14236324291E+03  0.13482681681E+04  0.22639086833E+03  0.13745358432E+04  0.12699999809E+01 0. -1.
</event>
<event>
 5   0  0.3406920E-07  0.2799043E+04  0.7818609E-02  0.8303566E-01
       -2   -1    0    0    0  501  0.00000000000E+00  0.00000000000E+00  0.16639490316E+04  0.16639490316E+04  0.25500000920E-02 0. -1.
        2   -1    0    0  501    0  0.00000000000E+00  0.00000000000E+00 -0.11771155272E+04  0.11771155272E+04  0.25500000920E-02 0.  1.
    10030    2    1    2    0    0  0.00000000000E+00  0.00000000000E+00  0.48683350437E+03  0.28410645588E+04  0.27990428661E+04 0.  0.
        4    1    3    3  502    0 -0.10947832912E+03  0.11932066449E+04 -0.49057935756E+03  0.12947576302E+04  0.12699999809E+01 0.  1.
       -4    1    3    3    0  502  0.10947832912E+03 -0.11932066449E+04  0.97741286193E+03  0.15463069286E+04  0.12699999809E+01 0. -1.
</event>
<event>
 5   0  0.3557628E-07  0.2797612E+04  0.7818609E-02  0.8304010E-01
        2   -1    0    0  501    0  0.00000000000E+00  0.00000000000E+00  0.20073620955E+04  0.20073620955E+04  0.25500000920E-02 0.  1.
       -2   -1    0    0    0  501  0.00000000000E+00  0.00000000000E+00 -0.97474098881E+03  0.97474098882E+03  0.25500000920E-02 0. -1.
    10030    2    1    2    0    0  0.00000000000E+00  0.00000000000E+00  0.10326211067E+04  0.29821030843E+04  0.27976119201E+04 0.  0.
        5    1    3    3  502    0  0.13836687795E+04  0.84305837985E+02  0.31692093117E+03  0.14220083446E+04  0.46999998093E+01 0. -1.
       -5    1    3    3    0  502 -0.13836687795E+04 -0.84305837985E+02  0.71570017549E+03  0.15600947397E+04  0.46999998093E+01 0.  1.
</event>
<event>
 5   0  0.1374680E-07  0.2800673E+04  0.7818609E-02  0.8303059E-01
        1   -1    0    0  501    0  0.00000000000E+00  0.00000000000E+00  0.29385188986E+04  0.29385188986E+04  0.50400001928E-02 0.  1.
       -1   -1    0    0    0  501  0.00000000000E+00  0.00000000000E+00 -0.66732355683E+03  0.66732355685E+03  0.50400001928E-02 0. -1.
    10030    2    1    2    0    0  0.00000000000E+00  0.00000000000E+00  0.22711953418E+04  0.36058424555E+04  0.28006734071E+04 0.  0.
        3    1    3    3  502    0 -0.16679175331E+03  0.28368452778E+03 -0.61683183605E+03  0.69912654394E+03  0.10100000352E+00 0. -1.
       -3    1    3    3    0  502  0.16679175331E+03 -0.28368452778E+03  0.28880271778E+04  0.29067159115E+04  0.10100000352E+00 0.  1.
</event>
<event>
 5   0  0.1366235E-07  0.2800691E+04  0.7818609E-02  0.8303054E-01
        1   -1    0    0  501    0  0.00000000000E+00  0.00000000000E+00  0.91196331755E+03  0.91196331756E+03  0.50400001928E-02 0. -1.
       -1   -1    0    0    0  501  0.00000000000E+00  0.00000000000E+00 -0.21502705418E+04  0.21502705418E+04  0.50400001928E-02 0.  1.
    10030    2    1    2    0    0  0.00000000000E+00  0.00000000000E+00 -0.12383072243E+04  0.30622338594E+04  0.28006912411E+04 0.  0.
        2    1    3    3  502    0 -0.80103959840E+03 -0.87805145052E+03 -0.14287969676E+04  0.18585207996E+04  0.25500000920E-02 0.  1.
       -2    1    3    3    0  502  0.80103959840E+03  0.87805145052E+03  0.19048974333E+03  0.12037130598E+04  0.25500000920E-02 0. -1.
</event>
<event>
 5   0  0.3522569E-07  0.2799915E+04  0.7818609E-02  0.8303295E-01
       -2   -1    0    0    0  501  0.00000000000E+00  0.00000000000E+00  0.11333546501E+04  0.11333546501E+04  0.25500000920E-02 0. -1.
        2   -1    0    0  501    0  0.00000000000E+00  0.00000000000E+00 -0.17292739541E+04  0.17292739541E+04  0.25500000920E-02 0.  1.
    10030    2    1    2    0    0  0.00000000000E+00  0.00000000000E+00 -0.59591930402E+03  0.28626286042E+04  0.27999147681E+04 0.  0.
        1    1    3    3  502    0 -0.81975076380E+02  0.12599293736E+04  0.32034950173E+03  0.13025996096E+04  0.50400001928E-02 0.  1.
       -1    1    3    3    0  502  0.81975076380E+02 -0.12599293736E+04 -0.91626880575E+03  0.15600289946E+04  0.50400001928E-02 0. -1.
</event>
<event>
 5   0  0.1357902E-07  0.2799850E+04  0.7818609E-02  0.8303315E-01
       -1   -1    0    0    0  501  0.00000000000E+00  0.00000000000E+00  0.12806241045E+04  0.12806241045E+04  0.50400001928E-02 0.  1.
        1   -1    0    0  501    0  0.00000000000E+00  0.00000000000E+00 -0.15303402511E+04  0.15303402511E+04  0.50400001928E-02 0. -1.
    10030    2    1    2    0    0  0.00000000000E+00  0.00000000000E+00 -0.24971614660E+03  0.28109643556E+04  0.27998504344E+04 0.  0.
        4    1    3    3  502    0 -0.28924619695E+02 -0.30135943387E+03  0.12473646869E+04  0.12835787537E+04  0.12699999809E+01 0.  1.
       -4    1    3    3    0  502  0.28924619695E+02  0.30135943387E+03 -0.14970808335E+04  0.15273856019E+04  0.12699999809E+01 0. -1.
</event>
<event>
 5   0  0.3406920E-07  0.2799817E+04  0.7818609E-02  0.8303325E-01
        2   -1    0    0  501    0  0.00000000000E+00  0.00000000000E+00  0.17128877665E+04  0.17128877665E+04  0.25500000920E-02 0.  1.
       -2   -1    0    0    0  501  0.00000000000E+00  0.00000000000E+00 -0.11441168410E+04  0.11441168410E+04  0.25500000920E-02 0. -1.
    10030    2    1    2    0    0  0.00000000000E+00  0.00000000000E+00  0.56877092549E+03  0.28570046075E+04  0.27998169515E+04 0.  0.
        4    1    3    3  502    0  0.16470557285E+03 -0.93916871794E+03 -0.76152644176E+03  0.12202827299E+04  0.12699999809E+01 0. -1.
       -4    1    3    3    0  502 -0.16470557285E+03  0.93916871794E+03  0.13302973673E+04  0.16367218776E+04  0.12699999809E+01 0.  1.
</event>
<event>
 5   0  0.3571498E-07  0.2797802E+04  0.7818609E-02  0.8303951E-01
        2   -1    0    0  501    0  0.00000000000E+00  0.00000000000E+00  0.11084243509E+04  0.11084243509E+04  0.25500000920E-02 0. -1.
       -2   -1    0    0    0  501  0.00000000000E+00  0.00000000000E+00 -0.17655012580E+04  0.17655012580E+04  0.25500000920E-02 0.  1.
    10030    2    1    2    0    0  0.00000000000E+00  0.00000000000E+00 -0.65707690712E+03  0.28739256089E+04  0.27978024133E+04 0.  0.
        2    1    3    3  502    0 -0.11093765458E+04 -0.28471070494E+03  0.49652658840E+03  0.12483249412E+04  0.25500000920E-02 0. -1.
       -2    1    3    3    0  502  0.11093765458E+04  0.28471070494E+03 -0.11536034955E+04  0.16256006677E+04  0.25500000920E-02 0.  1.
</event>
<event>
 5   0  0.1357902E-07  0.2778813E+04  0.7818609E-02  0.8309876E-01
        1   -1    0    0  501    0  0.00000000000E+00  0.00000000000E+00  0.19697560920E+04  0.19697560920E+04  0.50400001928E-02 0. -1.
       -1   -1    0    0    0  501  0.00000000000E+00  0.00000000000E+00 -0.98004552440E+03  0.98004552442E+03  0.50400001928E-02 0.  1.
    10030    2    1    2    0    0  0.00000000000E+00  0.00000000000E+00  0.98971056758E+03  0.29498016164E+04  0.27788131583E+04 0.  0.
        4    1    3    3  502    0  0.74444661240E+03 -0.68757873575E+02  0.17380370569E+04  0.18920102611E+04  0.12699999809E+01 0. -1.
       -4    1    3    3    0  502 -0.74444661240E+03  0.68757873575E+02 -0.74832648933E+03  0.10577913553E+04  0.12699999809E+01 0.  1.
</event>
<event>
 5   0  0.3406920E-07  0.2802563E+04  0.7818609E-02  0.8302473E-01
        2   -1    0    0  501    0  0.00000000000E+00  0.00000000000E+00  0.22212892085E+04  0.22212892085E+04  0.25500000920E-02 0.  1.
       -2   -1    0    0    0  501  0.00000000000E+00  0.00000000000E+00 -0.88398644948E+03  0.88398644948E+03  0.25500000920E-02 0. -1.
    10030    2    1    2    0    0  0.00000000000E+00  0.00000000000E+00  0.13373027590E+04  0.31052756579E+04  0.28025627991E+04 0.  0.
        4    1    3    3  502    0  0.10109980369E+03 -0.40036547659E+03  0.21523440266E+04  0.21915976151E+04  0.12699999809E+01 0.  1.
       -4    1    3    3    0  502 -0.10109980369E+03  0.40036547659E+03 -0.81504126757E+03  0.91367804280E+03  0.12699999809E+01 0. -1.
</event>
<event>
 5   0  0.1374680E-07  0.2799751E+04  0.7818609E-02  0.8303346E-01
        1   -1    0    0  501    0  0.00000000000E+00  0.00000000000E+00  0.14283041696E+04  0.14283041696E+04  0.50400001928E-02 0. -1.
       -1   -1    0    0    0  501  0.00000000000E+00  0.00000000000E+00 -0.13720127188E+04  0.13720127188E+04  0.50400001928E-02 0.  1.
    10030    2    1    2    0    0  0.00000000000E+00  0.00000000000E+00  0.56291450752E+02  0.28003168884E+04  0.27997510511E+04 0.  0.
        3    1    3    3  502    0 -0.65664041156E+03  0.66581848612E+02 -0.12066246146E+04  0.13753373198E+04  0.10100000352E+00 0.  1.
       -3    1    3    3    0  502  0.65664041156E+03 -0.66581848612E+02  0.12629160653E+04  0.14249795686E+04  0.10100000352E+00 0. -1.
</event>
<event>
 5   0  0.3557628E-07  0.2799688E+04  0.7818609E-02  0.8303365E-01
        2   -1    0    0  501    0  0.00000000000E+00  0.00000000000E+00  0.26538271120E+04  0.26538271120E+04  0.25500000920E-02 0. -1.
       -2   -1    0    0    0  501  0.00000000000E+00  0.00000000000E+00 -0.73839143149E+03  0.73839143149E+03  0.25500000920E-02 0.  1.
    10030    2    1    2    0    0  0.00000000000E+00  0.00000000000E+00  0.19154356805E+04  0.33922185435E+04  0.27996879827E+04 0.  0.
        5    1    3    3  502    0  0.63340020443E+03  0.47663105665E+03 -0.44022896515E+03  0.90675058031E+03  0.46999998093E+01 0.  1.
       -5    1    3    3    0  502 -0.63340020443E+03 -0.47663105665E+03  0.23556646456E+04  0.24854679631E+04  0.46999998093E+01 0. -1.
</event>
<event>
 5   0  0.3557628E-07  0.2799666E+04  0.7818609E-02  0.8303372E-01
        2   -1    0    0  501    0  0.00000000000E+00  0.00000000000E+00  0.20180355477E+04  0.20180355477E+04  0.25500000920E-02 0. -1.
       -2   -1    0    0    0  501  0.00000000000E+00  0.00000000000E+00 -0.97100964982E+03  0.97100964982E+03  0.25500000920E-02 0.  1.
    10030    2    1    2    0    0  0.00000000000E+00  0.00000000000E+00  0.10470258979E+04  0.29890451975E+04  0.27996656875E+04 0.  0.
        5    1    3    3  502    0 -0.36145860634E+03 -0.12732577586E+04  0.10100495853E+04  0.16649504193E+04  0.46999998093E+01 0. -1.
       -5    1    3    3    0  502  0.36145860634E+03  0.12732577586E+04  0.36976312546E+02  0.13240947782E+04  0.46999998093E+01 0.  1.
</event>
<event>
 5   0  0.3522569E-07  0.2800606E+04  0.7818609E-02  0.8303080E-01
       -2   -1    0    0    0  501  0.00000000000E+00  0.00000000000E+00  0.11161696793E+04  0.11161696793E+04  0.25500000920E-02 0. -1.
        2   -1    0    0  501    0  0.00000000000E+00  0.00000000000E+00 -0.17567661204E+04  0.17567661204E+04  0.25500000920E-02 0.  1.
    10030    2    1    2    0    0  0.00000000000E+00  0.00000000000E+00 -0.64059644113E+03  0.28729357998E+04  0.28006064181E+04 0.  0.
        1    1    3    3  502    0  0.36002516820E+02 -0.96129104872E+03  0.72356382815E+03  0.12037114584E+04  0.50400001928E-02 0. -1.
       -1    1    3    3    0  502 -0.36002516820E+02  0.96129104872E+03 -0.13641602693E+04  0.16692243414E+04  0.50400001928E-02 0.  1.
</event>
<event>
 5   0  0.1357902E-07  0.2801703E+04  0.7818609E-02  0.8302740E-01
        1   -1    0    0  501    0  0.00000000000E+00  0.00000000000E+00  0.24150662515E+04  0.24150662515E+04  0.50400001928E-02 0.  1.
       -1   -1    0    0    0  501  0.00000000000E+00  0.00000000000E+00 -0.81255972720E+03  0.81255972722E+03  0.50400001928E-02 0. -1.
    10030    2    1    2    0    0  0.00000000000E+00  0.00000000000E+00  0.16025065243E+04  0.32276259787E+04  0.28017034636E+04 0.  0.
        4    1    3    3  502    0  0.13839558583E+04 -0.42374047516E+02  0.55618203592E+03  0.14921358677E+04  0.12699999809E+01 0. -1.
       -4    1    3    3    0  502 -0.13839558583E+04  0.42374047516E+02  0.10463244884E+04  0.17354901111E+04  0.12699999809E+01 0.  1.
</event>
<event>
 5   0  0.1374680E-07  0.2799614E+04  0.7818609E-02  0.8303388E-01
       -1   -1    0    0    0  501  0.00000000000E+00  0.00000000000E+00  0.12066850433E+04  0.12066850433E+04  0.50400001928E-02 0.  1.
        1   -1    0    0  501    0  0.00000000000E+00  0.00000000000E+00 -0.16238364660E+04  0.16238364660E+04  0.50400001928E-02 0. -1.
    10030    2    1    2    0    0  0.00000000000E+00  0.00000000000E+00 -0.41715142275E+03  0.28305215093E+04  0.27996136707E+04 0.  0.
        3    1    3    3  502    0  0.13321582875E+04  0.42876400764E+03 -0.24014362741E+03  0.14199131133E+04  0.10100000352E+00 0. -1.
       -3    1    3    3    0  502 -0.13321582875E+04 -0.42876400764E+03 -0.17700779534E+03  0.14106083961E+04  0.10100000352E+00 0.  1.
</event>
<event>
 5   0  0.1374680E-07  0.2799645E+04  0.7818609E-02  0.8303378E-01
       -1   -1    0    0    0  501  0.00000000000E+00  0.00000000000E+00  0.14025271920E+04  0.14025271920E+04  0.50400001928E-02 0.  1.
        1   -1    0    0  501    0  0.00000000000E+00  0.00000000000E+00 -0.13971234598E+04  0.13971234598E+04  0.50400001928E-02 0. -1.
    10030    2    1    2    0    0  0.00000000000E+00  0.00000000000E+00  0.54037322032E+01  0.27996506519E+04  0.27996454369E+04 0.  0.
        3    1    3    3  502    0  0.12703588124E+04  0.17978179147E+03  0.56249807499E+03  0.14009058139E+04  0.10100000352E+00 0. -1.
       -3    1    3    3    0  502 -0.12703588124E+04 -0.17978179147E+03 -0.55709434279E+03  0.13987448380E+04  0.10100000352E+00 0.  1.
</event>
<event>
 5   0  0.3406920E-07  0.2800216E+04  0.7818609E-02  0.8303201E-01
       -2   -1    0    0    0  501  0.00000000000E+00  0.00000000000E+00  0.15080790317E+04  0.15080790317E+04  0.25500000920E-02 0. -1.
        2   -1    0    0  501    0  0.00000000000E+00  0.00000000000E+00 -0.12998674058E+04  0.12998674058E+04  0.25500000920E-02 0.  1.
    10030    2    1    2    0    0  0.00000000000E+00  0.00000000000E+00  0.20821162585E+03  0.28079464375E+04  0.28002162621E+04 0.  0.
        4    1    3    3  502    0 -0.91854220524E+03  0.88227708065E+03  0.68723374449E+03  0.14472126528E+04  0.12699999809E+01 0. -1.
       -4    1    3    3    0  502  0.91854220524E+03 -0.88227708065E+03 -0.47902211864E+03  0.13607337847E+04  0.12699999809E+01 0.  1.
</event>
<event>
 5   0  0.1361741E-07  0.2798897E+04  0.7818609E-02  0.8303611E-01
        1   -1    0    0  501    0  0.00000000000E+00  0.00000000000E+00  0.14156723860E+04  0.14156723860E+04  0.50400001928E-02 0. -1.
       -1   -1    0    0    0  501  0.00000000000E+00  0.00000000000E+00 -0.13834103610E+04  0.13834103610E+04  0.50400001928E-02 0.  1.
    10030    2    1    2    0    0  0.00000000000E+00  0.00000000000E+00  0.32262024960E+02  0.27990827471E+04  0.27988968160E+04 0.  0.
        5    1    3    3  502    0  0.83677534335E+02 -0.76703280694E+03  0.11837240952E+04  0.14129989668E+04  0.46999998093E+01 0. -1.
       -5    1    3    3    0  502 -0.83677534335E+02  0.76703280694E+03 -0.11514620702E+04  0.13860837802E+04  0.46999998093E+01 0.  1.
</event>
<event>
 5   0  0.1357902E-07  0.2801825E+04  0.7818609E-02  0.8302702E-01
       -1   -1    0    0    0  501  0.00000000000E+00  0.00000000000E+00  0.11464748740E+04  0.11464748740E+04  0.50400001928E-02 0.  1.
        1   -1    0    0  501    0  0.00000000000E+00  0.00000000000E+00 -0.17118170834E+04  0.17118170834E+04  0.50400001928E-02 0. -1.
    10030    2    1    2    0    0  0.00000000000E+00  0.00000000000E+00 -0.56534220945E+03  0.28582919574E+04  0.28018246019E+04 0.  0.
        4    1    3    3  502    0 -0.77725807053E+03 -0.18823969538E+03  0.89072277984E+03  0.11970601382E+04  0.12699999809E+01 0.  1.
       -4    1    3    3    0  502  0.77725807053E+03  0.18823969538E+03 -0.14560649893E+04  0.16612318192E+04  0.12699999809E+01 0. -1.
</event>
<event>
 5   0  0.1366235E-07  0.2800523E+04  0.7818609E-02  0.8303106E-01
       -1   -1    0    0    0  501  0.00000000000E+00  0.00000000000E+00  0.10978836748E+04  0.10978836748E+04  0.50400001928E-02 0. -1.
        1   -1    0    0  501    0  0.00000000000E+00  0.00000000000E+00 -0.17859199442E+04  0.17859199442E+04  0.50400001928E-02 0.  1.
    10030    2    1    2    0    0  0.00000000000E+00  0.00000000000E+00 -0.68803626939E+03  0.28838036190E+04  0.28005230592E+04 0.  0.
        2    1    3    3  502    0  0.11768171257E+04 -0.46722404271E+03 -0.95974217876E+03  0.15888051810E+04  0.25500000920E-02 0. -1.
       -2    1    3    3    0  502 -0.11768171257E+04  0.46722404271E+03  0.27170590937E+03  0.12949984381E+04  0.25500000920E-02 0.  1.
</event>
<event>
 5   0  0.3502141E-07  0.2796910E+04  0.7818609E-02  0.8304228E-01
       -2   -1    0    0    0  501  0.00000000000E+00  0.00000000000E+00  0.16176336090E+04  0.16176336090E+04  0.25500000920E-02 0.  1.
        2   -1    0    0  501    0  0.00000000000E+00  0.00000000000E+00 -0.12089735891E+04  0.12089735891E+04  0.25500000920E-02 0. -1.
    10030    2    1    2    0    0  0.00000000000E+00  0.00000000000E+00  0.40866001991E+03  0.28266071982E+04  0.27969099451E+04 0.  0.
        3    1    3    3  502    0  0.35052202251E+03  0.81645332694E+03  0.12957105609E+04  0.15710912103E+04  0.10100000352E+00 0.  1.
       -3    1    3    3    0  502 -0.35052202251E+03 -0.81645332694E+03 -0.88705054098E+03  0.12555159879E+04  0.10100000352E+00 0. -1.
</event>
<event>
 5   0  0.3406920E-07  0.2801114E+04  0.7818609E-02  0.8302923E-01
        2   -1    0    0  501    0  0.00000000000E+00  0.00000000000E+00  0.15052854094E+04  0.15052854094E+04  0.25500000920E-02 0.  1.
       -2   -1    0    0    0  501  0.00000000000E+00  0.00000000000E+00 -0.13031150136E+04  0.13031150136E+04  0.25500000920E-02 0. -1.
    10030    2    1    2    0    0  0.00000000000E+00  0.00000000000E+00  0.20217039574E+03  0.28084004230E+04  0.28011140760E+04 0.  0.
        4    1    3    3  502    0 -0.75021225868E+03  0.86347601643E+03 -0.70919348498E+03  0.13458700814E+04  0.12699999809E+01 0. -1.
       -4    1    3    3    0  502  0.75021225868E+03 -0.86347601643E+03  0.91136388072E+03  0.14625303416E+04  0.12699999809E+01 0.  1.
</event>
<event>
 5   0  0.3522569E-07  0.2798638E+04  0.7818609E-02  0.8303691E-01
       -2   -1    0    0    0  501  0.00000000000E+00  0.00000000000E+00  0.16050794130E+04  0.16050794130E+04  0.25500000920E-02 0.  1.
        2   -1    0    0  501    0  0.00000000000E+00  0.00000000000E+00 -0.12199353018E+04  0.12199353018E+04  0.25500000920E-02 0. -1.
    10030    2    1    2    0    0  0.00000000000E+00  0.00000000000E+00  0.38514411129E+03  0.28250147148E+04  0.27986375529E+04 0.  0.
        1    1    3    3  502    0  0.11671274591E+03  0.30611243848E+02  0.15998184422E+04  0.16043621665E+04  0.50400001928E-02 0.  1.
       -1    1    3    3    0  502 -0.11671274591E+03 -0.30611243848E+02 -0.12146743309E+04  0.12206525483E+04  0.50400001928E-02 0. -1.
</event>
<event>
 5   0  0.3502141E-07  0.2804382E+04  0.7818609E-02  0.8301909E-01
        2   -1    0    0  501    0  0.00000000000E+00  0.00000000000E+00  0.17213846709E+04  0.17213846709E+04  0.25500000920E-02 0. -1.
       -2   -1    0    0    0  501  0.00000000000E+00  0.00000000000E+00 -0.11421850672E+04  0.11421850672E+04  0.25500000920E-02 0.  1.
    10030    2    1    2    0    0  0.00000000000E+00  0.00000000000E+00  0.57919960367E+03  0.28635697381E+04  0.28043821894E+04 0.  0.
        3    1    3    3  502    0  0.89357149666E+03 -0.33427970394E+03  0.13388703771E+04  0.16440154613E+04  0.10100000352E+00 0. -1.
       -3    1    3    3    0  502 -0.89357149666E+03  0.33427970394E+03 -0.75967077339E+03  0.12195542769E+04  0.10100000352E+00 0.  1.
</event>
<event>
 5   0  0.1361741E-07  0.2800198E+04  0.7818609E-02  0.8303207E-01
       -1   -1    0    0    0  501  0.00000000000E+00  0.00000000000E+00  0.84528291377E+03  0.84528291379E+03  0.50400001928E-02 0. -1.
        1   -1    0    0  501    0  0.00000000000E+00  0.00000000000E+00 -0.23190790017E+04  0.23190790017E+04  0.50400001928E-02 0.  1.
    10030    2    1    2    0    0  0.00000000000E+00  0.00000000000E+00 -0.14737960879E+04  0.31643619155E+04  0.28001984614E+04 0.  0.
        5    1    3    3  502    0  0.12080372172E+04 -0.46635345445E+02 -0.15349456024E+04  0.19538702275E+04  0.46999998093E+01 0.  1.
       -5    1    3    3    0  502 -0.12080372172E+04  0.46635345445E+02  0.61149514487E+02  0.12104916880E+04  0.46999998093E+01 0. -1.
</event>
<event>
 5   0  0.1357902E-07  0.2799762E+04  0.7818609E-02  0.8303342E-01
       -1   -1    0    0    0  501  0.00000000000E+00  0.00000000000E+00  0.13951198229E+04  0.13951198229E+04  0.50400001928E-02 0.  1.
        1   -1    0    0  501    0  0.00000000000E+00  0.00000000000E+00 -0.14046586587E+04  0.14046586587E+04  0.50400001928E-02 0. -1.
    10030    2    1    2    0    0  0.00000000000E+00  0.00000000000E+00 -0.95388357504E+01  0.27997784816E+04  0.27997622322E+04 0.  0.
        4    1    3    3  502    0 -0.13129404591E+04 -0.42205265469E+03  0.23549107380E+03  0.13990706741E+04  0.12699999809E+01 0.  1.
       -4    1    3    3    0  502  0.13129404591E+04  0.42205265469E+03 -0.24502990955E+03  0.14007078075E+04  0.12699999809E+01 0. -1.
</event>
<event>
 5   0  0.1361741E-07  0.2798187E+04  0.7818609E-02  0.8303831E-01
       -1   -1    0    0    0  501  0.00000000000E+00  0.00000000000E+00  0.88352731567E+03  0.88352731568E+03  0.50400001928E-02 0.  1.
        1   -1    0    0  501    0  0.00000000000E+00  0.00000000000E+00 -0.22155089166E+04  0.22155089166E+04  0.50400001928E-02 0. -1.
    10030    2    1    2    0    0  0.00000000000E+00  0.00000000000E+00 -0.13319816009E+04  0.30990362322E+04  0.27981870173E+04 0.  0.
        5    1    3    3  502    0 -0.73167131858E+03  0.61999279765E+03 -0.17941936684E+04  0.20344254710E+04  0.46999998093E+01 0. -1.
       -5    1    3    3    0  502  0.73167131858E+03 -0.61999279765E+03  0.46221206748E+03  0.10646107612E+04  0.46999998093E+01 0.  1.
</event>
<event>
 5   0  0.1346049E-07  0.2799082E+04  0.7818609E-02  0.8303553E-01
       -1   -1    0    0    0  501  0.00000000000E+00  0.00000000000E+00  0.24210806727E+04  0.24210806727E+04  0.50400001928E-02 0.  1.
        1   -1    0    0  501    0  0.00000000000E+00  0.00000000000E+00 -0.80902521035E+03  0.80902521037E+03  0.50400001928E-02 0. -1.
    10030    2    1    2    0    0  0.00000000000E+00  0.00000000000E+00  0.16120554623E+04  0.32301058830E+04  0.27990822071E+04 0.  0.
        1    1    3    3  502    0 -0.31197219427E+03 -0.13297066044E+04  0.45360025646E+03  0.14391662504E+04  0.50400001928E-02 0. -1.
       -1    1    3    3    0  502  0.31197219427E+03  0.13297066044E+04  0.11584552059E+04  0.17909396326E+04  0.50400001928E-02 0.  1.
</event>
<event>
 5   0  0.3406920E-07  0.2797224E+04  0.7818609E-02  0.8304131E-01
       -2   -1    0    0    0  501  0.00000000000E+00  0.00000000000E+00  0.14035665071E+04  0.14035665071E+04  0.25500000920E-02 0. -1.
        2   -1    0    0  501    0  0.00000000000E+00  0.00000000000E+00 -0.13936751140E+04  0.13936751140E+04  0.25500000920E-02 0.  1.
    10030    2    1    2    0    0  0.00000000000E+00  0.00000000000E+00  0.98913930822E+01  0.27972416211E+04  0.27972241324E+04 0.  0.
        4    1    3    3  502    0 -0.11142614758E+04  0.75907565733E+03  0.37688835155E+03  0.13999360459E+04  0.12699999809E+01 0. -1.
       -4    1    3    3    0  502  0.11142614758E+04 -0.75907565733E+03 -0.36699695846E+03  0.13973055752E+04  0.12699999809E+01 0.  1.
</event>
<event>
 5   0  0.3522569E-07  0.2800352E+04  0.7818609E-02  0.8303159E-01
        2   -1    0    0  501    0  0.00000000000E+00  0.00000000000E+00  0.25741248617E+04  0.25741248617E+04  0.25500000920E-02 0.  1.
       -2   -1    0    0    0  501  0.00000000000E+00  0.00000000000E+00 -0.76161503299E+03  0.76161503300E+03  0.25500000920E-02 0. -1.
    10030    2    1    2    0    0  0.00000000000E+00  0.00000000000E+00  0.18125098287E+04  0.33357398947E+04  0.28003515433E+04 0.  0.
        1    1    3    3  502    0  0.11876691251E+04  0.91190599435E+02  0.29604633769E+02  0.11915326728E+04  0.50400001928E-02 0. -1.
       -1    1    3    3    0  502 -0.11876691251E+04 -0.91190599435E+02  0.17829051949E+04  0.21442072218E+04  0.50400001928E-02 0.  1.
</event>
<event>
 5   0  0.3571498E-07  0.2799364E+04  0.7818609E-02  0.8303466E-01
       -2   -1    0    0    0  501  0.00000000000E+00  0.00000000000E+00  0.11033050299E+04  0.11033050299E+04  0.25500000920E-02 0.  1.
        2   -1    0    0  501    0  0.00000000000E+00  0.00000000000E+00 -0.17756742290E+04  0.17756742290E+04  0.25500000920E-02 0. -1.
    10030    2    1    2    0    0  0.00000000000E+00  0.00000000000E+00 -0.67236919910E+03  0.28789792588E+04  0.27993644337E+04 0.  0.
        2    1    3    3  502    0 -0.86519430801E+03  0.10553933622E+04 -0.65598484184E+03  0.15141771535E+04  0.25500000920E-02 0. -1.
       -2    1    3    3    0  502  0.86519430801E+03 -0.10553933622E+04 -0.16384357254E+02  0.13648021053E+04  0.25500000920E-02 0.  1.
</event>
<event>
 5   0  0.1374680E-07  0.2794439E+04  0.7818609E-02  0.8304997E-01
       -1   -1    0    0    0  501  0.00000000000E+00  0.00000000000E+00  0.90188533408E+03  0.90188533409E+03  0.50400001928E-02 0.  1.
        1   -1    0    0  501    0  0.00000000000E+00  0.00000000000E+00 -0.21646008395E+04  0.21646008395E+04  0.50400001928E-02 0. -1.
    10030    2    1    2    0    0  0.00000000000E+00  0.00000000000E+00 -0.12627155054E+04  0.30664861736E+04  0.27944385850E+04 0.  0.
        3    1    3    3  502    0  0.35395119572E+03 -0.85930767912E+03  0.51354015988E+03  0.10617978350E+04  0.10100000352E+00 0. -1.
       -3    1    3    3    0  502 -0.35395119572E+03  0.85930767912E+03 -0.17762556653E+04  0.20046883387E+04  0.10100000352E+00 0.  1.
</event>
<event>
 5   0  0.3502141E-07  0.2795023E+04  0.7818609E-02  0.8304815E-01
        2   -1    0    0  501    0  0.00000000000E+00  0.00000000000E+00  0.21255444154E+04  0.21255444154E+04  0.25500000920E-02 0. -1.
       -2   -1    0    0    0  501  0.00000000000E+00  0.00000000000E+00 -0.91884148361E+03  0.91884148362E+03  0.25500000920E-02 0.  1.
    10030    2    1    2    0    0  0.00000000000E+00  0.00000000000E+00  0.12067029318E+04  0.30443858990E+04  0.27950229939E+04 0.  0.
        3    1    3    3  502    0 -0.20507409400E+03  0.30754672562E+03 -0.86462747145E+03  0.94033028615E+03  0.10100000352E+00 0.  1.
       -3    1    3    3    0  502  0.20507409400E+03 -0.30754672562E+03  0.20713304032E+04  0.21040556128E+04  0.10100000352E+00 0. -1.
</event>
<event>
 5   0  0.3557628E-07  0.2800223E+04  0.7818609E-02  0.8303199E-01
       -2   -1    0    0    0  501  0.00000000000E+00  0.00000000000E+00  0.98552112895E+03  0.98552112895E+03  0.25500000920E-02 0. -1.
        2   -1    0    0  501    0  0.00000000000E+00  0.00000000000E+00 -0.19891126533E+04  0.19891126533E+04  0.25500000920E-02 0.  1.
    10030    2    1    2    0    0  0.00000000000E+00  0.00000000000E+00 -0.10035915243E+04  0.29746337822E+04  0.28002232394E+04 0.  0.
        5    1    3    3  502    0  0.24206054313E+03  0.98792134248E+03  0.52026800598E+03  0.11424897258E+04  0.46999998093E+01 0. -1.
       -5    1    3    3    0  502 -0.24206054313E+03 -0.98792134248E+03 -0.15238595303E+04  0.18321440565E+04  0.46999998093E+01 0.  1.
</event>
<event>
 5   0  0.3522569E-07  0.2799707E+04  0.7818609E-02  0.8303359E-01
       -2   -1    0    0    0  501  0.00000000000E+00  0.00000000000E+00  0.79553938389E+03  0.79553938390E+03  0.25500000920E-02 0. -1.
        2   -1    0    0  501    0  0.00000000000E+00  0.00000000000E+00 -0.24632220076E+04  0.24632220076E+04  0.25500000920E-02 0.  1.
    10030    2    1    2    0    0  0.00000000000E+00  0.00000000000E+00 -0.16676826238E+04  0.32587613915E+04  0.27997072121E+04 0.  0.
        1    1    3    3  502    0 -0.79531333267E+03 -0.11191162798E+04 -0.11518521896E+04  0.17921238829E+04  0.50400001928E-02 0. -1.
       -1    1    3    3    0  502  0.79531333267E+03  0.11191162798E+04 -0.51583043414E+03  0.14666375086E+04  0.50400001928E-02 0.  1.
</event>
<event>
 5   0  0.1374680E-07  0.2802357E+04  0.7818609E-02  0.8302537E-01
        1   -1    0    0  501    0  0.00000000000E+00  0.00000000000E+00  0.12190973333E+04  0.12190973333E+04  0.50400001928E-02 0.  1.
       -1   -1    0    0    0  501  0.00000000000E+00  0.00000000000E+00 -0.16104543490E+04  0.16104543490E+04  0.50400001928E-02 0. -1.
    10030    2    1    2    0    0  0.00000000000E+00  0.00000000000E+00 -0.39135701564E+03  0.28295516823E+04  0.28023565814E+04 0.  0.
        3    1    3    3  502    0  0.72861197680E+02 -0.86161124153E+03 -0.13089287022E+04  0.15687501532E+04  0.10100000352E+00 0. -1.
       -3    1    3    3    0  502 -0.72861197680E+02  0.86161124153E+03  0.91757168654E+03  0.12608015291E+04  0.10100000352E+00 0.  1.
</event>
<event>
 5   0  0.1357902E-07  0.2800248E+04  0.7818609E-02  0.8303191E-01
       -1   -1    0    0    0  501  0.00000000000E+00  0.00000000000E+00  0.10235605435E+04  0.10235605435E+04  0.50400001928E-02 0. -1.
        1   -1    0    0  501    0  0.00000000000E+00  0.00000000000E+00 -0.19152240639E+04  0.19152240639E+04  0.50400001928E-02 0.  1.
    10030    2    1    2    0    0  0.00000000000E+00  0.00000000000E+00 -0.89166352041E+03  0.29387846074E+04  0.28002484060E+04 0.  0.
        4    1    3    3  502    0  0.89693602683E+03 -0.10471599494E+04 -0.19025124226E+03  0.13918460202E+04  0.12699999809E+01 0. -1.
       -4    1    3    3    0  502 -0.89693602683E+03  0.10471599494E+04 -0.70141227815E+03  0.15469385872E+04  0.12699999809E+01 0.  1.
</event>
<event>
 5   0  0.1374680E-07  0.2801622E+04  0.7818609E-02  0.8302765E-01
       -1   -1    0    0    0  501  0.00000000000E+00  0.00000000000E+00  0.11486200233E+04  0.11486200234E+04  0.50400001928E-02 0.  1.
        1   -1    0    0  501    0  0.00000000000E+00  0.00000000000E+00 -0.17083730226E+04  0.17083730226E+04  0.50400001928E-02 0. -1.
    10030    2    1    2    0    0  0.00000000000E+00  0.00000000000E+00 -0.55975299929E+03  0.28569930460E+04  0.28016220025E+04 0.  0.
        3    1    3    3  502    0  0.20054446043E+02  0.13344840090E+04 -0.71375183581E+03  0.15135030375E+04  0.10100000352E+00 0. -1.
       -3    1    3    3    0  502 -0.20054446043E+02 -0.13344840090E+04  0.15399883652E+03  0.13434900085E+04  0.10100000352E+00 0.  1.
</event>
<event>
 5   0  0.3406920E-07  0.2797619E+04  0.7818609E-02  0.8304008E-01
        2   -1    0    0  501    0  0.00000000000E+00  0.00000000000E+00  0.23157965432E+04  0.23157965432E+04  0.25500000920E-02 0.  1.
       -2   -1    0    0    0  501  0.00000000000E+00  0.00000000000E+00 -0.84492207263E+03  0.84492207263E+03  0.25500000920E-02 0. -1.
    10030    2    1    2    0    0  0.00000000000E+00  0.00000000000E+00  0.14708744706E+04  0.31607186159E+04  0.27976187125E+04 0.  0.
        4    1    3    3  502    0  0.46722741999E+03  0.12683625451E+04  0.11421941876E+04  0.17696480393E+04  0.12699999809E+01 0.  1.
       -4    1    3    3    0  502 -0.46722741999E+03 -0.12683625451E+04  0.32868028296E+03  0.13910705766E+04  0.12699999809E+01 0. -1.
</event>
<event>
 5   0  0.3557628E-07  0.2806431E+04  0.7818609E-02  0.8301275E-01
        2   -1    0    0  501    0  0.00000000000E+00  0.00000000000E+00  0.74597660740E+03  0.74597660741E+03  0.25500000920E-02 0.  1.
       -2   -1    0    0    0  501  0.00000000000E+00  0.00000000000E+00 -0.26395113581E+04  0.26395113581E+04  0.25500000920E-02 0. -1.
    10030    2    1    2    0    0  0.00000000000E+00  0.00000000000E+00 -0.18935347507E+04  0.33854879655E+04  0.28064309920E+04 0.  0.
        5    1    3    3  502    0 -0.48045474754E+03 -0.10106579599E+04 -0.19680437677E+04  0.22639533206E+04  0.46999998093E+01 0. -1.
       -5    1    3    3    0  502  0.48045474754E+03  0.10106579599E+04  0.74509016919E+02  0.11215346450E+04  0.46999998093E+01 0.  1.
</event>
<event>
 5   0  0.3571498E-07  0.2799624E+04  0.7818609E-02  0.8303385E-01
       -2   -1    0    0    0  501  0.00000000000E+00  0.00000000000E+00  0.11488865639E+04  0.11488865639E+04  0.25500000920E-02 0. -1.
        2   -1    0    0  501    0  0.00000000000E+00  0.00000000000E+00 -0.17055416654E+04  0.17055416654E+04  0.25500000920E-02 0.  1.
    10030    2    1    2    0    0  0.00000000000E+00  0.00000000000E+00 -0.55665510157E+03  0.28544282293E+04  0.27996241916E+04 0.  0.
        2    1    3    3  502    0  0.10675080775E+04  0.89913077835E+03 -0.38749476799E+03  0.14485033129E+04  0.25500000920E-02 0. -1.
       -2    1    3    3    0  502 -0.10675080775E+04 -0.89913077835E+03 -0.16916033358E+03  0.14059249164E+04  0.25500000920E-02 0.  1.
</event>
<event>
 5   0  0.3502141E-07  0.2797552E+04  0.7818609E-02  0.8304029E-01
        2   -1    0    0  501    0  0.00000000000E+00  0.00000000000E+00  0.23944290921E+04  0.23944290921E+04  0.25500000920E-02 0.  1.
       -2   -1    0    0    0  501  0.00000000000E+00  0.00000000000E+00 -0.81713594246E+03  0.81713594247E+03  0.25500000920E-02 0. -1.
    10030    2    1    2    0    0  0.00000000000E+00  0.00000000000E+00  0.15772931496E+04  0.32115650346E+04  0.27975518389E+04 0.  0.
        3    1    3    3  502    0  0.71427380985E+03 -0.86062499291E+03  0.17530354878E+04  0.20794220076E+04  0.10100000352E+00 0.  1.
       -3    1    3    3    0  502 -0.71427380985E+03  0.86062499291E+03 -0.17574233821E+03  0.11321430270E+04  0.10100000352E+00 0. -1.
</event>
<event>
 5   0  0.3571498E-07  0.2806878E+04  0.7818609E-02  0.8301136E-01
       -2   -1    0    0    0  501  0.00000000000E+00  0.00000000000E+00  0.99435235814E+03  0.99435235814E+03  0.25500000920E-02 0.  1.
        2   -1    0    0  501    0  0.00000000000E+00  0.00000000000E+00 -0.19808278255E+04  0.19808278255E+04  0.25500000920E-02 0. -1.
    10030    2    1    2    0    0  0.00000000000E+00  0.00000000000E+00 -0.98647546740E+03  0.29751801837E+04  0.28068778523E+04 0.  0.
        2    1    3    3  502    0 -0.11035258491E+04 -0.81402286894E+03 -0.17659802618E+03  0.13826023989E+04  0.25500000920E-02 0.  1.
       -2    1    3    3    0  502  0.11035258491E+04  0.81402286894E+03 -0.80987744121E+03  0.15925777847E+04  0.25500000920E-02 0. -1.
</event>
<event>
 5   0  0.3502141E-07  0.2799402E+04  0.7818609E-02  0.8303454E-01
        2   -1    0    0  501    0  0.00000000000E+00  0.00000000000E+00  0.15549901504E+04  0.15549901504E+04  0.25500000920E-02 0. -1.
       -2   -1    0    0    0  501  0.00000000000E+00  0.00000000000E+00 -0.12599194731E+04  0.12599194731E+04  0.25500000920E-02 0.  1.
    10030    2    1    2    0    0  0.00000000000E+00  0.00000000000E+00  0.29507067728E+03  0.28149096235E+04  0.27994016296E+04 0.  0.
        3    1    3    3  502    0 -0.26423456674E+03  0.11592330041E+04 -0.59515042577E+03  0.13296033633E+04  0.10100000352E+00 0.  1.
       -3    1    3    3    0  502  0.26423456674E+03 -0.11592330041E+04  0.89022110305E+03  0.14853062602E+04  0.10100000352E+00 0. -1.
</event>
<event>
 5   0  0.3502141E-07  0.2801020E+04  0.7818609E-02  0.8302952E-01
       -2   -1    0    0    0  501  0.00000000000E+00  0.00000000000E+00  0.14914416868E+04  0.14914416868E+04  0.25500000920E-02 0.  1.
        2   -1    0    0  501    0  0.00000000000E+00  0.00000000000E+00 -0.13151221327E+04  0.13151221327E+04  0.25500000920E-02 0. -1.
    10030    2    1    2    0    0  0.00000000000E+00  0.00000000000E+00  0.17631955411E+03  0.28065638196E+04  0.28010197943E+04 0.  0.
        3    1    3    3  502    0 -0.49566864786E+03 -0.27136070435E+03  0.13721421555E+04  0.14839468136E+04  0.10100000352E+00 0.  1.
       -3    1    3    3    0  502  0.49566864786E+03  0.27136070435E+03 -0.11958226014E+04  0.13226170060E+04  0.10100000352E+00 0. -1.
</event>
<event>
 5   0  0.3406920E-07  0.2798742E+04  0.7818609E-02  0.8303659E-01
       -2   -1    0    0    0  501  0.00000000000E+00  0.00000000000E+00  0.67783836870E+03  0.67783836870E+03  0.25500000920E-02 0.  1.
        2   -1    0    0  501    0  0.00000000000E+00  0.00000000000E+00 -0.28889478766E+04  0.28889478766E+04  0.25500000920E-02 0. -1.
    10030    2    1    2    0    0  0.00000000000E+00  0.00000000000E+00 -0.22111095079E+04  0.35667862453E+04  0.27987423718E+04 0.  0.
        4    1    3    3  502    0  0.16147638960E+03  0.11712397384E+04 -0.15155537227E+03  0.11919932017E+04  0.12699999809E+01 0.  1.
       -4    1    3    3    0  502 -0.16147638960E+03 -0.11712397384E+04 -0.20595541356E+04  0.23747930436E+04  0.12699999809E+01 0. -1.
</event>
<event>
 5   0  0.1361741E-07  0.2799526E+04  0.7818609E-02  0.8303416E-01
       -1   -1    0    0    0  501  0.00000000000E+00  0.00000000000E+00  0.10325973896E+04  0.10325973896E+04  0.50400001928E-02 0. -1.
        1   -1    0    0  501    0  0.00000000000E+00  0.00000000000E+00 -0.18974828724E+04  0.18974828724E+04  0.50400001928E-02 0.  1.
    10030    2    1    2    0    0  0.00000000000E+00  0.00000000000E+00 -0.86488548277E+03  0.29300802620E+04  0.27995255747E+04 0.  0.
        5    1    3    3  502    0  0.94146193561E+03 -0.72407022103E+03  0.34283412131E+03  0.12361980367E+04  0.46999998093E+01 0. -1.
       -5    1    3    3    0  502 -0.94146193561E+03  0.72407022103E+03 -0.12077196041E+04  0.16938822253E+04  0.46999998093E+01 0.  1.
</event>
<event>
 5   0  0.1366235E-07  0.2798788E+04  0.7818609E-02  0.8303645E-01
       -1   -1    0    0    0  501  0.00000000000E+00  0.00000000000E+00  0.68586234546E+03  0.68586234548E+03  0.50400001928E-02 0.  1.
        1   -1    0    0  501    0  0.00000000000E+00  0.00000000000E+00 -0.28552418676E+04  0.28552418676E+04  0.50400001928E-02 0. -1.
    10030    2    1    2    0    0  0.00000000000E+00  0.00000000000E+00 -0.21693795221E+04  0.35411042131E+04  0.27987875119E+04 0.  0.
        2    1    3    3  502    0  0.10316726843E+04  0.41118787760E+03 -0.21619025619E+04  0.24304828090E+04  0.25500000920E-02 0. -1.
       -2    1    3    3    0  502 -0.10316726843E+04 -0.41118787760E+03 -0.74769602740E+01  0.11106214040E+04  0.25500000920E-02 0.  1.
</event>
<event>
 5   0  0.1366235E-07  0.2798993E+04  0.7818609E-02  0.8303581E-01
        1   -1    0    0  501    0  0.00000000000E+00  0.00000000000E+00  0.83088392570E+03  0.83088392571E+03  0.50400001928E-02 0.  1.
       -1   -1    0    0    0  501  0.00000000000E+00  0.00000000000E+00 -0.23572377876E+04  0.23572377876E+04  0.50400001928E-02 0. -1.
    10030    2    1    2    0    0  0.00000000000E+00  0.00000000000E+00 -0.15263538619E+04  0.31881217134E+04  0.27989933811E+04 0.  0.
        2    1    3    3  502    0  0.12134900707E+04  0.46872484981E+03 -0.17535884508E+03  0.13126354639E+04  0.25500000920E-02 0.  1.
       -2    1    3    3    0  502 -0.12134900707E+04 -0.46872484981E+03 -0.13509950169E+04  0.18754862495E+04  0.25500000920E-02 0. -1.
</event>
<event>
 5   0  0.1374680E-07  0.2799908E+04  0.7818609E-02  0.8303297E-01
        1   -1    0    0  501    0  0.00000000000E+00  0.00000000000E+00  0.95035735236E+03  0.95035735238E+03  0.50400001928E-02 0.  1.
       -1   -1    0    0    0  501  0.00000000000E+00  0.00000000000E+00 -0.20622467941E+04  0.20622467941E+04  0.50400001928E-02 0. -1.
    10030    2    1    2    0    0  0.00000000000E+00  0.00000000000E+00 -0.11118894418E+04  0.30126041465E+04  0.27999081437E+04 0.  0.
        3    1    3    3  502    0  0.21910285787E+03 -0.10942850834E+04 -0.14653776527E+04  0.18419548261E+04  0.10100000352E+00 0. -1.
       -3    1    3    3    0  502 -0.21910285787E+03  0.10942850834E+04  0.35348821096E+03  0.11706493204E+04  0.10100000352E+00 0.  1.
</event>
<event>
 5   0  0.3522569E-07  0.2799406E+04  0.7818609E-02  0.8303453E-01
        2   -1    0    0  501    0  0.00000000000E+00  0.00000000000E+00  0.24603317326E+04  0.24603317326E+04  0.25500000920E-02 0.  1.
       -2   -1    0    0    0  501  0.00000000000E+00  0.00000000000E+00 -0.79630272081E+03  0.79630272081E+03  0.25500000920E-02 0. -1.
    10030    2    1    2    0    0  0.00000000000E+00  0.00000000000E+00  0.16640290118E+04  0.32566344535E+04  0.27994062605E+04 0.  0.
        1    1    3    3  502    0  0.29862957910E+03 -0.90933377857E+01  0.24228051707E+04  0.24411569408E+04  0.50400001928E-02 0.  1.
       -1    1    3    3    0  502 -0.29862957910E+03  0.90933377857E+01 -0.75877615889E+03  0.81547751265E+03  0.50400001928E-02 0. -1.
</event>
<event>
 5   0  0.1374680E-07  0.2799775E+04  0.7818609E-02  0.8303338E-01
        1   -1    0    0  501    0  0.00000000000E+00  0.00000000000E+00  0.11554207985E+04  0.11554207985E+04  0.50400001928E-02 0.  1.
       -1   -1    0    0    0  501  0.00000000000E+00  0.00000000000E+00 -0.16960792280E+04  0.16960792280E+04  0.50400001928E-02 0. -1.
    10030    2    1    2    0    0  0.00000000000E+00  0.00000000000E+00 -0.54065842944E+03  0.28515000265E+04  0.27997751452E+04 0.  0.
        3    1    3    3  502    0 -0.25029708901E+03  0.14611897357E+03  0.11245296717E+04  0.11612779081E+04  0.10100000352E+00 0.  1.
       -3    1    3    3    0  502  0.25029708901E+03 -0.14611897357E+03 -0.16651881011E+04  0.16902221184E+04  0.10100000352E+00 0. -1.
</event>
<event>
 5   0  0.3502141E-07  0.2799767E+04  0.7818609E-02  0.8303341E-01
        2   -1    0    0  501    0  0.00000000000E+00  0.00000000000E+00  0.11728470247E+04  0.11728470247E+04  0.25500000920E-02 0. -1.
       -2   -1    0    0    0  501  0.00000000000E+00  0.00000000000E+00 -0.16708684910E+04  0.16708684910E+04  0.25500000920E-02 0.  1.
    10030    2    1    2    0    0  0.00000000000E+00  0.00000000000E+00 -0.49802146631E+03  0.28437155157E+04  0.27997665177E+04 0.  0.
        3    1    3    3  502    0  0.34894518188E+03 -0.95836995084E+03 -0.12229355243E+04  0.15924217435E+04  0.10100000352E+00 0.  1.
       -3    1    3    3    0  502 -0.34894518188E+03  0.95836995084E+03  0.72491405795E+03  0.12512937722E+04  0.10100000352E+00 0. -1.
</event>
<event>
 5   0  0.1346049E-07  0.2802141E+04  0.7818609E-02  0.8302604E-01
       -1   -1    0    0    0  501  0.00000000000E+00  0.00000000000E+00  0.10799124246E+04  0.10799124246E+04  0.50400001928E-02 0. -1.
        1   -1    0    0  501    0  0.00000000000E+00  0.00000000000E+00 -0.18177382495E+04  0.18177382495E+04  0.50400001928E-02 0.  1.
    10030    2    1    2    0    0  0.00000000000E+00  0.00000000000E+00 -0.73782582496E+03  0.28976506741E+04  0.28021406962E+04 0.  0.
        1    1    3    3  502    0 -0.18293331257E+03  0.12604562793E+04  0.23475120882E+03  0.12951149598E+04  0.50400001928E-02 0. -1.
       -1    1    3    3    0  502  0.18293331257E+03 -0.12604562793E+04 -0.97257703378E+03  0.16025357143E+04  0.50400001928E-02 0.  1.
</event>
<event>
 5   0  0.3406920E-07  0.2799335E+04  0.7818609E-02  0.8303475E-01
        2   -1    0    0  501    0  0.00000000000E+00  0.00000000000E+00  0.17936045794E+04  0.17936045794E+04  0.25500000920E-02 0. -1.
       -2   -1    0    0    0  501  0.00000000000E+00  0.00000000000E+00 -0.10922524629E+04  0.10922524629E+04  0.25500000920E-02 0.  1.
    10030    2    1    2    0    0  0.00000000000E+00  0.00000000000E+00  0.70135211654E+03  0.28858570423E+04  0.27993349348E+04 0.  0.
        4    1    3    3  502    0 -0.68262811799E+03  0.12137227091E+04  0.20501693656E+03  0.14075288698E+04  0.12699999809E+01 0. -1.
       -4    1    3    3    0  502  0.68262811799E+03 -0.12137227091E+04  0.49633517998E+03  0.14783281726E+04  0.12699999809E+01 0.  1.
</event>
<event>
 5   0  0.3406920E-07  0.2790547E+04  0.7818609E-02  0.8306209E-01
       -2   -1    0    0    0  501  0.00000000000E+00  0.00000000000E+00  0.13366585095E+04  0.13366585095E+04  0.25500000920E-02 0. -1.
        2   -1    0    0  501    0  0.00000000000E+00  0.00000000000E+00 -0.14564584563E+04  0.14564584563E+04  0.25500000920E-02 0.  1.
    10030    2    1    2    0    0  0.00000000000E+00  0.00000000000E+00 -0.11979994687E+03  0.27931169658E+04  0.27905466055E+04 0.  0.
        4    1    3    3  502    0  0.87060394152E+03 -0.62215359100E+03  0.83633511713E+03  0.13581179458E+04  0.12699999809E+01 0. -1.
       -4    1    3    3    0  502 -0.87060394152E+03  0.62215359100E+03 -0.95613506400E+03  0.14349990200E+04  0.12699999809E+01 0.  1.
</event>
<event>
 5   0  0.1361741E-07  0.2800155E+04  0.7818609E-02  0.8303220E-01
        1   -1    0    0  501    0  0.00000000000E+00  0.00000000000E+00  0.10760224266E+04  0.10760224266E+04  0.50400001928E-02 0.  1.
       -1   -1    0    0    0  501  0.00000000000E+00  0.00000000000E+00 -0.18217253229E+04  0.18217253229E+04  0.50400001928E-02 0. -1.
    10030    2    1    2    0    0  0.00000000000E+00  0.00000000000E+00 -0.74570289635E+03  0.28977477495E+04  0.28001552118E+04 0.  0.
        5    1    3    3  502    0  0.13938640398E+04  0.13063582246E+03 -0.35576750970E+03  0.14444775147E+04  0.46999998093E+01 0. -1.
       -5    1    3    3    0  502 -0.13938640398E+04 -0.13063582246E+03 -0.38993538666E+03  0.14532702348E+04  0.46999998093E+01 0.  1.
</event>
<event>
 5   0  0.1374680E-07  0.2799717E+04  0.7818609E-02  0.8303356E-01
       -1   -1    0    0    0  501  0.00000000000E+00  0.00000000000E+00  0.29463876837E+04  0.29463876837E+04  0.50400001928E-02 0. -1.
        1   -1    0    0  501    0  0.00000000000E+00  0.00000000000E+00 -0.66508692950E+03  0.66508692952E+03  0.50400001928E-02 0.  1.
    10030    2    1    2    0    0  0.00000000000E+00  0.00000000000E+00  0.22813007542E+04  0.36114746133E+04  0.27997170841E+04 0.  0.
        3    1    3    3  502    0  0.90567970527E+02  0.95900779633E+03  0.24508825951E+04  0.26333864160E+04  0.10100000352E+00 0. -1.
       -3    1    3    3    0  502 -0.90567970527E+02 -0.95900779633E+03 -0.16958184086E+03  0.97808819728E+03  0.10100000352E+00 0.  1.
</event>
<event>
 5   0  0.1366235E-07  0.2800466E+04  0.7818609E-02  0.8303124E-01
        1   -1    0    0  501    0  0.00000000000E+00  0.00000000000E+00  0.21370304432E+04  0.21370304432E+04  0.50400001928E-02 0.  1.
       -1   -1    0    0    0  501  0.00000000000E+00  0.00000000000E+00 -0.91746582463E+03  0.91746582465E+03  0.50400001928E-02 0. -1.
    10030    2    1    2    0    0  0.00000000000E+00  0.00000000000E+00  0.12195646186E+04  0.30544962679E+04  0.28004659597E+04 0.  0.
        2    1    3    3  502    0  0.13479815005E+04  0.24386063321E+03  0.92614512046E+03  0.16535618882E+04  0.25500000920E-02 0.  1.
       -2    1    3    3    0  502 -0.13479815005E+04 -0.24386063321E+03  0.29341949811E+03  0.14009343796E+04  0.25500000920E-02 0. -1.
</event>
<event>
 5   0  0.3406920E-07  0.2799605E+04  0.7818609E-02  0.8303391E-01
        2   -1    0    0  501    0  0.00000000000E+00  0.00000000000E+00  0.70107794218E+03  0.70107794219E+03  0.25500000920E-02 0. -1.
       -2   -1    0    0    0  501  0.00000000000E+00  0.00000000000E+00 -0.27949054987E+04  0.27949054987E+04  0.25500000920E-02 0.  1.
    10030    2    1    2    0    0  0.00000000000E+00  0.00000000000E+00 -0.20938275565E+04  0.34959834409E+04  0.27996046832E+04 0.  0.
        4    1    3    3  502    0 -0.24794213388E+02  0.10631998387E+04  0.89672017668E+02  0.10672634790E+04  0.12699999809E+01 0. -1.
       -4    1    3    3    0  502  0.24794213388E+02 -0.10631998387E+04 -0.21834995742E+04  0.24287199619E+04  0.12699999809E+01 0.  1.
</event>
<event>
 5   0  0.1374680E-07  0.2800048E+04  0.7818609E-02  0.8303253E-01
        1   -1    0    0  501    0  0.00000000000E+00  0.00000000000E+00  0.21504732539E+04  0.21504732539E+04  0.50400001928E-02 0.  1.
       -1   -1    0    0    0  501  0.00000000000E+00  0.00000000000E+00 -0.91145870341E+03  0.91145870342E+03  0.50400001928E-02 0. -1.
    10030    2    1    2    0    0  0.00000000000E+00  0.00000000000E+00  0.12390145505E+04  0.30619319573E+04  0.28000482594E+04 0.  0.
        3    1    3    3  502    0 -0.12525939169E+04  0.24925554235E+02 -0.63798944731E+02  0.12544652723E+04  0.10100000352E+00 0. -1.
       -3    1    3    3    0  502  0.12525939169E+04 -0.24925554235E+02  0.13028134952E+04  0.18074666850E+04  0.10100000352E+00 0.  1.
</event>
<event>
 5   0  0.3571498E-07  0.2798946E+04  0.7818609E-02  0.8303596E-01
       -2   -1    0    0    0  501  0.00000000000E+00  0.00000000000E+00  0.10178061540E+04  0.10178061540E+04  0.25500000920E-02 0.  1.
        2   -1    0    0  501    0  0.00000000000E+00  0.00000000000E+00 -0.19242609070E+04  0.19242609070E+04  0.25500000920E-02 0. -1.
    10030    2    1    2    0    0  0.00000000000E+00  0.00000000000E+00 -0.90645475298E+03  0.29420670610E+04  0.27989459395E+04 0.  0.
        2    1    3    3  502    0 -0.38658593522E+03  0.20616190726E+03  0.94386098017E+03  0.10405887599E+04  0.25500000920E-02 0.  1.
       -2    1    3    3    0  502  0.38658593522E+03 -0.20616190726E+03 -0.18503157332E+04  0.19014783011E+04  0.25500000920E-02 0. -1.
</event>
<event>
 5   0  0.3406920E-07  0.2800447E+04  0.7818609E-02  0.8303130E-01
       -2   -1    0    0    0  501  0.00000000000E+00  0.00000000000E+00  0.12321326485E+04  0.12321326485E+04  0.25500000920E-02 0.  1.
        2   -1    0    0  501    0  0.00000000000E+00  0.00000000000E+00 -0.15912453979E+04  0.15912453979E+04  0.25500000920E-02 0. -1.
    10030    2    1    2    0    0  0.00000000000E+00  0.00000000000E+00 -0.35911274947E+03  0.28233780464E+04  0.28004466833E+04 0.  0.
        4    1    3    3  502    0 -0.18763610480E+03 -0.63280617969E+03  0.10654534456E+04  0.12533330070E+04  0.12699999809E+01 0.  1.
       -4    1    3    3    0  502  0.18763610480E+03  0.63280617969E+03 -0.14245661950E+04  0.15700450394E+04  0.12699999809E+01 0. -1.
</event>
<event>
 5   0  0.1361741E-07  0.2800448E+04  0.7818609E-02  0.8303129E-01
        1   -1    0    0  501    0  0.00000000000E+00  0.00000000000E+00  0.13647772083E+04  0.13647772083E+04  0.50400001928E-02 0. -1.
       -1   -1    0    0    0  501  0.00000000000E+00  0.00000000000E+00 -0.14365917583E+04  0.14365917583E+04  0.50400001928E-02 0.  1.
    10030    2    1    2    0    0  0.00000000000E+00  0.00000000000E+00 -0.71814550087E+02  0.28013689666E+04  0.28004483137E+04 0.  0.
        5    1    3    3  502    0 -0.92609880842E+03  0.10118664858E+04  0.24538405167E+03  0.13934734339E+04  0.46999998093E+01 0.  1.
       -5    1    3    3    0  502  0.92609880842E+03 -0.10118664858E+04 -0.31719860176E+03  0.14078955327E+04  0.46999998093E+01 0. -1.
</event>
<event>
 5   0  0.1366235E-07  0.2800014E+04  0.7818609E-02  0.8303264E-01
       -1   -1    0    0    0  501  0.00000000000E+00  0.00000000000E+00  0.15918512118E+04  0.15918512118E+04  0.50400001928E-02 0. -1.
        1   -1    0    0  501    0  0.00000000000E+00  0.00000000000E+00 -0.12312834735E+04  0.12312834735E+04  0.50400001928E-02 0.  1.
    10030    2    1    2    0    0  0.00000000000E+00  0.00000000000E+00  0.36056773832E+03  0.28231346853E+04  0.28000143495E+04 0.  0.
        2    1    3    3  502    0  0.84080459841E+03  0.78006007899E+03 -0.62919912449E+03  0.13081810417E+04  0.25500000920E-02 0. -1.
       -2    1    3    3    0  502 -0.84080459841E+03 -0.78006007899E+03  0.98976686280E+03  0.15149536436E+04  0.25500000920E-02 0.  1.
</event>
<event>
 5   0  0.3571498E-07  0.2800299E+04  0.7818609E-02  0.8303176E-01
       -2   -1    0    0    0  501  0.00000000000E+00  0.00000000000E+00  0.15025569272E+04  0.15025569272E+04  0.25500000920E-02 0. -1.
        2   -1    0    0  501    0  0.00000000000E+00  0.00000000000E+00 -0.13047214588E+04  0.13047214588E+04  0.25500000920E-02 0.  1.
    10030    2    1    2    0    0  0.00000000000E+00  0.00000000000E+00  0.19783546843E+03  0.28072783860E+04  0.28002987455E+04 0.  0.
        2    1    3    3  502    0  0.90249995398E+03 -0.15720901643E+02  0.11719429549E+04  0.14792577879E+04  0.25500000920E-02 0. -1.
       -2    1    3    3    0  502 -0.90249995398E+03  0.15720901643E+02 -0.97410748646E+03  0.13280205981E+04  0.25500000920E-02 0.  1.
</event>
<event>
 5   0  0.3502141E-07  0.2800674E+04  0.7818609E-02  0.8303059E-01
        2   -1    0    0  501    0  0.00000000000E+00  0.00000000000E+00  0.18601611562E+04  0.18601611562E+04  0.25500000920E-02 0.  1.
       -2   -1    0    0    0  501  0.00000000000E+00  0.00000000000E+00 -0.10541798287E+04  0.10541798287E+04  0.25500000920E-02 0. -1.
    10030    2    1    2    0    0  0.00000000000E+00  0.00000000000E+00  0.80598132755E+03  0.29143409849E+04  0.28006744680E+04 0.  0.
        3    1    3    3  502    0  0.35671869419E+03  0.81993289144E+03 -0.71843321403E+03  0.11470328969E+04  0.10100000352E+00 0. -1.
       -3    1    3    3    0  502 -0.35671869419E+03 -0.81993289144E+03  0.15244145416E+04  0.17673080880E+04  0.10100000352E+00 0.  1.
</event>
<event>
 5   0  0.3557628E-07  0.2802299E+04  0.7818609E-02  0.8302555E-01
        2   -1    0    0  501    0  0.00000000000E+00  0.00000000000E+00  0.15881545922E+04  0.15881545922E+04  0.25500000920E-02 0. -1.
       -2   -1    0    0    0  501  0.00000000000E+00  0.00000000000E+00 -0.12361644962E+04  0.12361644962E+04  0.25500000920E-02 0.  1.
    10030    2    1    2    0    0  0.00000000000E+00  0.00000000000E+00  0.35199009603E+03  0.28243190885E+04  0.28022992855E+04 0.  0.
        5    1    3    3  502    0 -0.12985755289E+04  0.27016875320E+02  0.70564316041E+03  0.14781686898E+04  0.46999998093E+01 0. -1.
       -5    1    3    3    0  502  0.12985755289E+04 -0.27016875320E+02 -0.35365306438E+03  0.13461503986E+04  0.46999998093E+01 0.  1.
</event>
<event>
 5   0  0.1366235E-07  0.2798662E+04  0.7818609E-02  0.8303684E-01
       -1   -1    0    0    0  501  0.00000000000E+00  0.00000000000E+00  0.13686020278E+04  0.13686020279E+04  0.50400001928E-02 0.  1.
        1   -1    0    0  501    0  0.00000000000E+00  0.00000000000E+00 -0.14307501241E+04  0.14307501241E+04  0.50400001928E-02 0. -1.
    10030    2    1    2    0    0  0.00000000000E+00  0.00000000000E+00 -0.62148096222E+02  0.27993521519E+04  0.27986621955E+04 0.  0.
        2    1    3    3  502    0  0.10074611426E+04 -0.96690656583E+03  0.59729719509E+02  0.13976601519E+04  0.25500000920E-02 0.  1.
       -2    1    3    3    0  502 -0.10074611426E+04  0.96690656583E+03 -0.12187781573E+03  0.14016920000E+04  0.25500000920E-02 0. -1.
</event>
<event>
 5   0  0.3571498E-07  0.2795787E+04  0.7818609E-02  0.8304577E-01
       -2   -1    0    0    0  501  0.00000000000E+00  0.00000000000E+00  0.96774514883E+03  0.96774514884E+03  0.25500000920E-02 0. -1.
        2   -1    0    0  501    0  0.00000000000E+00  0.00000000000E+00 -0.20192368120E+04  0.20192368121E+04  0.25500000920E-02 0.  1.
    10030    2    1    2    0    0  0.00000000000E+00  0.00000000000E+00 -0.10514916632E+04  0.29869819609E+04  0.27957872803E+04 0.  0.
        2    1    3    3  502    0 -0.95083002482E+01  0.13953638488E+04 -0.43651186823E+03  0.14620784142E+04  0.25500000920E-02 0. -1.
       -2    1    3    3    0  502  0.95083002482E+01 -0.13953638488E+04 -0.61497979499E+03  0.15249035466E+04  0.25500000920E-02 0.  1.
</event>
<event>
 5   0  0.1366235E-07  0.2801783E+04  0.7818609E-02  0.8302715E-01
        1   -1    0    0  501    0  0.00000000000E+00  0.00000000000E+00  0.13148340066E+04  0.13148340067E+04  0.50400001928E-02 0.  1.
       -1   -1    0    0    0  501  0.00000000000E+00  0.00000000000E+00 -0.14925819570E+04  0.14925819570E+04  0.50400001928E-02 0. -1.
    10030    2    1    2    0    0  0.00000000000E+00  0.00000000000E+00 -0.17774795034E+03  0.28074159637E+04  0.28017833712E+04 0.  0.
        2    1    3    3  502    0 -0.62504180374E+02  0.23262341613E+02  0.13132423850E+04  0.13149347781E+04  0.25500000920E-02 0.  1.
       -2    1    3    3    0  502  0.62504180374E+02 -0.23262341613E+02 -0.14909903353E+04  0.14924811855E+04  0.25500000920E-02 0. -1.
</event>
<event>
 5   0  0.3557628E-07  0.2799281E+04  0.7818609E-02  0.8303492E-01
        2   -1    0    0  501    0  0.00000000000E+00  0.00000000000E+00  0.22263310793E+04  0.22263310793E+04  0.25500000920E-02 0.  1.
       -2   -1    0    0    0  501  0.00000000000E+00  0.00000000000E+00 -0.87992008977E+03  0.87992008978E+03  0.25500000920E-02 0. -1.
    10030    2    1    2    0    0  0.00000000000E+00  0.00000000000E+00  0.13464109895E+04  0.31062511690E+04  0.27992809385E+04 0.  0.
        5    1    3    3  502    0 -0.33770552147E+03  0.53575207968E+03 -0.71182494977E+03  0.95278127565E+03  0.46999998093E+01 0. -1.
       -5    1    3    3    0  502  0.33770552147E+03 -0.53575207968E+03  0.20582359393E+04  0.21534698934E+04  0.46999998093E+01 0.  1.
</event>
<event>
 5   0  0.1346049E-07  0.2796305E+04  0.7818609E-02  0.8304416E-01
        1   -1    0    0  501    0  0.00000000000E+00  0.00000000000E+00  0.21648545471E+04  0.21648545471E+04  0.50400001928E-02 0.  1.
       -1   -1    0    0    0  501  0.00000000000E+00  0.00000000000E+00 -0.90298491204E+03  0.90298491205E+03  0.50400001928E-02 0. -1.
    10030    2    1    2    0    0  0.00000000000E+00  0.00000000000E+00  0.12618696351E+04  0.30678394591E+04  0.27963054145E+04 0.  0.
        1    1    3    3  502    0 -0.26298464063E+03 -0.59034880468E+03 -0.72927946666E+03  0.97443377040E+03  0.50400001928E-02 0. -1.
       -1    1    3    3    0  502  0.26298464063E+03  0.59034880468E+03  0.19911491017E+04  0.20934056887E+04  0.50400001928E-02 0.  1.
</event>
<event>
 5   0  0.1366235E-07  0.2796807E+04  0.7818609E-02  0.8304260E-01
        1   -1    0    0  501    0  0.00000000000E+00  0.00000000000E+00  0.15760500228E+04  0.15760500228E+04  0.50400001928E-02 0.  1.
       -1   -1    0    0    0  501  0.00000000000E+00  0.00000000000E+00 -0.12407810037E+04  0.12407810037E+04  0.50400001928E-02 0. -1.
    10030    2    1    2    0    0  0.00000000000E+00  0.00000000000E+00  0.33526901913E+03  0.28168310266E+04  0.27968074151E+04 0.  0.
        2    1    3    3  502    0 -0.11814924495E+04  0.74797947911E+03  0.15592284659E+03  0.14070215504E+04  0.25500000920E-02 0.  1.
       -2    1    3    3    0  502  0.11814924495E+04 -0.74797947911E+03  0.17934617254E+03  0.14098094761E+04  0.25500000920E-02 0. -1.
</event>
<event>
 5   0  0.1346049E-07  0.2800808E+04  0.7818609E-02  0.8303018E-01
        1   -1    0    0  501    0  0.00000000000E+00  0.00000000000E+00  0.10756843875E+04  0.10756843875E+04  0.50400001928E-02 0. -1.
       -1   -1    0    0    0  501  0.00000000000E+00  0.00000000000E+00 -0.18231474222E+04  0.18231474222E+04  0.50400001928E-02 0.  1.
    10030    2    1    2    0    0  0.00000000000E+00  0.00000000000E+00 -0.74746303469E+03  0.28988318097E+04  0.28008078964E+04 0.  0.
        1    1    3    3  502    0 -0.26574415705E+03 -0.59152445025E+03 -0.16583851949E+04  0.17806635244E+04  0.50400001928E-02 0.  1.
       -1    1    3    3    0  502  0.26574415705E+03  0.59152445025E+03  0.91092216025E+03  0.11181682853E+04  0.50400001928E-02 0. -1.
</event>
<event>
 5   0  0.3557628E-07  0.2796762E+04  0.7818609E-02  0.8304274E-01
        2   -1    0    0  501    0  0.00000000000E+00  0.00000000000E+00  0.17948003093E+04  0.17948003093E+04  0.25500000920E-02 0. -1.
       -2   -1    0    0    0  501  0.00000000000E+00  0.00000000000E+00 -0.10895191779E+04  0.10895191779E+04  0.25500000920E-02 0.  1.
    10030    2    1    2    0    0  0.00000000000E+00  0.00000000000E+00  0.70528113145E+03  0.28843194872E+04  0.27967619545E+04 0.  0.
        5    1    3    3  502    0 -0.95804749481E+02  0.10166426018E+04  0.13379064421E+04  0.16830794597E+04  0.46999998093E+01 0. -1.
       -5    1    3    3    0  502  0.95804749481E+02 -0.10166426018E+04 -0.63262531068E+03  0.12012400275E+04  0.46999998093E+01 0.  1.
</event>
<event>
 5   0  0.1361741E-07  0.2800838E+04  0.7818609E-02  0.8303008E-01
        1   -1    0    0  501    0  0.00000000000E+00  0.00000000000E+00  0.24305500158E+04  0.24305500158E+04  0.50400001928E-02 0.  1.
       -1   -1    0    0    0  501  0.00000000000E+00  0.00000000000E+00 -0.80688472471E+03  0.80688472472E+03  0.50400001928E-02 0. -1.
    10030    2    1    2    0    0  0.00000000000E+00  0.00000000000E+00  0.16236652911E+04  0.32374347405E+04  0.28008382177E+04 0.  0.
        5    1    3    3  502    0 -0.97969299669E+03 -0.99325764538E+03  0.67124945846E+03  0.15482109169E+04  0.46999998093E+01 0. -1.
       -5    1    3    3    0  502  0.97969299669E+03  0.99325764538E+03  0.95241583261E+03  0.16892238236E+04  0.46999998093E+01 0.  1.
</event>
<event>
 5   0  0.1374680E-07  0.2803104E+04  0.7818609E-02  0.8302305E-01
       -1   -1    0    0    0  501  0.00000000000E+00  0.00000000000E+00  0.11796355680E+04  0.11796355680E+04  0.50400001928E-02 0. -1.
        1   -1    0    0  501    0  0.00000000000E+00  0.00000000000E+00 -0.16652159139E+04  0.16652159139E+04  0.50400001928E-02 0.  1.
    10030    2    1    2    0    0  0.00000000000E+00  0.00000000000E+00 -0.48558034586E+03  0.28448514819E+04  0.28031039371E+04 0.  0.
        3    1    3    3  502    0 -0.54455626678E+03 -0.12854676133E+04 -0.36865084972E+03  0.14439085746E+04  0.10100000352E+00 0.  1.
       -3    1    3    3    0  502  0.54455626678E+03  0.12854676133E+04 -0.11692949614E+03  0.14009429074E+04  0.10100000352E+00 0. -1.
</event>
<event>
 5   0  0.3522569E-07  0.2799202E+04  0.7818609E-02  0.8303516E-01
        2   -1    0    0  501    0  0.00000000000E+00  0.00000000000E+00  0.73393160567E+03  0.73393160568E+03  0.25500000920E-02 0.  1.
       -2   -1    0    0    0  501  0.00000000000E+00  0.00000000000E+00 -0.26690260607E+04  0.26690260607E+04  0.25500000920E-02 0. -1.
    10030    2    1    2    0    0  0.00000000000E+00  0.00000000000E+00 -0.19350944550E+04  0.34029576664E+04  0.27992017307E+04 0.  0.
        1    1    3    3  502    0 -0.10704527543E+04  0.71333117692E+03 -0.29707306385E+03  0.13202131921E+04  0.50400001928E-02 0.  1.
       -1    1    3    3    0  502  0.10704527543E+04 -0.71333117692E+03 -0.16380213912E+04  0.20827444743E+04  0.50400001928E-02 0. -1.
</event>
<event>
 5   0  0.1374680E-07  0.2799502E+04  0.7818609E-02  0.8303423E-01
       -1   -1    0    0    0  501  0.00000000000E+00  0.00000000000E+00  0.10013035642E+04  0.10013035642E+04  0.50400001928E-02 0. -1.
        1   -1    0    0  501    0  0.00000000000E+00  0.00000000000E+00 -0.19567517692E+04  0.19567517692E+04  0.50400001928E-02 0.  1.
    10030    2    1    2    0    0  0.00000000000E+00  0.00000000000E+00 -0.95544820504E+03  0.29580553334E+04  0.27995017562E+04 0.  0.
        3    1    3    3  502    0 -0.40139380902E+03  0.43702485460E+03 -0.18172768155E+04  0.19117015321E+04  0.10100000352E+00 0.  1.
       -3    1    3    3    0  502  0.40139380902E+03 -0.43702485460E+03  0.86182861045E+03  0.10463538013E+04  0.10100000352E+00 0. -1.
</event>
<event>
 5   0  0.3502141E-07  0.2796792E+04  0.7818609E-02  0.8304265E-01
       -2   -1    0    0    0  501  0.00000000000E+00  0.00000000000E+00  0.14165800150E+04  0.14165800150E+04  0.25500000920E-02 0. -1.
        2   -1    0    0  501    0  0.00000000000E+00  0.00000000000E+00 -0.13804453617E+04  0.13804453617E+04  0.25500000920E-02 0.  1.
    10030    2    1    2    0    0  0.00000000000E+00  0.00000000000E+00  0.36134653222E+02  0.27970253767E+04  0.27967919559E+04 0.  0.
        3    1    3    3  502    0  0.94328285978E+03  0.17053082698E+03  0.10363114179E+04  0.14116673410E+04  0.10100000352E+00 0. -1.
       -3    1    3    3    0  502 -0.94328285978E+03 -0.17053082698E+03 -0.10001767646E+04  0.13853580358E+04  0.10100000352E+00 0.  1.
</event>
<event>
 5   0  0.1346049E-07  0.2799413E+04  0.7818609E-02  0.8303451E-01
       -1   -1    0    0    0  501  0.00000000000E+00  0.00000000000E+00  0.10193210419E+04  0.10193210419E+04  0.50400001928E-02 0.  1.
        1   -1    0    0  501    0  0.00000000000E+00  0.00000000000E+00 -0.19220424619E+04  0.19220424619E+04  0.50400001928E-02 0. -1.
    10030    2    1    2    0    0  0.00000000000E+00  0.00000000000E+00 -0.90272141994E+03  0.29413635038E+04  0.27994130276E+04 0.  0.
        1    1    3    3  502    0 -0.13352875368E+04 -0.11461604132E+03 -0.87562879732E+03  0.16008920743E+04  0.50400001928E-02 0.  1.
       -1    1    3    3    0  502  0.13352875368E+04  0.11461604132E+03 -0.27092622620E+02  0.13404714294E+04  0.50400001928E-02 0. -1.
</event>
<event>
 5   0  0.1346049E-07  0.2800040E+04  0.7818609E-02  0.8303256E-01
       -1   -1    0    0    0  501  0.00000000000E+00  0.00000000000E+00  0.11698394078E+04  0.11698394079E+04  0.50400001928E-02 0. -1.
        1   -1    0    0  501    0  0.00000000000E+00  0.00000000000E+00 -0.16754916631E+04  0.16754916631E+04  0.50400001928E-02 0.  1.
    10030    2    1    2    0    0  0.00000000000E+00  0.00000000000E+00 -0.50565225522E+03  0.28453310709E+04  0.28000401247E+04 0.  0.
        1    1    3    3  502    0 -0.11122471957E+03  0.81243465995E+03 -0.14059207985E+04  0.16275854222E+04  0.50400001928E-02 0.  1.
       -1    1    3    3    0  502  0.11122471957E+03 -0.81243465995E+03  0.90026854327E+03  0.12177456487E+04  0.50400001928E-02 0. -1.
</event>
<event>
 5   0  0.3522569E-07  0.2803655E+04  0.7818609E-02  0.8302135E-01
        2   -1    0    0  501    0  0.00000000000E+00  0.00000000000E+00  0.18018959096E+04  0.18018959096E+04  0.25500000920E-02 0.  1.
       -2   -1    0    0    0  501  0.00000000000E+00  0.00000000000E+00 -0.10905846790E+04  0.10905846790E+04  0.25500000920E-02 0. -1.
    10030    2    1    2    0    0  0.00000000000E+00  0.00000000000E+00  0.71131123056E+03  0.28924805886E+04  0.28036548091E+04 0.  0.
        1    1    3    3  502    0  0.42937192814E+03 -0.33437693788E+03 -0.97715308644E+03  0.11184794784E+04  0.50400001928E-02 0. -1.
       -1    1    3    3    0  502 -0.42937192814E+03  0.33437693788E+03  0.16884643170E+04  0.17740011102E+04  0.50400001928E-02 0.  1.
</event>
<event>
 5   0  0.1374680E-07  0.2811723E+04  0.7818609E-02  0.8299638E-01
        1   -1    0    0  501    0  0.00000000000E+00  0.00000000000E+00  0.15382396142E+04  0.15382396143E+04  0.50400001928E-02 0. -1.
       -1   -1    0    0    0  501  0.00000000000E+00  0.00000000000E+00 -0.12848755243E+04  0.12848755243E+04  0.50400001928E-02 0.  1.
    10030    2    1    2    0    0  0.00000000000E+00  0.00000000000E+00  0.25336408998E+03  0.28231151385E+04  0.28117229101E+04 0.  0.
        3    1    3    3  502    0  0.94697400402E+03  0.54926986987E+03  0.10122927834E+04  0.14910378412E+04  0.10100000352E+00 0.  1.
       -3    1    3    3    0  502 -0.94697400402E+03 -0.54926986987E+03 -0.75892869343E+03  0.13320772974E+04  0.10100000352E+00 0. -1.
</event>
<event>
 5   0  0.1346049E-07  0.2789036E+04  0.7818609E-02  0.8306680E-01
        1   -1    0    0  501    0  0.00000000000E+00  0.00000000000E+00  0.20804278281E+04  0.20804278281E+04  0.50400001928E-02 0. -1.
       -1   -1    0    0    0  501  0.00000000000E+00  0.00000000000E+00 -0.93475008424E+03  0.93475008425E+03  0.50400001928E-02 0.  1.
    10030    2    1    2    0    0  0.00000000000E+00  0.00000000000E+00  0.11456777439E+04  0.30151779124E+04  0.27890357385E+04 0.  0.
        1    1    3    3  502    0  0.29176420420E+03 -0.12532579626E+04 -0.82349275530E+01  0.12867982304E+04  0.50400001928E-02 0.  1.
       -1    1    3    3    0  502 -0.29176420420E+03  0.12532579626E+04  0.11539126715E+04  0.17283796820E+04  0.50400001928E-02 0. -1.
</event>
<event>
 5   0  0.3502141E-07  0.2799213E+04  0.7818609E-02  0.8303513E-01
        2   -1    0    0  501    0  0.00000000000E+00  0.00000000000E+00  0.15053744883E+04  0.15053744883E+04  0.25500000920E-02 0.  1.
       -2   -1    0    0    0  501  0.00000000000E+00  0.00000000000E+00 -0.13012699215E+04  0.13012699215E+04  0.25500000920E-02 0. -1.
    10030    2    1    2    0    0  0.00000000000E+00  0.00000000000E+00  0.20410456682E+03  0.28066444098E+04  0.27992131339E+04 0.  0.
        3    1    3    3  502    0  0.28024619759E+03 -0.10586555103E+04  0.97592163557E+03  0.14668716610E+04  0.10100000352E+00 0.  1.
       -3    1    3    3    0  502 -0.28024619759E+03  0.10586555103E+04 -0.77181706875E+03  0.13397727489E+04  0.10100000352E+00 0. -1.
</event>
<event>
 5   0  0.3557628E-07  0.2800255E+04  0.7818609E-02  0.8303189E-01
        2   -1    0    0  501    0  0.00000000000E+00  0.00000000000E+00  0.16790464074E+04  0.16790464074E+04  0.25500000920E-02 0.  1.
       -2   -1    0    0    0  501  0.00000000000E+00  0.00000000000E+00 -0.11675419221E+04  0.11675419221E+04  0.25500000920E-02 0. -1.
    10030    2    1    2    0    0  0.00000000000E+00  0.00000000000E+00  0.51150448530E+03  0.28465883296E+04  0.28002550383E+04 0.  0.
        5    1    3    3  502    0  0.12027868361E+04 -0.60728241611E+03 -0.13113253340E+03  0.13537746996E+04  0.46999998093E+01 0. -1.
       -5    1    3    3    0  502 -0.12027868361E+04  0.60728241611E+03  0.64263701870E+03  0.14928136300E+04  0.46999998093E+01 0.  1.
</event>
<event>
 5   0  0.3571498E-07  0.2808132E+04  0.7818609E-02  0.8300748E-01
        2   -1    0    0  501    0  0.00000000000E+00  0.00000000000E+00  0.13132081332E+04  0.13132081332E+04  0.25500000920E-02 0.  1.
       -2   -1    0    0    0  501  0.00000000000E+00  0.00000000000E+00 -0.15012097147E+04  0.15012097148E+04  0.25500000920E-02 0. -1.
    10030    2    1    2    0    0  0.00000000000E+00  0.00000000000E+00 -0.18800158155E+03  0.28144178480E+04  0.28081316259E+04 0.  0.
        2    1    3    3  502    0  0.12226663569E+04 -0.60379094141E+03 -0.42930058075E+03  0.14296067676E+04  0.25500000920E-02 0. -1.
       -2    1    3    3    0  502 -0.12226663569E+04  0.60379094141E+03  0.24129899920E+03  0.13848110804E+04  0.25500000920E-02 0.  1.
</event>
<event>
 5   0  0.3571498E-07  0.2815276E+04  0.7818609E-02  0.8298542E-01
        2   -1    0    0  501    0  0.00000000000E+00  0.00000000000E+00  0.10691413109E+04  0.10691413109E+04  0.25500000920E-02 0. -1.
       -2   -1    0    0    0  501  0.00000000000E+00  0.00000000000E+00 -0.18533041708E+04  0.18533041708E+04  0.25500000920E-02 0.  1.
    10030    2    1    2    0    0  0.00000000000E+00  0.00000000000E+00 -0.78416285987E+03  0.29224454818E+04  0.28152755110E+04 0.  0.
        2    1    3    3  502    0  0.72739983918E+02 -0.18251385438E+03  0.10548375611E+04  0.10729793533E+04  0.25500000920E-02 0. -1.
       -2    1    3    3    0  502 -0.72739983918E+02  0.18251385438E+03 -0.18390004209E+04  0.18494661285E+04  0.25500000920E-02 0.  1.
</event>
<event>
 5   0  0.3502141E-07  0.2799113E+04  0.7818609E-02  0.8303544E-01
       -2   -1    0    0    0  501  0.00000000000E+00  0.00000000000E+00  0.19385430801E+04  0.19385430801E+04  0.25500000920E-02 0. -1.
        2   -1    0    0  501    0  0.00000000000E+00  0.00000000000E+00 -0.10104283836E+04  0.10104283836E+04  0.25500000920E-02 0.  1.
    10030    2    1    2    0    0  0.00000000000E+00  0.00000000000E+00  0.92811469654E+03  0.29489714637E+04  0.27991133960E+04 0.  0.
        3    1    3    3  502    0 -0.14239678973E+03  0.86060018422E+03  0.16171154468E+04  0.18373818061E+04  0.10100000352E+00 0. -1.
       -3    1    3    3    0  502  0.14239678973E+03 -0.86060018422E+03 -0.68900075028E+03  0.11115896576E+04  0.10100000352E+00 0.  1.
</event>
<event>
 5   0  0.1366235E-07  0.2800547E+04  0.7818609E-02  0.8303098E-01
       -1   -1    0    0    0  501  0.00000000000E+00  0.00000000000E+00  0.91581303436E+03  0.91581303437E+03  0.50400001928E-02 0. -1.
        1   -1    0    0  501    0  0.00000000000E+00  0.00000000000E+00 -0.21410118099E+04  0.21410118099E+04  0.50400001928E-02 0.  1.
    10030    2    1    2    0    0  0.00000000000E+00  0.00000000000E+00 -0.12251987756E+04  0.30568248443E+04  0.28005474624E+04 0.  0.
        2    1    3    3  502    0 -0.13005802769E+04  0.43764874519E+02 -0.11769659776E+04  0.17546148675E+04  0.25500000920E-02 0.  1.
       -2    1    3    3    0  502  0.13005802769E+04 -0.43764874519E+02 -0.48232797942E+02  0.13022099768E+04  0.25500000920E-02 0. -1.
</event>
<event>
 5   0  0.3522569E-07  0.2800356E+04  0.7818609E-02  0.8303158E-01
        2   -1    0    0  501    0  0.00000000000E+00  0.00000000000E+00  0.12342588419E+04  0.12342588419E+04  0.25500000920E-02 0. -1.
       -2   -1    0    0    0  501  0.00000000000E+00  0.00000000000E+00 -0.15884019159E+04  0.15884019159E+04  0.25500000920E-02 0.  1.
    10030    2    1    2    0    0  0.00000000000E+00  0.00000000000E+00 -0.35414307402E+03  0.28226607578E+04  0.28003564839E+04 0.  0.
        1    1    3    3  502    0 -0.69329572043E+03 -0.81767820239E+03  0.73079229626E+03  0.12974259050E+04  0.50400001928E-02 0. -1.
       -1    1    3    3    0  502  0.69329572043E+03  0.81767820239E+03 -0.10849353703E+04  0.15252348528E+04  0.50400001928E-02 0.  1.
</event>
<event>
 5   0  0.1374680E-07  0.2799764E+04  0.7818609E-02  0.8303341E-01
        1   -1    0    0  501    0  0.00000000000E+00  0.00000000000E+00  0.11930412351E+04  0.11930412351E+04  0.50400001928E-02 0. -1.
       -1   -1    0    0    0  501  0.00000000000E+00  0.00000000000E+00 -0.16425838317E+04  0.16425838317E+04  0.50400001928E-02 0.  1.
    10030    2    1    2    0    0  0.00000000000E+00  0.00000000000E+00 -0.44954259655E+03  0.28356250668E+04  0.27997644496E+04 0.  0.
        3    1    3    3  502    0  0.11573327588E+03  0.33155418628E+03 -0.15972473941E+04  0.16353964711E+04  0.10100000352E+00 0.  1.
       -3    1    3    3    0  502 -0.11573327588E+03 -0.33155418628E+03  0.11477047975E+04  0.12002285957E+04  0.10100000352E+00 0. -1.
</event>
<event>
 5   0  0.1374680E-07  0.2799319E+04  0.7818609E-02  0.8303480E-01
       -1   -1    0    0    0  501  0.00000000000E+00  0.00000000000E+00  0.13348699882E+04  0.13348699882E+04  0.50400001928E-02 0. -1.
        1   -1    0    0  501    0  0.00000000000E+00  0.00000000000E+00 -0.14675932515E+04  0.14675932515E+04  0.50400001928E-02 0.  1.
    10030    2    1    2    0    0  0.00000000000E+00  0.00000000000E+00 -0.13272326331E+03  0.28024632397E+04  0.27993186216E+04 0.  0.
        3    1    3    3  502    0  0.35879783163E+02  0.12364764122E+04 -0.72199035079E+03  0.14322818695E+04  0.10100000352E+00 0. -1.
       -3    1    3    3    0  502 -0.35879783163E+02 -0.12364764122E+04  0.58926708748E+03  0.13701813702E+04  0.10100000352E+00 0.  1.
</event>
<event>
 5   0  0.1357902E-07  0.2799992E+04  0.7818609E-02  0.8303271E-01
       -1   -1    0    0    0  501  0.00000000000E+00  0.00000000000E+00  0.86451721755E+03  0.86451721756E+03  0.50400001928E-02 0. -1.
        1   -1    0    0  501    0  0.00000000000E+00  0.00000000000E+00 -0.22671480260E+04  0.22671480260E+04  0.50400001928E-02 0.  1.
    10030    2    1    2    0    0  0.00000000000E+00  0.00000000000E+00 -0.14026308084E+04  0.31316652435E+04  0.27999917880E+04 0.  0.
        4    1    3    3  502    0  0.12966775853E+04  0.48903134605E+03 -0.47913245811E+03  0.14663198638E+04  0.12699999809E+01 0. -1.
       -4    1    3    3    0  502 -0.12966775853E+04 -0.48903134605E+03 -0.92349835032E+03  0.16653453797E+04  0.12699999809E+01 0.  1.
</event>
<event>
 5   0  0.3406920E-07  0.2797899E+04  0.7818609E-02  0.8303921E-01
        2   -1    0    0  501    0  0.00000000000E+00  0.00000000000E+00  0.24136439623E+04  0.24136439623E+04  0.25500000920E-02 0. -1.
       -2   -1    0    0    0  501  0.00000000000E+00  0.00000000000E+00 -0.81083211060E+03  0.81083211060E+03  0.25500000920E-02 0.  1.
    10030    2    1    2    0    0  0.00000000000E+00  0.00000000000E+00  0.16028118517E+04  0.32244760729E+04  0.27978992320E+04 0.  0.
        4    1    3    3  502    0 -0.11936484638E+03  0.10974919153E+04  0.17916676158E+04  0.21044740268E+04  0.12699999809E+01 0. -1.
       -4    1    3    3    0  502  0.11936484638E+03 -0.10974919153E+04 -0.18885576415E+03  0.11200020461E+04  0.12699999809E+01 0.  1.
</event>
<event>
 5   0  0.1374680E-07  0.2800118E+04  0.7818609E-02  0.8303232E-01
        1   -1    0    0  501    0  0.00000000000E+00  0.00000000000E+00  0.24790369164E+04  0.24790369164E+04  0.50400001928E-02 0. -1.
       -1   -1    0    0    0  501  0.00000000000E+00  0.00000000000E+00 -0.79069611956E+03  0.79069611958E+03  0.50400001928E-02 0.  1.
    10030    2    1    2    0    0  0.00000000000E+00  0.00000000000E+00  0.16883407969E+04  0.32697330360E+04  0.28001177619E+04 0.  0.
        3    1    3    3  502    0  0.57962843516E+02  0.13662160184E+04  0.49335296989E+03  0.14537204213E+04  0.10100000352E+00 0. -1.
       -3    1    3    3    0  502 -0.57962843516E+02 -0.13662160184E+04  0.11949878270E+04  0.18160126148E+04  0.10100000352E+00 0.  1.
</event>
<event>
 5   0  0.3557628E-07  0.2799730E+04  0.7818609E-02  0.8303352E-01
        2   -1    0    0  501    0  0.00000000000E+00  0.00000000000E+00  0.23203688302E+04  0.23203688302E+04  0.25500000920E-02 0.  1.
       -2   -1    0    0    0  501  0.00000000000E+00  0.00000000000E+00 -0.84453067088E+03  0.84453067088E+03  0.25500000920E-02 0. -1.
    10030    2    1    2    0    0  0.00000000000E+00  0.00000000000E+00  0.14758381593E+04  0.31648995011E+04  0.27997304476E+04 0.  0.
        5    1    3    3  502    0 -0.97122660775E+03 -0.79930736270E+03  0.14323999453E+04  0.19062961672E+04  0.46999998093E+01 0.  1.
       -5    1    3    3    0  502  0.97122660775E+03  0.79930736270E+03  0.43438214003E+02  0.12586033339E+04  0.46999998093E+01 0. -1.
</event>
<event>
 5   0  0.1374680E-07  0.2799308E+04  0.7818609E-02  0.8303483E-01
       -1   -1    0    0    0  501  0.00000000000E+00  0.00000000000E+00  0.11493341568E+04  0.11493341568E+04  0.50400001928E-02 0. -1.
        1   -1    0    0  501    0  0.00000000000E+00  0.00000000000E+00 -0.17044929080E+04  0.17044929080E+04  0.50400001928E-02 0.  1.
    10030    2    1    2    0    0  0.00000000000E+00  0.00000000000E+00 -0.55515875118E+03  0.28538270648E+04  0.27993084283E+04 0.  0.
        3    1    3    3  502    0 -0.40269346198E+03  0.57713789022E+03 -0.15110109546E+04  0.16668546079E+04  0.10100000352E+00 0.  1.
       -3    1    3    3    0  502  0.40269346198E+03 -0.57713789022E+03  0.95585220341E+03  0.11869724570E+04  0.10100000352E+00 0. -1.
</event>
<event>
 5   0  0.3522569E-07  0.2800356E+04  0.7818609E-02  0.8303158E-01
        2   -1    0    0  501    0  0.00000000000E+00  0.00000000000E+00  0.18593219835E+04  0.18593219835E+04  0.25500000920E-02 0. -1.
       -2   -1    0    0    0  501  0.00000000000E+00  0.00000000000E+00 -0.10544159188E+04  0.10544159188E+04  0.25500000920E-02 0.  1.
    10030    2    1    2    0    0  0.00000000000E+00  0.00000000000E+00  0.80490606475E+03  0.29137379023E+04  0.28003561899E+04 0.  0.
        1    1    3    3  502    0  0.62771688006E+03 -0.10412830393E+03  0.17001999808E+04  0.18153652965E+04  0.50400001928E-02 0. -1.
       -1    1    3    3    0  502 -0.62771688006E+03  0.10412830393E+03 -0.89529391600E+03  0.10983726058E+04  0.50400001928E-02 0.  1.
</event>
<event>
 5   0  0.1374680E-07  0.2801513E+04  0.7818609E-02  0.8302799E-01
        1   -1    0    0  501    0  0.00000000000E+00  0.00000000000E+00  0.21988427205E+04  0.21988427205E+04  0.50400001928E-02 0. -1.
       -1   -1    0    0    0  501  0.00000000000E+00  0.00000000000E+00 -0.89234172621E+03  0.89234172623E+03  0.50400001928E-02 0.  1.
    10030    2    1    2    0    0  0.00000000000E+00  0.00000000000E+00  0.13065009943E+04  0.30911844467E+04  0.28015132403E+04 0.  0.
        3    1    3    3  502    0 -0.12211036693E+04 -0.68027659355E+03  0.55303738012E+03  0.15032367641E+04  0.10100000352E+00 0.  1.
       -3    1    3    3    0  502  0.12211036693E+04  0.68027659355E+03  0.75346361414E+03  0.15879476826E+04  0.10100000352E+00 0. -1.
</event>
<event>
 5   0  0.3557628E-07  0.2799336E+04  0.7818609E-02  0.8303474E-01
       -2   -1    0    0    0  501  0.00000000000E+00  0.00000000000E+00  0.11357946155E+04  0.11357946155E+04  0.25500000920E-02 0.  1.
        2   -1    0    0  501    0  0.00000000000E+00  0.00000000000E+00 -0.17248463616E+04  0.17248463616E+04  0.25500000920E-02 0. -1.
    10030    2    1    2    0    0  0.00000000000E+00  0.00000000000E+00 -0.58905174616E+03  0.28606409771E+04  0.27993365000E+04 0.  0.
        5    1    3    3  502    0  0.77164149711E+03 -0.30917979598E+03 -0.14452531077E+04  0.16672736373E+04  0.46999998093E+01 0. -1.
       -5    1    3    3    0  502 -0.77164149711E+03  0.30917979598E+03  0.85620136150E+03  0.11933673398E+04  0.46999998093E+01 0.  1.
</event>
<event>
 5   0  0.3502141E-07  0.2800411E+04  0.7818609E-02  0.8303141E-01
        2   -1    0    0  501    0  0.00000000000E+00  0.00000000000E+00  0.12111219667E+04  0.12111219667E+04  0.25500000920E-02 0. -1.
       -2   -1    0    0    0  501  0.00000000000E+00  0.00000000000E+00 -0.16188088484E+04  0.16188088484E+04  0.25500000920E-02 0.  1.
    10030    2    1    2    0    0  0.00000000000E+00  0.00000000000E+00 -0.40768688172E+03  0.28299308151E+04  0.28004106529E+04 0.  0.
        3    1    3    3  502    0 -0.71992077466E+02  0.10576715416E+04 -0.11282115417E+04  0.15481321785E+04  0.10100000352E+00 0.  1.
       -3    1    3    3    0  502  0.71992077466E+02 -0.10576715416E+04  0.72052465994E+03  0.12817986366E+04  0.10100000352E+00 0. -1.
</event>
<event>
 5   0  0.3502141E-07  0.2800236E+04  0.7818609E-02  0.8303195E-01
        2   -1    0    0  501    0  0.00000000000E+00  0.00000000000E+00  0.22589549936E+04  0.22589549936E+04  0.25500000920E-02 0.  1.
       -2   -1    0    0    0  501  0.00000000000E+00  0.00000000000E+00 -0.86780382548E+03  0.86780382548E+03  0.25500000920E-02 0. -1.
    10030    2    1    2    0    0  0.00000000000E+00  0.00000000000E+00  0.13911511681E+04  0.31267588190E+04  0.28002355508E+04 0.  0.
        3    1    3    3  502    0 -0.17502217474E+03  0.11192265255E+04 -0.22318732386E+03  0.11546052870E+04  0.10100000352E+00 0. -1.
       -3    1    3    3    0  502  0.17502217474E+03 -0.11192265255E+04  0.16143384919E+04  0.19721535320E+04  0.10100000352E+00 0.  1.
</event>
<event>
 5   0  0.1346049E-07  0.2800309E+04  0.7818609E-02  0.8303173E-01
        1   -1    0    0  501    0  0.00000000000E+00  0.00000000000E+00  0.25843967200E+04  0.25843967200E+04  0.50400001928E-02 0. -1.
       -1   -1    0    0    0  501  0.00000000000E+00  0.00000000000E+00 -0.75856463566E+03  0.75856463568E+03  0.50400001928E-02 0.  1.
    10030    2    1    2    0    0  0.00000000000E+00  0.00000000000E+00  0.18258320844E+04  0.33429613557E+04  0.28003085233E+04 0.  0.
        1    1    3    3  502    0 -0.61595089526E+02  0.13987123987E+04  0.93147263724E+03  0.16816157716E+04  0.50400001928E-02 0. -1.
       -1    1    3    3    0  502  0.61595089526E+02 -0.13987123987E+04  0.89435944713E+03  0.16613455841E+04  0.50400001928E-02 0.  1.
</event>
<event>
 5   0  0.1357902E-07  0.2800223E+04  0.7818609E-02  0.8303199E-01
        1   -1    0    0  501    0  0.00000000000E+00  0.00000000000E+00  0.18040627745E+04  0.18040627745E+04  0.50400001928E-02 0. -1.
       -1   -1    0    0    0  501  0.00000000000E+00  0.00000000000E+00 -0.10866096282E+04  0.10866096282E+04  0.50400001928E-02 0.  1.
    10030    2    1    2    0    0  0.00000000000E+00  0.00000000000E+00  0.71745314633E+03  0.28906724027E+04  0.28002228345E+04 0.  0.
        4    1    3    3  502    0 -0.99154019964E+03 -0.54177501646E+03  0.12122578787E+04  0.16571792037E+04  0.12699999809E+01 0. -1.
       -4    1    3    3    0  502  0.99154019964E+03  0.54177501646E+03 -0.49480473234E+03  0.12334931990E+04  0.12699999809E+01 0.  1.
</event>
<event>
 5   0  0.1346049E-07  0.2800378E+04  0.7818609E-02  0.8303151E-01
        1   -1    0    0  501    0  0.00000000000E+00  0.00000000000E+00  0.98650891835E+03  0.98650891836E+03  0.50400001928E-02 0. -1.
       -1   -1    0    0    0  501  0.00000000000E+00  0.00000000000E+00 -0.19873412368E+04  0.19873412368E+04  0.50400001928E-02 0.  1.
    10030    2    1    2    0    0  0.00000000000E+00  0.00000000000E+00 -0.10008323185E+04  0.29738501552E+04  0.28003784415E+04 0.  0.
        1    1    3    3  502    0  0.90247798379E+03  0.10690215236E+04 -0.43981705425E+03  0.14665307942E+04  0.50400001928E-02 0. -1.
       -1    1    3    3    0  502 -0.90247798379E+03 -0.10690215236E+04 -0.56101526422E+03  0.15073193610E+04  0.50400001928E-02 0.  1.
</event>
<event>
 5   0  0.1173363E-07  0.2800007E+04  0.7818609E-02  0.8303266E-01
       -3   -1    0    0    0  501  0.00000000000E+00  0.00000000000E+00  0.14716909340E+04  0.14716909375E+04  0.10100000352E+00 0. -1.
        3   -1    0    0  501    0  0.00000000000E+00  0.00000000000E+00 -0.13318082078E+04  0.13318082116E+04  0.10100000352E+00 0.  1.
    10030    2    1    2    0    0  0.00000000000E+00  0.00000000000E+00  0.13988272625E+03  0.28034991491E+04  0.28000071967E+04 0.  0.
        1    1    3    3  502    0 -0.24208775290E+03 -0.46760456599E+03 -0.12288847886E+04  0.13369436540E+04  0.50400001928E-02 0.  1.
       -1    1    3    3    0  502  0.24208775290E+03  0.46760456599E+03  0.13687675149E+04  0.14665554951E+04  0.50400001928E-02 0. -1.
</event>
<event>
 5   0  0.1361741E-07  0.2802883E+04  0.7818609E-02  0.8302374E-01
       -1   -1    0    0    0  501  0.00000000000E+00  0.00000000000E+00  0.17267644668E+04  0.17267644668E+04  0.50400001928E-02 0. -1.
        1   -1    0    0  501    0  0.00000000000E+00  0.00000000000E+00 -0.11374092531E+04  0.11374092531E+04  0.50400001928E-02 0.  1.
    10030    2    1    2    0    0  0.00000000000E+00  0.00000000000E+00  0.58935521368E+03  0.28641737200E+04  0.28028827179E+04 0.  0.
        5    1    3    3  502    0  0.64941803560E+03 -0.11178392377E+04 -0.25817748663E+03  0.13183269894E+04  0.46999998093E+01 0.  1.
       -5    1    3    3    0  502 -0.64941803560E+03  0.11178392377E+04  0.84753270030E+03  0.15458467306E+04  0.46999998093E+01 0. -1.
</event>
<event>
 5   0  0.1357902E-07  0.2800190E+04  0.7818609E-02  0.8303209E-01
       -1   -1    0    0    0  501  0.00000000000E+00  0.00000000000E+00  0.13768825180E+04  0.13768825180E+04  0.50400001928E-02 0.  1.
        1   -1    0    0  501    0  0.00000000000E+00  0.00000000000E+00 -0.14236988916E+04  0.14236988916E+04  0.50400001928E-02 0. -1.
    10030    2    1    2    0    0  0.00000000000E+00  0.00000000000E+00 -0.46816373512E+02  0.28005814096E+04  0.28001900755E+04 0.  0.
        4    1    3    3  502    0  0.84317627520E+03 -0.93682650892E+03 -0.63314440451E+03  0.14104834592E+04  0.12699999809E+01 0. -1.
       -4    1    3    3    0  502 -0.84317627520E+03  0.93682650892E+03  0.58632803100E+03  0.13900979504E+04  0.12699999809E+01 0.  1.
</event>
<event>
 5   0  0.1366235E-07  0.2800109E+04  0.7818609E-02  0.8303235E-01
       -1   -1    0    0    0  501  0.00000000000E+00  0.00000000000E+00  0.21380857207E+04  0.21380857207E+04  0.50400001928E-02 0. -1.
        1   -1    0    0  501    0  0.00000000000E+00  0.00000000000E+00 -0.91677923016E+03  0.91677923017E+03  0.50400001928E-02 0.  1.
    10030    2    1    2    0    0  0.00000000000E+00  0.00000000000E+00  0.12213064905E+04  0.30548649509E+04  0.28001089843E+04 0.  0.
        2    1    3    3  502    0 -0.13990781379E+03  0.65132089880E+03  0.19540929046E+04  0.20645271104E+04  0.25500000920E-02 0. -1.
       -2    1    3    3    0  502  0.13990781379E+03 -0.65132089880E+03 -0.73278641411E+03  0.99033784048E+03  0.25500000920E-02 0.  1.
</event>
<event>
 5   0  0.3571498E-07  0.2799379E+04  0.7818609E-02  0.8303461E-01
        2   -1    0    0  501    0  0.00000000000E+00  0.00000000000E+00  0.25180111458E+04  0.25180111458E+04  0.25500000920E-02 0.  1.
       -2   -1    0    0    0  501  0.00000000000E+00  0.00000000000E+00 -0.77804675016E+03  0.77804675017E+03  0.25500000920E-02 0. -1.
    10030    2    1    2    0    0  0.00000000000E+00  0.00000000000E+00  0.17399643956E+04  0.32960578959E+04  0.27993787803E+04 0.  0.
        2    1    3    3  502    0 -0.10955901211E+04  0.53520142484E+03  0.16792183742E+04  0.20752186937E+04  0.25500000920E-02 0.  1.
       -2    1    3    3    0  502  0.10955901211E+04 -0.53520142484E+03  0.60746021415E+02  0.12208392022E+04  0.25500000920E-02 0. -1.
</event>
<event>
 5   0  0.1361741E-07  0.2799112E+04  0.7818609E-02  0.8303544E-01
        1   -1    0    0  501    0  0.00000000000E+00  0.00000000000E+00  0.22697958940E+04  0.22697958940E+04  0.50400001928E-02 0. -1.
       -1   -1    0    0    0  501  0.00000000000E+00  0.00000000000E+00 -0.86296605476E+03  0.86296605478E+03  0.50400001928E-02 0.  1.
    10030    2    1    2    0    0  0.00000000000E+00  0.00000000000E+00  0.14068298392E+04  0.31327619488E+04  0.27991118647E+04 0.  0.
        5    1    3    3  502    0 -0.80131021848E+01  0.98917891235E+03  0.18114755167E+04  0.20639778991E+04  0.46999998093E+01 0. -1.
       -5    1    3    3    0  502  0.80131021848E+01 -0.98917891235E+03 -0.40464567749E+03  0.10687840496E+04  0.46999998093E+01 0.  1.
</event>
<event>
 5   0  0.1374680E-07  0.2799243E+04  0.7818609E-02  0.8303503E-01
        1   -1    0    0  501    0  0.00000000000E+00  0.00000000000E+00  0.10294057289E+04  0.10294057289E+04  0.50400001928E-02 0.  1.
       -1   -1    0    0    0  501  0.00000000000E+00  0.00000000000E+00 -0.19029823813E+04  0.19029823813E+04  0.50400001928E-02 0. -1.
    10030    2    1    2    0    0  0.00000000000E+00  0.00000000000E+00 -0.87357665234E+03  0.29323881102E+04  0.27992434445E+04 0.  0.
        3    1    3    3  502    0  0.45867511904E+03 -0.12378203370E+04  0.50479982414E+02  0.13210337960E+04  0.10100000352E+00 0. -1.
       -3    1    3    3    0  502 -0.45867511904E+03  0.12378203370E+04 -0.92405663475E+03  0.16113543142E+04  0.10100000352E+00 0.  1.
</event>
<event>
 5   0  0.3571498E-07  0.2799711E+04  0.7818609E-02  0.8303358E-01
       -2   -1    0    0    0  501  0.00000000000E+00  0.00000000000E+00  0.10927230748E+04  0.10927230748E+04  0.25500000920E-02 0. -1.
        2   -1    0    0  501    0  0.00000000000E+00  0.00000000000E+00 -0.17933140395E+04  0.17933140395E+04  0.25500000920E-02 0.  1.
    10030    2    1    2    0    0  0.00000000000E+00  0.00000000000E+00 -0.70059096466E+03  0.28860371143E+04  0.27997111504E+04 0.  0.
        2    1    3    3  502    0 -0.17519567923E+03 -0.24250456431E+03 -0.17599749093E+04  0.17852209026E+04  0.25500000920E-02 0.  1.
       -2    1    3    3    0  502  0.17519567923E+03  0.24250456431E+03  0.10593839447E+04  0.11008162117E+04  0.25500000920E-02 0. -1.
</event>
<event>
 5   0  0.1366235E-07  0.2801344E+04  0.7818609E-02  0.8302851E-01
        1   -1    0    0  501    0  0.00000000000E+00  0.00000000000E+00  0.21374473917E+04  0.21374473917E+04  0.50400001928E-02 0.  1.
       -1   -1    0    0    0  501  0.00000000000E+00  0.00000000000E+00 -0.91786193080E+03  0.91786193082E+03  0.50400001928E-02 0. -1.
    10030    2    1    2    0    0  0.00000000000E+00  0.00000000000E+00  0.12195854609E+04  0.30553093225E+04  0.28013436704E+04 0.  0.
        2    1    3    3  502    0 -0.60971410796E+03 -0.77102464754E+03  0.16980771806E+04  0.19620643241E+04  0.25500000920E-02 0.  1.
       -2    1    3    3    0  502  0.60971410796E+03  0.77102464754E+03 -0.47849171977E+03  0.10932449984E+04  0.25500000920E-02 0. -1.
</event>
<event>
 5   0  0.1361741E-07  0.2799155E+04  0.7818609E-02  0.8303531E-01
        1   -1    0    0  501    0  0.00000000000E+00  0.00000000000E+00  0.10229440878E+04  0.10229440878E+04  0.50400001928E-02 0.  1.
       -1   -1    0    0    0  501  0.00000000000E+00  0.00000000000E+00 -0.19148815114E+04  0.19148815114E+04  0.50400001928E-02 0. -1.
    10030    2    1    2    0    0  0.00000000000E+00  0.00000000000E+00 -0.89193742360E+03  0.29378255992E+04  0.27991546730E+04 0.  0.
        5    1    3    3  502    0 -0.10224104851E+04  0.94694480463E+03 -0.31006654548E+03  0.14276522741E+04  0.46999998093E+01 0. -1.
       -5    1    3    3    0  502  0.10224104851E+04 -0.94694480463E+03 -0.58187087811E+03  0.15101733251E+04  0.46999998093E+01 0.  1.
</event>
<event>
 5   0  0.3522569E-07  0.2803624E+04  0.7818609E-02  0.8302144E-01
        2   -1    0    0  501    0  0.00000000000E+00  0.00000000000E+00  0.16627170811E+04  0.16627170811E+04  0.25500000920E-02 0. -1.
       -2   -1    0    0    0  501  0.00000000000E+00  0.00000000000E+00 -0.11818470619E+04  0.11818470619E+04  0.25500000920E-02 0.  1.
    10030    2    1    2    0    0  0.00000000000E+00  0.00000000000E+00  0.48087001925E+03  0.28445641430E+04  0.28036242952E+04 0.  0.
        1    1    3    3  502    0  0.19432453175E+03  0.11558870579E+04 -0.53971471817E+03  0.12903987334E+04  0.50400001928E-02 0. -1.
       -1    1    3    3    0  502 -0.19432453175E+03 -0.11558870579E+04  0.10205847374E+04  0.15541654096E+04  0.50400001928E-02 0.  1.
</event>
<event>
 5   0  0.3571498E-07  0.2799400E+04  0.7818609E-02  0.8303455E-01
        2   -1    0    0  501    0  0.00000000000E+00  0.00000000000E+00  0.23330181776E+04  0.23330181776E+04  0.25500000920E-02 0.  1.
       -2   -1    0    0    0  501  0.00000000000E+00  0.00000000000E+00 -0.83975373016E+03  0.83975373016E+03  0.25500000920E-02 0. -1.
    10030    2    1    2    0    0  0.00000000000E+00  0.00000000000E+00  0.14932644475E+04  0.31727719078E+04  0.27994004481E+04 0.  0.
        2    1    3    3  502    0 -0.93996474305E+03  0.23103695307E+03 -0.39928211860E+03  0.10470616038E+04  0.25500000920E-02 0. -1.
       -2    1    3    3    0  502  0.93996474305E+03 -0.23103695307E+03  0.18925465661E+04  0.21257103040E+04  0.25500000920E-02 0.  1.
</event>
<event>
 5   0  0.3406920E-07  0.2799276E+04  0.7818609E-02  0.8303493E-01
       -2   -1    0    0    0  501  0.00000000000E+00  0.00000000000E+00  0.20461713615E+04  0.20461713615E+04  0.25500000920E-02 0.  1.
        2   -1    0    0  501    0  0.00000000000E+00  0.00000000000E+00 -0.95739137593E+03  0.95739137593E+03  0.25500000920E-02 0. -1.
    10030    2    1    2    0    0  0.00000000000E+00  0.00000000000E+00  0.10887799856E+04  0.30035627375E+04  0.27992762030E+04 0.  0.
        4    1    3    3  502    0 -0.13814646946E+04  0.17537518002E+03  0.39346939598E+03  0.14470732306E+04  0.12699999809E+01 0. -1.
       -4    1    3    3    0  502  0.13814646946E+04 -0.17537518002E+03  0.69531058964E+03  0.15564895069E+04  0.12699999809E+01 0.  1.
</event>
<event>
 5   0  0.3557628E-07  0.2800777E+04  0.7818609E-02  0.8303027E-01
        2   -1    0    0  501    0  0.00000000000E+00  0.00000000000E+00  0.14565362753E+04  0.14565362753E+04  0.25500000920E-02 0.  1.
       -2   -1    0    0    0  501  0.00000000000E+00  0.00000000000E+00 -0.13464055279E+04  0.13464055279E+04  0.25500000920E-02 0. -1.
    10030    2    1    2    0    0  0.00000000000E+00  0.00000000000E+00  0.11013074742E+03  0.28029418032E+04  0.28007773868E+04 0.  0.
        5    1    3    3  502    0  0.77617918981E+03 -0.10770633084E+04 -0.39086498719E+03  0.13839497943E+04  0.46999998093E+01 0. -1.
       -5    1    3    3    0  502 -0.77617918981E+03  0.10770633084E+04  0.50099573461E+03  0.14189920088E+04  0.46999998093E+01 0.  1.
</event>
<event>
 5   0  0.3406920E-07  0.2801669E+04  0.7818609E-02  0.8302751E-01
        2   -1    0    0  501    0  0.00000000000E+00  0.00000000000E+00  0.11505554482E+04  0.11505554482E+04  0.25500000920E-02 0. -1.
       -2   -1    0    0    0  501  0.00000000000E+00  0.00000000000E+00 -0.17055559177E+04  0.17055559177E+04  0.25500000920E-02 0.  1.
    10030    2    1    2    0    0  0.00000000000E+00  0.00000000000E+00 -0.55500046948E+03  0.28561113659E+04  0.28016685410E+04 0.  0.
        4    1    3    3  502    0  0.53818030995E+02 -0.90085602154E+03  0.81471910206E+03  0.12158152739E+04  0.12699999809E+01 0. -1.
       -4    1    3    3    0  502 -0.53818030995E+02  0.90085602154E+03 -0.13697195715E+04  0.16402960920E+04  0.12699999809E+01 0.  1.
</event>
<event>
 5   0  0.3522569E-07  0.2801187E+04  0.7818609E-02  0.8302900E-01
        2   -1    0    0  501    0  0.00000000000E+00  0.00000000000E+00  0.17629955116E+04  0.17629955116E+04  0.25500000920E-02 0. -1.
       -2   -1    0    0    0  501  0.00000000000E+00  0.00000000000E+00 -0.11126871245E+04  0.11126871245E+04  0.25500000920E-02 0.  1.
    10030    2    1    2    0    0  0.00000000000E+00  0.00000000000E+00  0.65030838706E+03  0.28756826361E+04  0.28011871814E+04 0.  0.
        1    1    3    3  502    0  0.63721956749E+03 -0.87450713030E+03  0.12381023871E+04  0.16442959037E+04  0.50400001928E-02 0. -1.
       -1    1    3    3    0  502 -0.63721956749E+03  0.87450713030E+03 -0.58779400003E+03  0.12313867324E+04  0.50400001928E-02 0.  1.
</event>
<event>
 5   0  0.1366235E-07  0.2801407E+04  0.7818609E-02  0.8302832E-01
        1   -1    0    0  501    0  0.00000000000E+00  0.00000000000E+00  0.16860304784E+04  0.16860304784E+04  0.50400001928E-02 0.  1.
       -1   -1    0    0    0  501  0.00000000000E+00  0.00000000000E+00 -0.11636625976E+04  0.11636625976E+04  0.50400001928E-02 0. -1.
    10030    2    1    2    0    0  0.00000000000E+00  0.00000000000E+00  0.52236788075E+03  0.28496930760E+04  0.28014072222E+04 0.  0.
        2    1    3    3  502    0  0.45009975312E+03  0.30055476279E+03  0.15753680493E+04  0.16657453119E+04  0.25500000920E-02 0.  1.
       -2    1    3    3    0  502 -0.45009975312E+03 -0.30055476279E+03 -0.10530001686E+04  0.11839477642E+04  0.25500000920E-02 0. -1.
</event>
<event>
 5   0  0.3571498E-07  0.2783828E+04  0.7818609E-02  0.8308307E-01
       -2   -1    0    0    0  501  0.00000000000E+00  0.00000000000E+00  0.88746494552E+03  0.88746494552E+03  0.25500000920E-02 0. -1.
        2   -1    0    0  501    0  0.00000000000E+00  0.00000000000E+00 -0.21830997282E+04  0.21830997282E+04  0.25500000920E-02 0.  1.
    10030    2    1    2    0    0  0.00000000000E+00  0.00000000000E+00 -0.12956347827E+04  0.30705646738E+04  0.27838279267E+04 0.  0.
        2    1    3    3  502    0  0.11543246938E+04  0.69000652259E+03 -0.25188772670E+03  0.13682185230E+04  0.25500000920E-02 0.  1.
       -2    1    3    3    0  502 -0.11543246938E+04 -0.69000652259E+03 -0.10437470560E+04  0.17023461507E+04  0.25500000920E-02 0. -1.
</event>
<event>
 5   0  0.3502141E-07  0.2799303E+04  0.7818609E-02  0.8303485E-01
       -2   -1    0    0    0  501  0.00000000000E+00  0.00000000000E+00  0.13003270519E+04  0.13003270519E+04  0.25500000920E-02 0. -1.
        2   -1    0    0  501    0  0.00000000000E+00  0.00000000000E+00 -0.15065629776E+04  0.15065629776E+04  0.25500000920E-02 0.  1.
    10030    2    1    2    0    0  0.00000000000E+00  0.00000000000E+00 -0.20623592573E+03  0.28068900295E+04  0.27993031956E+04 0.  0.
        3    1    3    3  502    0 -0.18096621723E+03 -0.59654658057E+03  0.11534376259E+04  0.13111197358E+04  0.10100000352E+00 0. -1.
       -3    1    3    3    0  502  0.18096621723E+03  0.59654658057E+03 -0.13596735516E+04  0.14957702938E+04  0.10100000352E+00 0.  1.
</event>
<event>
 5   0  0.3557628E-07  0.2799903E+04  0.7818609E-02  0.8303298E-01
       -2   -1    0    0    0  501  0.00000000000E+00  0.00000000000E+00  0.12187978887E+04  0.12187978887E+04  0.25500000920E-02 0. -1.
        2   -1    0    0  501    0  0.00000000000E+00  0.00000000000E+00 -0.16080310548E+04  0.16080310548E+04  0.25500000920E-02 0.  1.
    10030    2    1    2    0    0  0.00000000000E+00  0.00000000000E+00 -0.38923316616E+03  0.28268289435E+04  0.27999034659E+04 0.  0.
        5    1    3    3  502    0  0.11304600995E+04 -0.24548548084E+03 -0.99063993769E+03  0.15230209237E+04  0.46999998093E+01 0.  1.
       -5    1    3    3    0  502 -0.11304600995E+04  0.24548548084E+03  0.60140677153E+03  0.13038080199E+04  0.46999998093E+01 0. -1.
</event>
<event>
 5   0  0.3522569E-07  0.2800057E+04  0.7818609E-02  0.8303251E-01
        2   -1    0    0  501    0  0.00000000000E+00  0.00000000000E+00  0.26484696240E+04  0.26484696240E+04  0.25500000920E-02 0. -1.
       -2   -1    0    0    0  501  0.00000000000E+00  0.00000000000E+00 -0.74007996742E+03  0.74007996743E+03  0.25500000920E-02 0.  1.
    10030    2    1    2    0    0  0.00000000000E+00  0.00000000000E+00  0.19083896565E+04  0.33885495914E+04  0.28000566516E+04 0.  0.
        1    1    3    3  502    0  0.63533362137E+03 -0.10207517936E+04  0.18222316468E+04  0.21831425078E+04  0.50400001928E-02 0. -1.
       -1    1    3    3    0  502 -0.63533362137E+03  0.10207517936E+04  0.86158009695E+02  0.12054070836E+04  0.50400001928E-02 0.  1.
</event>
<event>
 5   0  0.1346049E-07  0.2798172E+04  0.7818609E-02  0.8303836E-01
        1   -1    0    0  501    0  0.00000000000E+00  0.00000000000E+00  0.20244498527E+04  0.20244498527E+04  0.50400001928E-02 0. -1.
       -1   -1    0    0    0  501  0.00000000000E+00  0.00000000000E+00 -0.96690029776E+03  0.96690029777E+03  0.50400001928E-02 0.  1.
    10030    2    1    2    0    0  0.00000000000E+00  0.00000000000E+00  0.10575495550E+04  0.29913501505E+04  0.27981716641E+04 0.  0.
        1    1    3    3  502    0 -0.37504916384E+03  0.13435988671E+04  0.41402679913E+03  0.14551075498E+04  0.50400001928E-02 0.  1.
       -1    1    3    3    0  502  0.37504916384E+03 -0.13435988671E+04  0.64352275585E+03  0.15362426007E+04  0.50400001928E-02 0. -1.
</event>
<event>
 5   0  0.3571498E-07  0.2797680E+04  0.7818609E-02  0.8303989E-01
        2   -1    0    0  501    0  0.00000000000E+00  0.00000000000E+00  0.14893889119E+04  0.14893889119E+04  0.25500000920E-02 0. -1.
       -2   -1    0    0    0  501  0.00000000000E+00  0.00000000000E+00 -0.13137964037E+04  0.13137964037E+04  0.25500000920E-02 0.  1.
    10030    2    1    2    0    0  0.00000000000E+00  0.00000000000E+00  0.17559250820E+03  0.28031853157E+04  0.27976803222E+04 0.  0.
        2    1    3    3  502    0  0.12982454979E+04  0.50369061204E+03 -0.45160709573E+02  0.13932641872E+04  0.25500000920E-02 0.  1.
       -2    1    3    3    0  502 -0.12982454979E+04 -0.50369061204E+03  0.22075321777E+03  0.14099211285E+04  0.25500000920E-02 0. -1.
</event>
<event>
 5   0  0.1361741E-07  0.2799238E+04  0.7818609E-02  0.8303505E-01
        1   -1    0    0  501    0  0.00000000000E+00  0.00000000000E+00  0.25051568978E+04  0.25051568978E+04  0.50400001928E-02 0. -1.
       -1   -1    0    0    0  501  0.00000000000E+00  0.00000000000E+00 -0.78196040675E+03  0.78196040676E+03  0.50400001928E-02 0.  1.
    10030    2    1    2    0    0  0.00000000000E+00  0.00000000000E+00  0.17231964911E+04  0.32871173046E+04  0.27992381155E+04 0.  0.
        5    1    3    3  502    0  0.60567598049E+03 -0.93181253694E+03  0.18606377803E+04  0.21672824081E+04  0.46999998093E+01 0. -1.
       -5    1    3    3    0  502 -0.60567598049E+03  0.93181253694E+03 -0.13744128917E+03  0.11198348965E+04  0.46999998093E+01 0.  1.
</event>
<event>
 5   0  0.3557628E-07  0.2800573E+04  0.7818609E-02  0.8303090E-01
       -2   -1    0    0    0  501  0.00000000000E+00  0.00000000000E+00  0.86957755868E+03  0.86957755868E+03  0.25500000920E-02 0. -1.
        2   -1    0    0  501    0  0.00000000000E+00  0.00000000000E+00 -0.22548908199E+04  0.22548908199E+04  0.25500000920E-02 0.  1.
    10030    2    1    2    0    0  0.00000000000E+00  0.00000000000E+00 -0.13853132612E+04  0.31244683785E+04  0.28005731229E+04 0.  0.
        5    1    3    3  502    0  0.39291427623E+03 -0.38523959228E+03 -0.21292043756E+04  0.21991645084E+04  0.46999998093E+01 0.  1.
       -5    1    3    3    0  502 -0.39291427623E+03  0.38523959228E+03  0.74389111444E+03  0.92530387012E+03  0.46999998093E+01 0. -1.
</event>
<event>
 5   0  0.1357902E-07  0.2800296E+04  0.7818609E-02  0.8303176E-01
        1   -1    0    0  501    0  0.00000000000E+00  0.00000000000E+00  0.91616353737E+03  0.91616353738E+03  0.50400001928E-02 0. -1.
       -1   -1    0    0    0  501  0.00000000000E+00  0.00000000000E+00 -0.21398082536E+04  0.21398082536E+04  0.50400001928E-02 0.  1.
    10030    2    1    2    0    0  0.00000000000E+00  0.00000000000E+00 -0.12236447162E+04  0.30559717910E+04  0.28002959122E+04 0.  0.
        4    1    3    3  502    0 -0.94522543044E+03  0.84802480972E+03  0.31783334489E+02  0.12702790975E+04  0.12699999809E+01 0. -1.
       -4    1    3    3    0  502  0.94522543044E+03 -0.84802480972E+03 -0.12554280507E+04  0.17856926935E+04  0.12699999809E+01 0.  1.
</event>
<event>
 5   0  0.3406920E-07  0.2800150E+04  0.7818609E-02  0.8303222E-01
        2   -1    0    0  501    0  0.00000000000E+00  0.00000000000E+00  0.11238937532E+04  0.11238937532E+04  0.25500000920E-02 0. -1.
       -2   -1    0    0    0  501  0.00000000000E+00  0.00000000000E+00 -0.17441238913E+04  0.17441238913E+04  0.25500000920E-02 0.  1.
    10030    2    1    2    0    0  0.00000000000E+00  0.00000000000E+00 -0.62023013802E+03  0.28680176445E+04  0.28001499576E+04 0.  0.
        4    1    3    3  502    0 -0.82575780161E+03  0.82528345316E+03  0.48142850943E+03  0.12628316387E+04  0.12699999809E+01 0. -1.
       -4    1    3    3    0  502  0.82575780161E+03 -0.82528345316E+03 -0.11016586475E+04  0.16051860059E+04  0.12699999809E+01 0.  1.
</event>
<event>
 5   0  0.1346049E-07  0.2800216E+04  0.7818609E-02  0.8303201E-01
        1   -1    0    0  501    0  0.00000000000E+00  0.00000000000E+00  0.13227860705E+04  0.13227860705E+04  0.50400001928E-02 0. -1.
       -1   -1    0    0    0  501  0.00000000000E+00  0.00000000000E+00 -0.14819494671E+04  0.14819494672E+04  0.50400001928E-02 0.  1.
    10030    2    1    2    0    0  0.00000000000E+00  0.00000000000E+00 -0.15916339669E+03  0.28047355376E+04  0.28002157862E+04 0.  0.
        1    1    3    3  502    0 -0.13545443946E+04  0.30737442762E+03 -0.25602663345E+03  0.14123806826E+04  0.50400001928E-02 0. -1.
       -1    1    3    3    0  502  0.13545443946E+04 -0.30737442762E+03  0.96863236767E+02  0.13923548550E+04  0.50400001928E-02 0.  1.
</event>
<event>
 5   0  0.3522569E-07  0.2801987E+04  0.7818609E-02  0.8302652E-01
       -2   -1    0    0    0  501  0.00000000000E+00  0.00000000000E+00  0.22409190915E+04  0.22409190915E+04  0.25500000920E-02 0.  1.
        2   -1    0    0  501    0  0.00000000000E+00  0.00000000000E+00 -0.87588306299E+03  0.87588306300E+03  0.25500000920E-02 0. -1.
    10030    2    1    2    0    0  0.00000000000E+00  0.00000000000E+00  0.13650360285E+04  0.31168021545E+04  0.28019872075E+04 0.  0.
        1    1    3    3  502    0 -0.56973097075E+03 -0.11049740121E+04 -0.35981958197E+02  0.12437265165E+04  0.50400001928E-02 0. -1.
       -1    1    3    3    0  502  0.56973097075E+03  0.11049740121E+04  0.14010179867E+04  0.18730756380E+04  0.50400001928E-02 0.  1.
</event>
<event>
 5   0  0.1357902E-07  0.2799974E+04  0.7818609E-02  0.8303276E-01
       -1   -1    0    0    0  501  0.00000000000E+00  0.00000000000E+00  0.92166270843E+03  0.92166270844E+03  0.50400001928E-02 0.  1.
        1   -1    0    0  501    0  0.00000000000E+00  0.00000000000E+00 -0.21265521847E+04  0.21265521847E+04  0.50400001928E-02 0. -1.
    10030    2    1    2    0    0  0.00000000000E+00  0.00000000000E+00 -0.12048894763E+04  0.30482148932E+04  0.27999741757E+04 0.  0.
        4    1    3    3  502    0  0.97428783274E+03  0.27573227916E+03  0.45006716709E+03  0.11080736160E+04  0.12699999809E+01 0.  1.
       -4    1    3    3    0  502 -0.97428783274E+03 -0.27573227916E+03 -0.16549566434E+04  0.19401412771E+04  0.12699999809E+01 0. -1.
</event>
<event>
 5   0  0.3502141E-07  0.2798473E+04  0.7818609E-02  0.8303743E-01
       -2   -1    0    0    0  501  0.00000000000E+00  0.00000000000E+00  0.10688147941E+04  0.10688147941E+04  0.25500000920E-02 0.  1.
        2   -1    0    0  501    0  0.00000000000E+00  0.00000000000E+00 -0.18318070077E+04  0.18318070077E+04  0.25500000920E-02 0. -1.
    10030    2    1    2    0    0  0.00000000000E+00  0.00000000000E+00 -0.76299221354E+03  0.29006218018E+04  0.27984727476E+04 0.  0.
        3    1    3    3  502    0 -0.12624760206E+04 -0.60645661616E+01 -0.10068253638E+04  0.16148002369E+04  0.10100000352E+00 0. -1.
       -3    1    3    3    0  502  0.12624760206E+04  0.60645661616E+01  0.24383315029E+03  0.12858215650E+04  0.10100000352E+00 0.  1.
</event>
<event>
 5   0  0.1374680E-07  0.2799292E+04  0.7818609E-02  0.8303488E-01
       -1   -1    0    0    0  501  0.00000000000E+00  0.00000000000E+00  0.89800334419E+03  0.89800334420E+03  0.50400001928E-02 0. -1.
        1   -1    0    0  501    0  0.00000000000E+00  0.00000000000E+00 -0.21815162622E+04  0.21815162622E+04  0.50400001928E-02 0.  1.
    10030    2    1    2    0    0  0.00000000000E+00  0.00000000000E+00 -0.12835129180E+04  0.30795196064E+04  0.27992919811E+04 0.  0.
        3    1    3    3  502    0 -0.66580374122E+03 -0.88548823844E+03  0.29922051532E+03  0.11475700280E+04  0.10100000352E+00 0. -1.
       -3    1    3    3    0  502  0.66580374122E+03  0.88548823844E+03 -0.15827334334E+04  0.19319495784E+04  0.10100000352E+00 0.  1.
</event>
<event>
 5   0  0.3522569E-07  0.2801348E+04  0.7818609E-02  0.8302850E-01
       -2   -1    0    0    0  501  0.00000000000E+00  0.00000000000E+00  0.17833351815E+04  0.17833351815E+04  0.25500000920E-02 0.  1.
        2   -1    0    0  501    0  0.00000000000E+00  0.00000000000E+00 -0.11001230527E+04  0.11001230527E+04  0.25500000920E-02 0. -1.
    10030    2    1    2    0    0  0.00000000000E+00  0.00000000000E+00  0.68321212876E+03  0.28834582342E+04  0.28013483495E+04 0.  0.
        1    1    3    3  502    0  0.33941477099E+03 -0.68167972770E+03  0.15516477585E+04  0.17284387188E+04  0.50400001928E-02 0.  1.
       -1    1    3    3    0  502 -0.33941477099E+03  0.68167972770E+03 -0.86843562978E+03  0.11550195154E+04  0.50400001928E-02 0. -1.
</event>
<event>
 5   0  0.1357902E-07  0.2800235E+04  0.7818609E-02  0.8303195E-01
        1   -1    0    0  501    0  0.00000000000E+00  0.00000000000E+00  0.19243016123E+04  0.19243016123E+04  0.50400001928E-02 0.  1.
       -1   -1    0    0    0  501  0.00000000000E+00  0.00000000000E+00 -0.10187223560E+04  0.10187223560E+04  0.50400001928E-02 0. -1.
    10030    2    1    2    0    0  0.00000000000E+00  0.00000000000E+00  0.90557925629E+03  0.29430239683E+04  0.28002350417E+04 0.  0.
        4    1    3    3  502    0 -0.36404273820E+03  0.12363256388E+04 -0.12218957110E+03  0.12945887782E+04  0.12699999809E+01 0. -1.
       -4    1    3    3    0  502  0.36404273820E+03 -0.12363256388E+04  0.10277688274E+04  0.16484351901E+04  0.12699999809E+01 0.  1.
</event>
<event>
 5   0  0.3502141E-07  0.2799371E+04  0.7818609E-02  0.8303464E-01
       -2   -1    0    0    0  501  0.00000000000E+00  0.00000000000E+00  0.13521128756E+04  0.13521128756E+04  0.25500000920E-02 0.  1.
        2   -1    0    0  501    0  0.00000000000E+00  0.00000000000E+00 -0.14489317647E+04  0.14489317647E+04  0.25500000920E-02 0. -1.
    10030    2    1    2    0    0  0.00000000000E+00  0.00000000000E+00 -0.96818889070E+02  0.28010446403E+04  0.27993708542E+04 0.  0.
        3    1    3    3  502    0 -0.97926187513E+02  0.99264551551E+03  0.93410669923E+03  0.13665613756E+04  0.10100000352E+00 0.  1.
       -3    1    3    3    0  502  0.97926187513E+02 -0.99264551551E+03 -0.10309255883E+04  0.14344832646E+04  0.10100000352E+00 0. -1.
</event>
<event>
 5   0  0.1357902E-07  0.2800349E+04  0.7818609E-02  0.8303160E-01
        1   -1    0    0  501    0  0.00000000000E+00  0.00000000000E+00  0.16354099166E+04  0.16354099166E+04  0.50400001928E-02 0.  1.
       -1   -1    0    0    0  501  0.00000000000E+00  0.00000000000E+00 -0.11987753488E+04  0.11987753488E+04  0.50400001928E-02 0. -1.
    10030    2    1    2    0    0  0.00000000000E+00  0.00000000000E+00  0.43663456780E+03  0.28341852654E+04  0.28003493305E+04 0.  0.
        4    1    3    3  502    0  0.12169329876E+04  0.68070526810E+03  0.34714202898E+03  0.14369393723E+04  0.12699999809E+01 0.  1.
       -4    1    3    3    0  502 -0.12169329876E+04 -0.68070526810E+03  0.89492538822E+02  0.13972458931E+04  0.12699999809E+01 0. -1.
</event>
<event>
 5   0  0.1173363E-07  0.2808880E+04  0.7818609E-02  0.8300517E-01
       -3   -1    0    0    0  501  0.00000000000E+00  0.00000000000E+00  0.12967789855E+04  0.12967789894E+04  0.10100000352E+00 0. -1.
        3   -1    0    0  501    0  0.00000000000E+00  0.00000000000E+00 -0.15210389492E+04  0.15210389525E+04  0.10100000352E+00 0.  1.
    10030    2    1    2    0    0  0.00000000000E+00  0.00000000000E+00 -0.22425996370E+03  0.28178179420E+04  0.28088797452E+04 0.  0.
        1    1    3    3  502    0 -0.67412730865E+03 -0.64500808987E+03 -0.11652171786E+04  0.14927203816E+04  0.50400001928E-02 0.  1.
       -1    1    3    3    0  502  0.67412730865E+03  0.64500808987E+03  0.94095721489E+03  0.13250975604E+04  0.50400001928E-02 0. -1.
</event>
<event>
 5   0  0.1357902E-07  0.2799843E+04  0.7818609E-02  0.8303317E-01
       -1   -1    0    0    0  501  0.00000000000E+00  0.00000000000E+00  0.15090805424E+04  0.15090805424E+04  0.50400001928E-02 0.  1.
        1   -1    0    0  501    0  0.00000000000E+00  0.00000000000E+00 -0.12986584819E+04  0.12986584819E+04  0.50400001928E-02 0. -1.
    10030    2    1    2    0    0  0.00000000000E+00  0.00000000000E+00  0.21042206051E+03  0.28077390243E+04  0.27998430287E+04 0.  0.
        4    1    3    3  502    0 -0.12936465225E+03  0.99138578657E+03 -0.87744918285E+03  0.13302254217E+04  0.12699999809E+01 0. -1.
       -4    1    3    3    0  502  0.12936465225E+03 -0.99138578657E+03  0.10878712434E+04  0.14775136027E+04  0.12699999809E+01 0.  1.
</event>
<event>
 5   0  0.1361741E-07  0.2801167E+04  0.7818609E-02  0.8302906E-01
       -1   -1    0    0    0  501  0.00000000000E+00  0.00000000000E+00  0.74112586639E+03  0.74112586641E+03  0.50400001928E-02 0. -1.
        1   -1    0    0  501    0  0.00000000000E+00  0.00000000000E+00 -0.26468290556E+04  0.26468290556E+04  0.50400001928E-02 0.  1.
    10030    2    1    2    0    0  0.00000000000E+00  0.00000000000E+00 -0.19057031892E+04  0.33879549220E+04  0.28011665263E+04 0.  0.
        5    1    3    3  502    0 -0.81983131914E+03  0.11306314158E+04 -0.82507761975E+03  0.16221054093E+04  0.46999998093E+01 0. -1.
       -5    1    3    3    0  502  0.81983131914E+03 -0.11306314158E+04 -0.10806255694E+04  0.17658495127E+04  0.46999998093E+01 0.  1.
</event>
<event>
 5   0  0.3571498E-07  0.2799127E+04  0.7818609E-02  0.8303539E-01
       -2   -1    0    0    0  501  0.00000000000E+00  0.00000000000E+00  0.10151324693E+04  0.10151324693E+04  0.25500000920E-02 0. -1.
        2   -1    0    0  501    0  0.00000000000E+00  0.00000000000E+00 -0.19295793798E+04  0.19295793798E+04  0.25500000920E-02 0.  1.
    10030    2    1    2    0    0  0.00000000000E+00  0.00000000000E+00 -0.91444691052E+03  0.29447118491E+04  0.27991274930E+04 0.  0.
        2    1    3    3  502    0 -0.12497167948E+03  0.13939712738E+04 -0.45490722226E+03  0.14716366446E+04  0.25500000920E-02 0.  1.
       -2    1    3    3    0  502  0.12497167948E+03 -0.13939712738E+04 -0.45953968826E+03  0.14730752045E+04  0.25500000920E-02 0. -1.
</event>
<event>
 5   0  0.3406920E-07  0.2806255E+04  0.7818609E-02  0.8301329E-01
       -2   -1    0    0    0  501  0.00000000000E+00  0.00000000000E+00  0.11003311614E+04  0.11003311614E+04  0.25500000920E-02 0.  1.
        2   -1    0    0  501    0  0.00000000000E+00  0.00000000000E+00 -0.17892497190E+04  0.17892497190E+04  0.25500000920E-02 0. -1.
    10030    2    1    2    0    0  0.00000000000E+00  0.00000000000E+00 -0.68891855759E+03  0.28895808804E+04  0.28062553137E+04 0.  0.
        4    1    3    3  502    0  0.95950768263E+03  0.31130677454E+03 -0.13487126542E+04  0.16842192070E+04  0.12699999809E+01 0. -1.
       -4    1    3    3    0  502 -0.95950768263E+03 -0.31130677454E+03  0.65979409660E+03  0.12053616734E+04  0.12699999809E+01 0.  1.
</event>
<event>
 5   0  0.3557628E-07  0.2800269E+04  0.7818609E-02  0.8303185E-01
        2   -1    0    0  501    0  0.00000000000E+00  0.00000000000E+00  0.19212776443E+04  0.19212776443E+04  0.25500000920E-02 0. -1.
       -2   -1    0    0    0  501  0.00000000000E+00  0.00000000000E+00 -0.10203506732E+04  0.10203506732E+04  0.25500000920E-02 0.  1.
    10030    2    1    2    0    0  0.00000000000E+00  0.00000000000E+00  0.90092697110E+03  0.29416283176E+04  0.28002692284E+04 0.  0.
        5    1    3    3  502    0 -0.92627154256E+03 -0.43850124967E+03 -0.55168202387E+03  0.11638889388E+04  0.46999998093E+01 0.  1.
       -5    1    3    3    0  502  0.92627154256E+03  0.43850124967E+03  0.14526089950E+04  0.17777393788E+04  0.46999998093E+01 0. -1.
</event>
<event>
 5   0  0.3557628E-07  0.2801591E+04  0.7818609E-02  0.8302775E-01
        2   -1    0    0  501    0  0.00000000000E+00  0.00000000000E+00  0.16764047856E+04  0.16764047856E+04  0.25500000920E-02 0.  1.
       -2   -1    0    0    0  501  0.00000000000E+00  0.00000000000E+00 -0.11704979632E+04  0.11704979632E+04  0.25500000920E-02 0. -1.
    10030    2    1    2    0    0  0.00000000000E+00  0.00000000000E+00  0.50590682237E+03  0.28469027488E+04  0.28015912529E+04 0.  0.
        5    1    3    3  502    0  0.70822082080E+03 -0.84020200470E+03  0.11357328351E+04  0.15803250623E+04  0.46999998093E+01 0. -1.
       -5    1    3    3    0  502 -0.70822082080E+03  0.84020200470E+03 -0.62982601276E+03  0.12665776865E+04  0.46999998093E+01 0.  1.
</event>
<event>
 5   0  0.1357902E-07  0.2793799E+04  0.7818609E-02  0.8305196E-01
        1   -1    0    0  501    0  0.00000000000E+00  0.00000000000E+00  0.15524506074E+04  0.15524506074E+04  0.50400001928E-02 0.  1.
       -1   -1    0    0    0  501  0.00000000000E+00  0.00000000000E+00 -0.12569343777E+04  0.12569343777E+04  0.50400001928E-02 0. -1.
    10030    2    1    2    0    0  0.00000000000E+00  0.00000000000E+00  0.29551622966E+03  0.28093849851E+04  0.27937992327E+04 0.  0.
        4    1    3    3  502    0 -0.90828125800E+03  0.41187499039E+03  0.11313308097E+04  0.15081534621E+04  0.12699999809E+01 0.  1.
       -4    1    3    3    0  502  0.90828125800E+03 -0.41187499039E+03 -0.83581458007E+03  0.13012315230E+04  0.12699999809E+01 0. -1.
</event>
<event>
 5   0  0.1346049E-07  0.2800290E+04  0.7818609E-02  0.8303178E-01
        1   -1    0    0  501    0  0.00000000000E+00  0.00000000000E+00  0.98672615465E+03  0.98672615466E+03  0.50400001928E-02 0. -1.
       -1   -1    0    0    0  501  0.00000000000E+00  0.00000000000E+00 -0.19867788871E+04  0.19867788871E+04  0.50400001928E-02 0.  1.
    10030    2    1    2    0    0  0.00000000000E+00  0.00000000000E+00 -0.10000527325E+04  0.29735050418E+04  0.28002904788E+04 0.  0.
        1    1    3    3  502    0  0.85745898090E+02 -0.69714574637E+02  0.98208800920E+03  0.98828606122E+03  0.50400001928E-02 0. -1.
       -1    1    3    3    0  502 -0.85745898090E+02  0.69714574637E+02 -0.19821407417E+04  0.19852189805E+04  0.50400001928E-02 0.  1.
</event>
<event>
 5   0  0.3502141E-07  0.2800094E+04  0.7818609E-02  0.8303239E-01
       -2   -1    0    0    0  501  0.00000000000E+00  0.00000000000E+00  0.11347097269E+04  0.11347097269E+04  0.25500000920E-02 0.  1.
        2   -1    0    0  501    0  0.00000000000E+00  0.00000000000E+00 -0.17274305659E+04  0.17274305659E+04  0.25500000920E-02 0. -1.
    10030    2    1    2    0    0  0.00000000000E+00  0.00000000000E+00 -0.59272083901E+03  0.28621402928E+04  0.28000944738E+04 0.  0.
        3    1    3    3  502    0  0.47713115794E+02  0.74570802311E+03  0.91384035994E+03  0.11804495800E+04  0.10100000352E+00 0.  1.
       -3    1    3    3    0  502 -0.47713115794E+02 -0.74570802311E+03 -0.15065611990E+04  0.16816907128E+04  0.10100000352E+00 0. -1.
</event>
<event>
 5   0  0.3522569E-07  0.2799476E+04  0.7818609E-02  0.8303431E-01
       -2   -1    0    0    0  501  0.00000000000E+00  0.00000000000E+00  0.34520097460E+04  0.34520097460E+04  0.25500000920E-02 0. -1.
        2   -1    0    0  501    0  0.00000000000E+00  0.00000000000E+00 -0.56757249421E+03  0.56757249422E+03  0.25500000920E-02 0.  1.
    10030    2    1    2    0    0  0.00000000000E+00  0.00000000000E+00  0.28844372518E+04  0.40195822403E+04  0.27994755092E+04 0.  0.
        1    1    3    3  502    0  0.36901810237E+03  0.37487393361E+03 -0.42025293333E+03  0.67328846268E+03  0.50400001928E-02 0.  1.
       -1    1    3    3    0  502 -0.36901810237E+03 -0.37487393361E+03  0.33046901852E+04  0.33462937776E+04  0.50400001928E-02 0. -1.
</event>
<event>
 5   0  0.3557628E-07  0.2797367E+04  0.7818609E-02  0.8304086E-01
       -2   -1    0    0    0  501  0.00000000000E+00  0.00000000000E+00  0.84190325797E+03  0.84190325797E+03  0.25500000920E-02 0.  1.
        2   -1    0    0  501    0  0.00000000000E+00  0.00000000000E+00 -0.23236825836E+04  0.23236825836E+04  0.25500000920E-02 0. -1.
    10030    2    1    2    0    0  0.00000000000E+00  0.00000000000E+00 -0.14817793256E+04  0.31655858416E+04  0.27973672892E+04 0.  0.
        5    1    3    3  502    0 -0.79899373293E+03  0.54197473339E+03  0.40433273417E+03  0.10467256789E+04  0.46999998093E+01 0.  1.
       -5    1    3    3    0  502  0.79899373293E+03 -0.54197473339E+03 -0.18861120598E+04  0.21188601627E+04  0.46999998093E+01 0. -1.
</event>
<event>
 5   0  0.1374680E-07  0.2800221E+04  0.7818609E-02  0.8303200E-01
        1   -1    0    0  501    0  0.00000000000E+00  0.00000000000E+00  0.75265546862E+03  0.75265546864E+03  0.50400001928E-02 0. -1.
       -1   -1    0    0    0  501  0.00000000000E+00  0.00000000000E+00 -0.26045247186E+04  0.26045247186E+04  0.50400001928E-02 0.  1.
    10030    2    1    2    0    0  0.00000000000E+00  0.00000000000E+00 -0.18518692499E+04  0.33571801872E+04  0.28002212574E+04 0.  0.
        3    1    3    3  502    0 -0.13656651921E+04  0.20035789836E+03 -0.12074206467E+04  0.18338618630E+04  0.10100000352E+00 0.  1.
       -3    1    3    3    0  502  0.13656651921E+04 -0.20035789836E+03 -0.64444860320E+03  0.15233183242E+04  0.10100000352E+00 0. -1.
</event>
<event>
 5   0  0.3571498E-07  0.2801275E+04  0.7818609E-02  0.8302873E-01
       -2   -1    0    0    0  501  0.00000000000E+00  0.00000000000E+00  0.16216084675E+04  0.16216084675E+04  0.25500000920E-02 0. -1.
        2   -1    0    0  501    0  0.00000000000E+00  0.00000000000E+00 -0.12097777427E+04  0.12097777427E+04  0.25500000920E-02 0.  1.
    10030    2    1    2    0    0  0.00000000000E+00  0.00000000000E+00  0.41183072479E+03  0.28313862102E+04  0.28012753034E+04 0.  0.
        2    1    3    3  502    0 -0.28834028035E+03  0.59469690639E+03 -0.10422599250E+04  0.12341435407E+04  0.25500000920E-02 0.  1.
       -2    1    3    3    0  502  0.28834028035E+03 -0.59469690639E+03  0.14540906498E+04  0.15972426696E+04  0.25500000920E-02 0. -1.
</event>
<event>
 5   0  0.1346049E-07  0.2801574E+04  0.7818609E-02  0.8302780E-01
       -1   -1    0    0    0  501  0.00000000000E+00  0.00000000000E+00  0.11512059806E+04  0.11512059806E+04  0.50400001928E-02 0.  1.
        1   -1    0    0  501    0  0.00000000000E+00  0.00000000000E+00 -0.17044767158E+04  0.17044767159E+04  0.50400001928E-02 0. -1.
    10030    2    1    2    0    0  0.00000000000E+00  0.00000000000E+00 -0.55327073526E+03  0.28556826964E+04  0.28015736928E+04 0.  0.
        1    1    3    3  502    0  0.10028981930E+04  0.23834796151E+03  0.69014991055E+03  0.12405327224E+04  0.50400001928E-02 0.  1.
       -1    1    3    3    0  502 -0.10028981930E+04 -0.23834796151E+03 -0.12434206458E+04  0.16151499741E+04  0.50400001928E-02 0. -1.
</event>
<event>
 5   0  0.3502141E-07  0.2800106E+04  0.7818609E-02  0.8303235E-01
        2   -1    0    0  501    0  0.00000000000E+00  0.00000000000E+00  0.67212863500E+03  0.67212863501E+03  0.25500000920E-02 0. -1.
       -2   -1    0    0    0  501  0.00000000000E+00  0.00000000000E+00 -0.29163300407E+04  0.29163300407E+04  0.25500000920E-02 0.  1.
    10030    2    1    2    0    0  0.00000000000E+00  0.00000000000E+00 -0.22442014057E+04  0.35884586757E+04  0.28001063762E+04 0.  0.
        3    1    3    3  502    0 -0.31982427159E+03 -0.10692702953E+04 -0.22053822366E+04  0.24717073752E+04  0.10100000352E+00 0.  1.
       -3    1    3    3    0  502  0.31982427159E+03  0.10692702953E+04 -0.38819169142E+02  0.11167513005E+04  0.10100000352E+00 0. -1.
</event>
<event>
 5   0  0.3571498E-07  0.2799383E+04  0.7818609E-02  0.8303460E-01
       -2   -1    0    0    0  501  0.00000000000E+00  0.00000000000E+00  0.13561169795E+04  0.13561169795E+04  0.25500000920E-02 0.  1.
        2   -1    0    0  501    0  0.00000000000E+00  0.00000000000E+00 -0.14446658679E+04  0.14446658679E+04  0.25500000920E-02 0. -1.
    10030    2    1    2    0    0  0.00000000000E+00  0.00000000000E+00 -0.88548888408E+02  0.28007828474E+04  0.27993827270E+04 0.  0.
        2    1    3    3  502    0 -0.47260221388E+03 -0.64837045730E+03 -0.11917564448E+04  0.14366699433E+04  0.25500000920E-02 0. -1.
       -2    1    3    3    0  502  0.47260221388E+03  0.64837045730E+03  0.11032075564E+04  0.13641129040E+04  0.25500000920E-02 0.  1.
</event>
<event>
 5   0  0.1346049E-07  0.2799584E+04  0.7818609E-02  0.8303397E-01
        1   -1    0    0  501    0  0.00000000000E+00  0.00000000000E+00  0.10811805507E+04  0.10811805507E+04  0.50400001928E-02 0.  1.
       -1   -1    0    0    0  501  0.00000000000E+00  0.00000000000E+00 -0.18122950155E+04  0.18122950155E+04  0.50400001928E-02 0. -1.
    10030    2    1    2    0    0  0.00000000000E+00  0.00000000000E+00 -0.73111446479E+03  0.28934755661E+04  0.27995843426E+04 0.  0.
        1    1    3    3  502    0  0.72440641058E+03  0.16503388618E+03  0.86057611622E+03  0.11369221975E+04  0.50400001928E-02 0.  1.
       -1    1    3    3    0  502 -0.72440641058E+03 -0.16503388618E+03 -0.15916905810E+04  0.17565533687E+04  0.50400001928E-02 0. -1.
</event>
<event>
 5   0  0.3557628E-07  0.2801392E+04  0.7818609E-02  0.8302836E-01
       -2   -1    0    0    0  501  0.00000000000E+00  0.00000000000E+00  0.95555441240E+03  0.95555441240E+03  0.25500000920E-02 0. -1.
        2   -1    0    0  501    0  0.00000000000E+00  0.00000000000E+00 -0.20532052507E+04  0.20532052507E+04  0.25500000920E-02 0.  1.
    10030    2    1    2    0    0  0.00000000000E+00  0.00000000000E+00 -0.10976508383E+04  0.30087596631E+04  0.28013920374E+04 0.  0.
        5    1    3    3  502    0 -0.57522110723E+03 -0.52165640451E+03 -0.18008445246E+04  0.19611394184E+04  0.46999998093E+01 0.  1.
       -5    1    3    3    0  502  0.57522110723E+03  0.52165640451E+03  0.70319368634E+03  0.10476202447E+04  0.46999998093E+01 0. -1.
</event>
<event>
 5   0  0.3571498E-07  0.2799227E+04  0.7818609E-02  0.8303508E-01
        2   -1    0    0  501    0  0.00000000000E+00  0.00000000000E+00  0.23470276876E+04  0.23470276876E+04  0.25500000920E-02 0.  1.
       -2   -1    0    0    0  501  0.00000000000E+00  0.00000000000E+00 -0.83463768797E+03  0.83463768798E+03  0.25500000920E-02 0. -1.
    10030    2    1    2    0    0  0.00000000000E+00  0.00000000000E+00  0.15123899996E+04  0.31816653756E+04  0.27992268667E+04 0.  0.
        2    1    3    3  502    0  0.29178703679E+03  0.73388212770E+03  0.20695700765E+04  0.22151394886E+04  0.25500000920E-02 0.  1.
       -2    1    3    3    0  502 -0.29178703679E+03 -0.73388212770E+03 -0.55718007688E+03  0.96652588702E+03  0.25500000920E-02 0. -1.
</event>
<event>
 5   0  0.3557628E-07  0.2815013E+04  0.7818609E-02  0.8298622E-01
        2   -1    0    0  501    0  0.00000000000E+00  0.00000000000E+00  0.15046360070E+04  0.15046360070E+04  0.25500000920E-02 0. -1.
       -2   -1    0    0    0  501  0.00000000000E+00  0.00000000000E+00 -0.13166474719E+04  0.13166474719E+04  0.25500000920E-02 0.  1.
    10030    2    1    2    0    0  0.00000000000E+00  0.00000000000E+00  0.18798853501E+03  0.28212834789E+04  0.28150134598E+04 0.  0.
        5    1    3    3  502    0  0.85908708729E+03  0.89808560435E+03 -0.56813201415E+03  0.13665227593E+04  0.46999998093E+01 0.  1.
       -5    1    3    3    0  502 -0.85908708729E+03 -0.89808560435E+03  0.75612054916E+03  0.14547607196E+04  0.46999998093E+01 0. -1.
</event>
<event>
 5   0  0.1346049E-07  0.2800623E+04  0.7818609E-02  0.8303075E-01
        1   -1    0    0  501    0  0.00000000000E+00  0.00000000000E+00  0.15850546189E+04  0.15850546189E+04  0.50400001928E-02 0. -1.
       -1   -1    0    0    0  501  0.00000000000E+00  0.00000000000E+00 -0.12371008844E+04  0.12371008844E+04  0.50400001928E-02 0.  1.
    10030    2    1    2    0    0  0.00000000000E+00  0.00000000000E+00  0.34795373456E+03  0.28221555033E+04  0.28006231241E+04 0.  0.
        1    1    3    3  502    0 -0.10258847118E+04 -0.93122068352E+03 -0.30713072999E+02  0.13858407904E+04  0.50400001928E-02 0. -1.
       -1    1    3    3    0  502  0.10258847118E+04  0.93122068352E+03  0.37866680756E+03  0.14363147129E+04  0.50400001928E-02 0.  1.
</event>
<event>
 5   0  0.3406920E-07  0.2797322E+04  0.7818609E-02  0.8304100E-01
       -2   -1    0    0    0  501  0.00000000000E+00  0.00000000000E+00  0.12182412646E+04  0.12182412646E+04  0.25500000920E-02 0.  1.
        2   -1    0    0  501    0  0.00000000000E+00  0.00000000000E+00 -0.16058005492E+04  0.16058005492E+04  0.25500000920E-02 0. -1.
    10030    2    1    2    0    0  0.00000000000E+00  0.00000000000E+00 -0.38755928459E+03  0.28240418138E+04  0.27973219276E+04 0.  0.
        4    1    3    3  502    0  0.66825371120E+03 -0.11564852985E+04 -0.61274931056E+03  0.14695184921E+04  0.12699999809E+01 0. -1.
       -4    1    3    3    0  502 -0.66825371120E+03  0.11564852985E+04  0.22519002596E+03  0.13545233216E+04  0.12699999809E+01 0.  1.
</event>
<event>
 5   0  0.3502141E-07  0.2800398E+04  0.7818609E-02  0.8303145E-01
       -2   -1    0    0    0  501  0.00000000000E+00  0.00000000000E+00  0.14879024194E+04  0.14879024194E+04  0.25500000920E-02 0.  1.
        2   -1    0    0  501    0  0.00000000000E+00  0.00000000000E+00 -0.13176650085E+04  0.13176650085E+04  0.25500000920E-02 0. -1.
    10030    2    1    2    0    0  0.00000000000E+00  0.00000000000E+00  0.17023741089E+03  0.28055674278E+04  0.28003977960E+04 0.  0.
        3    1    3    3  502    0 -0.39050478829E+03  0.91353666677E+03 -0.90337070297E+03  0.13428037341E+04  0.10100000352E+00 0. -1.
       -3    1    3    3    0  502  0.39050478829E+03 -0.91353666677E+03  0.10736081139E+04  0.14627636937E+04  0.10100000352E+00 0.  1.
</event>
<event>
 5   0  0.3557628E-07  0.2798228E+04  0.7818609E-02  0.8303819E-01
       -2   -1    0    0    0  501  0.00000000000E+00  0.00000000000E+00  0.14064112431E+04  0.14064112431E+04  0.25500000920E-02 0.  1.
        2   -1    0    0  501    0  0.00000000000E+00  0.00000000000E+00 -0.13918550381E+04  0.13918550381E+04  0.25500000920E-02 0. -1.
    10030    2    1    2    0    0  0.00000000000E+00  0.00000000000E+00  0.14556205048E+02  0.27982662812E+04  0.27982284213E+04 0.  0.
        5    1    3    3  502    0 -0.12541996001E+03  0.13759903331E+04 -0.21276787296E+03  0.13979884910E+04  0.46999998093E+01 0.  1.
       -5    1    3    3    0  502  0.12541996001E+03 -0.13759903331E+04  0.22732407801E+03  0.14002777902E+04  0.46999998093E+01 0. -1.
</event>
<event>
 5   0  0.3502141E-07  0.2799671E+04  0.7818609E-02  0.8303371E-01
       -2   -1    0    0    0  501  0.00000000000E+00  0.00000000000E+00  0.18970736646E+04  0.18970736646E+04  0.25500000920E-02 0. -1.
        2   -1    0    0  501    0  0.00000000000E+00  0.00000000000E+00 -0.10329274372E+04  0.10329274372E+04  0.25500000920E-02 0.  1.
    10030    2    1    2    0    0  0.00000000000E+00  0.00000000000E+00  0.86414622743E+03  0.29300011018E+04  0.27996710082E+04 0.  0.
        3    1    3    3  502    0 -0.29368560667E+03 -0.54421880633E+03  0.17463665490E+04  0.18526255634E+04  0.10100000352E+00 0. -1.
       -3    1    3    3    0  502  0.29368560667E+03  0.54421880633E+03 -0.88222032154E+03  0.10773755384E+04  0.10100000352E+00 0.  1.
</event>
<event>
 5   0  0.1374680E-07  0.2800541E+04  0.7818609E-02  0.8303100E-01
        1   -1    0    0  501    0  0.00000000000E+00  0.00000000000E+00  0.15370780098E+04  0.15370780098E+04  0.50400001928E-02 0.  1.
       -1   -1    0    0    0  501  0.00000000000E+00  0.00000000000E+00 -0.12756397692E+04  0.12756397692E+04  0.50400001928E-02 0. -1.
    10030    2    1    2    0    0  0.00000000000E+00  0.00000000000E+00  0.26143824058E+03  0.28127177790E+04  0.28005412603E+04 0.  0.
        3    1    3    3  502    0  0.29689531304E+03 -0.35977090220E+03  0.14567535156E+04  0.15296119588E+04  0.10100000352E+00 0.  1.
       -3    1    3    3    0  502 -0.29689531304E+03  0.35977090220E+03 -0.11953152750E+04  0.12831058202E+04  0.10100000352E+00 0. -1.
</event>
<event>
 5   0  0.1374680E-07  0.2797937E+04  0.7818609E-02  0.8303909E-01
       -1   -1    0    0    0  501  0.00000000000E+00  0.00000000000E+00  0.96083185633E+03  0.96083185634E+03  0.50400001928E-02 0.  1.
        1   -1    0    0  501    0  0.00000000000E+00  0.00000000000E+00 -0.20368938351E+04  0.20368938351E+04  0.50400001928E-02 0. -1.
    10030    2    1    2    0    0  0.00000000000E+00  0.00000000000E+00 -0.10760619788E+04  0.29977256914E+04  0.27979367289E+04 0.  0.
        3    1    3    3  502    0 -0.13770899596E+04 -0.49762951284E+02 -0.79663596675E+03  0.15916915473E+04  0.10100000352E+00 0. -1.
       -3    1    3    3    0  502  0.13770899596E+04  0.49762951284E+02 -0.27942601202E+03  0.14060341441E+04  0.10100000352E+00 0.  1.
</event>
<event>
 5   0  0.3406920E-07  0.2799146E+04  0.7818609E-02  0.8303534E-01
       -2   -1    0    0    0  501  0.00000000000E+00  0.00000000000E+00  0.78444114464E+03  0.78444114465E+03  0.25500000920E-02 0. -1.
        2   -1    0    0  501    0  0.00000000000E+00  0.00000000000E+00 -0.24970701695E+04  0.24970701695E+04  0.25500000920E-02 0.  1.
    10030    2    1    2    0    0  0.00000000000E+00  0.00000000000E+00 -0.17126290248E+04  0.32815113141E+04  0.27991459998E+04 0.  0.
        4    1    3    3  502    0 -0.61716098268E+03  0.75581259778E+03 -0.20325392886E+04  0.22546303321E+04  0.12699999809E+01 0.  1.
       -4    1    3    3    0  502  0.61716098268E+03 -0.75581259778E+03  0.31991026382E+03  0.10268809820E+04  0.12699999809E+01 0. -1.
</event>
<event>
 5   0  0.1361741E-07  0.2798674E+04  0.7818609E-02  0.8303680E-01
        1   -1    0    0  501    0  0.00000000000E+00  0.00000000000E+00  0.83822770825E+03  0.83822770826E+03  0.50400001928E-02 0. -1.
       -1   -1    0    0    0  501  0.00000000000E+00  0.00000000000E+00 -0.23360532758E+04  0.23360532758E+04  0.50400001928E-02 0.  1.
    10030    2    1    2    0    0  0.00000000000E+00  0.00000000000E+00 -0.14978255675E+04  0.31742809840E+04  0.27986743889E+04 0.  0.
        5    1    3    3  502    0 -0.50799379853E+03  0.88806115235E+03 -0.18317181738E+04  0.20980762302E+04  0.46999998093E+01 0.  1.
       -5    1    3    3    0  502  0.50799379853E+03 -0.88806115235E+03  0.33389260625E+03  0.10762047538E+04  0.46999998093E+01 0. -1.
</event>
<event>
 5   0  0.1374680E-07  0.2796865E+04  0.7818609E-02  0.8304242E-01
       -1   -1    0    0    0  501  0.00000000000E+00  0.00000000000E+00  0.12212639861E+04  0.12212639861E+04  0.50400001928E-02 0. -1.
        1   -1    0    0  501    0  0.00000000000E+00  0.00000000000E+00 -0.16013032719E+04  0.16013032720E+04  0.50400001928E-02 0.  1.
    10030    2    1    2    0    0  0.00000000000E+00  0.00000000000E+00 -0.38003928584E+03  0.28225672581E+04  0.27968654003E+04 0.  0.
        3    1    3    3  502    0  0.10682308395E+04 -0.86958127691E+03 -0.43374524994E+03  0.14440996072E+04  0.10100000352E+00 0.  1.
       -3    1    3    3    0  502 -0.10682308395E+04  0.86958127691E+03  0.53705964104E+02  0.13784676508E+04  0.10100000352E+00 0. -1.
</event>
<event>
 5   0  0.1173363E-07  0.2802041E+04  0.7818609E-02  0.8302635E-01
        3   -1    0    0  501    0  0.00000000000E+00  0.00000000000E+00  0.15726192600E+04  0.15726192633E+04  0.10100000352E+00 0. -1.
       -3   -1    0    0    0  501  0.00000000000E+00  0.00000000000E+00 -0.12481455617E+04  0.12481455658E+04  0.10100000352E+00 0.  1.
    10030    2    1    2    0    0  0.00000000000E+00  0.00000000000E+00  0.32447369834E+03  0.28207648291E+04  0.28020405136E+04 0.  0.
        5    1    3    3  502    0 -0.68221515399E+01  0.84265317098E+03  0.12889679978E+04  0.15399907459E+04  0.46999998093E+01 0. -1.
       -5    1    3    3    0  502  0.68221515399E+01 -0.84265317098E+03 -0.96449429944E+03  0.12807740831E+04  0.46999998093E+01 0.  1.
</event>
<event>
 5   0  0.1374680E-07  0.2799806E+04  0.7818609E-02  0.8303329E-01
       -1   -1    0    0    0  501  0.00000000000E+00  0.00000000000E+00  0.12021742084E+04  0.12021742084E+04  0.50400001928E-02 0.  1.
        1   -1    0    0  501    0  0.00000000000E+00  0.00000000000E+00 -0.16301537156E+04  0.16301537156E+04  0.50400001928E-02 0. -1.
    10030    2    1    2    0    0  0.00000000000E+00  0.00000000000E+00 -0.42797950718E+03  0.28323279239E+04  0.27998062451E+04 0.  0.
        3    1    3    3  502    0 -0.10779489588E+04  0.27437115052E+03 -0.10738483650E+04  0.15460930784E+04  0.10100000352E+00 0. -1.
       -3    1    3    3    0  502  0.10779489588E+04 -0.27437115052E+03  0.64586885779E+03  0.12862348455E+04  0.10100000352E+00 0.  1.
</event>
<event>
 5   0  0.3522569E-07  0.2800013E+04  0.7818609E-02  0.8303264E-01
       -2   -1    0    0    0  501  0.00000000000E+00  0.00000000000E+00  0.77648418854E+03  0.77648418854E+03  0.25500000920E-02 0.  1.
        2   -1    0    0  501    0  0.00000000000E+00  0.00000000000E+00 -0.25242208661E+04  0.25242208661E+04  0.25500000920E-02 0. -1.
    10030    2    1    2    0    0  0.00000000000E+00  0.00000000000E+00 -0.17477366776E+04  0.33007050546E+04  0.28000125649E+04 0.  0.
        1    1    3    3  502    0 -0.11203749968E+04 -0.25782736621E+03  0.67934538751E+02  0.11516640941E+04  0.50400001928E-02 0.  1.
       -1    1    3    3    0  502  0.11203749968E+04  0.25782736621E+03 -0.18156712163E+04  0.21490409605E+04  0.50400001928E-02 0. -1.
</event>
<event>
 5   0  0.1366235E-07  0.2793909E+04  0.7818609E-02  0.8305162E-01
       -1   -1    0    0    0  501  0.00000000000E+00  0.00000000000E+00  0.11294576279E+04  0.11294576279E+04  0.50400001928E-02 0.  1.
        1   -1    0    0  501    0  0.00000000000E+00  0.00000000000E+00 -0.17278040024E+04  0.17278040024E+04  0.50400001928E-02 0. -1.
    10030    2    1    2    0    0  0.00000000000E+00  0.00000000000E+00 -0.59834637451E+03  0.28572616303E+04  0.27939086671E+04 0.  0.
        2    1    3    3  502    0 -0.12023437769E+04  0.66766763331E+03 -0.54982419344E+03  0.14811202754E+04  0.25500000920E-02 0. -1.
       -2    1    3    3    0  502  0.12023437769E+04 -0.66766763331E+03 -0.48522181065E+02  0.13761413549E+04  0.25500000920E-02 0.  1.
</event>
<event>
 5   0  0.1374680E-07  0.2798371E+04  0.7818609E-02  0.8303774E-01
        1   -1    0    0  501    0  0.00000000000E+00  0.00000000000E+00  0.19040198942E+04  0.19040198943E+04  0.50400001928E-02 0. -1.
       -1   -1    0    0    0  501  0.00000000000E+00  0.00000000000E+00 -0.10282035994E+04  0.10282035994E+04  0.50400001928E-02 0.  1.
    10030    2    1    2    0    0  0.00000000000E+00  0.00000000000E+00  0.87581629484E+03  0.29322234937E+04  0.27983710323E+04 0.  0.
        3    1    3    3  502    0  0.10444178046E+04  0.92145722178E+03  0.29799943952E+03  0.14243228701E+04  0.10100000352E+00 0.  1.
       -3    1    3    3    0  502 -0.10444178046E+04 -0.92145722178E+03  0.57781685532E+03  0.15079006236E+04  0.10100000352E+00 0. -1.
</event>
<event>
 5   0  0.1366235E-07  0.2801906E+04  0.7818609E-02  0.8302677E-01
        1   -1    0    0  501    0  0.00000000000E+00  0.00000000000E+00  0.22416615364E+04  0.22416615364E+04  0.50400001928E-02 0. -1.
       -1   -1    0    0    0  501  0.00000000000E+00  0.00000000000E+00 -0.87554228903E+03  0.87554228904E+03  0.50400001928E-02 0.  1.
    10030    2    1    2    0    0  0.00000000000E+00  0.00000000000E+00  0.13661192474E+04  0.31172038254E+04  0.28019061175E+04 0.  0.
        2    1    3    3  502    0 -0.99502179774E+03  0.11245456653E+02  0.17801711106E+04  0.20394126658E+04  0.25500000920E-02 0.  1.
       -2    1    3    3    0  502  0.99502179774E+03 -0.11245456653E+02 -0.41405186328E+03  0.10777911596E+04  0.25500000920E-02 0. -1.
</event>
<event>
 5   0  0.1374680E-07  0.2800620E+04  0.7818609E-02  0.8303076E-01
        1   -1    0    0  501    0  0.00000000000E+00  0.00000000000E+00  0.17420374048E+04  0.17420374048E+04  0.50400001928E-02 0. -1.
       -1   -1    0    0    0  501  0.00000000000E+00  0.00000000000E+00 -0.11256176810E+04  0.11256176810E+04  0.50400001928E-02 0.  1.
    10030    2    1    2    0    0  0.00000000000E+00  0.00000000000E+00  0.61641972378E+03  0.28676550857E+04  0.28006200055E+04 0.  0.
        3    1    3    3  502    0 -0.11503668672E+04 -0.52108438164E+03  0.92766582953E+03  0.15669833322E+04  0.10100000352E+00 0. -1.
       -3    1    3    3    0  502  0.11503668672E+04  0.52108438164E+03 -0.31124610575E+03  0.13006717535E+04  0.10100000352E+00 0.  1.
</event>
<event>
 5   0  0.3557628E-07  0.2802315E+04  0.7818609E-02  0.8302550E-01
        2   -1    0    0  501    0  0.00000000000E+00  0.00000000000E+00  0.16624631315E+04  0.16624631315E+04  0.25500000920E-02 0.  1.
       -2   -1    0    0    0  501  0.00000000000E+00  0.00000000000E+00 -0.11809239059E+04  0.11809239059E+04  0.25500000920E-02 0. -1.
    10030    2    1    2    0    0  0.00000000000E+00  0.00000000000E+00  0.48153922562E+03  0.28433870374E+04  0.28023150820E+04 0.  0.
        5    1    3    3  502    0 -0.59799473097E+03  0.12911406712E+03  0.15197810694E+04  0.16382993407E+04  0.46999998093E+01 0.  1.
       -5    1    3    3    0  502  0.59799473097E+03 -0.12911406712E+03 -0.10382418438E+04  0.12050876967E+04  0.46999998093E+01 0. -1.
</event>
<event>
 5   0  0.3522569E-07  0.2800553E+04  0.7818609E-02  0.8303097E-01
       -2   -1    0    0    0  501  0.00000000000E+00  0.00000000000E+00  0.12333849789E+04  0.12333849789E+04  0.25500000920E-02 0.  1.
        2   -1    0    0  501    0  0.00000000000E+00  0.00000000000E+00 -0.15897505676E+04  0.15897505676E+04  0.25500000920E-02 0. -1.
    10030    2    1    2    0    0  0.00000000000E+00  0.00000000000E+00 -0.35636558867E+03  0.28231355464E+04  0.28005531384E+04 0.  0.
        1    1    3    3  502    0  0.13408591766E+04 -0.36269270371E+02 -0.58336375247E+03  0.14627139362E+04  0.50400001928E-02 0. -1.
       -1    1    3    3    0  502 -0.13408591766E+04  0.36269270371E+02  0.22699816379E+03  0.13604216103E+04  0.50400001928E-02 0.  1.
</event>
<event>
 5   0  0.1346049E-07  0.2788335E+04  0.7818609E-02  0.8306899E-01
       -1   -1    0    0    0  501  0.00000000000E+00  0.00000000000E+00  0.17295421539E+04  0.17295421539E+04  0.50400001928E-02 0. -1.
        1   -1    0    0  501    0  0.00000000000E+00  0.00000000000E+00 -0.11238249113E+04  0.11238249113E+04  0.50400001928E-02 0.  1.
    10030    2    1    2    0    0  0.00000000000E+00  0.00000000000E+00  0.60571724266E+03  0.28533670652E+04  0.27883346698E+04 0.  0.
        1    1    3    3  502    0 -0.12501612539E+04 -0.28123285247E+03  0.86494852404E+03  0.15460048601E+04  0.50400001928E-02 0. -1.
       -1    1    3    3    0  502  0.12501612539E+04  0.28123285247E+03 -0.25923128139E+03  0.13073622051E+04  0.50400001928E-02 0.  1.
</event>
<event>
 5   0  0.3571498E-07  0.2799752E+04  0.7818609E-02  0.8303345E-01
       -2   -1    0    0    0  501  0.00000000000E+00  0.00000000000E+00  0.92507817677E+03  0.92507817678E+03  0.25500000920E-02 0. -1.
        2   -1    0    0  501    0  0.00000000000E+00  0.00000000000E+00 -0.21183652561E+04  0.21183652561E+04  0.25500000920E-02 0.  1.
    10030    2    1    2    0    0  0.00000000000E+00  0.00000000000E+00 -0.11932870794E+04  0.30434434329E+04  0.27997524668E+04 0.  0.
        2    1    3    3  502    0 -0.44697697946E+03 -0.29227417711E+02  0.84507290429E+03  0.95644700621E+03  0.25500000920E-02 0. -1.
       -2    1    3    3    0  502  0.44697697946E+03  0.29227417711E+02 -0.20383599837E+04  0.20869964267E+04  0.25500000920E-02 0.  1.
</event>
<event>
 5   0  0.3557628E-07  0.2797942E+04  0.7818609E-02  0.8303908E-01
       -2   -1    0    0    0  501  0.00000000000E+00  0.00000000000E+00  0.14268169530E+04  0.14268169530E+04  0.25500000920E-02 0. -1.
        2   -1    0    0  501    0  0.00000000000E+00  0.00000000000E+00 -0.13716686670E+04  0.13716686670E+04  0.25500000920E-02 0.  1.
    10030    2    1    2    0    0  0.00000000000E+00  0.00000000000E+00  0.55148286038E+02  0.27984856200E+04  0.27979421781E+04 0.  0.
        5    1    3    3  502    0 -0.10400343926E+03  0.13768847342E+04 -0.19712418507E+03  0.13948147981E+04  0.46999998093E+01 0.  1.
       -5    1    3    3    0  502  0.10400343926E+03 -0.13768847342E+04  0.25227247111E+03  0.14036708219E+04  0.46999998093E+01 0. -1.
</event>
<event>
 5   0  0.1366235E-07  0.2800084E+04  0.7818609E-02  0.8303242E-01
       -1   -1    0    0    0  501  0.00000000000E+00  0.00000000000E+00  0.98047582678E+03  0.98047582679E+03  0.50400001928E-02 0. -1.
        1   -1    0    0  501    0  0.00000000000E+00  0.00000000000E+00 -0.19991498728E+04  0.19991498728E+04  0.50400001928E-02 0.  1.
    10030    2    1    2    0    0  0.00000000000E+00  0.00000000000E+00 -0.10186740461E+04  0.29796256996E+04  0.28000843733E+04 0.  0.
        2    1    3    3  502    0  0.13808930235E+04 -0.18123603506E+03 -0.35732763716E+03  0.14378439008E+04  0.25500000920E-02 0.  1.
       -2    1    3    3    0  502 -0.13808930235E+04  0.18123603506E+03 -0.66134640890E+03  0.15417817989E+04  0.25500000920E-02 0. -1.
</event>
<event>
 5   0  0.3571498E-07  0.2802721E+04  0.7818609E-02  0.8302424E-01
       -2   -1    0    0    0  501  0.00000000000E+00  0.00000000000E+00  0.10712373390E+04  0.10712373390E+04  0.25500000920E-02 0.  1.
        2   -1    0    0  501    0  0.00000000000E+00  0.00000000000E+00 -0.18332175799E+04  0.18332175799E+04  0.25500000920E-02 0. -1.
    10030    2    1    2    0    0  0.00000000000E+00  0.00000000000E+00 -0.76198024087E+03  0.29044549189E+04  0.28027209080E+04 0.  0.
        2    1    3    3  502    0  0.49221316972E+03  0.31563446979E+03 -0.17007607427E+04  0.17984676886E+04  0.25500000920E-02 0. -1.
       -2    1    3    3    0  502 -0.49221316972E+03 -0.31563446979E+03  0.93878050183E+03  0.11059872303E+04  0.25500000920E-02 0.  1.
</event>
<event>
 5   0  0.3502141E-07  0.2798358E+04  0.7818609E-02  0.8303778E-01
       -2   -1    0    0    0  501  0.00000000000E+00  0.00000000000E+00  0.11520510505E+04  0.11520510505E+04  0.25500000920E-02 0.  1.
        2   -1    0    0  501    0  0.00000000000E+00  0.00000000000E+00 -0.16993187131E+04  0.16993187131E+04  0.25500000920E-02 0. -1.
    10030    2    1    2    0    0  0.00000000000E+00  0.00000000000E+00 -0.54726766266E+03  0.28513697636E+04  0.27983580247E+04 0.  0.
        3    1    3    3  502    0  0.12103953433E+04 -0.27660765160E+03 -0.93093810332E+03  0.15518422737E+04  0.10100000352E+00 0. -1.
       -3    1    3    3    0  502 -0.12103953433E+04  0.27660765160E+03  0.38367044065E+03  0.12995274900E+04  0.10100000352E+00 0.  1.
</event>
<event>
 5   0  0.1173363E-07  0.2797900E+04  0.7818609E-02  0.8303921E-01
       -3   -1    0    0    0  501  0.00000000000E+00  0.00000000000E+00  0.18733940511E+04  0.18733940538E+04  0.10100000352E+00 0.  1.
        3   -1    0    0  501    0  0.00000000000E+00  0.00000000000E+00 -0.10446608570E+04  0.10446608619E+04  0.10100000352E+00 0. -1.
    10030    2    1    2    0    0  0.00000000000E+00  0.00000000000E+00  0.82873319412E+03  0.29180549157E+04  0.27979002455E+04 0.  0.
        1    1    3    3  502    0  0.14936978158E+03 -0.45044687865E+03  0.17868783939E+04  0.18488234412E+04  0.50400001928E-02 0.  1.
       -1    1    3    3    0  502 -0.14936978158E+03  0.45044687865E+03 -0.95814519977E+03  0.10692314745E+04  0.50400001928E-02 0. -1.
</event>
<event>
 5   0  0.1361741E-07  0.2800077E+04  0.7818609E-02  0.8303244E-01
       -1   -1    0    0    0  501  0.00000000000E+00  0.00000000000E+00  0.14079858365E+04  0.14079858365E+04  0.50400001928E-02 0.  1.
        1   -1    0    0  501    0  0.00000000000E+00  0.00000000000E+00 -0.13921362332E+04  0.13921362332E+04  0.50400001928E-02 0. -1.
    10030    2    1    2    0    0  0.00000000000E+00  0.00000000000E+00  0.15849603332E+02  0.28001220697E+04  0.28000772124E+04 0.  0.
        5    1    3    3  502    0  0.13672581136E+03  0.32741608487E+03  0.13622694907E+04  0.14077270671E+04  0.46999998093E+01 0.  1.
       -5    1    3    3    0  502 -0.13672581136E+03 -0.32741608487E+03 -0.13464198874E+04  0.13923950026E+04  0.46999998093E+01 0. -1.
</event>
<event>
 5   0  0.3522569E-07  0.2799303E+04  0.7818609E-02  0.8303485E-01
        2   -1    0    0  501    0  0.00000000000E+00  0.00000000000E+00  0.13723014501E+04  0.13723014501E+04  0.25500000920E-02 0.  1.
       -2   -1    0    0    0  501  0.00000000000E+00  0.00000000000E+00 -0.14275462863E+04  0.14275462863E+04  0.25500000920E-02 0. -1.
    10030    2    1    2    0    0  0.00000000000E+00  0.00000000000E+00 -0.55244836201E+02  0.27998477364E+04  0.27993026551E+04 0.  0.
        1    1    3    3  502    0  0.31801080527E+03 -0.37317995924E+03  0.12835980264E+04  0.13740516903E+04  0.50400001928E-02 0.  1.
       -1    1    3    3    0  502 -0.31801080527E+03  0.37317995924E+03 -0.13388428626E+04  0.14257960461E+04  0.50400001928E-02 0. -1.
</event>
<event>
 5   0  0.1357902E-07  0.2802618E+04  0.7818609E-02  0.8302456E-01
       -1   -1    0    0    0  501  0.00000000000E+00  0.00000000000E+00  0.92508052681E+03  0.92508052683E+03  0.50400001928E-02 0. -1.
        1   -1    0    0  501    0  0.00000000000E+00  0.00000000000E+00 -0.21226978591E+04  0.21226978592E+04  0.50400001928E-02 0.  1.
    10030    2    1    2    0    0  0.00000000000E+00  0.00000000000E+00 -0.11976173323E+04  0.30477783860E+04  0.28026176720E+04 0.  0.
        4    1    3    3  502    0 -0.18530315073E+03  0.81942405448E+03  0.62084835300E+03  0.10446278424E+04  0.12699999809E+01 0. -1.
       -4    1    3    3    0  502  0.18530315073E+03 -0.81942405448E+03 -0.18184656853E+04  0.20031505436E+04  0.12699999809E+01 0.  1.
</event>
<event>
 5   0  0.1366235E-07  0.2801844E+04  0.7818609E-02  0.8302696E-01
       -1   -1    0    0    0  501  0.00000000000E+00  0.00000000000E+00  0.15586420377E+04  0.15586420378E+04  0.50400001928E-02 0.  1.
        1   -1    0    0  501    0  0.00000000000E+00  0.00000000000E+00 -0.12591621730E+04  0.12591621730E+04  0.50400001928E-02 0. -1.
    10030    2    1    2    0    0  0.00000000000E+00  0.00000000000E+00  0.29947986476E+03  0.28178042108E+04  0.28018444605E+04 0.  0.
        2    1    3    3  502    0  0.43032425814E+03  0.34000803041E+02  0.14900911129E+04  0.15513563571E+04  0.25500000920E-02 0.  1.
       -2    1    3    3    0  502 -0.43032425814E+03 -0.34000803041E+02 -0.11906112482E+04  0.12664478537E+04  0.25500000920E-02 0. -1.
</event>
<event>
 5   0  0.3406920E-07  0.2800087E+04  0.7818609E-02  0.8303241E-01
       -2   -1    0    0    0  501  0.00000000000E+00  0.00000000000E+00  0.90670571415E+03  0.90670571416E+03  0.25500000920E-02 0. -1.
        2   -1    0    0  501    0  0.00000000000E+00  0.00000000000E+00 -0.21618064256E+04  0.21618064256E+04  0.25500000920E-02 0.  1.
    10030    2    1    2    0    0  0.00000000000E+00  0.00000000000E+00 -0.12551007115E+04  0.30685121398E+04  0.28000873122E+04 0.  0.
        4    1    3    3  502    0  0.79850988404E+03 -0.78619252922E+03  0.29219403410E+03  0.11580568615E+04  0.12699999809E+01 0. -1.
       -4    1    3    3    0  502 -0.79850988404E+03  0.78619252922E+03 -0.15472947456E+04  0.19104552783E+04  0.12699999809E+01 0.  1.
</event>
<event>
 5   0  0.3571498E-07  0.2800695E+04  0.7818609E-02  0.8303053E-01
       -2   -1    0    0    0  501  0.00000000000E+00  0.00000000000E+00  0.77963957806E+03  0.77963957806E+03  0.25500000920E-02 0. -1.
        2   -1    0    0  501    0  0.00000000000E+00  0.00000000000E+00 -0.25152295630E+04  0.25152295630E+04  0.25500000920E-02 0.  1.
    10030    2    1    2    0    0  0.00000000000E+00  0.00000000000E+00 -0.17355899849E+04  0.32948691411E+04  0.28006945676E+04 0.  0.
        2    1    3    3  502    0 -0.10488453883E+04  0.92685825227E+03 -0.91811677962E+03  0.16739418417E+04  0.25500000920E-02 0. -1.
       -2    1    3    3    0  502  0.10488453883E+04 -0.92685825227E+03 -0.81747320532E+03  0.16209272994E+04  0.25500000920E-02 0.  1.
</event>
<event>
 5   0  0.3502141E-07  0.2800028E+04  0.7818609E-02  0.8303260E-01
       -2   -1    0    0    0  501  0.00000000000E+00  0.00000000000E+00  0.13351067151E+04  0.13351067151E+04  0.25500000920E-02 0.  1.
        2   -1    0    0  501    0  0.00000000000E+00  0.00000000000E+00 -0.14680772395E+04  0.14680772395E+04  0.25500000920E-02 0. -1.
    10030    2    1    2    0    0  0.00000000000E+00  0.00000000000E+00 -0.13297052436E+03  0.28031839546E+04  0.28000284147E+04 0.  0.
        3    1    3    3  502    0 -0.40061009302E+03  0.86190922515E+03  0.96261473504E+03  0.13527760707E+04  0.10100000352E+00 0.  1.
       -3    1    3    3    0  502  0.40061009302E+03 -0.86190922515E+03 -0.10955852594E+04  0.14504078840E+04  0.10100000352E+00 0. -1.
</event>
<event>
 5   0  0.1366235E-07  0.2802463E+04  0.7818609E-02  0.8302504E-01
        1   -1    0    0  501    0  0.00000000000E+00  0.00000000000E+00  0.20082521751E+04  0.20082521751E+04  0.50400001928E-02 0. -1.
       -1   -1    0    0    0  501  0.00000000000E+00  0.00000000000E+00 -0.97769086207E+03  0.97769086209E+03  0.50400001928E-02 0.  1.
    10030    2    1    2    0    0  0.00000000000E+00  0.00000000000E+00  0.10305613130E+04  0.29859430372E+04  0.28024630598E+04 0.  0.
        2    1    3    3  502    0  0.61998978387E+03  0.21782200557E+03  0.18338912940E+04  0.19480736733E+04  0.25500000920E-02 0. -1.
       -2    1    3    3    0  502 -0.61998978387E+03 -0.21782200557E+03 -0.80332998098E+03  0.10378693639E+04  0.25500000920E-02 0.  1.
</event>
<event>
 5   0  0.3406920E-07  0.2799930E+04  0.7818609E-02  0.8303290E-01
        2   -1    0    0  501    0  0.00000000000E+00  0.00000000000E+00  0.12491025874E+04  0.12491025874E+04  0.25500000920E-02 0. -1.
       -2   -1    0    0    0  501  0.00000000000E+00  0.00000000000E+00 -0.15690481649E+04  0.15690481649E+04  0.25500000920E-02 0.  1.
    10030    2    1    2    0    0  0.00000000000E+00  0.00000000000E+00 -0.31994557754E+03  0.28181507523E+04  0.27999300866E+04 0.  0.
        4    1    3    3  502    0 -0.10305429181E+04 -0.85666899292E+02 -0.11097997164E+04  0.15169095382E+04  0.12699999809E+01 0.  1.
       -4    1    3    3    0  502  0.10305429181E+04  0.85666899292E+02  0.78985413883E+03  0.13012412141E+04  0.12699999809E+01 0. -1.
</event>
<event>
 5   0  0.3502141E-07  0.2799075E+04  0.7818609E-02  0.8303556E-01
        2   -1    0    0  501    0  0.00000000000E+00  0.00000000000E+00  0.20426580168E+04  0.20426580168E+04  0.25500000920E-02 0. -1.
       -2   -1    0    0    0  501  0.00000000000E+00  0.00000000000E+00 -0.95890026917E+03  0.95890026917E+03  0.25500000920E-02 0.  1.
    10030    2    1    2    0    0  0.00000000000E+00  0.00000000000E+00  0.10837577476E+04  0.30015582860E+04  0.27990750773E+04 0.  0.
        3    1    3    3  502    0 -0.12662114318E+04  0.38624188344E+03  0.10288568760E+04  0.16766098724E+04  0.10100000352E+00 0. -1.
       -3    1    3    3    0  502  0.12662114318E+04 -0.38624188344E+03  0.54900871577E+02  0.13249484135E+04  0.10100000352E+00 0.  1.
</event>
<event>
 5   0  0.1374680E-07  0.2799919E+04  0.7818609E-02  0.8303293E-01
       -1   -1    0    0    0  501  0.00000000000E+00  0.00000000000E+00  0.21358570564E+04  0.21358570564E+04  0.50400001928E-02 0.  1.
        1   -1    0    0  501    0  0.00000000000E+00  0.00000000000E+00 -0.91761145227E+03  0.91761145228E+03  0.50400001928E-02 0. -1.
    10030    2    1    2    0    0  0.00000000000E+00  0.00000000000E+00  0.12182456042E+04  0.30534685087E+04  0.27999192098E+04 0.  0.
        3    1    3    3  502    0  0.19661420311E+03 -0.13068347979E+04  0.10532307950E+03  0.13257327390E+04  0.10100000352E+00 0. -1.
       -3    1    3    3    0  502 -0.19661420311E+03  0.13068347979E+04  0.11129225247E+04  0.17277357697E+04  0.10100000352E+00 0.  1.
</event>
<event>
 5   0  0.3502141E-07  0.2801088E+04  0.7818609E-02  0.8302931E-01
        2   -1    0    0  501    0  0.00000000000E+00  0.00000000000E+00  0.14962178365E+04  0.14962178365E+04  0.25500000920E-02 0.  1.
       -2   -1    0    0    0  501  0.00000000000E+00  0.00000000000E+00 -0.13109882958E+04  0.13109882958E+04  0.25500000920E-02 0. -1.
    10030    2    1    2    0    0  0.00000000000E+00  0.00000000000E+00  0.18522954067E+03  0.28072061323E+04  0.28010884110E+04 0.  0.
        3    1    3    3  502    0  0.13029748128E+04  0.33388724689E+03 -0.29849390214E+03  0.13777963115E+04  0.10100000352E+00 0. -1.
       -3    1    3    3    0  502 -0.13029748128E+04 -0.33388724689E+03  0.48372344281E+03  0.14294098207E+04  0.10100000352E+00 0.  1.
</event>
<event>
 5   0  0.1366235E-07  0.2799732E+04  0.7818609E-02  0.8303352E-01
       -1   -1    0    0    0  501  0.00000000000E+00  0.00000000000E+00  0.80679976166E+03  0.80679976168E+03  0.50400001928E-02 0.  1.
        1   -1    0    0  501    0  0.00000000000E+00  0.00000000000E+00 -0.24288856540E+04  0.24288856540E+04  0.50400001928E-02 0. -1.
    10030    2    1    2    0    0  0.00000000000E+00  0.00000000000E+00 -0.16220858924E+04  0.32356854157E+04  0.27997316777E+04 0.  0.
        2    1    3    3  502    0 -0.79376958751E+02  0.19446538560E+03  0.78848465363E+03  0.81598133360E+03  0.25500000920E-02 0.  1.
       -2    1    3    3    0  502  0.79376958751E+02 -0.19446538560E+03 -0.24105705460E+04  0.24197040821E+04  0.25500000920E-02 0. -1.
</event>
<event>
 5   0  0.1346049E-07  0.2799590E+04  0.7818609E-02  0.8303396E-01
        1   -1    0    0  501    0  0.00000000000E+00  0.00000000000E+00  0.89896156331E+03  0.89896156332E+03  0.50400001928E-02 0.  1.
       -1   -1    0    0    0  501  0.00000000000E+00  0.00000000000E+00 -0.21796552082E+04  0.21796552082E+04  0.50400001928E-02 0. -1.
    10030    2    1    2    0    0  0.00000000000E+00  0.00000000000E+00 -0.12806936449E+04  0.30786167715E+04  0.27995901510E+04 0.  0.
        1    1    3    3  502    0 -0.88634268379E+03 -0.67600351718E+03 -0.15713966829E+04  0.19266218216E+04  0.50400001928E-02 0. -1.
       -1    1    3    3    0  502  0.88634268379E+03  0.67600351718E+03  0.29070303801E+03  0.11519949499E+04  0.50400001928E-02 0.  1.
</event>
<event>
 5   0  0.3406920E-07  0.2799355E+04  0.7818609E-02  0.8303469E-01
        2   -1    0    0  501    0  0.00000000000E+00  0.00000000000E+00  0.29071023342E+04  0.29071023342E+04  0.25500000920E-02 0. -1.
       -2   -1    0    0    0  501  0.00000000000E+00  0.00000000000E+00 -0.67390009248E+03  0.67390009248E+03  0.25500000920E-02 0.  1.
    10030    2    1    2    0    0  0.00000000000E+00  0.00000000000E+00  0.22332022418E+04  0.35810024267E+04  0.27993545913E+04 0.  0.
        4    1    3    3  502    0  0.16779971569E+03 -0.13099688576E+04  0.52355989911E+03  0.14206659471E+04  0.12699999809E+01 0. -1.
       -4    1    3    3    0  502 -0.16779971569E+03  0.13099688576E+04  0.17096423426E+04  0.21603364796E+04  0.12699999809E+01 0.  1.
</event>
<event>
 5   0  0.3406920E-07  0.2801646E+04  0.7818609E-02  0.8302757E-01
       -2   -1    0    0    0  501  0.00000000000E+00  0.00000000000E+00  0.16916419485E+04  0.16916419485E+04  0.25500000920E-02 0. -1.
        2   -1    0    0  501    0  0.00000000000E+00  0.00000000000E+00 -0.11600004469E+04  0.11600004469E+04  0.25500000920E-02 0.  1.
    10030    2    1    2    0    0  0.00000000000E+00  0.00000000000E+00  0.53164150155E+03  0.28516423954E+04  0.28016462420E+04 0.  0.
        4    1    3    3  502    0  0.30938526313E+03 -0.14765284841E+03  0.16482866678E+04  0.16835590744E+04  0.12699999809E+01 0. -1.
       -4    1    3    3    0  502 -0.30938526313E+03  0.14765284841E+03 -0.11166451663E+04  0.11680833211E+04  0.12699999809E+01 0.  1.
</event>
<event>
 5   0  0.3406920E-07  0.2798633E+04  0.7818609E-02  0.8303693E-01
        2   -1    0    0  501    0  0.00000000000E+00  0.00000000000E+00  0.27887421900E+04  0.27887421900E+04  0.25500000920E-02 0.  1.
       -2   -1    0    0    0  501  0.00000000000E+00  0.00000000000E+00 -0.70213950204E+03  0.70213950204E+03  0.25500000920E-02 0. -1.
    10030    2    1    2    0    0  0.00000000000E+00  0.00000000000E+00  0.20866026879E+04  0.34908816920E+04  0.27986325608E+04 0.  0.
        4    1    3    3  502    0  0.40608905858E+03 -0.82489304133E+03 -0.27247985190E+03  0.95895971538E+03  0.12699999809E+01 0. -1.
       -4    1    3    3    0  502 -0.40608905858E+03  0.82489304133E+03  0.23590825398E+04  0.25319219766E+04  0.12699999809E+01 0.  1.
</event>
<event>
 5   0  0.1346049E-07  0.2800643E+04  0.7818609E-02  0.8303069E-01
        1   -1    0    0  501    0  0.00000000000E+00  0.00000000000E+00  0.15890752079E+04  0.15890752079E+04  0.50400001928E-02 0. -1.
       -1   -1    0    0    0  501  0.00000000000E+00  0.00000000000E+00 -0.12339883526E+04  0.12339883527E+04  0.50400001928E-02 0.  1.
    10030    2    1    2    0    0  0.00000000000E+00  0.00000000000E+00  0.35508685528E+03  0.28230635606E+04  0.28006429962E+04 0.  0.
        1    1    3    3  502    0 -0.14851575907E+03  0.12293376514E+04  0.83666828216E+03  0.14944369529E+04  0.50400001928E-02 0. -1.
       -1    1    3    3    0  502  0.14851575907E+03 -0.12293376514E+04 -0.48158142689E+03  0.13286266077E+04  0.50400001928E-02 0.  1.
</event>
<event>
 5   0  0.3502141E-07  0.2800462E+04  0.7818609E-02  0.8303125E-01
        2   -1    0    0  501    0  0.00000000000E+00  0.00000000000E+00  0.23305521418E+04  0.23305521418E+04  0.25500000920E-02 0. -1.
       -2   -1    0    0    0  501  0.00000000000E+00  0.00000000000E+00 -0.84127982063E+03  0.84127982063E+03  0.25500000920E-02 0.  1.
    10030    2    1    2    0    0  0.00000000000E+00  0.00000000000E+00  0.14892723212E+04  0.31718319624E+04  0.28004617389E+04 0.  0.
        3    1    3    3  502    0  0.68658023434E+03 -0.72597158083E+03 -0.36637280779E+03  0.10642632188E+04  0.10100000352E+00 0.  1.
       -3    1    3    3    0  502 -0.68658023434E+03  0.72597158083E+03  0.18556451290E+04  0.21075687436E+04  0.10100000352E+00 0. -1.
</event>
<event>
 5   0  0.3522569E-07  0.2793423E+04  0.7818609E-02  0.8305313E-01
        2   -1    0    0  501    0  0.00000000000E+00  0.00000000000E+00  0.21108755747E+04  0.21108755747E+04  0.25500000920E-02 0.  1.
       -2   -1    0    0    0  501  0.00000000000E+00  0.00000000000E+00 -0.92416754632E+03  0.92416754632E+03  0.25500000920E-02 0. -1.
    10030    2    1    2    0    0  0.00000000000E+00  0.00000000000E+00  0.11867080284E+04  0.30350431210E+04  0.27934227754E+04 0.  0.
        1    1    3    3  502    0 -0.85182378479E+03 -0.88886002981E+03 -0.12334384344E+03  0.12372912416E+04  0.50400001928E-02 0. -1.
       -1    1    3    3    0  502  0.85182378479E+03  0.88886002981E+03  0.13100518718E+04  0.17977518794E+04  0.50400001928E-02 0.  1.
</event>
<event>
 5   0  0.1366235E-07  0.2799910E+04  0.7818609E-02  0.8303296E-01
       -1   -1    0    0    0  501  0.00000000000E+00  0.00000000000E+00  0.13725882471E+04  0.13725882471E+04  0.50400001928E-02 0. -1.
        1   -1    0    0  501    0  0.00000000000E+00  0.00000000000E+00 -0.14278670431E+04  0.14278670431E+04  0.50400001928E-02 0.  1.
    10030    2    1    2    0    0  0.00000000000E+00  0.00000000000E+00 -0.55278796014E+02  0.28004552902E+04  0.27999096570E+04 0.  0.
        2    1    3    3  502    0  0.11030723513E+04  0.67559918520E+03  0.50788127534E+03  0.13896568861E+04  0.25500000920E-02 0. -1.
       -2    1    3    3    0  502 -0.11030723513E+04 -0.67559918520E+03 -0.56316007135E+03  0.14107984041E+04  0.25500000920E-02 0.  1.
</event>
<event>
 5   0  0.1346049E-07  0.2798503E+04  0.7818609E-02  0.8303733E-01
        1   -1    0    0  501    0  0.00000000000E+00  0.00000000000E+00  0.17088435632E+04  0.17088435632E+04  0.50400001928E-02 0.  1.
       -1   -1    0    0    0  501  0.00000000000E+00  0.00000000000E+00 -0.11457481194E+04  0.11457481194E+04  0.50400001928E-02 0. -1.
    10030    2    1    2    0    0  0.00000000000E+00  0.00000000000E+00  0.56309544386E+03  0.28545916826E+04  0.27985026702E+04 0.  0.
        1    1    3    3  502    0  0.78459773596E+03  0.11572503883E+04  0.33817827589E+03  0.14384667583E+04  0.50400001928E-02 0.  1.
       -1    1    3    3    0  502 -0.78459773596E+03 -0.11572503883E+04  0.22491716797E+03  0.14161249242E+04  0.50400001928E-02 0. -1.
</event>
<event>
 5   0  0.1366235E-07  0.2799818E+04  0.7818609E-02  0.8303325E-01
        1   -1    0    0  501    0  0.00000000000E+00  0.00000000000E+00  0.99900124631E+03  0.99900124633E+03  0.50400001928E-02 0. -1.
       -1   -1    0    0    0  501  0.00000000000E+00  0.00000000000E+00 -0.19617038598E+04  0.19617038599E+04  0.50400001928E-02 0.  1.
    10030    2    1    2    0    0  0.00000000000E+00  0.00000000000E+00 -0.96270261353E+03  0.29607051062E+04  0.27998175661E+04 0.  0.
        2    1    3    3  502    0  0.10457178592E+04  0.80740954251E+03 -0.97088795366E+03  0.16395302464E+04  0.25500000920E-02 0.  1.
       -2    1    3    3    0  502 -0.10457178592E+04 -0.80740954251E+03  0.81853401226E+01  0.13211748598E+04  0.25500000920E-02 0. -1.
</event>
<event>
 5   0  0.3502141E-07  0.2800677E+04  0.7818609E-02  0.8303058E-01
        2   -1    0    0  501    0  0.00000000000E+00  0.00000000000E+00  0.20914781897E+04  0.20914781897E+04  0.25500000920E-02 0. -1.
       -2   -1    0    0    0  501  0.00000000000E+00  0.00000000000E+00 -0.93758959540E+03  0.93758959540E+03  0.25500000920E-02 0.  1.
    10030    2    1    2    0    0  0.00000000000E+00  0.00000000000E+00  0.11538885943E+04  0.30290677851E+04  0.28006771965E+04 0.  0.
        3    1    3    3  502    0 -0.41047668200E+03 -0.85255867860E+03 -0.53951578566E+03  0.10892312427E+04  0.10100000352E+00 0.  1.
       -3    1    3    3    0  502  0.41047668200E+03  0.85255867860E+03  0.16934043800E+04  0.19398365424E+04  0.10100000352E+00 0. -1.
</event>
<event>
 5   0  0.1366235E-07  0.2799738E+04  0.7818609E-02  0.8303350E-01
       -1   -1    0    0    0  501  0.00000000000E+00  0.00000000000E+00  0.10998447880E+04  0.10998447880E+04  0.50400001928E-02 0.  1.
        1   -1    0    0  501    0  0.00000000000E+00  0.00000000000E+00 -0.17817360990E+04  0.17817360990E+04  0.50400001928E-02 0. -1.
    10030    2    1    2    0    0  0.00000000000E+00  0.00000000000E+00 -0.68189131095E+03  0.28815808870E+04  0.27997379607E+04 0.  0.
        2    1    3    3  502    0  0.61908178125E+03 -0.29150600156E+03  0.91598058791E+03  0.11433540301E+04  0.25500000920E-02 0.  1.
       -2    1    3    3    0  502 -0.61908178125E+03  0.29150600156E+03 -0.15978718989E+04  0.17382268569E+04  0.25500000920E-02 0. -1.
</event>
<event>
 5   0  0.3406920E-07  0.2800391E+04  0.7818609E-02  0.8303147E-01
        2   -1    0    0  501    0  0.00000000000E+00  0.00000000000E+00  0.14430244166E+04  0.14430244166E+04  0.25500000920E-02 0. -1.
       -2   -1    0    0    0  501  0.00000000000E+00  0.00000000000E+00 -0.13586380209E+04  0.13586380209E+04  0.25500000920E-02 0.  1.
    10030    2    1    2    0    0  0.00000000000E+00  0.00000000000E+00  0.84386395717E+02  0.28016624375E+04  0.28003912852E+04 0.  0.
        4    1    3    3  502    0 -0.92911066976E+03  0.88587878827E+03  0.60148037027E+03  0.14176770129E+04  0.12699999809E+01 0. -1.
       -4    1    3    3    0  502  0.92911066976E+03 -0.88587878827E+03 -0.51709397455E+03  0.13839854246E+04  0.12699999809E+01 0.  1.
</event>
<event>
 5   0  0.1374680E-07  0.2800999E+04  0.7818609E-02  0.8302958E-01
        1   -1    0    0  501    0  0.00000000000E+00  0.00000000000E+00  0.22606726301E+04  0.22606726301E+04  0.50400001928E-02 0.  1.
       -1   -1    0    0    0  501  0.00000000000E+00  0.00000000000E+00 -0.86761708440E+03  0.86761708442E+03  0.50400001928E-02 0. -1.
    10030    2    1    2    0    0  0.00000000000E+00  0.00000000000E+00  0.13930555457E+04  0.31282897145E+04  0.28009985335E+04 0.  0.
        3    1    3    3  502    0 -0.34042009244E+03  0.96725673156E+03  0.17618900241E+04  0.20385602496E+04  0.10100000352E+00 0.  1.
       -3    1    3    3    0  502  0.34042009244E+03 -0.96725673156E+03 -0.36883447837E+03  0.10897294649E+04  0.10100000352E+00 0. -1.
</event>
<event>
 5   0  0.1346049E-07  0.2797415E+04  0.7818609E-02  0.8304071E-01
        1   -1    0    0  501    0  0.00000000000E+00  0.00000000000E+00  0.25171530046E+04  0.25171530047E+04  0.50400001928E-02 0.  1.
       -1   -1    0    0    0  501  0.00000000000E+00  0.00000000000E+00 -0.77722052180E+03  0.77722052182E+03  0.50400001928E-02 0. -1.
    10030    2    1    2    0    0  0.00000000000E+00  0.00000000000E+00  0.17399324828E+04  0.32943735265E+04  0.27974152153E+04 0.  0.
        1    1    3    3  502    0 -0.30162110014E+03 -0.11299881013E+04  0.17734116130E+04  0.21243439331E+04  0.50400001928E-02 0. -1.
       -1    1    3    3    0  502  0.30162110014E+03  0.11299881013E+04 -0.33479130147E+02  0.11700295933E+04  0.50400001928E-02 0.  1.
</event>
<event>
 5   0  0.3406920E-07  0.2801926E+04  0.7818609E-02  0.8302671E-01
       -2   -1    0    0    0  501  0.00000000000E+00  0.00000000000E+00  0.74630549788E+03  0.74630549788E+03  0.25500000920E-02 0. -1.
        2   -1    0    0  501    0  0.00000000000E+00  0.00000000000E+00 -0.26298851034E+04  0.26298851034E+04  0.25500000920E-02 0.  1.
    10030    2    1    2    0    0  0.00000000000E+00  0.00000000000E+00 -0.18835796055E+04  0.33761906013E+04  0.28019262742E+04 0.  0.
        4    1    3    3  502    0  0.10047408768E+04 -0.89129790910E+03 -0.14219299523E+04  0.19559658981E+04  0.12699999809E+01 0.  1.
       -4    1    3    3    0  502 -0.10047408768E+04  0.89129790910E+03 -0.46164965320E+03  0.14202247032E+04  0.12699999809E+01 0. -1.
</event>
<event>
 5   0  0.3557628E-07  0.2800018E+04  0.7818609E-02  0.8303263E-01
        2   -1    0    0  501    0  0.00000000000E+00  0.00000000000E+00  0.19851505598E+04  0.19851505598E+04  0.25500000920E-02 0.  1.
       -2   -1    0    0    0  501  0.00000000000E+00  0.00000000000E+00 -0.98734346434E+03  0.98734346434E+03  0.25500000920E-02 0. -1.
    10030    2    1    2    0    0  0.00000000000E+00  0.00000000000E+00  0.99780709547E+03  0.29724940241E+04  0.28000181649E+04 0.  0.
        5    1    3    3  502    0  0.14977633130E+03  0.10484714516E+04  0.14708764949E+04  0.18125189896E+04  0.46999998093E+01 0.  1.
       -5    1    3    3    0  502 -0.14977633130E+03 -0.10484714516E+04 -0.47306939945E+03  0.11599750346E+04  0.46999998093E+01 0. -1.
</event>
<event>
 5   0  0.1366235E-07  0.2801723E+04  0.7818609E-02  0.8302734E-01
       -1   -1    0    0    0  501  0.00000000000E+00  0.00000000000E+00  0.17365022960E+04  0.17365022960E+04  0.50400001928E-02 0. -1.
        1   -1    0    0  501    0  0.00000000000E+00  0.00000000000E+00 -0.11300948209E+04  0.11300948209E+04  0.50400001928E-02 0.  1.
    10030    2    1    2    0    0  0.00000000000E+00  0.00000000000E+00  0.60640747507E+03  0.28665971169E+04  0.28017225067E+04 0.  0.
        2    1    3    3  502    0 -0.10836810826E+03 -0.13342288403E+04 -0.11927639166E+03  0.13439260035E+04  0.25500000920E-02 0.  1.
       -2    1    3    3    0  502  0.10836810826E+03  0.13342288403E+04  0.72568386673E+03  0.15226711134E+04  0.25500000920E-02 0. -1.
</event>
<event>
 5   0  0.1366235E-07  0.2788389E+04  0.7818609E-02  0.8306882E-01
        1   -1    0    0  501    0  0.00000000000E+00  0.00000000000E+00  0.10860928007E+04  0.10860928007E+04  0.50400001928E-02 0.  1.
       -1   -1    0    0    0  501  0.00000000000E+00  0.00000000000E+00 -0.17896987231E+04  0.17896987231E+04  0.50400001928E-02 0. -1.
    10030    2    1    2    0    0  0.00000000000E+00  0.00000000000E+00 -0.70360592235E+03  0.28757915238E+04  0.27883894266E+04 0.  0.
        2    1    3    3  502    0  0.53512302129E+03 -0.42464134668E+02 -0.16788434671E+04  0.17625763069E+04  0.25500000920E-02 0. -1.
       -2    1    3    3    0  502 -0.53512302129E+03  0.42464134668E+02  0.97523754471E+03  0.11132152170E+04  0.25500000920E-02 0.  1.
</event>
<event>
 5   0  0.1346049E-07  0.2799972E+04  0.7818609E-02  0.8303277E-01
        1   -1    0    0  501    0  0.00000000000E+00  0.00000000000E+00  0.17031999438E+04  0.17031999438E+04  0.50400001928E-02 0.  1.
       -1   -1    0    0    0  501  0.00000000000E+00  0.00000000000E+00 -0.11507521732E+04  0.11507521732E+04  0.50400001928E-02 0. -1.
    10030    2    1    2    0    0  0.00000000000E+00  0.00000000000E+00  0.55244777052E+03  0.28539521170E+04  0.27999721690E+04 0.  0.
        1    1    3    3  502    0 -0.18318591920E+03 -0.76359216668E+03 -0.90514214741E+03  0.11982956167E+04  0.50400001928E-02 0. -1.
       -1    1    3    3    0  502  0.18318591920E+03  0.76359216668E+03  0.14575899179E+04  0.16556565003E+04  0.50400001928E-02 0.  1.
</event>
<event>
 5   0  0.1361741E-07  0.2800729E+04  0.7818609E-02  0.8303042E-01
        1   -1    0    0  501    0  0.00000000000E+00  0.00000000000E+00  0.12421650358E+04  0.12421650358E+04  0.50400001928E-02 0.  1.
       -1   -1    0    0    0  501  0.00000000000E+00  0.00000000000E+00 -0.15787121949E+04  0.15787121950E+04  0.50400001928E-02 0. -1.
    10030    2    1    2    0    0  0.00000000000E+00  0.00000000000E+00 -0.33654715913E+03  0.28208772308E+04  0.28007292552E+04 0.  0.
        5    1    3    3  502    0  0.19268346142E+03  0.75963811244E+03  0.10006016680E+04  0.12709849590E+04  0.46999998093E+01 0.  1.
       -5    1    3    3    0  502 -0.19268346142E+03 -0.75963811244E+03 -0.13371488271E+04  0.15498922717E+04  0.46999998093E+01 0. -1.
</event>
<event>
 5   0  0.1374680E-07  0.2800110E+04  0.7818609E-02  0.8303234E-01
        1   -1    0    0  501    0  0.00000000000E+00  0.00000000000E+00  0.16983164300E+04  0.16983164300E+04  0.50400001928E-02 0.  1.
       -1   -1    0    0    0  501  0.00000000000E+00  0.00000000000E+00 -0.11541750834E+04  0.11541750834E+04  0.50400001928E-02 0. -1.
    10030    2    1    2    0    0  0.00000000000E+00  0.00000000000E+00  0.54414134652E+03  0.28524915134E+04  0.28001103602E+04 0.  0.
        3    1    3    3  502    0  0.58441928035E+03 -0.98976259523E+03  0.10863855549E+04  0.15815844822E+04  0.10100000352E+00 0.  1.
       -3    1    3    3    0  502 -0.58441928035E+03  0.98976259523E+03 -0.54224420842E+03  0.12709070312E+04  0.10100000352E+00 0. -1.
</event>
<event>
 5   0  0.3522569E-07  0.2814059E+04  0.7818609E-02  0.8298917E-01
       -2   -1    0    0    0  501  0.00000000000E+00  0.00000000000E+00  0.19011160002E+04  0.19011160002E+04  0.25500000920E-02 0. -1.
        2   -1    0    0  501    0  0.00000000000E+00  0.00000000000E+00 -0.10413529102E+04  0.10413529102E+04  0.25500000920E-02 0.  1.
    10030    2    1    2    0    0  0.00000000000E+00  0.00000000000E+00  0.85976308995E+03  0.29424689104E+04  0.28140594730E+04 0.  0.
        1    1    3    3  502    0 -0.21776501359E+03 -0.56387712265E+03  0.17584316978E+04  0.18594249236E+04  0.50400001928E-02 0. -1.
       -1    1    3    3    0  502  0.21776501359E+03  0.56387712265E+03 -0.89866860783E+03  0.10830439868E+04  0.50400001928E-02 0.  1.
</event>
<event>
 5   0  0.1361741E-07  0.2798922E+04  0.7818609E-02  0.8303603E-01
        1   -1    0    0  501    0  0.00000000000E+00  0.00000000000E+00  0.21758268657E+04  0.21758268657E+04  0.50400001928E-02 0.  1.
       -1   -1    0    0    0  501  0.00000000000E+00  0.00000000000E+00 -0.90011352358E+03  0.90011352360E+03  0.50400001928E-02 0. -1.
    10030    2    1    2    0    0  0.00000000000E+00  0.00000000000E+00  0.12757133421E+04  0.30759403893E+04  0.27989220688E+04 0.  0.
        5    1    3    3  502    0  0.39941120387E+03  0.12853256731E+04  0.21667928818E+03  0.13632913847E+04  0.46999998093E+01 0.  1.
       -5    1    3    3    0  502 -0.39941120387E+03 -0.12853256731E+04  0.10590340539E+04  0.17126490046E+04  0.46999998093E+01 0. -1.
</event>
<event>
 5   0  0.1346049E-07  0.2799958E+04  0.7818609E-02  0.8303281E-01
        1   -1    0    0  501    0  0.00000000000E+00  0.00000000000E+00  0.24644191502E+04  0.24644191502E+04  0.50400001928E-02 0.  1.
       -1   -1    0    0    0  501  0.00000000000E+00  0.00000000000E+00 -0.79529562837E+03  0.79529562839E+03  0.50400001928E-02 0. -1.
    10030    2    1    2    0    0  0.00000000000E+00  0.00000000000E+00  0.16691235218E+04  0.32597147786E+04  0.27999584116E+04 0.  0.
        1    1    3    3  502    0 -0.99599509004E+03 -0.98373676100E+03  0.81819894317E+03  0.16214788759E+04  0.50400001928E-02 0. -1.
       -1    1    3    3    0  502  0.99599509004E+03  0.98373676100E+03  0.85092457867E+03  0.16382359027E+04  0.50400001928E-02 0.  1.
</event>
<event>
 5   0  0.1374680E-07  0.2799283E+04  0.7818609E-02  0.8303491E-01
        1   -1    0    0  501    0  0.00000000000E+00  0.00000000000E+00  0.10665196874E+04  0.10665196874E+04  0.50400001928E-02 0.  1.
       -1   -1    0    0    0  501  0.00000000000E+00  0.00000000000E+00 -0.18368122084E+04  0.18368122084E+04  0.50400001928E-02 0. -1.
    10030    2    1    2    0    0  0.00000000000E+00  0.00000000000E+00 -0.77029252098E+03  0.29033318958E+04  0.27992830384E+04 0.  0.
        3    1    3    3  502    0 -0.76466954659E+03 -0.10567838314E+04  0.14114439949E+03  0.13120340443E+04  0.10100000352E+00 0.  1.
       -3    1    3    3    0  502  0.76466954659E+03  0.10567838314E+04 -0.91143692047E+03  0.15912978514E+04  0.10100000352E+00 0. -1.
</event>
<event>
 5   0  0.1357902E-07  0.2801395E+04  0.7818609E-02  0.8302835E-01
        1   -1    0    0  501    0  0.00000000000E+00  0.00000000000E+00  0.22346339816E+04  0.22346339816E+04  0.50400001928E-02 0.  1.
       -1   -1    0    0    0  501  0.00000000000E+00  0.00000000000E+00 -0.87797514882E+03  0.87797514884E+03  0.50400001928E-02 0. -1.
    10030    2    1    2    0    0  0.00000000000E+00  0.00000000000E+00  0.13566588328E+04  0.31126091304E+04  0.28013947259E+04 0.  0.
        4    1    3    3  502    0 -0.23366804018E+03 -0.71719351546E+03  0.19896937733E+04  0.21278745772E+04  0.12699999809E+01 0.  1.
       -4    1    3    3    0  502  0.23366804018E+03  0.71719351546E+03 -0.63303494053E+03  0.98473455330E+03  0.12699999809E+01 0. -1.
</event>
<event>
 5   0  0.1374680E-07  0.2799416E+04  0.7818609E-02  0.8303450E-01
        1   -1    0    0  501    0  0.00000000000E+00  0.00000000000E+00  0.12874275146E+04  0.12874275146E+04  0.50400001928E-02 0. -1.
       -1   -1    0    0    0  501  0.00000000000E+00  0.00000000000E+00 -0.15217812928E+04  0.15217812928E+04  0.50400001928E-02 0.  1.
    10030    2    1    2    0    0  0.00000000000E+00  0.00000000000E+00 -0.23435377822E+03  0.28092088074E+04  0.27994164446E+04 0.  0.
        3    1    3    3  502    0  0.15451185900E+03 -0.13022290824E+04  0.37393117774E+03  0.13636344941E+04  0.10100000352E+00 0.  1.
       -3    1    3    3    0  502 -0.15451185900E+03  0.13022290824E+04 -0.60828495596E+03  0.14455743133E+04  0.10100000352E+00 0. -1.
</event>
<event>
 5   0  0.3522569E-07  0.2799550E+04  0.7818609E-02  0.8303408E-01
       -2   -1    0    0    0  501  0.00000000000E+00  0.00000000000E+00  0.12755056842E+04  0.12755056842E+04  0.25500000920E-02 0. -1.
        2   -1    0    0  501    0  0.00000000000E+00  0.00000000000E+00 -0.15361510431E+04  0.15361510431E+04  0.25500000920E-02 0.  1.
    10030    2    1    2    0    0  0.00000000000E+00  0.00000000000E+00 -0.26064535883E+03  0.28116567273E+04  0.27995495261E+04 0.  0.
        1    1    3    3  502    0  0.19530912714E+03 -0.64720271185E+03 -0.13613283316E+04  0.15199446805E+04  0.50400001928E-02 0.  1.
       -1    1    3    3    0  502 -0.19530912714E+03  0.64720271185E+03  0.11006829728E+04  0.12917120468E+04  0.50400001928E-02 0. -1.
</event>
<event>
 5   0  0.3502141E-07  0.2796041E+04  0.7818609E-02  0.8304499E-01
       -2   -1    0    0    0  501  0.00000000000E+00  0.00000000000E+00  0.14564634371E+04  0.14564634371E+04  0.25500000920E-02 0.  1.
        2   -1    0    0  501    0  0.00000000000E+00  0.00000000000E+00 -0.13419222537E+04  0.13419222537E+04  0.25500000920E-02 0. -1.
    10030    2    1    2    0    0  0.00000000000E+00  0.00000000000E+00  0.11454118341E+03  0.27983856908E+04  0.27960405561E+04 0.  0.
        3    1    3    3  502    0  0.66551392317E+03 -0.25982057485E+03  0.12599627927E+04  0.14484204370E+04  0.10100000352E+00 0.  1.
       -3    1    3    3    0  502 -0.66551392317E+03  0.25982057485E+03 -0.11454216093E+04  0.13499652538E+04  0.10100000352E+00 0. -1.
</event>
<event>
 5   0  0.1374680E-07  0.2799562E+04  0.7818609E-02  0.8303404E-01
       -1   -1    0    0    0  501  0.00000000000E+00  0.00000000000E+00  0.13289088823E+04  0.13289088823E+04  0.50400001928E-02 0.  1.
        1   -1    0    0  501    0  0.00000000000E+00  0.00000000000E+00 -0.14744323680E+04  0.14744323680E+04  0.50400001928E-02 0. -1.
    10030    2    1    2    0    0  0.00000000000E+00  0.00000000000E+00 -0.14552348564E+03  0.28033412503E+04  0.27995615873E+04 0.  0.
        3    1    3    3  502    0 -0.10094262664E+04 -0.11024410375E+03 -0.10375411774E+04  0.14517530281E+04  0.10100000352E+00 0. -1.
       -3    1    3    3    0  502  0.10094262664E+04  0.11024410375E+03  0.89201769174E+03  0.13515882222E+04  0.10100000352E+00 0.  1.
</event>
<event>
 5   0  0.3557628E-07  0.2795843E+04  0.7818609E-02  0.8304560E-01
        2   -1    0    0  501    0  0.00000000000E+00  0.00000000000E+00  0.13598709526E+04  0.13598709526E+04  0.25500000920E-02 0. -1.
       -2   -1    0    0    0  501  0.00000000000E+00  0.00000000000E+00 -0.14370368191E+04  0.14370368191E+04  0.25500000920E-02 0.  1.
    10030    2    1    2    0    0  0.00000000000E+00  0.00000000000E+00 -0.77165866470E+02  0.27969077718E+04  0.27958430773E+04 0.  0.
        5    1    3    3  502    0 -0.69530767267E+03  0.55532261799E+01 -0.12517602747E+04  0.14319250935E+04  0.46999998093E+01 0.  1.
       -5    1    3    3    0  502  0.69530767267E+03 -0.55532261799E+01  0.11745944083E+04  0.13649826783E+04  0.46999998093E+01 0. -1.
</event>
<event>
 5   0  0.1357902E-07  0.2795690E+04  0.7818609E-02  0.8304608E-01
       -1   -1    0    0    0  501  0.00000000000E+00  0.00000000000E+00  0.14396007063E+04  0.14396007063E+04  0.50400001928E-02 0. -1.
        1   -1    0    0  501    0  0.00000000000E+00  0.00000000000E+00 -0.13572999550E+04  0.13572999550E+04  0.50400001928E-02 0.  1.
    10030    2    1    2    0    0  0.00000000000E+00  0.00000000000E+00  0.82300751287E+02  0.27969006612E+04  0.27956895205E+04 0.  0.
        4    1    3    3  502    0 -0.75096666409E+03 -0.11589947751E+04 -0.17515740239E+03  0.13920853235E+04  0.12699999809E+01 0. -1.
       -4    1    3    3    0  502  0.75096666409E+03  0.11589947751E+04  0.25745815368E+03  0.14048153377E+04  0.12699999809E+01 0.  1.
</event>
<event>
 5   0  0.1366235E-07  0.2797570E+04  0.7818609E-02  0.8304023E-01
       -1   -1    0    0    0  501  0.00000000000E+00  0.00000000000E+00  0.10501701567E+04  0.10501701567E+04  0.50400001928E-02 0.  1.
        1   -1    0    0  501    0  0.00000000000E+00  0.00000000000E+00 -0.18631259290E+04  0.18631259290E+04  0.50400001928E-02 0. -1.
    10030    2    1    2    0    0  0.00000000000E+00  0.00000000000E+00 -0.81295577231E+03  0.29132960858E+04  0.27975698375E+04 0.  0.
        2    1    3    3  502    0  0.36606224594E+03  0.59860676586E+03 -0.16666037281E+04  0.18082863752E+04  0.25500000920E-02 0. -1.
       -2    1    3    3    0  502 -0.36606224594E+03 -0.59860676586E+03  0.85364795580E+03  0.11050097106E+04  0.25500000920E-02 0.  1.
</event>
<event>
 5   0  0.1346049E-07  0.2799570E+04  0.7818609E-02  0.8303402E-01
        1   -1    0    0  501    0  0.00000000000E+00  0.00000000000E+00  0.13659172099E+04  0.13659172099E+04  0.50400001928E-02 0. -1.
       -1   -1    0    0    0  501  0.00000000000E+00  0.00000000000E+00 -0.14344921754E+04  0.14344921754E+04  0.50400001928E-02 0.  1.
    10030    2    1    2    0    0  0.00000000000E+00  0.00000000000E+00 -0.68574965430E+02  0.28004093853E+04  0.27995696454E+04 0.  0.
        1    1    3    3  502    0  0.41674776138E+03 -0.62700448391E+03  0.11461445466E+04  0.13712988884E+04  0.50400001928E-02 0. -1.
       -1    1    3    3    0  502 -0.41674776138E+03  0.62700448391E+03 -0.12147195121E+04  0.14291104969E+04  0.50400001928E-02 0.  1.
</event>
<event>
 5   0  0.1361741E-07  0.2799824E+04  0.7818609E-02  0.8303323E-01
       -1   -1    0    0    0  501  0.00000000000E+00  0.00000000000E+00  0.14498270347E+04  0.14498270347E+04  0.50400001928E-02 0. -1.
        1   -1    0    0  501    0  0.00000000000E+00  0.00000000000E+00 -0.13517153845E+04  0.13517153845E+04  0.50400001928E-02 0.  1.
    10030    2    1    2    0    0  0.00000000000E+00  0.00000000000E+00  0.98111650174E+02  0.28015424191E+04  0.27998239285E+04 0.  0.
        5    1    3    3  502    0 -0.94142402524E+03 -0.83292183460E+03  0.66562673201E+03  0.14223638825E+04  0.46999998093E+01 0. -1.
       -5    1    3    3    0  502  0.94142402524E+03  0.83292183460E+03 -0.56751508184E+03  0.13791785367E+04  0.46999998093E+01 0.  1.
</event>
<event>
 5   0  0.3557628E-07  0.2800585E+04  0.7818609E-02  0.8303087E-01
       -2   -1    0    0    0  501  0.00000000000E+00  0.00000000000E+00  0.13202627320E+04  0.13202627320E+04  0.25500000920E-02 0. -1.
        2   -1    0    0  501    0  0.00000000000E+00  0.00000000000E+00 -0.14851729846E+04  0.14851729846E+04  0.25500000920E-02 0.  1.
    10030    2    1    2    0    0  0.00000000000E+00  0.00000000000E+00 -0.16491025265E+03  0.28054357166E+04  0.28005846119E+04 0.  0.
        5    1    3    3  502    0  0.41062660219E+03 -0.97779706757E+03  0.83351112657E+03  0.13488751610E+04  0.46999998093E+01 0. -1.
       -5    1    3    3    0  502 -0.41062660219E+03  0.97779706757E+03 -0.99842137923E+03  0.14565605556E+04  0.46999998093E+01 0.  1.
</event>
<event>
 5   0  0.3406920E-07  0.2800098E+04  0.7818609E-02  0.8303238E-01
        2   -1    0    0  501    0  0.00000000000E+00  0.00000000000E+00  0.14886377078E+04  0.14886377078E+04  0.25500000920E-02 0. -1.
       -2   -1    0    0    0  501  0.00000000000E+00  0.00000000000E+00 -0.13167324197E+04  0.13167324197E+04  0.25500000920E-02 0.  1.
    10030    2    1    2    0    0  0.00000000000E+00  0.00000000000E+00  0.17190528816E+03  0.28053701275E+04  0.28000982347E+04 0.  0.
        4    1    3    3  502    0  0.10890190653E+03 -0.58296823987E+03  0.13565771191E+04  0.14805454018E+04  0.12699999809E+01 0. -1.
       -4    1    3    3    0  502 -0.10890190653E+03  0.58296823987E+03 -0.11846718309E+04  0.13248247257E+04  0.12699999809E+01 0.  1.
</event>
<event>
 5   0  0.1361741E-07  0.2800246E+04  0.7818609E-02  0.8303192E-01
        1   -1    0    0  501    0  0.00000000000E+00  0.00000000000E+00  0.13387677963E+04  0.13387677963E+04  0.50400001928E-02 0.  1.
       -1   -1    0    0    0  501  0.00000000000E+00  0.00000000000E+00 -0.14642904515E+04  0.14642904515E+04  0.50400001928E-02 0. -1.
    10030    2    1    2    0    0  0.00000000000E+00  0.00000000000E+00 -0.12552265517E+03  0.28030582478E+04  0.28002463469E+04 0.  0.
        5    1    3    3  502    0  0.33135668545E+03 -0.77082933193E+03  0.10592333778E+04  0.13512855178E+04  0.46999998093E+01 0.  1.
       -5    1    3    3    0  502 -0.33135668545E+03  0.77082933193E+03 -0.11847560329E+04  0.14517727300E+04  0.46999998093E+01 0. -1.
</event>
<event>
 5   0  0.1173363E-07  0.2801144E+04  0.7818609E-02  0.8302913E-01
       -3   -1    0    0    0  501  0.00000000000E+00  0.00000000000E+00  0.13542276991E+04  0.13542277029E+04  0.10100000352E+00 0.  1.
        3   -1    0    0  501    0  0.00000000000E+00  0.00000000000E+00 -0.14485025859E+04  0.14485025894E+04  0.10100000352E+00 0. -1.
    10030    2    1    2    0    0  0.00000000000E+00  0.00000000000E+00 -0.94274886765E+02  0.28027302923E+04  0.28011442907E+04 0.  0.
        3    1    3    3  502    0 -0.88064929343E+03  0.70916961028E+03 -0.87412680902E+03  0.14291824245E+04  0.10100000352E+00 0. -1.
       -3    1    3    3    0  502  0.88064929343E+03 -0.70916961028E+03  0.77985192226E+03  0.13735478678E+04  0.10100000352E+00 0.  1.
</event>
<event>
 5   0  0.3522569E-07  0.2798080E+04  0.7818609E-02  0.8303865E-01
        2   -1    0    0  501    0  0.00000000000E+00  0.00000000000E+00  0.17240183257E+04  0.17240183257E+04  0.25500000920E-02 0. -1.
       -2   -1    0    0    0  501  0.00000000000E+00  0.00000000000E+00 -0.11353203969E+04  0.11353203969E+04  0.25500000920E-02 0.  1.
    10030    2    1    2    0    0  0.00000000000E+00  0.00000000000E+00  0.58869792881E+03  0.28593387227E+04  0.27980801775E+04 0.  0.
        1    1    3    3  502    0  0.12838061259E+04  0.53941355642E+03  0.43216448043E+03  0.14580436523E+04  0.50400001928E-02 0. -1.
       -1    1    3    3    0  502 -0.12838061259E+04 -0.53941355642E+03  0.15653344838E+03  0.14012950704E+04  0.50400001928E-02 0.  1.
</event>
<event>
 5   0  0.3406920E-07  0.2799919E+04  0.7818609E-02  0.8303294E-01
        2   -1    0    0  501    0  0.00000000000E+00  0.00000000000E+00  0.17158321448E+04  0.17158321448E+04  0.25500000920E-02 0. -1.
       -2   -1    0    0    0  501  0.00000000000E+00  0.00000000000E+00 -0.11422367969E+04  0.11422367969E+04  0.25500000920E-02 0.  1.
    10030    2    1    2    0    0  0.00000000000E+00  0.00000000000E+00  0.57359534792E+03  0.28580689416E+04  0.27999190081E+04 0.  0.
        4    1    3    3  502    0 -0.30548281972E+03 -0.12742877862E+04 -0.21613762167E+03  0.13280987160E+04  0.12699999809E+01 0.  1.
       -4    1    3    3    0  502  0.30548281972E+03  0.12742877862E+04  0.78973296959E+03  0.15299702256E+04  0.12699999809E+01 0. -1.
</event>
<event>
 5   0  0.3406920E-07  0.2800050E+04  0.7818609E-02  0.8303253E-01
       -2   -1    0    0    0  501  0.00000000000E+00  0.00000000000E+00  0.24248745097E+04  0.24248745097E+04  0.25500000920E-02 0.  1.
        2   -1    0    0  501    0  0.00000000000E+00  0.00000000000E+00 -0.80831819980E+03  0.80831819981E+03  0.25500000920E-02 0. -1.
    10030    2    1    2    0    0  0.00000000000E+00  0.00000000000E+00  0.16165563099E+04  0.32331927095E+04  0.28000501413E+04 0.  0.
        4    1    3    3  502    0  0.55904984355E+03  0.84292984618E+03  0.19260054080E+04  0.21754461376E+04  0.12699999809E+01 0.  1.
       -4    1    3    3    0  502 -0.55904984355E+03 -0.84292984618E+03 -0.30944909809E+03  0.10577465719E+04  0.12699999809E+01 0. -1.
</event>
<event>
 5   0  0.1346049E-07  0.2799739E+04  0.7818609E-02  0.8303349E-01
       -1   -1    0    0    0  501  0.00000000000E+00  0.00000000000E+00  0.18107017501E+04  0.18107017501E+04  0.50400001928E-02 0.  1.
        1   -1    0    0  501    0  0.00000000000E+00  0.00000000000E+00 -0.10822514145E+04  0.10822514145E+04  0.50400001928E-02 0. -1.
    10030    2    1    2    0    0  0.00000000000E+00  0.00000000000E+00  0.72845033557E+03  0.28929531646E+04  0.27997389381E+04 0.  0.
        1    1    3    3  502    0  0.13777356884E+03 -0.13349961861E+04 -0.47070141357E+02  0.13429117512E+04  0.50400001928E-02 0. -1.
       -1    1    3    3    0  502 -0.13777356884E+03  0.13349961861E+04  0.77552047692E+03  0.15500414135E+04  0.50400001928E-02 0.  1.
</event>
<event>
 5   0  0.1374680E-07  0.2800211E+04  0.7818609E-02  0.8303203E-01
       -1   -1    0    0    0  501  0.00000000000E+00  0.00000000000E+00  0.12850397474E+04  0.12850397475E+04  0.50400001928E-02 0. -1.
        1   -1    0    0  501    0  0.00000000000E+00  0.00000000000E+00 -0.15254746931E+04  0.15254746931E+04  0.50400001928E-02 0.  1.
    10030    2    1    2    0    0  0.00000000000E+00  0.00000000000E+00 -0.24043494567E+03  0.28105144406E+04  0.28002111452E+04 0.  0.
        3    1    3    3  502    0 -0.88096398449E+03  0.98709911880E+03  0.33954375264E+03  0.13659253942E+04  0.10100000352E+00 0. -1.
       -3    1    3    3    0  502  0.88096398449E+03 -0.98709911880E+03 -0.57997869831E+03  0.14445890464E+04  0.10100000352E+00 0.  1.
</event>
<event>
 5   0  0.1374680E-07  0.2799351E+04  0.7818609E-02  0.8303470E-01
       -1   -1    0    0    0  501  0.00000000000E+00  0.00000000000E+00  0.11536541933E+04  0.11536541933E+04  0.50400001928E-02 0. -1.
        1   -1    0    0  501    0  0.00000000000E+00  0.00000000000E+00 -0.16981613045E+04  0.16981613045E+04  0.50400001928E-02 0.  1.
    10030    2    1    2    0    0  0.00000000000E+00  0.00000000000E+00 -0.54450711116E+03  0.28518154978E+04  0.27993505746E+04 0.  0.
        3    1    3    3  502    0  0.29499645507E+03  0.10955453270E+03 -0.16616567330E+04  0.16911913589E+04  0.10100000352E+00 0.  1.
       -3    1    3    3    0  502 -0.29499645507E+03 -0.10955453270E+03  0.11171496218E+04  0.11606241389E+04  0.10100000352E+00 0. -1.
</event>
<event>
 5   0  0.3406920E-07  0.2799951E+04  0.7818609E-02  0.8303284E-01
       -2   -1    0    0    0  501  0.00000000000E+00  0.00000000000E+00  0.95278538941E+03  0.95278538942E+03  0.25500000920E-02 0. -1.
        2   -1    0    0  501    0  0.00000000000E+00  0.00000000000E+00 -0.20570545341E+04  0.20570545341E+04  0.25500000920E-02 0.  1.
    10030    2    1    2    0    0  0.00000000000E+00  0.00000000000E+00 -0.11042691447E+04  0.30098399235E+04  0.27999510748E+04 0.  0.
        4    1    3    3  502    0  0.31220082444E+03 -0.58474730610E+03 -0.18776677826E+04  0.19912399859E+04  0.12699999809E+01 0.  1.
       -4    1    3    3    0  502 -0.31220082444E+03  0.58474730610E+03  0.77339863794E+03  0.10185999376E+04  0.12699999809E+01 0. -1.
</event>
<event>
 5   0  0.1357902E-07  0.2799192E+04  0.7818609E-02  0.8303519E-01
        1   -1    0    0  501    0  0.00000000000E+00  0.00000000000E+00  0.18508391946E+04  0.18508391946E+04  0.50400001928E-02 0.  1.
       -1   -1    0    0    0  501  0.00000000000E+00  0.00000000000E+00 -0.10583682713E+04  0.10583682713E+04  0.50400001928E-02 0. -1.
    10030    2    1    2    0    0  0.00000000000E+00  0.00000000000E+00  0.79247092328E+03  0.29092074659E+04  0.27991923684E+04 0.  0.
        4    1    3    3  502    0  0.12190401382E+04 -0.68064388419E+03  0.29476147988E+03  0.14269621223E+04  0.12699999809E+01 0.  1.
       -4    1    3    3    0  502 -0.12190401382E+04  0.68064388419E+03  0.49770944340E+03  0.14822453436E+04  0.12699999809E+01 0. -1.
</event>
<event>
 5   0  0.3522569E-07  0.2799805E+04  0.7818609E-02  0.8303329E-01
       -2   -1    0    0    0  501  0.00000000000E+00  0.00000000000E+00  0.78698060678E+03  0.78698060678E+03  0.25500000920E-02 0.  1.
        2   -1    0    0  501    0  0.00000000000E+00  0.00000000000E+00 -0.24901854553E+04  0.24901854553E+04  0.25500000920E-02 0. -1.
    10030    2    1    2    0    0  0.00000000000E+00  0.00000000000E+00 -0.17032048485E+04  0.32771660621E+04  0.27998054651E+04 0.  0.
        1    1    3    3  502    0  0.13263346396E+04  0.33150302202E+03 -0.49914878915E+03  0.14554062469E+04  0.50400001928E-02 0. -1.
       -1    1    3    3    0  502 -0.13263346396E+04 -0.33150302202E+03 -0.12040560593E+04  0.18217598151E+04  0.50400001928E-02 0.  1.
</event>
<event>
 5   0  0.1361741E-07  0.2798130E+04  0.7818609E-02  0.8303849E-01
       -1   -1    0    0    0  501  0.00000000000E+00  0.00000000000E+00  0.15615008164E+04  0.15615008164E+04  0.50400001928E-02 0.  1.
        1   -1    0    0  501    0  0.00000000000E+00  0.00000000000E+00 -0.12535265662E+04  0.12535265662E+04  0.50400001928E-02 0. -1.
    10030    2    1    2    0    0  0.00000000000E+00  0.00000000000E+00  0.30797425018E+03  0.28150273826E+04  0.27981299158E+04 0.  0.
        5    1    3    3  502    0 -0.11987703939E+04 -0.46409221301E+03 -0.40155097357E+03  0.13467357996E+04  0.46999998093E+01 0. -1.
       -5    1    3    3    0  502  0.11987703939E+04  0.46409221301E+03  0.70952522375E+03  0.14682915830E+04  0.46999998093E+01 0.  1.
</event>
<event>
 5   0  0.3502141E-07  0.2800071E+04  0.7818609E-02  0.8303246E-01
       -2   -1    0    0    0  501  0.00000000000E+00  0.00000000000E+00  0.11380231615E+04  0.11380231615E+04  0.25500000920E-02 0. -1.
        2   -1    0    0  501    0  0.00000000000E+00  0.00000000000E+00 -0.17223720220E+04  0.17223720220E+04  0.25500000920E-02 0.  1.
    10030    2    1    2    0    0  0.00000000000E+00  0.00000000000E+00 -0.58434886047E+03  0.28603951835E+04  0.28000708947E+04 0.  0.
        3    1    3    3  502    0  0.93192942920E+02 -0.38673235456E+03 -0.16634243578E+04  0.17103296299E+04  0.10100000352E+00 0.  1.
       -3    1    3    3    0  502 -0.93192942920E+02  0.38673235456E+03  0.10790754973E+04  0.11500655537E+04  0.10100000352E+00 0. -1.
</event>
<event>
 5   0  0.3522569E-07  0.2799667E+04  0.7818609E-02  0.8303372E-01
        2   -1    0    0  501    0  0.00000000000E+00  0.00000000000E+00  0.10124783716E+04  0.10124783716E+04  0.25500000920E-02 0. -1.
       -2   -1    0    0    0  501  0.00000000000E+00  0.00000000000E+00 -0.19353827170E+04  0.19353827170E+04  0.25500000920E-02 0.  1.
    10030    2    1    2    0    0  0.00000000000E+00  0.00000000000E+00 -0.92290434534E+03  0.29478610886E+04  0.27996665100E+04 0.  0.
        1    1    3    3  502    0 -0.12577691455E+04 -0.47451999897E+03 -0.87247475033E+03  0.16026118191E+04  0.50400001928E-02 0. -1.
       -1    1    3    3    0  502  0.12577691455E+04  0.47451999897E+03 -0.50429595013E+02  0.13452492694E+04  0.50400001928E-02 0.  1.
</event>
<event>
 5   0  0.1361741E-07  0.2799573E+04  0.7818609E-02  0.8303401E-01
        1   -1    0    0  501    0  0.00000000000E+00  0.00000000000E+00  0.19006384932E+04  0.19006384932E+04  0.50400001928E-02 0.  1.
       -1   -1    0    0    0  501  0.00000000000E+00  0.00000000000E+00 -0.10309182038E+04  0.10309182038E+04  0.50400001928E-02 0. -1.
    10030    2    1    2    0    0  0.00000000000E+00  0.00000000000E+00  0.86972028943E+03  0.29315566970E+04  0.27995734114E+04 0.  0.
        5    1    3    3  502    0 -0.33949408259E+03  0.11718289053E+04  0.11534646349E+04  0.16789705088E+04  0.46999998093E+01 0.  1.
       -5    1    3    3    0  502  0.33949408259E+03 -0.11718289053E+04 -0.28374434546E+03  0.12525861882E+04  0.46999998093E+01 0. -1.
</event>
<event>
 5   0  0.1366235E-07  0.2796946E+04  0.7818609E-02  0.8304217E-01
       -1   -1    0    0    0  501  0.00000000000E+00  0.00000000000E+00  0.75412895900E+03  0.75412895901E+03  0.50400001928E-02 0.  1.
        1   -1    0    0  501    0  0.00000000000E+00  0.00000000000E+00 -0.25933586532E+04  0.25933586532E+04  0.50400001928E-02 0. -1.
    10030    2    1    2    0    0  0.00000000000E+00  0.00000000000E+00 -0.18392296942E+04  0.33474876123E+04  0.27969460928E+04 0.  0.
        2    1    3    3  502    0 -0.10005334128E+04 -0.34421511730E+03 -0.20140339245E+04  0.22750568798E+04  0.25500000920E-02 0. -1.
       -2    1    3    3    0  502  0.10005334128E+04  0.34421511730E+03  0.17480423028E+03  0.10724307325E+04  0.25500000920E-02 0.  1.
</event>
<event>
 5   0  0.3571498E-07  0.2800493E+04  0.7818609E-02  0.8303115E-01
        2   -1    0    0  501    0  0.00000000000E+00  0.00000000000E+00  0.18378075396E+04  0.18378075396E+04  0.25500000920E-02 0. -1.
       -2   -1    0    0    0  501  0.00000000000E+00  0.00000000000E+00 -0.10668635729E+04  0.10668635730E+04  0.25500000920E-02 0.  1.
    10030    2    1    2    0    0  0.00000000000E+00  0.00000000000E+00  0.77094396661E+03  0.29046711125E+04  0.28004927553E+04 0.  0.
        2    1    3    3  502    0 -0.16026737695E+03 -0.13189276126E+03  0.18217631675E+04  0.18335491188E+04  0.25500000920E-02 0. -1.
       -2    1    3    3    0  502  0.16026737695E+03  0.13189276126E+03 -0.10508192009E+04  0.10711219937E+04  0.25500000920E-02 0.  1.
</event>
<event>
 5   0  0.3571498E-07  0.2800893E+04  0.7818609E-02  0.8302991E-01
       -2   -1    0    0    0  501  0.00000000000E+00  0.00000000000E+00  0.14583002909E+04  0.14583002909E+04  0.25500000920E-02 0.  1.
        2   -1    0    0  501    0  0.00000000000E+00  0.00000000000E+00 -0.13448881581E+04  0.13448881581E+04  0.25500000920E-02 0. -1.
    10030    2    1    2    0    0  0.00000000000E+00  0.00000000000E+00  0.11341213277E+03  0.28031884489E+04  0.28008932804E+04 0.  0.
        2    1    3    3  502    0 -0.45222824342E+02 -0.12468843411E+04 -0.57980654440E+03  0.13758420305E+04  0.25500000920E-02 0. -1.
       -2    1    3    3    0  502  0.45222824342E+02  0.12468843411E+04  0.69321867717E+03  0.14273464185E+04  0.25500000920E-02 0.  1.
</event>
<event>
 5   0  0.1374680E-07  0.2801921E+04  0.7818609E-02  0.8302672E-01
       -1   -1    0    0    0  501  0.00000000000E+00  0.00000000000E+00  0.12132085760E+04  0.12132085760E+04  0.50400001928E-02 0.  1.
        1   -1    0    0  501    0  0.00000000000E+00  0.00000000000E+00 -0.16177688131E+04  0.16177688131E+04  0.50400001928E-02 0. -1.
    10030    2    1    2    0    0  0.00000000000E+00  0.00000000000E+00 -0.40456023712E+03  0.28309773891E+04  0.28019214822E+04 0.  0.
        3    1    3    3  502    0 -0.13132615223E+03  0.94710375261E+03  0.83227112041E+03  0.12676463641E+04  0.10100000352E+00 0.  1.
       -3    1    3    3    0  502  0.13132615223E+03 -0.94710375261E+03 -0.12368313575E+04  0.15633310250E+04  0.10100000352E+00 0. -1.
</event>
<event>
 5   0  0.1366235E-07  0.2797842E+04  0.7818609E-02  0.8303939E-01
        1   -1    0    0  501    0  0.00000000000E+00  0.00000000000E+00  0.19471333733E+04  0.19471333733E+04  0.50400001928E-02 0.  1.
       -1   -1    0    0    0  501  0.00000000000E+00  0.00000000000E+00 -0.10050568788E+04  0.10050568788E+04  0.50400001928E-02 0. -1.
    10030    2    1    2    0    0  0.00000000000E+00  0.00000000000E+00  0.94207649451E+03  0.29521902521E+04  0.27978418760E+04 0.  0.
        2    1    3    3  502    0  0.33788746546E+03 -0.38753430802E+02 -0.96076925751E+03  0.10191895476E+04  0.25500000920E-02 0. -1.
       -2    1    3    3    0  502 -0.33788746546E+03  0.38753430802E+02  0.19028457520E+04  0.19330007045E+04  0.25500000920E-02 0.  1.
</event>
<event>
 5   0  0.3522569E-07  0.2800767E+04  0.7818609E-02  0.8303030E-01
        2   -1    0    0  501    0  0.00000000000E+00  0.00000000000E+00  0.21136040369E+04  0.21136040369E+04  0.25500000920E-02 0. -1.
       -2   -1    0    0    0  501  0.00000000000E+00  0.00000000000E+00 -0.92783438020E+03  0.92783438020E+03  0.25500000920E-02 0.  1.
    10030    2    1    2    0    0  0.00000000000E+00  0.00000000000E+00  0.11857696567E+04  0.30414384171E+04  0.28007673888E+04 0.  0.
        1    1    3    3  502    0 -0.94892929847E+03  0.79664586231E+03 -0.11585681194E+03  0.12444011589E+04  0.50400001928E-02 0.  1.
       -1    1    3    3    0  502  0.94892929847E+03 -0.79664586231E+03  0.13016264687E+04  0.17970372582E+04  0.50400001928E-02 0. -1.
</event>
<event>
 5   0  0.1357902E-07  0.2799683E+04  0.7818609E-02  0.8303367E-01
       -1   -1    0    0    0  501  0.00000000000E+00  0.00000000000E+00  0.14500248596E+04  0.14500248596E+04  0.50400001928E-02 0.  1.
        1   -1    0    0  501    0  0.00000000000E+00  0.00000000000E+00 -0.13513947911E+04  0.13513947911E+04  0.50400001928E-02 0. -1.
    10030    2    1    2    0    0  0.00000000000E+00  0.00000000000E+00  0.98630068502E+02  0.28014196508E+04  0.27996828694E+04 0.  0.
        4    1    3    3  502    0 -0.41437588268E+03 -0.19058464095E+03  0.13735877932E+04  0.14473337266E+04  0.12699999809E+01 0.  1.
       -4    1    3    3    0  502  0.41437588268E+03  0.19058464095E+03 -0.12749577247E+04  0.13540859242E+04  0.12699999809E+01 0. -1.
</event>
<event>
 5   0  0.3522569E-07  0.2797941E+04  0.7818609E-02  0.8303908E-01
       -2   -1    0    0    0  501  0.00000000000E+00  0.00000000000E+00  0.20426991097E+04  0.20426991097E+04  0.25500000920E-02 0.  1.
        2   -1    0    0  501    0  0.00000000000E+00  0.00000000000E+00 -0.95810417665E+03  0.95810417665E+03  0.25500000920E-02 0. -1.
    10030    2    1    2    0    0  0.00000000000E+00  0.00000000000E+00  0.10845949331E+04  0.30008032864E+04  0.27979410635E+04 0.  0.
        1    1    3    3  502    0  0.61657417374E+03 -0.11565886688E+04  0.17693301693E+02  0.13107914073E+04  0.50400001928E-02 0. -1.
       -1    1    3    3    0  502 -0.61657417374E+03  0.11565886688E+04  0.10669016314E+04  0.16900118791E+04  0.50400001928E-02 0.  1.
</event>
<event>
 5   0  0.1346049E-07  0.2803242E+04  0.7818609E-02  0.8302263E-01
       -1   -1    0    0    0  501  0.00000000000E+00  0.00000000000E+00  0.11108265479E+04  0.11108265479E+04  0.50400001928E-02 0.  1.
        1   -1    0    0  501    0  0.00000000000E+00  0.00000000000E+00 -0.17685402114E+04  0.17685402114E+04  0.50400001928E-02 0. -1.
    10030    2    1    2    0    0  0.00000000000E+00  0.00000000000E+00 -0.65771366348E+03  0.28793667593E+04  0.28032419931E+04 0.  0.
        1    1    3    3  502    0  0.39958412028E+03 -0.13313978576E+04 -0.51332699156E+03  0.14818206115E+04  0.50400001928E-02 0. -1.
       -1    1    3    3    0  502 -0.39958412028E+03  0.13313978576E+04 -0.14438667192E+03  0.13975461479E+04  0.50400001928E-02 0.  1.
</event>
<event>
 5   0  0.3406920E-07  0.2800574E+04  0.7818609E-02  0.8303090E-01
        2   -1    0    0  501    0  0.00000000000E+00  0.00000000000E+00  0.17657416250E+04  0.17657416250E+04  0.25500000920E-02 0.  1.
       -2   -1    0    0    0  501  0.00000000000E+00  0.00000000000E+00 -0.11104704989E+04  0.11104704989E+04  0.25500000920E-02 0. -1.
    10030    2    1    2    0    0  0.00000000000E+00  0.00000000000E+00  0.65527112612E+03  0.28762121239E+04  0.28005742149E+04 0.  0.
        4    1    3    3  502    0 -0.15683545614E+01  0.13620707778E+04  0.66131535686E+03  0.15141264404E+04  0.12699999809E+01 0. -1.
       -4    1    3    3    0  502  0.15683545614E+01 -0.13620707778E+04 -0.60442307468E+01  0.13620856835E+04  0.12699999809E+01 0.  1.
</event>
<event>
 5   0  0.1173363E-07  0.2800521E+04  0.7818609E-02  0.8303107E-01
       -3   -1    0    0    0  501  0.00000000000E+00  0.00000000000E+00  0.18166339950E+04  0.18166339978E+04  0.10100000352E+00 0. -1.
        3   -1    0    0  501    0  0.00000000000E+00  0.00000000000E+00 -0.10793201924E+04  0.10793201971E+04  0.10100000352E+00 0.  1.
    10030    2    1    2    0    0  0.00000000000E+00  0.00000000000E+00  0.73731380262E+03  0.28959541949E+04  0.28005212114E+04 0.  0.
        3    1    3    3  502    0 -0.56154882279E+03 -0.30658065436E+03 -0.91934010053E+03  0.11200513420E+04  0.10100000352E+00 0.  1.
       -3    1    3    3    0  502  0.56154882279E+03  0.30658065436E+03  0.16566539032E+04  0.17759028529E+04  0.10100000352E+00 0. -1.
</event>
<event>
 5   0  0.3502141E-07  0.2799683E+04  0.7818609E-02  0.8303367E-01
        2   -1    0    0  501    0  0.00000000000E+00  0.00000000000E+00  0.11774913117E+04  0.11774913117E+04  0.25500000920E-02 0. -1.
       -2   -1    0    0    0  501  0.00000000000E+00  0.00000000000E+00 -0.16641792526E+04  0.16641792526E+04  0.25500000920E-02 0.  1.
    10030    2    1    2    0    0  0.00000000000E+00  0.00000000000E+00 -0.48668794093E+03  0.28416705643E+04  0.27996832757E+04 0.  0.
        3    1    3    3  502    0 -0.25387507058E+03 -0.69778090326E+03  0.96113133205E+03  0.12145469065E+04  0.10100000352E+00 0. -1.
       -3    1    3    3    0  502  0.25387507058E+03  0.69778090326E+03 -0.14478192730E+04  0.16271236578E+04  0.10100000352E+00 0.  1.
</event>
<event>
 5   0  0.3571498E-07  0.2796934E+04  0.7818609E-02  0.8304221E-01
       -2   -1    0    0    0  501  0.00000000000E+00  0.00000000000E+00  0.10340571628E+04  0.10340571628E+04  0.25500000920E-02 0. -1.
        2   -1    0    0  501    0  0.00000000000E+00  0.00000000000E+00 -0.18912979994E+04  0.18912979994E+04  0.25500000920E-02 0.  1.
    10030    2    1    2    0    0  0.00000000000E+00  0.00000000000E+00 -0.85724083659E+03  0.29253551622E+04  0.27969342096E+04 0.  0.
        2    1    3    3  502    0  0.12068150288E+04  0.68649015853E+03 -0.60375727326E+03  0.15139993714E+04  0.25500000920E-02 0.  1.
       -2    1    3    3    0  502 -0.12068150288E+04 -0.68649015853E+03 -0.25348356333E+03  0.14113557908E+04  0.25500000920E-02 0. -1.
</event>
<event>
 5   0  0.3522569E-07  0.2800113E+04  0.7818609E-02  0.8303233E-01
        2   -1    0    0  501    0  0.00000000000E+00  0.00000000000E+00  0.23992593840E+04  0.23992593840E+04  0.25500000920E-02 0.  1.
       -2   -1    0    0    0  501  0.00000000000E+00  0.00000000000E+00 -0.81698495141E+03  0.81698495142E+03  0.25500000920E-02 0. -1.
    10030    2    1    2    0    0  0.00000000000E+00  0.00000000000E+00  0.15822744325E+04  0.32162443354E+04  0.28001134343E+04 0.  0.
        1    1    3    3  502    0  0.11663570142E+04  0.77394714231E+03  0.75914166698E+03  0.15923815291E+04  0.50400001928E-02 0.  1.
       -1    1    3    3    0  502 -0.11663570142E+04 -0.77394714231E+03  0.82313276556E+03  0.16238628062E+04  0.50400001928E-02 0. -1.
</event>
<event>
 5   0  0.1357902E-07  0.2799084E+04  0.7818609E-02  0.8303553E-01
       -1   -1    0    0    0  501  0.00000000000E+00  0.00000000000E+00  0.11938705383E+04  0.11938705383E+04  0.50400001928E-02 0.  1.
        1   -1    0    0  501    0  0.00000000000E+00  0.00000000000E+00 -0.16406452392E+04  0.16406452392E+04  0.50400001928E-02 0. -1.
    10030    2    1    2    0    0  0.00000000000E+00  0.00000000000E+00 -0.44677470089E+03  0.28345157775E+04  0.27990841465E+04 0.  0.
        4    1    3    3  502    0 -0.10078915424E+04 -0.77828277203E+03 -0.81138088821E+03  0.15099370825E+04  0.12699999809E+01 0. -1.
       -4    1    3    3    0  502  0.10078915424E+04  0.77828277203E+03  0.36460618732E+03  0.13245786950E+04  0.12699999809E+01 0.  1.
</event>
<event>
 5   0  0.3571498E-07  0.2800468E+04  0.7818609E-02  0.8303123E-01
       -2   -1    0    0    0  501  0.00000000000E+00  0.00000000000E+00  0.16474387248E+04  0.16474387248E+04  0.25500000920E-02 0.  1.
        2   -1    0    0  501    0  0.00000000000E+00  0.00000000000E+00 -0.11901235872E+04  0.11901235872E+04  0.25500000920E-02 0. -1.
    10030    2    1    2    0    0  0.00000000000E+00  0.00000000000E+00  0.45731513755E+03  0.28375623120E+04  0.28004683071E+04 0.  0.
        2    1    3    3  502    0  0.56319028629E+03  0.11481113733E+04  0.80657424706E+03  0.15119209768E+04  0.25500000920E-02 0.  1.
       -2    1    3    3    0  502 -0.56319028629E+03 -0.11481113733E+04 -0.34925910951E+03  0.13256413352E+04  0.25500000920E-02 0. -1.
</event>
<event>
 5   0  0.1361741E-07  0.2800234E+04  0.7818609E-02  0.8303196E-01
        1   -1    0    0  501    0  0.00000000000E+00  0.00000000000E+00  0.18174113180E+04  0.18174113180E+04  0.50400001928E-02 0. -1.
       -1   -1    0    0    0  501  0.00000000000E+00  0.00000000000E+00 -0.10786370967E+04  0.10786370967E+04  0.50400001928E-02 0.  1.
    10030    2    1    2    0    0  0.00000000000E+00  0.00000000000E+00  0.73877422130E+03  0.28960484148E+04  0.28002337529E+04 0.  0.
        5    1    3    3  502    0 -0.70601647379E+03 -0.59904710522E+03  0.14555551526E+04  0.17251027760E+04  0.46999998093E+01 0. -1.
       -5    1    3    3    0  502  0.70601647379E+03  0.59904710522E+03 -0.71678093128E+03  0.11709456388E+04  0.46999998093E+01 0.  1.
</event>
<event>
 5   0  0.1357902E-07  0.2799250E+04  0.7818609E-02  0.8303501E-01
        1   -1    0    0  501    0  0.00000000000E+00  0.00000000000E+00  0.74617602320E+03  0.74617602322E+03  0.50400001928E-02 0. -1.
       -1   -1    0    0    0  501  0.00000000000E+00  0.00000000000E+00 -0.26253192365E+04  0.26253192365E+04  0.50400001928E-02 0.  1.
    10030    2    1    2    0    0  0.00000000000E+00  0.00000000000E+00 -0.18791432133E+04  0.33714952597E+04  0.27992500907E+04 0.  0.
        4    1    3    3  502    0  0.46010503775E+02  0.51638874300E+03 -0.25054088059E+04  0.25584857236E+04  0.12699999809E+01 0.  1.
       -4    1    3    3    0  502 -0.46010503775E+02 -0.51638874300E+03  0.62626559263E+03  0.81300953609E+03  0.12699999809E+01 0. -1.
</event>
<event>
 5   0  0.1366235E-07  0.2800392E+04  0.7818609E-02  0.8303147E-01
        1   -1    0    0  501    0  0.00000000000E+00  0.00000000000E+00  0.27531167687E+04  0.27531167687E+04  0.50400001928E-02 0. -1.
       -1   -1    0    0    0  501  0.00000000000E+00  0.00000000000E+00 -0.71211963154E+03  0.71211963156E+03  0.50400001928E-02 0.  1.
    10030    2    1    2    0    0  0.00000000000E+00  0.00000000000E+00  0.20409971372E+04  0.34652364003E+04  0.28003917576E+04 0.  0.
        2    1    3    3  502    0  0.26916345891E+03  0.75986772742E+02  0.27182005077E+04  0.27325513640E+04  0.25500000920E-02 0. -1.
       -2    1    3    3    0  502 -0.26916345891E+03 -0.75986772742E+02 -0.67720337051E+03  0.73268503621E+03  0.25500000920E-02 0.  1.
</event>
<event>
 5   0  0.1361741E-07  0.2801048E+04  0.7818609E-02  0.8302943E-01
       -1   -1    0    0    0  501  0.00000000000E+00  0.00000000000E+00  0.11383832859E+04  0.11383832859E+04  0.50400001928E-02 0.  1.
        1   -1    0    0  501    0  0.00000000000E+00  0.00000000000E+00 -0.17230288410E+04  0.17230288410E+04  0.50400001928E-02 0. -1.
    10030    2    1    2    0    0  0.00000000000E+00  0.00000000000E+00 -0.58464555511E+03  0.28614121268E+04  0.28010478280E+04 0.  0.
        5    1    3    3  502    0  0.38387831134E+03  0.11853165009E+04  0.36107634210E+03  0.12972031376E+04  0.46999998093E+01 0.  1.
       -5    1    3    3    0  502 -0.38387831134E+03 -0.11853165009E+04 -0.94572189722E+03  0.15642089893E+04  0.46999998093E+01 0. -1.
</event>
<event>
 5   0  0.3522569E-07  0.2801485E+04  0.7818609E-02  0.8302807E-01
       -2   -1    0    0    0  501  0.00000000000E+00  0.00000000000E+00  0.14571808874E+04  0.14571808874E+04  0.25500000920E-02 0.  1.
        2   -1    0    0  501    0  0.00000000000E+00  0.00000000000E+00 -0.13464904111E+04  0.13464904111E+04  0.25500000920E-02 0. -1.
    10030    2    1    2    0    0  0.00000000000E+00  0.00000000000E+00  0.11069047629E+03  0.28036712985E+04  0.28014853861E+04 0.  0.
        1    1    3    3  502    0  0.94586957570E+03 -0.34899934805E+03  0.10285289462E+04  0.14402574743E+04  0.50400001928E-02 0.  1.
       -1    1    3    3    0  502 -0.94586957570E+03  0.34899934805E+03 -0.91783846990E+03  0.13634138242E+04  0.50400001928E-02 0. -1.
</event>
<event>
 5   0  0.3406920E-07  0.2804012E+04  0.7818609E-02  0.8302024E-01
       -2   -1    0    0    0  501  0.00000000000E+00  0.00000000000E+00  0.19260391529E+04  0.19260391529E+04  0.25500000920E-02 0.  1.
        2   -1    0    0  501    0  0.00000000000E+00  0.00000000000E+00 -0.10205510780E+04  0.10205510780E+04  0.25500000920E-02 0. -1.
    10030    2    1    2    0    0  0.00000000000E+00  0.00000000000E+00  0.90548807487E+03  0.29465902309E+04  0.28040123636E+04 0.  0.
        4    1    3    3  502    0  0.39013480311E+03  0.28323104792E+03  0.18361941414E+04  0.18984297535E+04  0.12699999809E+01 0.  1.
       -4    1    3    3    0  502 -0.39013480311E+03 -0.28323104792E+03 -0.93070606657E+03  0.10481604774E+04  0.12699999809E+01 0. -1.
</event>
<event>
 5   0  0.3502141E-07  0.2801422E+04  0.7818609E-02  0.8302827E-01
       -2   -1    0    0    0  501  0.00000000000E+00  0.00000000000E+00  0.14626796179E+04  0.14626796179E+04  0.25500000920E-02 0. -1.
        2   -1    0    0  501    0  0.00000000000E+00  0.00000000000E+00 -0.13413679410E+04  0.13413679410E+04  0.25500000920E-02 0.  1.
    10030    2    1    2    0    0  0.00000000000E+00  0.00000000000E+00  0.12131167685E+03  0.28040475589E+04  0.28014221727E+04 0.  0.
        3    1    3    3  502    0 -0.59184268265E+02  0.13889280756E+04  0.23218609989E+03  0.14094447034E+04  0.10100000352E+00 0. -1.
       -3    1    3    3    0  502  0.59184268265E+02 -0.13889280756E+04 -0.11087442304E+03  0.13946028555E+04  0.10100000352E+00 0.  1.
</event>
<event>
 5   0  0.1366235E-07  0.2800527E+04  0.7818609E-02  0.8303105E-01
       -1   -1    0    0    0  501  0.00000000000E+00  0.00000000000E+00  0.11790487748E+04  0.11790487748E+04  0.50400001928E-02 0.  1.
        1   -1    0    0  501    0  0.00000000000E+00  0.00000000000E+00 -0.16629833118E+04  0.16629833118E+04  0.50400001928E-02 0. -1.
    10030    2    1    2    0    0  0.00000000000E+00  0.00000000000E+00 -0.48393453692E+03  0.28420320866E+04  0.28005274048E+04 0.  0.
        2    1    3    3  502    0 -0.26130887286E+03  0.35719945604E+03 -0.15901378715E+04  0.16505793616E+04  0.25500000920E-02 0. -1.
       -2    1    3    3    0  502  0.26130887286E+03 -0.35719945604E+03  0.11062033346E+04  0.11914527250E+04  0.25500000920E-02 0.  1.
</event>
<event>
 5   0  0.1366235E-07  0.2805899E+04  0.7818609E-02  0.8301439E-01
       -1   -1    0    0    0  501  0.00000000000E+00  0.00000000000E+00  0.11875579985E+04  0.11875579985E+04  0.50400001928E-02 0. -1.
        1   -1    0    0  501    0  0.00000000000E+00  0.00000000000E+00 -0.16574073666E+04  0.16574073666E+04  0.50400001928E-02 0.  1.
    10030    2    1    2    0    0  0.00000000000E+00  0.00000000000E+00 -0.46984936810E+03  0.28449653651E+04  0.28058990538E+04 0.  0.
        2    1    3    3  502    0 -0.54947905392E+03 -0.93987805102E+03 -0.11321000363E+04  0.15706522447E+04  0.25500000920E-02 0.  1.
       -2    1    3    3    0  502  0.54947905392E+03  0.93987805102E+03  0.66225066818E+03  0.12743131205E+04  0.25500000920E-02 0. -1.
</event>
<event>
 5   0  0.1173363E-07  0.2799999E+04  0.7818609E-02  0.8303269E-01
       -3   -1    0    0    0  501  0.00000000000E+00  0.00000000000E+00  0.13076332261E+04  0.13076332300E+04  0.10100000352E+00 0. -1.
        3   -1    0    0  501    0  0.00000000000E+00  0.00000000000E+00 -0.14988897500E+04  0.14988897534E+04  0.10100000352E+00 0.  1.
    10030    2    1    2    0    0  0.00000000000E+00  0.00000000000E+00 -0.19125652390E+03  0.28065229834E+04  0.27999986069E+04 0.  0.
        3    1    3    3  502    0 -0.92764799610E+03 -0.26091603842E+03  0.92231191954E+03  0.13338917763E+04  0.10100000352E+00 0. -1.
       -3    1    3    3    0  502  0.92764799610E+03  0.26091603842E+03 -0.11135684434E+04  0.14726312071E+04  0.10100000352E+00 0.  1.
</event>
<event>
 5   0  0.1357902E-07  0.2800401E+04  0.7818609E-02  0.8303144E-01
        1   -1    0    0  501    0  0.00000000000E+00  0.00000000000E+00  0.13876843488E+04  0.13876843489E+04  0.50400001928E-02 0.  1.
       -1   -1    0    0    0  501  0.00000000000E+00  0.00000000000E+00 -0.14128296144E+04  0.14128296144E+04  0.50400001928E-02 0. -1.
    10030    2    1    2    0    0  0.00000000000E+00  0.00000000000E+00 -0.25145265548E+02  0.28005139633E+04  0.28004010738E+04 0.  0.
        4    1    3    3  502    0 -0.13549879600E+04  0.27792332027E+03  0.20498196386E+03  0.13983036016E+04  0.12699999809E+01 0.  1.
       -4    1    3    3    0  502  0.13549879600E+04 -0.27792332027E+03 -0.23012722941E+03  0.14022103617E+04  0.12699999809E+01 0. -1.
</event>
<event>
 5   0  0.1346049E-07  0.2799312E+04  0.7818609E-02  0.8303482E-01
        1   -1    0    0  501    0  0.00000000000E+00  0.00000000000E+00  0.15404380443E+04  0.15404380443E+04  0.50400001928E-02 0. -1.
       -1   -1    0    0    0  501  0.00000000000E+00  0.00000000000E+00 -0.12717402128E+04  0.12717402128E+04  0.50400001928E-02 0.  1.
    10030    2    1    2    0    0  0.00000000000E+00  0.00000000000E+00  0.26869783148E+03  0.28121782570E+04  0.27993120628E+04 0.  0.
        1    1    3    3  502    0  0.13796186058E+04  0.13930394564E+02  0.37100639286E+03  0.14287012623E+04  0.50400001928E-02 0. -1.
       -1    1    3    3    0  502 -0.13796186058E+04 -0.13930394564E+02 -0.10230856138E+03  0.13834769948E+04  0.50400001928E-02 0.  1.
</event>
<event>
 5   0  0.3406920E-07  0.2798829E+04  0.7818609E-02  0.8303632E-01
        2   -1    0    0  501    0  0.00000000000E+00  0.00000000000E+00  0.21420416386E+04  0.21420416386E+04  0.25500000920E-02 0. -1.
       -2   -1    0    0    0  501  0.00000000000E+00  0.00000000000E+00 -0.91424968044E+03  0.91424968044E+03  0.25500000920E-02 0.  1.
    10030    2    1    2    0    0  0.00000000000E+00  0.00000000000E+00  0.12277919581E+04  0.30562913190E+04  0.27988289577E+04 0.  0.
        4    1    3    3  502    0 -0.20939747985E+03  0.10960417352E+04 -0.30830466413E+03  0.11576736019E+04  0.12699999809E+01 0.  1.
       -4    1    3    3    0  502  0.20939747985E+03 -0.10960417352E+04  0.15360966223E+04  0.18986177171E+04  0.12699999809E+01 0. -1.
</event>
<event>
 5   0  0.3557628E-07  0.2798975E+04  0.7818609E-02  0.8303587E-01
        2   -1    0    0  501    0  0.00000000000E+00  0.00000000000E+00  0.17587960215E+04  0.17587960215E+04  0.25500000920E-02 0. -1.
       -2   -1    0    0    0  501  0.00000000000E+00  0.00000000000E+00 -0.11135833299E+04  0.11135833299E+04  0.25500000920E-02 0.  1.
    10030    2    1    2    0    0  0.00000000000E+00  0.00000000000E+00  0.64521269169E+03  0.28723793514E+04  0.27989754770E+04 0.  0.
        5    1    3    3  502    0 -0.20602655019E+03 -0.13158121268E+04 -0.11847399751E+03  0.13371113157E+04  0.46999998093E+01 0.  1.
       -5    1    3    3    0  502  0.20602655019E+03  0.13158121268E+04  0.76368668920E+03  0.15352680358E+04  0.46999998093E+01 0. -1.
</event>
<event>
 5   0  0.1361741E-07  0.2800465E+04  0.7818609E-02  0.8303124E-01
       -1   -1    0    0    0  501  0.00000000000E+00  0.00000000000E+00  0.19361579513E+04  0.19361579513E+04  0.50400001928E-02 0.  1.
        1   -1    0    0  501    0  0.00000000000E+00  0.00000000000E+00 -0.10126505060E+04  0.10126505061E+04  0.50400001928E-02 0. -1.
    10030    2    1    2    0    0  0.00000000000E+00  0.00000000000E+00  0.92350744527E+03  0.29488084574E+04  0.28004651965E+04 0.  0.
        5    1    3    3  502    0  0.93329840491E+03 -0.37664933344E+03  0.14868297739E+04  0.17954374118E+04  0.46999998093E+01 0.  1.
       -5    1    3    3    0  502 -0.93329840491E+03  0.37664933344E+03 -0.56332232862E+03  0.11533710456E+04  0.46999998093E+01 0. -1.
</event>
<event>
 5   0  0.3522569E-07  0.2799852E+04  0.7818609E-02  0.8303314E-01
       -2   -1    0    0    0  501  0.00000000000E+00  0.00000000000E+00  0.13521286225E+04  0.13521286225E+04  0.25500000920E-02 0. -1.
        2   -1    0    0  501    0  0.00000000000E+00  0.00000000000E+00 -0.14494133794E+04  0.14494133794E+04  0.25500000920E-02 0.  1.
    10030    2    1    2    0    0  0.00000000000E+00  0.00000000000E+00 -0.97284756892E+02  0.28015420019E+04  0.27998523648E+04 0.  0.
        1    1    3    3  502    0  0.21906309334E+03  0.24445894363E+03  0.13130773052E+04  0.13534846964E+04  0.50400001928E-02 0. -1.
       -1    1    3    3    0  502 -0.21906309334E+03 -0.24445894363E+03 -0.14103620621E+04  0.14480573055E+04  0.50400001928E-02 0.  1.
</event>
<event>
 5   0  0.3571498E-07  0.2799987E+04  0.7818609E-02  0.8303272E-01
        2   -1    0    0  501    0  0.00000000000E+00  0.00000000000E+00  0.21118939240E+04  0.21118939240E+04  0.25500000920E-02 0. -1.
       -2   -1    0    0    0  501  0.00000000000E+00  0.00000000000E+00 -0.92806858464E+03  0.92806858465E+03  0.25500000920E-02 0.  1.
    10030    2    1    2    0    0  0.00000000000E+00  0.00000000000E+00  0.11838253394E+04  0.30399625086E+04  0.27999874321E+04 0.  0.
        2    1    3    3  502    0 -0.50865324261E+02  0.76874981643E+03 -0.67721135902E+03  0.10257576645E+04  0.25500000920E-02 0. -1.
       -2    1    3    3    0  502  0.50865324261E+02 -0.76874981643E+03  0.18610366984E+04  0.20142048442E+04  0.25500000920E-02 0.  1.
</event>
<event>
 5   0  0.3571498E-07  0.2799809E+04  0.7818609E-02  0.8303328E-01
       -2   -1    0    0    0  501  0.00000000000E+00  0.00000000000E+00  0.13691667837E+04  0.13691667837E+04  0.25500000920E-02 0. -1.
        2   -1    0    0  501    0  0.00000000000E+00  0.00000000000E+00 -0.14313327631E+04  0.14313327631E+04  0.25500000920E-02 0.  1.
    10030    2    1    2    0    0  0.00000000000E+00  0.00000000000E+00 -0.62165979435E+02  0.28004995468E+04  0.27998094761E+04 0.  0.
        2    1    3    3  502    0 -0.93117416152E+03  0.10335014334E+04  0.12555300072E+03  0.13967727402E+04  0.25500000920E-02 0.  1.
       -2    1    3    3    0  502  0.93117416152E+03 -0.10335014334E+04 -0.18771898016E+03  0.14037268065E+04  0.25500000920E-02 0. -1.
</event>
<event>
 5   0  0.1357902E-07  0.2811335E+04  0.7818609E-02  0.8299758E-01
       -1   -1    0    0    0  501  0.00000000000E+00  0.00000000000E+00  0.11305659917E+04  0.11305659917E+04  0.50400001928E-02 0.  1.
        1   -1    0    0  501    0  0.00000000000E+00  0.00000000000E+00 -0.17477100132E+04  0.17477100132E+04  0.50400001928E-02 0. -1.
    10030    2    1    2    0    0  0.00000000000E+00  0.00000000000E+00 -0.61714402158E+03  0.28782760049E+04  0.28113352730E+04 0.  0.
        4    1    3    3  502    0 -0.84042922312E+03 -0.10918341104E+04 -0.23597590685E+02  0.13780353635E+04  0.12699999809E+01 0.  1.
       -4    1    3    3    0  502  0.84042922312E+03  0.10918341104E+04 -0.59354643090E+03  0.15002406415E+04  0.12699999809E+01 0. -1.
</event>
<event>
 5   0  0.1346049E-07  0.2800172E+04  0.7818609E-02  0.8303215E-01
        1   -1    0    0  501    0  0.00000000000E+00  0.00000000000E+00  0.10066381910E+04  0.10066381910E+04  0.50400001928E-02 0.  1.
       -1   -1    0    0    0  501  0.00000000000E+00  0.00000000000E+00 -0.19473145617E+04  0.19473145617E+04  0.50400001928E-02 0. -1.
    10030    2    1    2    0    0  0.00000000000E+00  0.00000000000E+00 -0.94067637071E+03  0.29539527528E+04  0.28001722860E+04 0.  0.
        1    1    3    3  502    0 -0.10599769191E+04  0.67937947071E+01 -0.14352533631E+04  0.17842503863E+04  0.50400001928E-02 0. -1.
       -1    1    3    3    0  502  0.10599769191E+04 -0.67937947071E+01  0.49457699240E+03  0.11697023665E+04  0.50400001928E-02 0.  1.
</event>
<event>
 5   0  0.3557628E-07  0.2800177E+04  0.7818609E-02  0.8303213E-01
       -2   -1    0    0    0  501  0.00000000000E+00  0.00000000000E+00  0.14164944169E+04  0.14164944169E+04  0.25500000920E-02 0. -1.
        2   -1    0    0  501    0  0.00000000000E+00  0.00000000000E+00 -0.13838730253E+04  0.13838730253E+04  0.25500000920E-02 0.  1.
    10030    2    1    2    0    0  0.00000000000E+00  0.00000000000E+00  0.32621391617E+02  0.28003674422E+04  0.28001774329E+04 0.  0.
        5    1    3    3  502    0 -0.10336870240E+04 -0.93074260020E+03  0.17580716789E+03  0.14020416904E+04  0.46999998093E+01 0.  1.
       -5    1    3    3    0  502  0.10336870240E+04  0.93074260020E+03 -0.14318577628E+03  0.13983257517E+04  0.46999998093E+01 0. -1.
</event>
<event>
 5   0  0.1361741E-07  0.2800760E+04  0.7818609E-02  0.8303032E-01
       -1   -1    0    0    0  501  0.00000000000E+00  0.00000000000E+00  0.11371739037E+04  0.11371739037E+04  0.50400001928E-02 0. -1.
        1   -1    0    0  501    0  0.00000000000E+00  0.00000000000E+00 -0.17245067876E+04  0.17245067876E+04  0.50400001928E-02 0.  1.
    10030    2    1    2    0    0  0.00000000000E+00  0.00000000000E+00 -0.58733288397E+03  0.28616806913E+04  0.28007599795E+04 0.  0.
        5    1    3    3  502    0 -0.89911581068E+03 -0.93222149739E+03 -0.83778711657E+03  0.15425159655E+04  0.46999998093E+01 0.  1.
       -5    1    3    3    0  502  0.89911581068E+03  0.93222149739E+03  0.25045423260E+03  0.13191647258E+04  0.46999998093E+01 0. -1.
</event>
<event>
 5   0  0.3571498E-07  0.2809187E+04  0.7818609E-02  0.8300422E-01
       -2   -1    0    0    0  501  0.00000000000E+00  0.00000000000E+00  0.77977531409E+03  0.77977531410E+03  0.25500000920E-02 0.  1.
        2   -1    0    0  501    0  0.00000000000E+00  0.00000000000E+00 -0.25300650682E+04  0.25300650682E+04  0.25500000920E-02 0. -1.
    10030    2    1    2    0    0  0.00000000000E+00  0.00000000000E+00 -0.17502897542E+04  0.33098403823E+04  0.28091865608E+04 0.  0.
        2    1    3    3  502    0  0.10986604394E+03  0.44789655208E+03 -0.24383196143E+04  0.24815487927E+04  0.25500000920E-02 0. -1.
       -2    1    3    3    0  502 -0.10986604394E+03 -0.44789655208E+03  0.68802986017E+03  0.82829158964E+03  0.25500000920E-02 0.  1.
</event>
<event>
 5   0  0.3406920E-07  0.2799321E+04  0.7818609E-02  0.8303479E-01
        2   -1    0    0  501    0  0.00000000000E+00  0.00000000000E+00  0.20153415683E+04  0.20153415683E+04  0.25500000920E-02 0.  1.
       -2   -1    0    0    0  501  0.00000000000E+00  0.00000000000E+00 -0.97206813358E+03  0.97206813358E+03  0.25500000920E-02 0. -1.
    10030    2    1    2    0    0  0.00000000000E+00  0.00000000000E+00  0.10432734347E+04  0.29874097019E+04  0.27993208582E+04 0.  0.
        4    1    3    3  502    0  0.60551819524E+03 -0.58456792096E+03 -0.67184143720E+03  0.10769143274E+04  0.12699999809E+01 0. -1.
       -4    1    3    3    0  502 -0.60551819524E+03  0.58456792096E+03  0.17151148719E+04  0.19104953744E+04  0.12699999809E+01 0.  1.
</event>
<event>
 5   0  0.1357902E-07  0.2800060E+04  0.7818609E-02  0.8303250E-01
        1   -1    0    0  501    0  0.00000000000E+00  0.00000000000E+00  0.23858578405E+04  0.23858578405E+04  0.50400001928E-02 0.  1.
       -1   -1    0    0    0  501  0.00000000000E+00  0.00000000000E+00 -0.82154295168E+03  0.82154295170E+03  0.50400001928E-02 0. -1.
    10030    2    1    2    0    0  0.00000000000E+00  0.00000000000E+00  0.15643148888E+04  0.32074007922E+04  0.28000604941E+04 0.  0.
        4    1    3    3  502    0  0.67480084930E+03  0.93269006770E+03 -0.13050419097E+03  0.11585766722E+04  0.12699999809E+01 0. -1.
       -4    1    3    3    0  502 -0.67480084930E+03 -0.93269006770E+03  0.16948190798E+04  0.20488241200E+04  0.12699999809E+01 0.  1.
</event>
<event>
 5   0  0.3557628E-07  0.2799186E+04  0.7818609E-02  0.8303521E-01
        2   -1    0    0  501    0  0.00000000000E+00  0.00000000000E+00  0.17552451585E+04  0.17552451585E+04  0.25500000920E-02 0. -1.
       -2   -1    0    0    0  501  0.00000000000E+00  0.00000000000E+00 -0.11160036492E+04  0.11160036492E+04  0.25500000920E-02 0.  1.
    10030    2    1    2    0    0  0.00000000000E+00  0.00000000000E+00  0.63924150929E+03  0.28712488077E+04  0.27991855974E+04 0.  0.
        5    1    3    3  502    0 -0.44962895736E+03 -0.23514526674E+03 -0.10183283476E+04  0.11377496251E+04  0.46999998093E+01 0.  1.
       -5    1    3    3    0  502  0.44962895736E+03  0.23514526674E+03  0.16575698569E+04  0.17334991827E+04  0.46999998093E+01 0. -1.
</event>
<event>
 5   0  0.3502141E-07  0.2802955E+04  0.7818609E-02  0.8302351E-01
       -2   -1    0    0    0  501  0.00000000000E+00  0.00000000000E+00  0.13192609268E+04  0.13192609268E+04  0.25500000920E-02 0.  1.
        2   -1    0    0  501    0  0.00000000000E+00  0.00000000000E+00 -0.14888180687E+04  0.14888180687E+04  0.25500000920E-02 0. -1.
    10030    2    1    2    0    0  0.00000000000E+00  0.00000000000E+00 -0.16955714183E+03  0.28080789955E+04  0.28029552299E+04 0.  0.
        3    1    3    3  502    0  0.12300777710E+04 -0.41073318655E+03  0.44755554995E+03  0.13718961527E+04  0.10100000352E+00 0. -1.
       -3    1    3    3    0  502 -0.12300777710E+04  0.41073318655E+03 -0.61711269179E+03  0.14361828428E+04  0.10100000352E+00 0.  1.
</event>
<event>
 5   0  0.3406920E-07  0.2787826E+04  0.7818609E-02  0.8307058E-01
        2   -1    0    0  501    0  0.00000000000E+00  0.00000000000E+00  0.23762676337E+04  0.23762676337E+04  0.25500000920E-02 0.  1.
       -2   -1    0    0    0  501  0.00000000000E+00  0.00000000000E+00 -0.81766582011E+03  0.81766582011E+03  0.25500000920E-02 0. -1.
    10030    2    1    2    0    0  0.00000000000E+00  0.00000000000E+00  0.15586018136E+04  0.31939334538E+04  0.27878255494E+04 0.  0.
        4    1    3    3  502    0 -0.12192779706E+04 -0.62358258042E+03  0.48165276982E+03  0.14517179505E+04  0.12699999809E+01 0. -1.
       -4    1    3    3    0  502  0.12192779706E+04  0.62358258042E+03  0.10769490438E+04  0.17422155033E+04  0.12699999809E+01 0.  1.
</event>
<event>
 5   0  0.1366235E-07  0.2800147E+04  0.7818609E-02  0.8303223E-01
       -1   -1    0    0    0  501  0.00000000000E+00  0.00000000000E+00  0.66867154357E+03  0.66867154359E+03  0.50400001928E-02 0. -1.
        1   -1    0    0  501    0  0.00000000000E+00  0.00000000000E+00 -0.29314928521E+04  0.29314928521E+04  0.50400001928E-02 0.  1.
    10030    2    1    2    0    0  0.00000000000E+00  0.00000000000E+00 -0.22628213085E+04  0.36001643957E+04  0.28001470321E+04 0.  0.
        2    1    3    3  502    0 -0.19726160891E+03  0.52014501891E+03  0.52047967660E+03  0.76181498857E+03  0.25500000920E-02 0. -1.
       -2    1    3    3    0  502  0.19726160891E+03 -0.52014501891E+03 -0.27833009851E+04  0.28383494071E+04  0.25500000920E-02 0.  1.
</event>
<event>
 5   0  0.3502141E-07  0.2799953E+04  0.7818609E-02  0.8303283E-01
        2   -1    0    0  501    0  0.00000000000E+00  0.00000000000E+00  0.11965155097E+04  0.11965155097E+04  0.25500000920E-02 0. -1.
       -2   -1    0    0    0  501  0.00000000000E+00  0.00000000000E+00 -0.16380353073E+04  0.16380353073E+04  0.25500000920E-02 0.  1.
    10030    2    1    2    0    0  0.00000000000E+00  0.00000000000E+00 -0.44151979763E+03  0.28345508170E+04  0.27999533214E+04 0.  0.
        3    1    3    3  502    0  0.14048617100E+03 -0.11419484879E+04  0.58668683044E+03  0.12915046111E+04  0.10100000352E+00 0. -1.
       -3    1    3    3    0  502 -0.14048617100E+03  0.11419484879E+04 -0.10282066281E+04  0.15430462059E+04  0.10100000352E+00 0.  1.
</event>
<event>
 5   0  0.1361741E-07  0.2800161E+04  0.7818609E-02  0.8303218E-01
       -1   -1    0    0    0  501  0.00000000000E+00  0.00000000000E+00  0.16392078541E+04  0.16392078541E+04  0.50400001928E-02 0.  1.
        1   -1    0    0  501    0  0.00000000000E+00  0.00000000000E+00 -0.11958370922E+04  0.11958370922E+04  0.50400001928E-02 0. -1.
    10030    2    1    2    0    0  0.00000000000E+00  0.00000000000E+00  0.44337076189E+03  0.28350449463E+04  0.28001611052E+04 0.  0.
        5    1    3    3  502    0 -0.10732152381E+04  0.28386370288E+03  0.10854453521E+04  0.15526053109E+04  0.46999998093E+01 0.  1.
       -5    1    3    3    0  502  0.10732152381E+04 -0.28386370288E+03 -0.64207459019E+03  0.12824396354E+04  0.46999998093E+01 0. -1.
</event>
<event>
 5   0  0.3406920E-07  0.2799852E+04  0.7818609E-02  0.8303314E-01
        2   -1    0    0  501    0  0.00000000000E+00  0.00000000000E+00  0.18127860488E+04  0.18127860488E+04  0.25500000920E-02 0. -1.
       -2   -1    0    0    0  501  0.00000000000E+00  0.00000000000E+00 -0.10810941111E+04  0.10810941111E+04  0.25500000920E-02 0.  1.
    10030    2    1    2    0    0  0.00000000000E+00  0.00000000000E+00  0.73169193770E+03  0.28938801600E+04  0.27998516547E+04 0.  0.
        4    1    3    3  502    0 -0.13866976909E+04 -0.18679345558E+03  0.41170293407E+03  0.14585346070E+04  0.12699999809E+01 0.  1.
       -4    1    3    3    0  502  0.13866976909E+04  0.18679345558E+03  0.31998900363E+03  0.14353455530E+04  0.12699999809E+01 0. -1.
</event>
<event>
 5   0  0.1346049E-07  0.2800544E+04  0.7818609E-02  0.8303100E-01
       -1   -1    0    0    0  501  0.00000000000E+00  0.00000000000E+00  0.15137293567E+04  0.15137293567E+04  0.50400001928E-02 0. -1.
        1   -1    0    0  501    0  0.00000000000E+00  0.00000000000E+00 -0.12953181804E+04  0.12953181804E+04  0.50400001928E-02 0.  1.
    10030    2    1    2    0    0  0.00000000000E+00  0.00000000000E+00  0.21841117625E+03  0.28090475371E+04  0.28005436300E+04 0.  0.
        1    1    3    3  502    0  0.35356563431E+03 -0.13020303922E+04  0.48513607013E+03  0.14337533981E+04  0.50400001928E-02 0. -1.
       -1    1    3    3    0  502 -0.35356563431E+03  0.13020303922E+04 -0.26672489388E+03  0.13752941390E+04  0.50400001928E-02 0.  1.
</event>
<event>
 5   0  0.3557628E-07  0.2800489E+04  0.7818609E-02  0.8303117E-01
       -2   -1    0    0    0  501  0.00000000000E+00  0.00000000000E+00  0.88113644133E+03  0.88113644134E+03  0.25500000920E-02 0.  1.
        2   -1    0    0  501    0  0.00000000000E+00  0.00000000000E+00 -0.22251766500E+04  0.22251766500E+04  0.25500000920E-02 0. -1.
    10030    2    1    2    0    0  0.00000000000E+00  0.00000000000E+00 -0.13440402087E+04  0.31063130913E+04  0.28004886964E+04 0.  0.
        5    1    3    3  502    0 -0.65644796408E+03 -0.30101377015E+03 -0.20026621863E+04  0.21288990446E+04  0.46999998093E+01 0. -1.
       -5    1    3    3    0  502  0.65644796408E+03  0.30101377015E+03  0.65862197767E+03  0.97741404677E+03  0.46999998093E+01 0.  1.
</event>
<event>
 5   0  0.1361741E-07  0.2800367E+04  0.7818609E-02  0.8303154E-01
       -1   -1    0    0    0  501  0.00000000000E+00  0.00000000000E+00  0.58628219157E+03  0.58628219159E+03  0.50400001928E-02 0. -1.
        1   -1    0    0  501    0  0.00000000000E+00  0.00000000000E+00 -0.33439765338E+04  0.33439765338E+04  0.50400001928E-02 0.  1.
    10030    2    1    2    0    0  0.00000000000E+00  0.00000000000E+00 -0.27576943422E+04  0.39302587254E+04  0.28003670408E+04 0.  0.
        5    1    3    3  502    0  0.45007834058E+03  0.11079196907E+04 -0.35667896000E+03  0.12479176752E+04  0.46999998093E+01 0. -1.
       -5    1    3    3    0  502 -0.45007834058E+03 -0.11079196907E+04 -0.24010153822E+04  0.26823410501E+04  0.46999998093E+01 0.  1.
</event>
<event>
 5   0  0.1361741E-07  0.2800391E+04  0.7818609E-02  0.8303147E-01
        1   -1    0    0  501    0  0.00000000000E+00  0.00000000000E+00  0.84631576314E+03  0.84631576315E+03  0.50400001928E-02 0.  1.
       -1   -1    0    0    0  501  0.00000000000E+00  0.00000000000E+00 -0.23165679089E+04  0.23165679089E+04  0.50400001928E-02 0. -1.
    10030    2    1    2    0    0  0.00000000000E+00  0.00000000000E+00 -0.14702521458E+04  0.31628836721E+04  0.28003913567E+04 0.  0.
        5    1    3    3  502    0 -0.12543743269E+04  0.45181235488E+03 -0.25205096027E+03  0.13568865585E+04  0.46999998093E+01 0.  1.
       -5    1    3    3    0  502  0.12543743269E+04 -0.45181235488E+03 -0.12182011855E+04  0.18059971136E+04  0.46999998093E+01 0. -1.
</event>
<event>
 5   0  0.3557628E-07  0.2800154E+04  0.7818609E-02  0.8303221E-01
        2   -1    0    0  501    0  0.00000000000E+00  0.00000000000E+00  0.21967230367E+04  0.21967230367E+04  0.25500000920E-02 0.  1.
       -2   -1    0    0    0  501  0.00000000000E+00  0.00000000000E+00 -0.89233594496E+03  0.89233594497E+03  0.25500000920E-02 0. -1.
    10030    2    1    2    0    0  0.00000000000E+00  0.00000000000E+00  0.13043870918E+04  0.30890589817E+04  0.28001535149E+04 0.  0.
        5    1    3    3  502    0 -0.10787878368E+04  0.40381770561E+03  0.15301300895E+04  0.19152472731E+04  0.46999998093E+01 0.  1.
       -5    1    3    3    0  502  0.10787878368E+04 -0.40381770561E+03 -0.22574299779E+03  0.11738117086E+04  0.46999998093E+01 0. -1.
</event>
<event>
 5   0  0.1357902E-07  0.2797541E+04  0.7818609E-02  0.8304032E-01
       -1   -1    0    0    0  501  0.00000000000E+00  0.00000000000E+00  0.12902277967E+04  0.12902277967E+04  0.50400001928E-02 0.  1.
        1   -1    0    0  501    0  0.00000000000E+00  0.00000000000E+00 -0.15164445265E+04  0.15164445265E+04  0.50400001928E-02 0. -1.
    10030    2    1    2    0    0  0.00000000000E+00  0.00000000000E+00 -0.22621672978E+03  0.28066723231E+04  0.27975409775E+04 0.  0.
        4    1    3    3  502    0  0.43330979531E+03 -0.16661087959E+03 -0.14369002595E+04  0.15100332886E+04  0.12699999809E+01 0. -1.
       -4    1    3    3    0  502 -0.43330979531E+03  0.16661087959E+03  0.12106835297E+04  0.12966390346E+04  0.12699999809E+01 0.  1.
</event>
<event>
 5   0  0.1357902E-07  0.2797679E+04  0.7818609E-02  0.8303989E-01
        1   -1    0    0  501    0  0.00000000000E+00  0.00000000000E+00  0.21114862739E+04  0.21114862739E+04  0.50400001928E-02 0. -1.
       -1   -1    0    0    0  501  0.00000000000E+00  0.00000000000E+00 -0.92671757857E+03  0.92671757858E+03  0.50400001928E-02 0.  1.
    10030    2    1    2    0    0  0.00000000000E+00  0.00000000000E+00  0.11847686953E+04  0.30382038525E+04  0.27976786427E+04 0.  0.
        4    1    3    3  502    0 -0.99656664603E+03 -0.34590177263E+03  0.15900365597E+04  0.19081433359E+04  0.12699999809E+01 0. -1.
       -4    1    3    3    0  502  0.99656664603E+03  0.34590177263E+03 -0.40526786439E+03  0.11300605166E+04  0.12699999809E+01 0.  1.
</event>
<event>
 5   0  0.1361741E-07  0.2800700E+04  0.7818609E-02  0.8303051E-01
        1   -1    0    0  501    0  0.00000000000E+00  0.00000000000E+00  0.26511509398E+04  0.26511509398E+04  0.50400001928E-02 0.  1.
       -1   -1    0    0    0  501  0.00000000000E+00  0.00000000000E+00 -0.73967114538E+03  0.73967114539E+03  0.50400001928E-02 0. -1.
    10030    2    1    2    0    0  0.00000000000E+00  0.00000000000E+00  0.19114797944E+04  0.33908220852E+04  0.28006998070E+04 0.  0.
        5    1    3    3  502    0  0.18943082819E+03  0.57435660129E+03  0.24848698955E+04  0.25574147164E+04  0.46999998093E+01 0.  1.
       -5    1    3    3    0  502 -0.18943082819E+03 -0.57435660129E+03 -0.57339010117E+03  0.83340736871E+03  0.46999998093E+01 0. -1.
</event>
<event>
 5   0  0.1357902E-07  0.2799793E+04  0.7818609E-02  0.8303333E-01
        1   -1    0    0  501    0  0.00000000000E+00  0.00000000000E+00  0.16256588348E+04  0.16256588349E+04  0.50400001928E-02 0. -1.
       -1   -1    0    0    0  501  0.00000000000E+00  0.00000000000E+00 -0.12054868079E+04  0.12054868079E+04  0.50400001928E-02 0.  1.
    10030    2    1    2    0    0  0.00000000000E+00  0.00000000000E+00  0.42017202699E+03  0.28311456427E+04  0.27997930491E+04 0.  0.
        4    1    3    3  502    0 -0.60045800523E+02  0.95921448724E+03 -0.81915813905E+03  0.12628220779E+04  0.12699999809E+01 0.  1.
       -4    1    3    3    0  502  0.60045800523E+02 -0.95921448724E+03  0.12393301660E+04  0.15683235648E+04  0.12699999809E+01 0. -1.
</event>
<event>
 5   0  0.1357902E-07  0.2799916E+04  0.7818609E-02  0.8303294E-01
        1   -1    0    0  501    0  0.00000000000E+00  0.00000000000E+00  0.11890134192E+04  0.11890134192E+04  0.50400001928E-02 0.  1.
       -1   -1    0    0    0  501  0.00000000000E+00  0.00000000000E+00 -0.16483263525E+04  0.16483263525E+04  0.50400001928E-02 0. -1.
    10030    2    1    2    0    0  0.00000000000E+00  0.00000000000E+00 -0.45931293325E+03  0.28373397717E+04  0.27999158219E+04 0.  0.
        4    1    3    3  502    0  0.13584303041E+04  0.21282644602E+03 -0.49633266980E+03  0.14618398404E+04  0.12699999809E+01 0. -1.
       -4    1    3    3    0  502 -0.13584303041E+04 -0.21282644602E+03  0.37019736552E+02  0.13754999313E+04  0.12699999809E+01 0.  1.
</event>
<event>
 5   0  0.1357902E-07  0.2799774E+04  0.7818609E-02  0.8303339E-01
        1   -1    0    0  501    0  0.00000000000E+00  0.00000000000E+00  0.13142274691E+04  0.13142274691E+04  0.50400001928E-02 0.  1.
       -1   -1    0    0    0  501  0.00000000000E+00  0.00000000000E+00 -0.14911293927E+04  0.14911293927E+04  0.50400001928E-02 0. -1.
    10030    2    1    2    0    0  0.00000000000E+00  0.00000000000E+00 -0.17690192353E+03  0.28053568618E+04  0.27997737108E+04 0.  0.
        4    1    3    3  502    0  0.37579164635E+03 -0.13457973942E+04 -0.28897704468E+01  0.13972830605E+04  0.12699999809E+01 0. -1.
       -4    1    3    3    0  502 -0.37579164635E+03  0.13457973942E+04 -0.17401215308E+03  0.14080738013E+04  0.12699999809E+01 0.  1.
</event>
<event>
 5   0  0.1346049E-07  0.2801378E+04  0.7818609E-02  0.8302841E-01
        1   -1    0    0  501    0  0.00000000000E+00  0.00000000000E+00  0.16416301005E+04  0.16416301005E+04  0.50400001928E-02 0. -1.
       -1   -1    0    0    0  501  0.00000000000E+00  0.00000000000E+00 -0.11951105306E+04  0.11951105306E+04  0.50400001928E-02 0.  1.
    10030    2    1    2    0    0  0.00000000000E+00  0.00000000000E+00  0.44651956996E+03  0.28367406311E+04  0.28013778184E+04 0.  0.
        1    1    3    3  502    0  0.58611266186E+03 -0.25698897912E+03  0.14849243052E+04  0.16169636916E+04  0.50400001928E-02 0. -1.
       -1    1    3    3    0  502 -0.58611266186E+03  0.25698897912E+03 -0.10384047353E+04  0.12197769395E+04  0.50400001928E-02 0.  1.
</event>
<event>
 5   0  0.3571498E-07  0.2797782E+04  0.7818609E-02  0.8303957E-01
        2   -1    0    0  501    0  0.00000000000E+00  0.00000000000E+00  0.22326218989E+04  0.22326218989E+04  0.25500000920E-02 0.  1.
       -2   -1    0    0    0  501  0.00000000000E+00  0.00000000000E+00 -0.87650152306E+03  0.87650152307E+03  0.25500000920E-02 0. -1.
    10030    2    1    2    0    0  0.00000000000E+00  0.00000000000E+00  0.13561203758E+04  0.31091234219E+04  0.27977823323E+04 0.  0.
        2    1    3    3  502    0  0.77347314270E+03 -0.10157705428E+04  0.13133847182E+04  0.18316740747E+04  0.25500000920E-02 0.  1.
       -2    1    3    3    0  502 -0.77347314270E+03  0.10157705428E+04  0.42735657634E+02  0.12774493472E+04  0.25500000920E-02 0. -1.
</event>
<event>
 5   0  0.1346049E-07  0.2799740E+04  0.7818609E-02  0.8303349E-01
       -1   -1    0    0    0  501  0.00000000000E+00  0.00000000000E+00  0.10227199458E+04  0.10227199458E+04  0.50400001928E-02 0.  1.
        1   -1    0    0  501    0  0.00000000000E+00  0.00000000000E+00 -0.19161022163E+04  0.19161022164E+04  0.50400001928E-02 0. -1.
    10030    2    1    2    0    0  0.00000000000E+00  0.00000000000E+00 -0.89338227054E+03  0.29388221622E+04  0.27997399557E+04 0.  0.
        1    1    3    3  502    0  0.57801960742E+03 -0.58429343745E+03  0.74279719622E+03  0.11078145884E+04  0.50400001928E-02 0.  1.
       -1    1    3    3    0  502 -0.57801960742E+03  0.58429343745E+03 -0.16361794668E+04  0.18310075737E+04  0.50400001928E-02 0. -1.
</event>
<event>
 5   0  0.1346049E-07  0.2800194E+04  0.7818609E-02  0.8303208E-01
        1   -1    0    0  501    0  0.00000000000E+00  0.00000000000E+00  0.11171157495E+04  0.11171157495E+04  0.50400001928E-02 0. -1.
       -1   -1    0    0    0  501  0.00000000000E+00  0.00000000000E+00 -0.17547614064E+04  0.17547614064E+04  0.50400001928E-02 0.  1.
    10030    2    1    2    0    0  0.00000000000E+00  0.00000000000E+00 -0.63764565686E+03  0.28718771559E+04  0.28001939959E+04 0.  0.
        1    1    3    3  502    0  0.12641493932E+04 -0.51570858755E+03 -0.65128083348E+00  0.13652946421E+04  0.50400001928E-02 0.  1.
       -1    1    3    3    0  502 -0.12641493932E+04  0.51570858755E+03 -0.63699437602E+03  0.15065825138E+04  0.50400001928E-02 0. -1.
</event>
<event>
 5   0  0.3557628E-07  0.2799944E+04  0.7818609E-02  0.8303286E-01
        2   -1    0    0  501    0  0.00000000000E+00  0.00000000000E+00  0.16922107919E+04  0.16922107919E+04  0.25500000920E-02 0. -1.
       -2   -1    0    0    0  501  0.00000000000E+00  0.00000000000E+00 -0.11582015167E+04  0.11582015167E+04  0.25500000920E-02 0.  1.
    10030    2    1    2    0    0  0.00000000000E+00  0.00000000000E+00  0.53400927524E+03  0.28504123086E+04  0.27999436464E+04 0.  0.
        5    1    3    3  502    0 -0.48243566293E+03 -0.12712653305E+04  0.60623659957E+03  0.14887594212E+04  0.46999998093E+01 0. -1.
       -5    1    3    3    0  502  0.48243566293E+03  0.12712653305E+04 -0.72227324328E+02  0.13616528874E+04  0.46999998093E+01 0.  1.
</event>
<event>
 5   0  0.1173363E-07  0.2800375E+04  0.7818609E-02  0.8303152E-01
       -4   -1    0    0    0  501  0.00000000000E+00  0.00000000000E+00  0.11618387798E+04  0.11618394739E+04  0.12699999809E+01 0.  1.
        4   -1    0    0  501    0  0.00000000000E+00  0.00000000000E+00 -0.16874312057E+04  0.16874316836E+04  0.12699999809E+01 0. -1.
    10030    2    1    2    0    0  0.00000000000E+00  0.00000000000E+00 -0.52559242586E+03  0.28492711575E+04  0.28003747483E+04 0.  0.
        4    1    3    3  502    0  0.11882735824E+04 -0.34069933453E+02 -0.10155577349E+04  0.15634941614E+04  0.12699999809E+01 0. -1.
       -4    1    3    3    0  502 -0.11882735824E+04  0.34069933453E+02  0.48996530900E+03  0.12857769962E+04  0.12699999809E+01 0.  1.
</event>
<event>
 5   0  0.1374680E-07  0.2800642E+04  0.7818609E-02  0.8303069E-01
       -1   -1    0    0    0  501  0.00000000000E+00  0.00000000000E+00  0.14536852780E+04  0.14536852780E+04  0.50400001928E-02 0. -1.
        1   -1    0    0  501    0  0.00000000000E+00  0.00000000000E+00 -0.13489154366E+04  0.13489154366E+04  0.50400001928E-02 0.  1.
    10030    2    1    2    0    0  0.00000000000E+00  0.00000000000E+00  0.10476984142E+03  0.28026007146E+04  0.28006417204E+04 0.  0.
        3    1    3    3  502    0  0.79123236285E+03  0.42672493358E+03  0.11268005314E+04  0.14414653200E+04  0.10100000352E+00 0. -1.
       -3    1    3    3    0  502 -0.79123236285E+03 -0.42672493358E+03 -0.10220306900E+04  0.13611353946E+04  0.10100000352E+00 0.  1.
</event>
<event>
 5   0  0.1357902E-07  0.2799199E+04  0.7818609E-02  0.8303517E-01
        1   -1    0    0  501    0  0.00000000000E+00  0.00000000000E+00  0.12054718744E+04  0.12054718745E+04  0.50400001928E-02 0. -1.
       -1   -1    0    0    0  501  0.00000000000E+00  0.00000000000E+00 -0.16249886745E+04  0.16249886745E+04  0.50400001928E-02 0.  1.
    10030    2    1    2    0    0  0.00000000000E+00  0.00000000000E+00 -0.41951680004E+03  0.28304605489E+04  0.27991985592E+04 0.  0.
        4    1    3    3  502    0 -0.15102689345E+03  0.71992723053E+03  0.99424198797E+03  0.12367793188E+04  0.12699999809E+01 0. -1.
       -4    1    3    3    0  502  0.15102689345E+03 -0.71992723053E+03 -0.14137587880E+04  0.15936812302E+04  0.12699999809E+01 0.  1.
</event>
<event>
 5   0  0.1357902E-07  0.2800374E+04  0.7818609E-02  0.8303152E-01
        1   -1    0    0  501    0  0.00000000000E+00  0.00000000000E+00  0.16839788373E+04  0.16839788373E+04  0.50400001928E-02 0. -1.
       -1   -1    0    0    0  501  0.00000000000E+00  0.00000000000E+00 -0.11642210531E+04  0.11642210532E+04  0.50400001928E-02 0.  1.
    10030    2    1    2    0    0  0.00000000000E+00  0.00000000000E+00  0.51975778413E+03  0.28481998904E+04  0.28003739860E+04 0.  0.
        4    1    3    3  502    0  0.76246671947E+03  0.48583811793E+03 -0.82755240775E+03  0.12256585069E+04  0.12699999809E+01 0.  1.
       -4    1    3    3    0  502 -0.76246671947E+03 -0.48583811793E+03  0.13473101919E+04  0.16225413835E+04  0.12699999809E+01 0. -1.
</event>
<event>
 5   0  0.3406920E-07  0.2793508E+04  0.7818609E-02  0.8305287E-01
       -2   -1    0    0    0  501  0.00000000000E+00  0.00000000000E+00  0.97443953566E+03  0.97443953566E+03  0.25500000920E-02 0.  1.
        2   -1    0    0  501    0  0.00000000000E+00  0.00000000000E+00 -0.20020957619E+04  0.20020957619E+04  0.25500000920E-02 0. -1.
    10030    2    1    2    0    0  0.00000000000E+00  0.00000000000E+00 -0.10276562263E+04  0.29765352976E+04  0.27935076621E+04 0.  0.
        4    1    3    3  502    0  0.12636673691E+04 -0.38380257579E+03 -0.99832885629E+03  0.16555427373E+04  0.12699999809E+01 0.  1.
       -4    1    3    3    0  502 -0.12636673691E+04  0.38380257579E+03 -0.29327369996E+02  0.13209925603E+04  0.12699999809E+01 0. -1.
</event>
<event>
 5   0  0.1374680E-07  0.2798702E+04  0.7818609E-02  0.8303671E-01
        1   -1    0    0  501    0  0.00000000000E+00  0.00000000000E+00  0.19363459108E+04  0.19363459108E+04  0.50400001928E-02 0. -1.
       -1   -1    0    0    0  501  0.00000000000E+00  0.00000000000E+00 -0.10112779360E+04  0.10112779360E+04  0.50400001928E-02 0.  1.
    10030    2    1    2    0    0  0.00000000000E+00  0.00000000000E+00  0.92506797479E+03  0.29476238468E+04  0.27987024823E+04 0.  0.
        3    1    3    3  502    0  0.87084826939E+03  0.65542771844E+02  0.16141088474E+04  0.18352165934E+04  0.10100000352E+00 0. -1.
       -3    1    3    3    0  502 -0.87084826939E+03 -0.65542771844E+02 -0.68904087258E+03  0.11124072535E+04  0.10100000352E+00 0.  1.
</event>
<event>
 5   0  0.3571498E-07  0.2786795E+04  0.7818609E-02  0.8307380E-01
       -2   -1    0    0    0  501  0.00000000000E+00  0.00000000000E+00  0.77183586720E+03  0.77183586720E+03  0.25500000920E-02 0. -1.
        2   -1    0    0  501    0  0.00000000000E+00  0.00000000000E+00 -0.25155040483E+04  0.25155040483E+04  0.25500000920E-02 0.  1.
    10030    2    1    2    0    0  0.00000000000E+00  0.00000000000E+00 -0.17436681811E+04  0.32873399155E+04  0.27867947528E+04 0.  0.
        2    1    3    3  502    0  0.83229888561E+03 -0.74776920700E+03 -0.18514643557E+04  0.21632846512E+04  0.25500000920E-02 0.  1.
       -2    1    3    3    0  502 -0.83229888561E+03  0.74776920700E+03  0.10779617455E+03  0.11240552643E+04  0.25500000920E-02 0. -1.
</event>
<event>
 5   0  0.3557628E-07  0.2799819E+04  0.7818609E-02  0.8303324E-01
        2   -1    0    0  501    0  0.00000000000E+00  0.00000000000E+00  0.20451939832E+04  0.20451939832E+04  0.25500000920E-02 0. -1.
       -2   -1    0    0    0  501  0.00000000000E+00  0.00000000000E+00 -0.95822056881E+03  0.95822056881E+03  0.25500000920E-02 0.  1.
    10030    2    1    2    0    0  0.00000000000E+00  0.00000000000E+00  0.10869734144E+04  0.30034145520E+04  0.27998192384E+04 0.  0.
        5    1    3    3  502    0 -0.61108584498E+03 -0.71841304905E+03  0.16532082930E+04  0.19033294431E+04  0.46999998093E+01 0. -1.
       -5    1    3    3    0  502  0.61108584498E+03  0.71841304905E+03 -0.56623487864E+03  0.11000851089E+04  0.46999998093E+01 0.  1.
</event>
<event>
 5   0  0.3502141E-07  0.2801108E+04  0.7818609E-02  0.8302925E-01
        2   -1    0    0  501    0  0.00000000000E+00  0.00000000000E+00  0.13376793268E+04  0.13376793268E+04  0.25500000920E-02 0.  1.
       -2   -1    0    0    0  501  0.00000000000E+00  0.00000000000E+00 -0.14663835020E+04  0.14663835020E+04  0.25500000920E-02 0. -1.
    10030    2    1    2    0    0  0.00000000000E+00  0.00000000000E+00 -0.12870417526E+03  0.28040628288E+04  0.28011075637E+04 0.  0.
        3    1    3    3  502    0  0.93857654767E+03  0.63533343190E+03 -0.88800589870E+03  0.14398364462E+04  0.10100000352E+00 0. -1.
       -3    1    3    3    0  502 -0.93857654767E+03 -0.63533343190E+03  0.75930172345E+03  0.13642263826E+04  0.10100000352E+00 0.  1.
</event>
<event>
 5   0  0.1366235E-07  0.2799541E+04  0.7818609E-02  0.8303411E-01
       -1   -1    0    0    0  501  0.00000000000E+00  0.00000000000E+00  0.13715499000E+04  0.13715499000E+04  0.50400001928E-02 0.  1.
        1   -1    0    0  501    0  0.00000000000E+00  0.00000000000E+00 -0.14285721246E+04  0.14285721246E+04  0.50400001928E-02 0. -1.
    10030    2    1    2    0    0  0.00000000000E+00  0.00000000000E+00 -0.57022224632E+02  0.28001220246E+04  0.27995413586E+04 0.  0.
        2    1    3    3  502    0 -0.67392698001E+03  0.28078308321E+03  0.11660318924E+04  0.13757351083E+04  0.25500000920E-02 0.  1.
       -2    1    3    3    0  502  0.67392698001E+03 -0.28078308321E+03 -0.12230541170E+04  0.14243869163E+04  0.25500000920E-02 0. -1.
</event>
<event>
 5   0  0.3502141E-07  0.2800585E+04  0.7818609E-02  0.8303087E-01
        2   -1    0    0  501    0  0.00000000000E+00  0.00000000000E+00  0.10534417275E+04  0.10534417275E+04  0.25500000920E-02 0.  1.
       -2   -1    0    0    0  501  0.00000000000E+00  0.00000000000E+00 -0.18613460708E+04  0.18613460708E+04  0.25500000920E-02 0. -1.
    10030    2    1    2    0    0  0.00000000000E+00  0.00000000000E+00 -0.80790434333E+03  0.29147877983E+04  0.28005853818E+04 0.  0.
        3    1    3    3  502    0 -0.46834935291E+03  0.11204260966E+03 -0.17724526065E+04  0.18367070847E+04  0.10100000352E+00 0. -1.
       -3    1    3    3    0  502  0.46834935291E+03 -0.11204260966E+03  0.96454826314E+03  0.10780807135E+04  0.10100000352E+00 0.  1.
</event>
<event>
 5   0  0.1361741E-07  0.2801914E+04  0.7818609E-02  0.8302674E-01
       -1   -1    0    0    0  501  0.00000000000E+00  0.00000000000E+00  0.11041802689E+04  0.11041802689E+04  0.50400001928E-02 0. -1.
        1   -1    0    0  501    0  0.00000000000E+00  0.00000000000E+00 -0.17775005597E+04  0.17775005597E+04  0.50400001928E-02 0.  1.
    10030    2    1    2    0    0  0.00000000000E+00  0.00000000000E+00 -0.67332029074E+03  0.28816808286E+04  0.28019143784E+04 0.  0.
        5    1    3    3  502    0 -0.11300999942E+04 -0.68108533374E+03 -0.82086651261E+03  0.15539778474E+04  0.46999998093E+01 0.  1.
       -5    1    3    3    0  502  0.11300999942E+04  0.68108533374E+03  0.14754622187E+03  0.13277029812E+04  0.46999998093E+01 0. -1.
</event>
<event>
 5   0  0.1374680E-07  0.2795950E+04  0.7818609E-02  0.8304527E-01
        1   -1    0    0  501    0  0.00000000000E+00  0.00000000000E+00  0.14356442810E+04  0.14356442810E+04  0.50400001928E-02 0. -1.
       -1   -1    0    0    0  501  0.00000000000E+00  0.00000000000E+00 -0.13612941855E+04  0.13612941855E+04  0.50400001928E-02 0.  1.
    10030    2    1    2    0    0  0.00000000000E+00  0.00000000000E+00  0.74350095477E+02  0.27969384665E+04  0.27959500798E+04 0.  0.
        3    1    3    3  502    0 -0.43635745751E+03  0.43774787128E+03  0.12915334526E+04  0.14318134302E+04  0.10100000352E+00 0. -1.
       -3    1    3    3    0  502  0.43635745751E+03 -0.43774787128E+03 -0.12171833572E+04  0.13651250363E+04  0.10100000352E+00 0.  1.
</event>
<event>
 5   0  0.1357902E-07  0.2800225E+04  0.7818609E-02  0.8303198E-01
       -1   -1    0    0    0  501  0.00000000000E+00  0.00000000000E+00  0.12992006210E+04  0.12992006210E+04  0.50400001928E-02 0. -1.
        1   -1    0    0  501    0  0.00000000000E+00  0.00000000000E+00 -0.15088626365E+04  0.15088626365E+04  0.50400001928E-02 0.  1.
    10030    2    1    2    0    0  0.00000000000E+00  0.00000000000E+00 -0.20966201545E+03  0.28080632575E+04  0.28002251869E+04 0.  0.
        4    1    3    3  502    0 -0.93314347150E+03  0.60264325934E+03 -0.95949474568E+03  0.14678444796E+04  0.12699999809E+01 0.  1.
       -4    1    3    3    0  502  0.93314347150E+03 -0.60264325934E+03  0.74983273022E+03  0.13402187779E+04  0.12699999809E+01 0. -1.
</event>
<event>
 5   0  0.3406920E-07  0.2798468E+04  0.7818609E-02  0.8303744E-01
        2   -1    0    0  501    0  0.00000000000E+00  0.00000000000E+00  0.21488133246E+04  0.21488133246E+04  0.25500000920E-02 0. -1.
       -2   -1    0    0    0  501  0.00000000000E+00  0.00000000000E+00 -0.91113340285E+03  0.91113340286E+03  0.25500000920E-02 0.  1.
    10030    2    1    2    0    0  0.00000000000E+00  0.00000000000E+00  0.12376799217E+04  0.30599467275E+04  0.27984678641E+04 0.  0.
        4    1    3    3  502    0 -0.97509371175E+03  0.92011640992E+03  0.18087528904E+03  0.13528264625E+04  0.12699999809E+01 0.  1.
       -4    1    3    3    0  502  0.97509371175E+03 -0.92011640992E+03  0.10568046327E+04  0.17071202650E+04  0.12699999809E+01 0. -1.
</event>
<event>
 5   0  0.1357902E-07  0.2799752E+04  0.7818609E-02  0.8303345E-01
        1   -1    0    0  501    0  0.00000000000E+00  0.00000000000E+00  0.24574013853E+04  0.24574013853E+04  0.50400001928E-02 0. -1.
       -1   -1    0    0    0  501  0.00000000000E+00  0.00000000000E+00 -0.79744904109E+03  0.79744904111E+03  0.50400001928E-02 0.  1.
    10030    2    1    2    0    0  0.00000000000E+00  0.00000000000E+00  0.16599523442E+04  0.32548504264E+04  0.27997516878E+04 0.  0.
        4    1    3    3  502    0 -0.13212326979E+04  0.36985217443E+03  0.50695406583E+03  0.14626860602E+04  0.12699999809E+01 0. -1.
       -4    1    3    3    0  502  0.13212326979E+04 -0.36985217443E+03  0.11529982784E+04  0.17921643662E+04  0.12699999809E+01 0.  1.
</event>
<event>
 5   0  0.3557628E-07  0.2801692E+04  0.7818609E-02  0.8302743E-01
        2   -1    0    0  501    0  0.00000000000E+00  0.00000000000E+00  0.14611961368E+04  0.14611961368E+04  0.25500000920E-02 0.  1.
       -2   -1    0    0    0  501  0.00000000000E+00  0.00000000000E+00 -0.13429888358E+04  0.13429888358E+04  0.25500000920E-02 0. -1.
    10030    2    1    2    0    0  0.00000000000E+00  0.00000000000E+00  0.11820730102E+03  0.28041849727E+04  0.28016924162E+04 0.  0.
        5    1    3    3  502    0  0.58284198432E+03  0.80558430469E+02  0.13315149465E+04  0.14557295704E+04  0.46999998093E+01 0.  1.
       -5    1    3    3    0  502 -0.58284198432E+03 -0.80558430469E+02 -0.12133076455E+04  0.13484554023E+04  0.46999998093E+01 0. -1.
</event>
<event>
 5   0  0.1374680E-07  0.2799572E+04  0.7818609E-02  0.8303401E-01
        1   -1    0    0  501    0  0.00000000000E+00  0.00000000000E+00  0.17807141419E+04  0.17807141419E+04  0.50400001928E-02 0.  1.
       -1   -1    0    0    0  501  0.00000000000E+00  0.00000000000E+00 -0.11003451815E+04  0.11003451815E+04  0.50400001928E-02 0. -1.
    10030    2    1    2    0    0  0.00000000000E+00  0.00000000000E+00  0.68036896034E+03  0.28810593234E+04  0.27995715570E+04 0.  0.
        3    1    3    3  502    0  0.89976678331E+03 -0.97989999697E+03 -0.10793936946E+03  0.13347041568E+04  0.10100000352E+00 0. -1.
       -3    1    3    3    0  502 -0.89976678331E+03  0.97989999697E+03  0.78830832980E+03  0.15463551667E+04  0.10100000352E+00 0.  1.
</event>
<event>
 5   0  0.3571498E-07  0.2799173E+04  0.7818609E-02  0.8303525E-01
       -2   -1    0    0    0  501  0.00000000000E+00  0.00000000000E+00  0.14497653570E+04  0.14497653570E+04  0.25500000920E-02 0. -1.
        2   -1    0    0  501    0  0.00000000000E+00  0.00000000000E+00 -0.13511440000E+04  0.13511440000E+04  0.25500000920E-02 0.  1.
    10030    2    1    2    0    0  0.00000000000E+00  0.00000000000E+00  0.98621357018E+02  0.28009093571E+04  0.27991725660E+04 0.  0.
        2    1    3    3  502    0  0.15560744118E+02 -0.11559412369E+04 -0.74010181103E+03  0.13726590875E+04  0.25500000920E-02 0.  1.
       -2    1    3    3    0  502 -0.15560744118E+02  0.11559412369E+04  0.83872316805E+03  0.14282502696E+04  0.25500000920E-02 0. -1.
</event>
<event>
 5   0  0.3406920E-07  0.2800114E+04  0.7818609E-02  0.8303233E-01
       -2   -1    0    0    0  501  0.00000000000E+00  0.00000000000E+00  0.11749940541E+04  0.11749940541E+04  0.25500000920E-02 0.  1.
        2   -1    0    0  501    0  0.00000000000E+00  0.00000000000E+00 -0.16682291772E+04  0.16682291772E+04  0.25500000920E-02 0. -1.
    10030    2    1    2    0    0  0.00000000000E+00  0.00000000000E+00 -0.49323512316E+03  0.28432232313E+04  0.28001138292E+04 0.  0.
        4    1    3    3  502    0  0.98600150391E+02 -0.12617931156E+04 -0.85442652081E+03  0.15270527655E+04  0.12699999809E+01 0. -1.
       -4    1    3    3    0  502 -0.98600150391E+02  0.12617931156E+04  0.36119139765E+03  0.13161704658E+04  0.12699999809E+01 0.  1.
</event>
<event>
 5   0  0.3571498E-07  0.2799546E+04  0.7818609E-02  0.8303409E-01
       -2   -1    0    0    0  501  0.00000000000E+00  0.00000000000E+00  0.11041329834E+04  0.11041329834E+04  0.25500000920E-02 0.  1.
        2   -1    0    0  501    0  0.00000000000E+00  0.00000000000E+00 -0.17745728324E+04  0.17745728324E+04  0.25500000920E-02 0. -1.
    10030    2    1    2    0    0  0.00000000000E+00  0.00000000000E+00 -0.67043984901E+03  0.28787058158E+04  0.27995459601E+04 0.  0.
        2    1    3    3  502    0  0.87826364253E+03  0.10886762870E+04 -0.28079592872E+03  0.14266777622E+04  0.25500000920E-02 0. -1.
       -2    1    3    3    0  502 -0.87826364253E+03 -0.10886762870E+04 -0.38964392029E+03  0.14520280535E+04  0.25500000920E-02 0.  1.
</event>
<event>
 5   0  0.1357902E-07  0.2798688E+04  0.7818609E-02  0.8303676E-01
       -1   -1    0    0    0  501  0.00000000000E+00  0.00000000000E+00  0.25506769075E+04  0.25506769075E+04  0.50400001928E-02 0.  1.
        1   -1    0    0  501    0  0.00000000000E+00  0.00000000000E+00 -0.76770334665E+03  0.76770334667E+03  0.50400001928E-02 0. -1.
    10030    2    1    2    0    0  0.00000000000E+00  0.00000000000E+00  0.17829735609E+04  0.33183802542E+04  0.27986876912E+04 0.  0.
        4    1    3    3  502    0  0.11942831982E+04  0.13872782889E+03  0.42574862561E+02  0.12030677454E+04  0.12699999809E+01 0.  1.
       -4    1    3    3    0  502 -0.11942831982E+04 -0.13872782889E+03  0.17403986983E+04  0.21153125089E+04  0.12699999809E+01 0. -1.
</event>
<event>
 5   0  0.3557628E-07  0.2796569E+04  0.7818609E-02  0.8304334E-01
        2   -1    0    0  501    0  0.00000000000E+00  0.00000000000E+00  0.97919796284E+03  0.97919796284E+03  0.25500000920E-02 0.  1.
       -2   -1    0    0    0  501  0.00000000000E+00  0.00000000000E+00 -0.19967352154E+04  0.19967352154E+04  0.25500000920E-02 0. -1.
    10030    2    1    2    0    0  0.00000000000E+00  0.00000000000E+00 -0.10175372526E+04  0.29759331783E+04  0.27965686513E+04 0.  0.
        5    1    3    3  502    0  0.22180921853E+03  0.88335314646E+03 -0.16377902079E+04  0.18740039930E+04  0.46999998093E+01 0. -1.
       -5    1    3    3    0  502 -0.22180921853E+03 -0.88335314646E+03  0.62025295529E+03  0.11019291853E+04  0.46999998093E+01 0.  1.
</event>
<event>
 5   0  0.1366235E-07  0.2799969E+04  0.7818609E-02  0.8303278E-01
       -1   -1    0    0    0  501  0.00000000000E+00  0.00000000000E+00  0.14900701412E+04  0.14900701412E+04  0.50400001928E-02 0.  1.
        1   -1    0    0  501    0  0.00000000000E+00  0.00000000000E+00 -0.13153448602E+04  0.13153448602E+04  0.50400001928E-02 0. -1.
    10030    2    1    2    0    0  0.00000000000E+00  0.00000000000E+00  0.17472528095E+03  0.28054150014E+04  0.27999686438E+04 0.  0.
        2    1    3    3  502    0 -0.94302430642E+03 -0.89627366939E+03  0.60543200859E+03  0.14349736060E+04  0.25500000920E-02 0.  1.
       -2    1    3    3    0  502  0.94302430642E+03  0.89627366939E+03 -0.43070672764E+03  0.13704413954E+04  0.25500000920E-02 0. -1.
</event>
<event>
 5   0  0.1346049E-07  0.2797842E+04  0.7818609E-02  0.8303939E-01
        1   -1    0    0  501    0  0.00000000000E+00  0.00000000000E+00  0.18573292580E+04  0.18573292580E+04  0.50400001928E-02 0. -1.
       -1   -1    0    0    0  501  0.00000000000E+00  0.00000000000E+00 -0.10536526308E+04  0.10536526308E+04  0.50400001928E-02 0.  1.
    10030    2    1    2    0    0  0.00000000000E+00  0.00000000000E+00  0.80367662724E+03  0.29109818888E+04  0.27978419247E+04 0.  0.
        1    1    3    3  502    0 -0.16742923838E+03 -0.10041579007E+04 -0.59644811957E+03  0.11798796544E+04  0.50400001928E-02 0.  1.
       -1    1    3    3    0  502  0.16742923838E+03  0.10041579007E+04  0.14001247468E+04  0.17311022344E+04  0.50400001928E-02 0. -1.
</event>
<event>
 5   0  0.1361741E-07  0.2797549E+04  0.7818609E-02  0.8304030E-01
       -1   -1    0    0    0  501  0.00000000000E+00  0.00000000000E+00  0.95019704500E+03  0.95019704501E+03  0.50400001928E-02 0. -1.
        1   -1    0    0  501    0  0.00000000000E+00  0.00000000000E+00 -0.20591205438E+04  0.20591205438E+04  0.50400001928E-02 0.  1.
    10030    2    1    2    0    0  0.00000000000E+00  0.00000000000E+00 -0.11089234988E+04  0.30093175888E+04  0.27975491102E+04 0.  0.
        5    1    3    3  502    0 -0.68321650529E+03 -0.46285637837E+03  0.66042331021E+03  0.10569777002E+04  0.46999998093E+01 0. -1.
       -5    1    3    3    0  502  0.68321650529E+03  0.46285637837E+03 -0.17693468090E+04  0.19523398886E+04  0.46999998093E+01 0.  1.
</event>
<event>
 5   0  0.1357902E-07  0.2801817E+04  0.7818609E-02  0.8302704E-01
       -1   -1    0    0    0  501  0.00000000000E+00  0.00000000000E+00  0.86750491876E+03  0.86750491878E+03  0.50400001928E-02 0.  1.
        1   -1    0    0  501    0  0.00000000000E+00  0.00000000000E+00 -0.22622866137E+04  0.22622866137E+04  0.50400001928E-02 0. -1.
    10030    2    1    2    0    0  0.00000000000E+00  0.00000000000E+00 -0.13947816949E+04  0.31297915324E+04  0.28018170997E+04 0.  0.
        4    1    3    3  502    0  0.25690305966E+03  0.11132411411E+04 -0.16029920822E+04  0.19684740915E+04  0.12699999809E+01 0. -1.
       -4    1    3    3    0  502 -0.25690305966E+03 -0.11132411411E+04  0.20821038730E+03  0.11613174410E+04  0.12699999809E+01 0.  1.
</event>
<event>
 5   0  0.3522569E-07  0.2801435E+04  0.7818609E-02  0.8302823E-01
       -2   -1    0    0    0  501  0.00000000000E+00  0.00000000000E+00  0.92468571300E+03  0.92468571300E+03  0.25500000920E-02 0. -1.
        2   -1    0    0  501    0  0.00000000000E+00  0.00000000000E+00 -0.21218118216E+04  0.21218118216E+04  0.25500000920E-02 0.  1.
    10030    2    1    2    0    0  0.00000000000E+00  0.00000000000E+00 -0.11971261086E+04  0.30464975346E+04  0.28014346875E+04 0.  0.
        1    1    3    3  502    0 -0.11150907116E+04  0.81611486921E+03 -0.84782635758E+03  0.16211971834E+04  0.50400001928E-02 0. -1.
       -1    1    3    3    0  502  0.11150907116E+04 -0.81611486921E+03 -0.34929975100E+03  0.14253003512E+04  0.50400001928E-02 0.  1.
</event>
<event>
 5   0  0.1346049E-07  0.2799534E+04  0.7818609E-02  0.8303413E-01
        1   -1    0    0  501    0  0.00000000000E+00  0.00000000000E+00  0.91807129122E+03  0.91807129123E+03  0.50400001928E-02 0.  1.
       -1   -1    0    0    0  501  0.00000000000E+00  0.00000000000E+00 -0.21341996508E+04  0.21341996508E+04  0.50400001928E-02 0. -1.
    10030    2    1    2    0    0  0.00000000000E+00  0.00000000000E+00 -0.12161283596E+04  0.30522709421E+04  0.27995338392E+04 0.  0.
        1    1    3    3  502    0  0.10303815419E+04  0.75433614834E+03  0.16959450338E+02  0.12771048389E+04  0.50400001928E-02 0.  1.
       -1    1    3    3    0  502 -0.10303815419E+04 -0.75433614834E+03 -0.12330878099E+04  0.17751661031E+04  0.50400001928E-02 0. -1.
</event>
<event>
 5   0  0.3502141E-07  0.2807138E+04  0.7818609E-02  0.8301056E-01
        2   -1    0    0  501    0  0.00000000000E+00  0.00000000000E+00  0.14667350656E+04  0.14667350656E+04  0.25500000920E-02 0. -1.
       -2   -1    0    0    0  501  0.00000000000E+00  0.00000000000E+00 -0.13431234738E+04  0.13431234738E+04  0.25500000920E-02 0.  1.
    10030    2    1    2    0    0  0.00000000000E+00  0.00000000000E+00  0.12361159183E+03  0.28098585393E+04  0.28071382555E+04 0.  0.
        3    1    3    3  502    0  0.56973014778E+03  0.11532723935E+04 -0.50032244995E+03  0.13802000649E+04  0.10100000352E+00 0.  1.
       -3    1    3    3    0  502 -0.56973014778E+03 -0.11532723935E+04  0.62393404179E+03  0.14296584745E+04  0.10100000352E+00 0. -1.
</event>
<event>
 5   0  0.3522569E-07  0.2800530E+04  0.7818609E-02  0.8303104E-01
        2   -1    0    0  501    0  0.00000000000E+00  0.00000000000E+00  0.23649979633E+04  0.23649979633E+04  0.25500000920E-02 0. -1.
       -2   -1    0    0    0  501  0.00000000000E+00  0.00000000000E+00 -0.82906733449E+03  0.82906733449E+03  0.25500000920E-02 0.  1.
    10030    2    1    2    0    0  0.00000000000E+00  0.00000000000E+00  0.15359306288E+04  0.31940652978E+04  0.28005303480E+04 0.  0.
        1    1    3    3  502    0 -0.31356261080E+01  0.84745990992E+03 -0.50336812411E+03  0.98568635958E+03  0.50400001928E-02 0.  1.
       -1    1    3    3    0  502  0.31356261080E+01 -0.84745990992E+03  0.20392987529E+04  0.22083789382E+04  0.50400001928E-02 0. -1.
</event>
<event>
 5   0  0.3522569E-07  0.2797184E+04  0.7818609E-02  0.8304143E-01
        2   -1    0    0  501    0  0.00000000000E+00  0.00000000000E+00  0.21344404817E+04  0.21344404817E+04  0.25500000920E-02 0.  1.
       -2   -1    0    0    0  501  0.00000000000E+00  0.00000000000E+00 -0.91642756340E+03  0.91642756340E+03  0.25500000920E-02 0. -1.
    10030    2    1    2    0    0  0.00000000000E+00  0.00000000000E+00  0.12180129183E+04  0.30508680451E+04  0.27971843628E+04 0.  0.
        1    1    3    3  502    0 -0.61589132286E+03  0.51300701870E+03 -0.64104410955E+03  0.10263702418E+04  0.50400001928E-02 0. -1.
       -1    1    3    3    0  502  0.61589132286E+03 -0.51300701870E+03  0.18590570278E+04  0.20244978033E+04  0.50400001928E-02 0.  1.
</event>
<event>
 5   0  0.3557628E-07  0.2802087E+04  0.7818609E-02  0.8302621E-01
       -2   -1    0    0    0  501  0.00000000000E+00  0.00000000000E+00  0.92423419045E+03  0.92423419045E+03  0.25500000920E-02 0. -1.
        2   -1    0    0  501    0  0.00000000000E+00  0.00000000000E+00 -0.21238370423E+04  0.21238370423E+04  0.25500000920E-02 0.  1.
    10030    2    1    2    0    0  0.00000000000E+00  0.00000000000E+00 -0.11996028518E+04  0.30480712327E+04  0.28020869433E+04 0.  0.
        5    1    3    3  502    0 -0.43146816632E+03  0.70913285224E+02 -0.20477044876E+04  0.20938742157E+04  0.46999998093E+01 0.  1.
       -5    1    3    3    0  502  0.43146816632E+03 -0.70913285224E+02  0.84810163582E+03  0.95419701700E+03  0.46999998093E+01 0. -1.
</event>
<event>
 5   0  0.1361741E-07  0.2805870E+04  0.7818609E-02  0.8301448E-01
        1   -1    0    0  501    0  0.00000000000E+00  0.00000000000E+00  0.15150309281E+04  0.15150309281E+04  0.50400001928E-02 0.  1.
       -1   -1    0    0    0  501  0.00000000000E+00  0.00000000000E+00 -0.12991325494E+04  0.12991325494E+04  0.50400001928E-02 0. -1.
    10030    2    1    2    0    0  0.00000000000E+00  0.00000000000E+00  0.21589837865E+03  0.28141634775E+04  0.28058695565E+04 0.  0.
        5    1    3    3  502    0  0.23848301265E+03  0.91621568478E+03 -0.93042680713E+03  0.13274190980E+04  0.46999998093E+01 0. -1.
       -5    1    3    3    0  502 -0.23848301265E+03 -0.91621568478E+03  0.11463251858E+04  0.14867443795E+04  0.46999998093E+01 0.  1.
</event>
<event>
 5   0  0.3502141E-07  0.2800831E+04  0.7818609E-02  0.8303011E-01
       -2   -1    0    0    0  501  0.00000000000E+00  0.00000000000E+00  0.11187811300E+04  0.11187811300E+04  0.25500000920E-02 0. -1.
        2   -1    0    0  501    0  0.00000000000E+00  0.00000000000E+00 -0.17529462262E+04  0.17529462262E+04  0.25500000920E-02 0.  1.
    10030    2    1    2    0    0  0.00000000000E+00  0.00000000000E+00 -0.63416509624E+03  0.28717273562E+04  0.28008307052E+04 0.  0.
        3    1    3    3  502    0  0.51806913152E+03  0.13003253967E+04 -0.27213936774E+03  0.14259388514E+04  0.10100000352E+00 0. -1.
       -3    1    3    3    0  502 -0.51806913152E+03 -0.13003253967E+04 -0.36202572850E+03  0.14457885048E+04  0.10100000352E+00 0.  1.
</event>
<event>
 5   0  0.1366235E-07  0.2798779E+04  0.7818609E-02  0.8303648E-01
        1   -1    0    0  501    0  0.00000000000E+00  0.00000000000E+00  0.20659405647E+04  0.20659405647E+04  0.50400001928E-02 0.  1.
       -1   -1    0    0    0  501  0.00000000000E+00  0.00000000000E+00 -0.94789288477E+03  0.94789288479E+03  0.50400001928E-02 0. -1.
    10030    2    1    2    0    0  0.00000000000E+00  0.00000000000E+00  0.11180476799E+04  0.30138334495E+04  0.27987785633E+04 0.  0.
        2    1    3    3  502    0  0.70768313463E+03  0.99406983200E+03  0.12967174788E+04  0.17805803745E+04  0.25500000920E-02 0.  1.
       -2    1    3    3    0  502 -0.70768313463E+03 -0.99406983200E+03 -0.17866979896E+03  0.12332530750E+04  0.25500000920E-02 0. -1.
</event>
<event>
 5   0  0.1346049E-07  0.2800809E+04  0.7818609E-02  0.8303017E-01
       -1   -1    0    0    0  501  0.00000000000E+00  0.00000000000E+00  0.11013016062E+04  0.11013016062E+04  0.50400001928E-02 0. -1.
        1   -1    0    0  501    0  0.00000000000E+00  0.00000000000E+00 -0.17807413472E+04  0.17807413472E+04  0.50400001928E-02 0.  1.
    10030    2    1    2    0    0  0.00000000000E+00  0.00000000000E+00 -0.67943974105E+03  0.28820429534E+04  0.28008093872E+04 0.  0.
        1    1    3    3  502    0  0.84416557504E+03 -0.39078575465E+03 -0.14168877446E+04  0.16949630984E+04  0.50400001928E-02 0.  1.
       -1    1    3    3    0  502 -0.84416557504E+03  0.39078575465E+03  0.73744800356E+03  0.11870798550E+04  0.50400001928E-02 0. -1.
</event>
<event>
 5   0  0.1374680E-07  0.2803086E+04  0.7818609E-02  0.8302311E-01
        1   -1    0    0  501    0  0.00000000000E+00  0.00000000000E+00  0.19198637948E+04  0.19198637948E+04  0.50400001928E-02 0.  1.
       -1   -1    0    0    0  501  0.00000000000E+00  0.00000000000E+00 -0.10231574118E+04  0.10231574118E+04  0.50400001928E-02 0. -1.
    10030    2    1    2    0    0  0.00000000000E+00  0.00000000000E+00  0.89670638304E+03  0.29430212066E+04  0.28030860645E+04 0.  0.
        3    1    3    3  502    0 -0.43625647708E+03  0.44873315751E+03 -0.86830138454E+03  0.10703403501E+04  0.10100000352E+00 0. -1.
       -3    1    3    3    0  502  0.43625647708E+03 -0.44873315751E+03  0.17650077676E+04  0.18726808565E+04  0.10100000352E+00 0.  1.
</event>
<event>
 5   0  0.1374680E-07  0.2801539E+04  0.7818609E-02  0.8302791E-01
        1   -1    0    0  501    0  0.00000000000E+00  0.00000000000E+00  0.18492454265E+04  0.18492454265E+04  0.50400001928E-02 0.  1.
       -1   -1    0    0    0  501  0.00000000000E+00  0.00000000000E+00 -0.10610570216E+04  0.10610570216E+04  0.50400001928E-02 0. -1.
    10030    2    1    2    0    0  0.00000000000E+00  0.00000000000E+00  0.78818840488E+03  0.29103024481E+04  0.28015387518E+04 0.  0.
        3    1    3    3  502    0  0.13115719826E+03 -0.13078954846E+04  0.89699822730E+03  0.15913511992E+04  0.10100000352E+00 0.  1.
       -3    1    3    3    0  502 -0.13115719826E+03  0.13078954846E+04 -0.10880982242E+03  0.13189512489E+04  0.10100000352E+00 0. -1.
</event>
<event>
 5   0  0.3571498E-07  0.2798884E+04  0.7818609E-02  0.8303615E-01
       -2   -1    0    0    0  501  0.00000000000E+00  0.00000000000E+00  0.10963037860E+04  0.10963037860E+04  0.25500000920E-02 0. -1.
        2   -1    0    0  501    0  0.00000000000E+00  0.00000000000E+00 -0.17864002013E+04  0.17864002013E+04  0.25500000920E-02 0.  1.
    10030    2    1    2    0    0  0.00000000000E+00  0.00000000000E+00 -0.69009641522E+03  0.28827039873E+04  0.27988835660E+04 0.  0.
        2    1    3    3  502    0  0.96094947947E+03 -0.64353674438E+03 -0.11566012397E+04  0.16356313372E+04  0.25500000920E-02 0.  1.
       -2    1    3    3    0  502 -0.96094947947E+03  0.64353674438E+03  0.46650482447E+03  0.12470726501E+04  0.25500000920E-02 0. -1.
</event>
<event>
 5   0  0.1361741E-07  0.2799741E+04  0.7818609E-02  0.8303349E-01
        1   -1    0    0  501    0  0.00000000000E+00  0.00000000000E+00  0.28531733673E+04  0.28531733673E+04  0.50400001928E-02 0. -1.
       -1   -1    0    0    0  501  0.00000000000E+00  0.00000000000E+00 -0.68682744333E+03  0.68682744335E+03  0.50400001928E-02 0.  1.
    10030    2    1    2    0    0  0.00000000000E+00  0.00000000000E+00  0.21663459240E+04  0.35400008107E+04  0.27997412518E+04 0.  0.
        5    1    3    3  502    0 -0.96209696424E+03  0.14698227879E+03 -0.18903329395E+03  0.99145853927E+03  0.46999998093E+01 0.  1.
       -5    1    3    3    0  502  0.96209696424E+03 -0.14698227879E+03  0.23553792180E+04  0.25485422714E+04  0.46999998093E+01 0. -1.
</event>
<event>
 5   0  0.3557628E-07  0.2799637E+04  0.7818609E-02  0.8303381E-01
       -2   -1    0    0    0  501  0.00000000000E+00  0.00000000000E+00  0.98921494259E+03  0.98921494259E+03  0.25500000920E-02 0.  1.
        2   -1    0    0  501    0  0.00000000000E+00  0.00000000000E+00 -0.19808547818E+04  0.19808547818E+04  0.25500000920E-02 0. -1.
    10030    2    1    2    0    0  0.00000000000E+00  0.00000000000E+00 -0.99163983920E+03  0.29700697244E+04  0.27996365116E+04 0.  0.
        5    1    3    3  502    0 -0.12193262644E+04  0.68146949771E+03 -0.59253934016E+03  0.15173273131E+04  0.46999998093E+01 0.  1.
       -5    1    3    3    0  502  0.12193262644E+04 -0.68146949771E+03 -0.39910049904E+03  0.14527424113E+04  0.46999998093E+01 0. -1.
</event>
<event>
 5   0  0.1366235E-07  0.2801351E+04  0.7818609E-02  0.8302849E-01
       -1   -1    0    0    0  501  0.00000000000E+00  0.00000000000E+00  0.12178341299E+04  0.12178341299E+04  0.50400001928E-02 0.  1.
        1   -1    0    0  501    0  0.00000000000E+00  0.00000000000E+00 -0.16109678362E+04  0.16109678362E+04  0.50400001928E-02 0. -1.
    10030    2    1    2    0    0  0.00000000000E+00  0.00000000000E+00 -0.39313370631E+03  0.28288019661E+04  0.28013508263E+04 0.  0.
        2    1    3    3  502    0 -0.69261924948E+03 -0.10751026283E+04  0.38027916988E+03  0.13342336126E+04  0.25500000920E-02 0. -1.
       -2    1    3    3    0  502  0.69261924948E+03  0.10751026283E+04 -0.77341287619E+03  0.14945683534E+04  0.25500000920E-02 0.  1.
</event>
<event>
 5   0  0.1173363E-07  0.2799177E+04  0.7818609E-02  0.8303524E-01
        4   -1    0    0  501    0  0.00000000000E+00  0.00000000000E+00  0.15557241392E+04  0.15557246576E+04  0.12699999809E+01 0. -1.
       -4   -1    0    0    0  501  0.00000000000E+00  0.00000000000E+00 -0.12591222220E+04  0.12591228625E+04  0.12699999809E+01 0.  1.
    10030    2    1    2    0    0  0.00000000000E+00  0.00000000000E+00  0.29660191722E+03  0.28148475200E+04  0.27991773548E+04 0.  0.
        3    1    3    3  502    0 -0.24686947848E+03  0.99330804191E+03 -0.81163347980E+03  0.13062749792E+04  0.10100000352E+00 0.  1.
       -3    1    3    3    0  502  0.24686947848E+03 -0.99330804191E+03  0.11082353970E+04  0.15085725408E+04  0.10100000352E+00 0. -1.
</event>
<event>
 5   0  0.1346049E-07  0.2799293E+04  0.7818609E-02  0.8303488E-01
        1   -1    0    0  501    0  0.00000000000E+00  0.00000000000E+00  0.17903882561E+04  0.17903882561E+04  0.50400001928E-02 0. -1.
       -1   -1    0    0    0  501  0.00000000000E+00  0.00000000000E+00 -0.10941819761E+04  0.10941819762E+04  0.50400001928E-02 0.  1.
    10030    2    1    2    0    0  0.00000000000E+00  0.00000000000E+00  0.69620627994E+03  0.28845702322E+04  0.27992931680E+04 0.  0.
        1    1    3    3  502    0  0.12468948936E+04  0.54154114337E+03  0.47918322705E+01  0.13594251165E+04  0.50400001928E-02 0.  1.
       -1    1    3    3    0  502 -0.12468948936E+04 -0.54154114337E+03  0.69141444767E+03  0.15251451158E+04  0.50400001928E-02 0. -1.
</event>
<event>
 5   0  0.1366235E-07  0.2801260E+04  0.7818609E-02  0.8302877E-01
       -1   -1    0    0    0  501  0.00000000000E+00  0.00000000000E+00  0.10322061861E+04  0.10322061861E+04  0.50400001928E-02 0.  1.
        1   -1    0    0  501    0  0.00000000000E+00  0.00000000000E+00 -0.19005541588E+04  0.19005541588E+04  0.50400001928E-02 0. -1.
    10030    2    1    2    0    0  0.00000000000E+00  0.00000000000E+00 -0.86834797272E+03  0.29327603449E+04  0.28012595450E+04 0.  0.
        2    1    3    3  502    0  0.10056389455E+04 -0.54414065913E+02  0.58491303911E+03  0.11646432255E+04  0.25500000920E-02 0.  1.
       -2    1    3    3    0  502 -0.10056389455E+04  0.54414065913E+02 -0.14532610118E+04  0.17681171194E+04  0.25500000920E-02 0. -1.
</event>
<event>
 5   0  0.3522569E-07  0.2801279E+04  0.7818609E-02  0.8302871E-01
        2   -1    0    0  501    0  0.00000000000E+00  0.00000000000E+00  0.24964348341E+04  0.24964348341E+04  0.25500000920E-02 0.  1.
       -2   -1    0    0    0  501  0.00000000000E+00  0.00000000000E+00 -0.78583694238E+03  0.78583694238E+03  0.25500000920E-02 0. -1.
    10030    2    1    2    0    0  0.00000000000E+00  0.00000000000E+00  0.17105978917E+04  0.32822717765E+04  0.28012787915E+04 0.  0.
        1    1    3    3  502    0  0.49198168964E+01  0.45373435817E+03 -0.69732779324E+03  0.83196461682E+03  0.50400001928E-02 0. -1.
       -1    1    3    3    0  502 -0.49198168964E+01 -0.45373435817E+03  0.24079256849E+04  0.24503071596E+04  0.50400001928E-02 0.  1.
</event>
<event>
 5   0  0.3522569E-07  0.2800227E+04  0.7818609E-02  0.8303198E-01
        2   -1    0    0  501    0  0.00000000000E+00  0.00000000000E+00  0.14489463456E+04  0.14489463456E+04  0.25500000920E-02 0. -1.
       -2   -1    0    0    0  501  0.00000000000E+00  0.00000000000E+00 -0.13529264619E+04  0.13529264619E+04  0.25500000920E-02 0.  1.
    10030    2    1    2    0    0  0.00000000000E+00  0.00000000000E+00  0.96019883754E+02  0.28018728075E+04  0.28002270285E+04 0.  0.
        1    1    3    3  502    0  0.39305579132E+03  0.10966899299E+04 -0.72903916846E+03  0.13743070132E+04  0.50400001928E-02 0.  1.
       -1    1    3    3    0  502 -0.39305579132E+03 -0.10966899299E+04  0.82505905221E+03  0.14275657943E+04  0.50400001928E-02 0. -1.
</event>
<event>
 5   0  0.1357902E-07  0.2799823E+04  0.7818609E-02  0.8303323E-01
        1   -1    0    0  501    0  0.00000000000E+00  0.00000000000E+00  0.17098804214E+04  0.17098804214E+04  0.50400001928E-02 0. -1.
       -1   -1    0    0    0  501  0.00000000000E+00  0.00000000000E+00 -0.11461342278E+04  0.11461342278E+04  0.50400001928E-02 0.  1.
    10030    2    1    2    0    0  0.00000000000E+00  0.00000000000E+00  0.56374619362E+03  0.28560146492E+04  0.27998231918E+04 0.  0.
        4    1    3    3  502    0  0.13328504984E+04 -0.19395000557E+03 -0.10741922369E+03  0.13511652594E+04  0.12699999809E+01 0.  1.
       -4    1    3    3    0  502 -0.13328504984E+04  0.19395000557E+03  0.67116541731E+03  0.15048493898E+04  0.12699999809E+01 0. -1.
</event>
<event>
 5   0  0.3557628E-07  0.2800060E+04  0.7818609E-02  0.8303250E-01
       -2   -1    0    0    0  501  0.00000000000E+00  0.00000000000E+00  0.10295002229E+04  0.10295002229E+04  0.25500000920E-02 0.  1.
        2   -1    0    0  501    0  0.00000000000E+00  0.00000000000E+00 -0.19039177629E+04  0.19039177629E+04  0.25500000920E-02 0. -1.
    10030    2    1    2    0    0  0.00000000000E+00  0.00000000000E+00 -0.87441754001E+03  0.29334179857E+04  0.28000598288E+04 0.  0.
        5    1    3    3  502    0  0.72950466298E+03  0.11852623903E+04 -0.59621936009E+03  0.15141081872E+04  0.46999998093E+01 0. -1.
       -5    1    3    3    0  502 -0.72950466298E+03 -0.11852623903E+04 -0.27819817991E+03  0.14193097986E+04  0.46999998093E+01 0.  1.
</event>
<event>
 5   0  0.1361741E-07  0.2799605E+04  0.7818609E-02  0.8303391E-01
       -1   -1    0    0    0  501  0.00000000000E+00  0.00000000000E+00  0.86186609100E+03  0.86186609101E+03  0.50400001928E-02 0. -1.
        1   -1    0    0  501    0  0.00000000000E+00  0.00000000000E+00 -0.22734933104E+04  0.22734933104E+04  0.50400001928E-02 0.  1.
    10030    2    1    2    0    0  0.00000000000E+00  0.00000000000E+00 -0.14116272194E+04  0.31353594014E+04  0.27996048238E+04 0.  0.
        5    1    3    3  502    0 -0.79130721548E+03 -0.68161173966E+03  0.33798392430E+03  0.10977326159E+04  0.46999998093E+01 0. -1.
       -5    1    3    3    0  502  0.79130721548E+03  0.68161173966E+03 -0.17496111437E+04  0.20376267855E+04  0.46999998093E+01 0.  1.
</event>
<event>
 5   0  0.1366235E-07  0.2800143E+04  0.7818609E-02  0.8303224E-01
        1   -1    0    0  501    0  0.00000000000E+00  0.00000000000E+00  0.14643372668E+04  0.14643372668E+04  0.50400001928E-02 0.  1.
       -1   -1    0    0    0  501  0.00000000000E+00  0.00000000000E+00 -0.13386265488E+04  0.13386265488E+04  0.50400001928E-02 0. -1.
    10030    2    1    2    0    0  0.00000000000E+00  0.00000000000E+00  0.12571071803E+03  0.28029638157E+04  0.28001433833E+04 0.  0.
        2    1    3    3  502    0 -0.14781679823E+03  0.11785156510E+04 -0.67914141967E+03  0.13682039371E+04  0.25500000920E-02 0. -1.
       -2    1    3    3    0  502  0.14781679823E+03 -0.11785156510E+04  0.80485213771E+03  0.14347598786E+04  0.25500000920E-02 0.  1.
</event>
<event>
 5   0  0.3557628E-07  0.2800061E+04  0.7818609E-02  0.8303249E-01
        2   -1    0    0  501    0  0.00000000000E+00  0.00000000000E+00  0.15695346142E+04  0.15695346142E+04  0.25500000920E-02 0. -1.
       -2   -1    0    0    0  501  0.00000000000E+00  0.00000000000E+00 -0.12488320446E+04  0.12488320446E+04  0.25500000920E-02 0.  1.
    10030    2    1    2    0    0  0.00000000000E+00  0.00000000000E+00  0.32070256961E+03  0.28183666588E+04  0.28000608003E+04 0.  0.
        5    1    3    3  502    0  0.60179604287E+03 -0.92192576613E+03  0.10308506783E+04  0.15082376492E+04  0.46999998093E+01 0. -1.
       -5    1    3    3    0  502 -0.60179604287E+03  0.92192576613E+03 -0.71014810871E+03  0.13101290096E+04  0.46999998093E+01 0.  1.
</event>
<event>
 5   0  0.3522569E-07  0.2806850E+04  0.7818609E-02  0.8301145E-01
       -2   -1    0    0    0  501  0.00000000000E+00  0.00000000000E+00  0.92426382548E+03  0.92426382548E+03  0.25500000920E-02 0. -1.
        2   -1    0    0  501    0  0.00000000000E+00  0.00000000000E+00 -0.21309951758E+04  0.21309951758E+04  0.25500000920E-02 0.  1.
    10030    2    1    2    0    0  0.00000000000E+00  0.00000000000E+00 -0.12067313504E+04  0.30552590013E+04  0.28068500162E+04 0.  0.
        1    1    3    3  502    0  0.90308989893E+03 -0.45725296321E+03  0.45475028879E+03  0.11097069267E+04  0.50400001928E-02 0. -1.
       -1    1    3    3    0  502 -0.90308989893E+03  0.45725296321E+03 -0.16614816391E+04  0.19455520746E+04  0.50400001928E-02 0.  1.
</event>
<event>
 5   0  0.1366235E-07  0.2799718E+04  0.7818609E-02  0.8303356E-01
       -1   -1    0    0    0  501  0.00000000000E+00  0.00000000000E+00  0.17192149145E+04  0.17192149145E+04  0.50400001928E-02 0.  1.
        1   -1    0    0  501    0  0.00000000000E+00  0.00000000000E+00 -0.11398257454E+04  0.11398257454E+04  0.50400001928E-02 0. -1.
    10030    2    1    2    0    0  0.00000000000E+00  0.00000000000E+00  0.57938916906E+03  0.28590406599E+04  0.27997181440E+04 0.  0.
        2    1    3    3  502    0  0.11826098389E+04 -0.74042114345E+03  0.40530073111E+03  0.14529481007E+04  0.25500000920E-02 0.  1.
       -2    1    3    3    0  502 -0.11826098389E+04  0.74042114345E+03  0.17408843795E+03  0.14060925592E+04  0.25500000920E-02 0. -1.
</event>
<event>
 5   0  0.1173363E-07  0.2797899E+04  0.7818609E-02  0.8303921E-01
        3   -1    0    0  501    0  0.00000000000E+00  0.00000000000E+00  0.31515481981E+04  0.31515481997E+04  0.10100000352E+00 0.  1.
       -3   -1    0    0    0  501  0.00000000000E+00  0.00000000000E+00 -0.62098343523E+03  0.62098344345E+03  0.10100000352E+00 0. -1.
    10030    2    1    2    0    0  0.00000000000E+00  0.00000000000E+00  0.25305647628E+04  0.37725316431E+04  0.27978986721E+04 0.  0.
        2    1    3    3  502    0  0.98180126896E+03  0.97593362086E+02  0.26025255891E+04  0.27832710321E+04  0.25500000920E-02 0.  1.
       -2    1    3    3    0  502 -0.98180126896E+03 -0.97593362086E+02 -0.71960826266E+02  0.98926061106E+03  0.25500000920E-02 0. -1.
</event>
<event>
 5   0  0.1374680E-07  0.2807337E+04  0.7818609E-02  0.8300994E-01
        1   -1    0    0  501    0  0.00000000000E+00  0.00000000000E+00  0.19185714296E+04  0.19185714296E+04  0.50400001928E-02 0.  1.
       -1   -1    0    0    0  501  0.00000000000E+00  0.00000000000E+00 -0.10269543627E+04  0.10269543627E+04  0.50400001928E-02 0. -1.
    10030    2    1    2    0    0  0.00000000000E+00  0.00000000000E+00  0.89161706697E+03  0.29455257923E+04  0.28073370299E+04 0.  0.
        3    1    3    3  502    0 -0.35519836567E+03  0.65905393329E+02 -0.97734166373E+03  0.10419722346E+04  0.10100000352E+00 0. -1.
       -3    1    3    3    0  502  0.35519836567E+03 -0.65905393329E+02  0.18689587307E+04  0.19035535577E+04  0.10100000352E+00 0.  1.
</event>
<event>
 5   0  0.1374680E-07  0.2802628E+04  0.7818609E-02  0.8302453E-01
        1   -1    0    0  501    0  0.00000000000E+00  0.00000000000E+00  0.16821819929E+04  0.16821819929E+04  0.50400001928E-02 0.  1.
       -1   -1    0    0    0  501  0.00000000000E+00  0.00000000000E+00 -0.11673416695E+04  0.11673416695E+04  0.50400001928E-02 0. -1.
    10030    2    1    2    0    0  0.00000000000E+00  0.00000000000E+00  0.51484032335E+03  0.28495236624E+04  0.28026281494E+04 0.  0.
        3    1    3    3  502    0  0.67516925720E+03  0.11493734161E+04 -0.18197819608E+03  0.13453731265E+04  0.10100000352E+00 0. -1.
       -3    1    3    3    0  502 -0.67516925720E+03 -0.11493734161E+04  0.69681851944E+03  0.15041505359E+04  0.10100000352E+00 0.  1.
</event>
<event>
 5   0  0.1361741E-07  0.2800440E+04  0.7818609E-02  0.8303132E-01
       -1   -1    0    0    0  501  0.00000000000E+00  0.00000000000E+00  0.78192940664E+03  0.78192940666E+03  0.50400001928E-02 0. -1.
        1   -1    0    0  501    0  0.00000000000E+00  0.00000000000E+00 -0.25074072841E+04  0.25074072841E+04  0.50400001928E-02 0.  1.
    10030    2    1    2    0    0  0.00000000000E+00  0.00000000000E+00 -0.17254778774E+04  0.32893366907E+04  0.28004396011E+04 0.  0.
        5    1    3    3  502    0  0.12592772409E+04  0.61207269977E+03 -0.87855177732E+03  0.16529632406E+04  0.46999998093E+01 0. -1.
       -5    1    3    3    0  502 -0.12592772409E+04 -0.61207269977E+03 -0.84692610011E+03  0.16363734501E+04  0.46999998093E+01 0.  1.
</event>
<event>
 5   0  0.1357902E-07  0.2819591E+04  0.7818609E-02  0.8297212E-01
       -1   -1    0    0    0  501  0.00000000000E+00  0.00000000000E+00  0.88957253213E+03  0.88957253215E+03  0.50400001928E-02 0.  1.
        1   -1    0    0  501    0  0.00000000000E+00  0.00000000000E+00 -0.22342460489E+04  0.22342460489E+04  0.50400001928E-02 0. -1.
    10030    2    1    2    0    0  0.00000000000E+00  0.00000000000E+00 -0.13446735168E+04  0.31238185810E+04  0.28195913996E+04 0.  0.
        4    1    3    3  502    0 -0.12036902600E+03 -0.11310548802E+04  0.25044848721E+03  0.11646887576E+04  0.12699999809E+01 0.  1.
       -4    1    3    3    0  502  0.12036902600E+03  0.11310548802E+04 -0.15951220040E+04  0.19591298234E+04  0.12699999809E+01 0. -1.
</event>
<event>
 5   0  0.1361741E-07  0.2799925E+04  0.7818609E-02  0.8303292E-01
       -1   -1    0    0    0  501  0.00000000000E+00  0.00000000000E+00  0.22515966964E+04  0.22515966964E+04  0.50400001928E-02 0. -1.
        1   -1    0    0  501    0  0.00000000000E+00  0.00000000000E+00 -0.87044682556E+03  0.87044682558E+03  0.50400001928E-02 0.  1.
    10030    2    1    2    0    0  0.00000000000E+00  0.00000000000E+00  0.13811498709E+04  0.31220435220E+04  0.27999251396E+04 0.  0.
        5    1    3    3  502    0 -0.20898335909E+03 -0.10645879525E+04  0.16771547873E+04  0.19974713574E+04  0.46999998093E+01 0. -1.
       -5    1    3    3    0  502  0.20898335909E+03  0.10645879525E+04 -0.29600491643E+03  0.11245721646E+04  0.46999998093E+01 0.  1.
</event>
<event>
 5   0  0.3406920E-07  0.2799899E+04  0.7818609E-02  0.8303300E-01
       -2   -1    0    0    0  501  0.00000000000E+00  0.00000000000E+00  0.99461456294E+03  0.99461456295E+03  0.25500000920E-02 0. -1.
        2   -1    0    0  501    0  0.00000000000E+00  0.00000000000E+00 -0.19704708426E+04  0.19704708426E+04  0.25500000920E-02 0.  1.
    10030    2    1    2    0    0  0.00000000000E+00  0.00000000000E+00 -0.97585627961E+03  0.29650854055E+04  0.27998992809E+04 0.  0.
        4    1    3    3  502    0 -0.60575865084E+03  0.11501307465E+04 -0.10383144542E+04  0.16636835023E+04  0.12699999809E+01 0. -1.
       -4    1    3    3    0  502  0.60575865084E+03 -0.11501307465E+04  0.62458174633E+02  0.13014019032E+04  0.12699999809E+01 0.  1.
</event>
<event>
 5   0  0.1361741E-07  0.2798437E+04  0.7818609E-02  0.8303754E-01
        1   -1    0    0  501    0  0.00000000000E+00  0.00000000000E+00  0.15845934195E+04  0.15845934195E+04  0.50400001928E-02 0.  1.
       -1   -1    0    0    0  501  0.00000000000E+00  0.00000000000E+00 -0.12355300673E+04  0.12355300673E+04  0.50400001928E-02 0. -1.
    10030    2    1    2    0    0  0.00000000000E+00  0.00000000000E+00  0.34906335217E+03  0.28201234869E+04  0.27984372884E+04 0.  0.
        5    1    3    3  502    0 -0.60239729847E+03 -0.90071642385E+02 -0.10949107293E+04  0.12529353539E+04  0.46999998093E+01 0. -1.
       -5    1    3    3    0  502  0.60239729847E+03  0.90071642385E+02  0.14439740815E+04  0.15671881329E+04  0.46999998093E+01 0.  1.
</event>
<event>
 5   0  0.3502141E-07  0.2800749E+04  0.7818609E-02  0.8303036E-01
       -2   -1    0    0    0  501  0.00000000000E+00  0.00000000000E+00  0.11313499746E+04  0.11313499746E+04  0.25500000920E-02 0.  1.
        2   -1    0    0  501    0  0.00000000000E+00  0.00000000000E+00 -0.17333704587E+04  0.17333704587E+04  0.25500000920E-02 0. -1.
    10030    2    1    2    0    0  0.00000000000E+00  0.00000000000E+00 -0.60202048405E+03  0.28647204333E+04  0.28007489173E+04 0.  0.
        3    1    3    3  502    0 -0.10254183972E+03 -0.83054535990E+03 -0.14494779832E+04  0.16737105060E+04  0.10100000352E+00 0. -1.
       -3    1    3    3    0  502  0.10254183972E+03  0.83054535990E+03  0.84745749919E+03  0.11910099273E+04  0.10100000352E+00 0.  1.
</event>
<event>
 5   0  0.3502141E-07  0.2800682E+04  0.7818609E-02  0.8303057E-01
       -2   -1    0    0    0  501  0.00000000000E+00  0.00000000000E+00  0.18593120398E+04  0.18593120398E+04  0.25500000920E-02 0. -1.
        2   -1    0    0  501    0  0.00000000000E+00  0.00000000000E+00 -0.10546671901E+04  0.10546671901E+04  0.25500000920E-02 0.  1.
    10030    2    1    2    0    0  0.00000000000E+00  0.00000000000E+00  0.80464484969E+03  0.29139792299E+04  0.28006823487E+04 0.  0.
        3    1    3    3  502    0 -0.24081529900E+03  0.36213612078E+03  0.17872673317E+04  0.18394181426E+04  0.10100000352E+00 0. -1.
       -3    1    3    3    0  502  0.24081529900E+03 -0.36213612078E+03 -0.98262248196E+03  0.10745610874E+04  0.10100000352E+00 0.  1.
</event>
<event>
 5   0  0.1366235E-07  0.2799771E+04  0.7818609E-02  0.8303340E-01
        1   -1    0    0  501    0  0.00000000000E+00  0.00000000000E+00  0.19052708738E+04  0.19052708739E+04  0.50400001928E-02 0. -1.
       -1   -1    0    0    0  501  0.00000000000E+00  0.00000000000E+00 -0.10285565612E+04  0.10285565612E+04  0.50400001928E-02 0.  1.
    10030    2    1    2    0    0  0.00000000000E+00  0.00000000000E+00  0.87671431266E+03  0.29338274351E+04  0.27997706036E+04 0.  0.
        2    1    3    3  502    0  0.13747110509E+04 -0.11040692090E+03  0.18673752245E+03  0.13917223372E+04  0.25500000920E-02 0.  1.
       -2    1    3    3    0  502 -0.13747110509E+04  0.11040692090E+03  0.68997679021E+03  0.15421050978E+04  0.25500000920E-02 0. -1.
</event>
<event>
 5   0  0.3557628E-07  0.2801656E+04  0.7818609E-02  0.8302754E-01
        2   -1    0    0  501    0  0.00000000000E+00  0.00000000000E+00  0.20325619549E+04  0.20325619549E+04  0.25500000920E-02 0.  1.
       -2   -1    0    0    0  501  0.00000000000E+00  0.00000000000E+00 -0.96544122839E+03  0.96544122839E+03  0.25500000920E-02 0. -1.
    10030    2    1    2    0    0  0.00000000000E+00  0.00000000000E+00  0.10671207265E+04  0.29980031833E+04  0.28016560178E+04 0.  0.
        5    1    3    3  502    0  0.45487227763E+03 -0.12754169756E+04  0.91744980034E+03  0.16356446670E+04  0.46999998093E+01 0.  1.
       -5    1    3    3    0  502 -0.45487227763E+03  0.12754169756E+04  0.14967092618E+03  0.13623585163E+04  0.46999998093E+01 0. -1.
</event>
<event>
 5   0  0.1361741E-07  0.2799600E+04  0.7818609E-02  0.8303392E-01
        1   -1    0    0  501    0  0.00000000000E+00  0.00000000000E+00  0.93026409055E+03  0.93026409057E+03  0.50400001928E-02 0. -1.
       -1   -1    0    0    0  501  0.00000000000E+00  0.00000000000E+00 -0.21063273823E+04  0.21063273823E+04  0.50400001928E-02 0.  1.
    10030    2    1    2    0    0  0.00000000000E+00  0.00000000000E+00 -0.11760632917E+04  0.30365914728E+04  0.27996004906E+04 0.  0.
        5    1    3    3  502    0 -0.87015469543E+03  0.10022474465E+04 -0.10703657861E+04  0.17051023852E+04  0.46999998093E+01 0.  1.
       -5    1    3    3    0  502  0.87015469543E+03 -0.10022474465E+04 -0.10569750564E+03  0.13314890877E+04  0.46999998093E+01 0. -1.
</event>
<event>
 5   0  0.1366235E-07  0.2800818E+04  0.7818609E-02  0.8303014E-01
       -1   -1    0    0    0  501  0.00000000000E+00  0.00000000000E+00  0.11543506767E+04  0.11543506767E+04  0.50400001928E-02 0. -1.
        1   -1    0    0  501    0  0.00000000000E+00  0.00000000000E+00 -0.16989163022E+04  0.16989163022E+04  0.50400001928E-02 0.  1.
    10030    2    1    2    0    0  0.00000000000E+00  0.00000000000E+00 -0.54456562542E+03  0.28532669789E+04  0.28008178685E+04 0.  0.
        2    1    3    3  502    0 -0.60108025288E+03 -0.10114957647E+04  0.50136190703E+03  0.12789780742E+04  0.25500000920E-02 0. -1.
       -2    1    3    3    0  502  0.60108025288E+03  0.10114957647E+04 -0.10459275325E+04  0.15742889047E+04  0.25500000920E-02 0.  1.
</event>
<event>
 5   0  0.3557628E-07  0.2799914E+04  0.7818609E-02  0.8303295E-01
       -2   -1    0    0    0  501  0.00000000000E+00  0.00000000000E+00  0.75833590260E+03  0.75833590260E+03  0.25500000920E-02 0. -1.
        2   -1    0    0  501    0  0.00000000000E+00  0.00000000000E+00 -0.25844473745E+04  0.25844473745E+04  0.25500000920E-02 0.  1.
    10030    2    1    2    0    0  0.00000000000E+00  0.00000000000E+00 -0.18261114719E+04  0.33427832771E+04  0.27999137361E+04 0.  0.
        5    1    3    3  502    0  0.10381002458E+04  0.42534843956E+03  0.86738089839E+02  0.11252195348E+04  0.46999998093E+01 0. -1.
       -5    1    3    3    0  502 -0.10381002458E+04 -0.42534843956E+03 -0.19128495617E+04  0.22175637423E+04  0.46999998093E+01 0.  1.
</event>
<event>
 5   0  0.3522569E-07  0.2800058E+04  0.7818609E-02  0.8303250E-01
       -2   -1    0    0    0  501  0.00000000000E+00  0.00000000000E+00  0.13078642745E+04  0.13078642745E+04  0.25500000920E-02 0. -1.
        2   -1    0    0  501    0  0.00000000000E+00  0.00000000000E+00 -0.14986884178E+04  0.14986884178E+04  0.25500000920E-02 0.  1.
    10030    2    1    2    0    0  0.00000000000E+00  0.00000000000E+00 -0.19082414329E+03  0.28065526923E+04  0.28000578853E+04 0.  0.
        1    1    3    3  502    0 -0.17335263753E+03 -0.10166527286E+04 -0.10444171404E+04  0.14678014412E+04  0.50400001928E-02 0.  1.
       -1    1    3    3    0  502  0.17335263753E+03  0.10166527286E+04  0.85359299710E+03  0.13387512511E+04  0.50400001928E-02 0. -1.
</event>
<event>
 5   0  0.1366235E-07  0.2800537E+04  0.7818609E-02  0.8303102E-01
        1   -1    0    0  501    0  0.00000000000E+00  0.00000000000E+00  0.21229898277E+04  0.21229898277E+04  0.50400001928E-02 0.  1.
       -1   -1    0    0    0  501  0.00000000000E+00  0.00000000000E+00 -0.92358041214E+03  0.92358041215E+03  0.50400001928E-02 0. -1.
    10030    2    1    2    0    0  0.00000000000E+00  0.00000000000E+00  0.11994094155E+04  0.30465702398E+04  0.28005369628E+04 0.  0.
        2    1    3    3  502    0  0.24555459605E+02 -0.66814809285E+03 -0.73871912557E+03  0.99635876624E+03  0.25500000920E-02 0. -1.
       -2    1    3    3    0  502 -0.24555459605E+02  0.66814809285E+03  0.19381285411E+04  0.20502114736E+04  0.25500000920E-02 0.  1.
</event>
<event>
 5   0  0.3522569E-07  0.2799392E+04  0.7818609E-02  0.8303457E-01
       -2   -1    0    0    0  501  0.00000000000E+00  0.00000000000E+00  0.11082912607E+04  0.11082912607E+04  0.25500000920E-02 0. -1.
        2   -1    0    0  501    0  0.00000000000E+00  0.00000000000E+00 -0.17677198477E+04  0.17677198477E+04  0.25500000920E-02 0.  1.
    10030    2    1    2    0    0  0.00000000000E+00  0.00000000000E+00 -0.65942858697E+03  0.28760111084E+04  0.27993916901E+04 0.  0.
        1    1    3    3  502    0  0.11768574020E+04  0.73541460767E+03 -0.51724934030E+03  0.14810046826E+04  0.50400001928E-02 0.  1.
       -1    1    3    3    0  502 -0.11768574020E+04 -0.73541460767E+03 -0.14217924666E+03  0.13950064258E+04  0.50400001928E-02 0. -1.
</event>
<event>
 5   0  0.1357902E-07  0.2799168E+04  0.7818609E-02  0.8303527E-01
       -1   -1    0    0    0  501  0.00000000000E+00  0.00000000000E+00  0.13411870608E+04  0.13411870608E+04  0.50400001928E-02 0. -1.
        1   -1    0    0  501    0  0.00000000000E+00  0.00000000000E+00 -0.14605231648E+04  0.14605231648E+04  0.50400001928E-02 0.  1.
    10030    2    1    2    0    0  0.00000000000E+00  0.00000000000E+00 -0.11933610409E+03  0.28017102256E+04  0.27991675696E+04 0.  0.
        4    1    3    3  502    0  0.99879822743E+02 -0.10076661096E+04 -0.10267062157E+04  0.14420451566E+04  0.12699999809E+01 0.  1.
       -4    1    3    3    0  502 -0.99879822743E+02  0.10076661096E+04  0.90737011160E+03  0.13596650690E+04  0.12699999809E+01 0. -1.
</event>
<event>
 5   0  0.3502141E-07  0.2800611E+04  0.7818609E-02  0.8303079E-01
        2   -1    0    0  501    0  0.00000000000E+00  0.00000000000E+00  0.22419134406E+04  0.22419134406E+04  0.25500000920E-02 0. -1.
       -2   -1    0    0    0  501  0.00000000000E+00  0.00000000000E+00 -0.87463449979E+03  0.87463449980E+03  0.25500000920E-02 0.  1.
    10030    2    1    2    0    0  0.00000000000E+00  0.00000000000E+00  0.13672789408E+04  0.31165479404E+04  0.28006105339E+04 0.  0.
        3    1    3    3  502    0  0.10824875582E+01 -0.41695639672E+03  0.21712303063E+04  0.22109036301E+04  0.10100000352E+00 0. -1.
       -3    1    3    3    0  502 -0.10824875582E+01  0.41695639672E+03 -0.80395136546E+03  0.90564431029E+03  0.10100000352E+00 0.  1.
</event>
<event>
 5   0  0.1357902E-07  0.2797767E+04  0.7818609E-02  0.8303962E-01
        1   -1    0    0  501    0  0.00000000000E+00  0.00000000000E+00  0.17312011378E+04  0.17312011378E+04  0.50400001928E-02 0. -1.
       -1   -1    0    0    0  501  0.00000000000E+00  0.00000000000E+00 -0.11303569615E+04  0.11303569615E+04  0.50400001928E-02 0.  1.
    10030    2    1    2    0    0  0.00000000000E+00  0.00000000000E+00  0.60084417629E+03  0.28615580993E+04  0.27977671510E+04 0.  0.
        4    1    3    3  502    0 -0.12144868970E+04 -0.66667058736E+03  0.10250143852E+03  0.13892214556E+04  0.12699999809E+01 0.  1.
       -4    1    3    3    0  502  0.12144868970E+04  0.66667058736E+03  0.49834273777E+03  0.14723366436E+04  0.12699999809E+01 0. -1.
</event>
<event>
 5   0  0.3502141E-07  0.2799395E+04  0.7818609E-02  0.8303456E-01
       -2   -1    0    0    0  501  0.00000000000E+00  0.00000000000E+00  0.12166375989E+04  0.12166375989E+04  0.25500000920E-02 0.  1.
        2   -1    0    0  501    0  0.00000000000E+00  0.00000000000E+00 -0.16103010655E+04  0.16103010655E+04  0.25500000920E-02 0. -1.
    10030    2    1    2    0    0  0.00000000000E+00  0.00000000000E+00 -0.39366346655E+03  0.28269386644E+04  0.27993948073E+04 0.  0.
        3    1    3    3  502    0  0.38609010048E+03 -0.21776638453E+03 -0.15375487745E+04  0.16001699935E+04  0.10100000352E+00 0. -1.
       -3    1    3    3    0  502 -0.38609010048E+03  0.21776638453E+03  0.11438853079E+04  0.12267686709E+04  0.10100000352E+00 0.  1.
</event>
<event>
 5   0  0.3406920E-07  0.2799906E+04  0.7818609E-02  0.8303297E-01
       -2   -1    0    0    0  501  0.00000000000E+00  0.00000000000E+00  0.17944284854E+04  0.17944284854E+04  0.25500000920E-02 0.  1.
        2   -1    0    0  501    0  0.00000000000E+00  0.00000000000E+00 -0.10921968032E+04  0.10921968032E+04  0.25500000920E-02 0. -1.
    10030    2    1    2    0    0  0.00000000000E+00  0.00000000000E+00  0.70223168218E+03  0.28866252886E+04  0.27999064666E+04 0.  0.
        4    1    3    3  502    0 -0.42178030160E+03 -0.10163080350E+04  0.12434200877E+04  0.16603842243E+04  0.12699999809E+01 0.  1.
       -4    1    3    3    0  502  0.42178030160E+03  0.10163080350E+04 -0.54118840556E+03  0.12262410644E+04  0.12699999809E+01 0. -1.
</event>
<event>
 5   0  0.3571498E-07  0.2799736E+04  0.7818609E-02  0.8303350E-01
        2   -1    0    0  501    0  0.00000000000E+00  0.00000000000E+00  0.19142942198E+04  0.19142942198E+04  0.25500000920E-02 0.  1.
       -2   -1    0    0    0  501  0.00000000000E+00  0.00000000000E+00 -0.10236830134E+04  0.10236830134E+04  0.25500000920E-02 0. -1.
    10030    2    1    2    0    0  0.00000000000E+00  0.00000000000E+00  0.89061120645E+03  0.29379772332E+04  0.27997360415E+04 0.  0.
        2    1    3    3  502    0 -0.85819398831E+03 -0.44827260992E+03  0.15062585827E+04  0.17906032984E+04  0.25500000920E-02 0.  1.
       -2    1    3    3    0  502  0.85819398831E+03  0.44827260992E+03 -0.61564737625E+03  0.11473739348E+04  0.25500000920E-02 0. -1.
</event>
<event>
 5   0  0.3571498E-07  0.2800395E+04  0.7818609E-02  0.8303146E-01
        2   -1    0    0  501    0  0.00000000000E+00  0.00000000000E+00  0.14516374000E+04  0.14516374000E+04  0.25500000920E-02 0.  1.
       -2   -1    0    0    0  501  0.00000000000E+00  0.00000000000E+00 -0.13505799947E+04  0.13505799947E+04  0.25500000920E-02 0. -1.
    10030    2    1    2    0    0  0.00000000000E+00  0.00000000000E+00  0.10105740539E+03  0.28022173947E+04  0.28003945665E+04 0.  0.
        2    1    3    3  502    0  0.41168361105E+03  0.46345817260E+03 -0.12057866558E+04  0.13558017305E+04  0.25500000920E-02 0. -1.
       -2    1    3    3    0  502 -0.41168361105E+03 -0.46345817260E+03  0.13068440611E+04  0.14464156642E+04  0.25500000920E-02 0.  1.
</event>
<event>
 5   0  0.1357902E-07  0.2804368E+04  0.7818609E-02  0.8301914E-01
       -1   -1    0    0    0  501  0.00000000000E+00  0.00000000000E+00  0.11723815098E+04  0.11723815098E+04  0.50400001928E-02 0.  1.
        1   -1    0    0  501    0  0.00000000000E+00  0.00000000000E+00 -0.16770308356E+04  0.16770308356E+04  0.50400001928E-02 0. -1.
    10030    2    1    2    0    0  0.00000000000E+00  0.00000000000E+00 -0.50464932586E+03  0.28494123454E+04  0.28043679809E+04 0.  0.
        4    1    3    3  502    0  0.14532104903E+03  0.48158685975E+03  0.10775428945E+04  0.11891780410E+04  0.12699999809E+01 0.  1.
       -4    1    3    3    0  502 -0.14532104903E+03 -0.48158685975E+03 -0.15821922203E+04  0.16602343045E+04  0.12699999809E+01 0. -1.
</event>
<event>
 5   0  0.3571498E-07  0.2806918E+04  0.7818609E-02  0.8301124E-01
       -2   -1    0    0    0  501  0.00000000000E+00  0.00000000000E+00  0.12435370939E+04  0.12435370939E+04  0.25500000920E-02 0. -1.
        2   -1    0    0  501    0  0.00000000000E+00  0.00000000000E+00 -0.15839467470E+04  0.15839467470E+04  0.25500000920E-02 0.  1.
    10030    2    1    2    0    0  0.00000000000E+00  0.00000000000E+00 -0.34040965310E+03  0.28274838408E+04  0.28069175510E+04 0.  0.
        2    1    3    3  502    0 -0.79836328756E+02  0.38656870728E+03 -0.15268792235E+04  0.15770762087E+04  0.25500000920E-02 0.  1.
       -2    1    3    3    0  502  0.79836328756E+02 -0.38656870728E+03  0.11864695704E+04  0.12504076321E+04  0.25500000920E-02 0. -1.
</event>
<event>
 5   0  0.3557628E-07  0.2788236E+04  0.7818609E-02  0.8306930E-01
        2   -1    0    0  501    0  0.00000000000E+00  0.00000000000E+00  0.26726436372E+04  0.26726436372E+04  0.25500000920E-02 0. -1.
       -2   -1    0    0    0  501  0.00000000000E+00  0.00000000000E+00 -0.72720679281E+03  0.72720679282E+03  0.25500000920E-02 0.  1.
    10030    2    1    2    0    0  0.00000000000E+00  0.00000000000E+00  0.19454368444E+04  0.33998504300E+04  0.27882357201E+04 0.  0.
        5    1    3    3  502    0  0.30660276004E+03  0.86544918100E+03  0.22519001595E+04  0.24318889686E+04  0.46999998093E+01 0. -1.
       -5    1    3    3    0  502 -0.30660276004E+03 -0.86544918100E+03 -0.30646331506E+03  0.96796146144E+03  0.46999998093E+01 0.  1.
</event>
<event>
 5   0  0.3557628E-07  0.2800522E+04  0.7818609E-02  0.8303106E-01
       -2   -1    0    0    0  501  0.00000000000E+00  0.00000000000E+00  0.94130990490E+03  0.94130990490E+03  0.25500000920E-02 0.  1.
        2   -1    0    0  501    0  0.00000000000E+00  0.00000000000E+00 -0.20829816451E+04  0.20829816451E+04  0.25500000920E-02 0. -1.
    10030    2    1    2    0    0  0.00000000000E+00  0.00000000000E+00 -0.11416717402E+04  0.30242915501E+04  0.28005222758E+04 0.  0.
        5    1    3    3  502    0  0.73503965027E+03 -0.36198070381E+03  0.65541056571E+03  0.10492370643E+04  0.46999998093E+01 0.  1.
       -5    1    3    3    0  502 -0.73503965027E+03  0.36198070381E+03 -0.17970823060E+04  0.19750544858E+04  0.46999998093E+01 0. -1.
</event>
<event>
 5   0  0.3502141E-07  0.2800470E+04  0.7818609E-02  0.8303123E-01
       -2   -1    0    0    0  501  0.00000000000E+00  0.00000000000E+00  0.16028768919E+04  0.16028768919E+04  0.25500000920E-02 0.  1.
        2   -1    0    0  501    0  0.00000000000E+00  0.00000000000E+00 -0.12232114888E+04  0.12232114888E+04  0.25500000920E-02 0. -1.
    10030    2    1    2    0    0  0.00000000000E+00  0.00000000000E+00  0.37966540310E+03  0.28260883807E+04  0.28004695529E+04 0.  0.
        3    1    3    3  502    0 -0.15962532741E+03  0.12949283073E+04  0.70275184336E+03  0.14819513250E+04  0.10100000352E+00 0. -1.
       -3    1    3    3    0  502  0.15962532741E+03 -0.12949283073E+04 -0.32308644026E+03  0.13441370556E+04  0.10100000352E+00 0.  1.
</event>
<event>
 5   0  0.1361741E-07  0.2797623E+04  0.7818609E-02  0.8304007E-01
        1   -1    0    0  501    0  0.00000000000E+00  0.00000000000E+00  0.17078036212E+04  0.17078036212E+04  0.50400001928E-02 0. -1.
       -1   -1    0    0    0  501  0.00000000000E+00  0.00000000000E+00 -0.11457255211E+04  0.11457255211E+04  0.50400001928E-02 0.  1.
    10030    2    1    2    0    0  0.00000000000E+00  0.00000000000E+00  0.56207810013E+03  0.28535291423E+04  0.27976234155E+04 0.  0.
        5    1    3    3  502    0  0.42213795089E+03 -0.10347851662E+04  0.11390816571E+04  0.15957787758E+04  0.46999998093E+01 0. -1.
       -5    1    3    3    0  502 -0.42213795089E+03  0.10347851662E+04 -0.57700355695E+03  0.12577503665E+04  0.46999998093E+01 0.  1.
</event>
<event>
 5   0  0.1346049E-07  0.2802072E+04  0.7818609E-02  0.8302625E-01
       -1   -1    0    0    0  501  0.00000000000E+00  0.00000000000E+00  0.21764941149E+04  0.21764941149E+04  0.50400001928E-02 0. -1.
        1   -1    0    0  501    0  0.00000000000E+00  0.00000000000E+00 -0.90186435802E+03  0.90186435804E+03  0.50400001928E-02 0.  1.
    10030    2    1    2    0    0  0.00000000000E+00  0.00000000000E+00  0.12746297569E+04  0.30783584729E+04  0.28020724243E+04 0.  0.
        1    1    3    3  502    0 -0.17819417112E+03 -0.85754194316E+03  0.18386491475E+04  0.20366055176E+04  0.50400001928E-02 0. -1.
       -1    1    3    3    0  502  0.17819417112E+03  0.85754194316E+03 -0.56401939060E+03  0.10417529553E+04  0.50400001928E-02 0.  1.
</event>
<event>
 5   0  0.3502141E-07  0.2800010E+04  0.7818609E-02  0.8303265E-01
        2   -1    0    0  501    0  0.00000000000E+00  0.00000000000E+00  0.13650783926E+04  0.13650783926E+04  0.25500000920E-02 0. -1.
       -2   -1    0    0    0  501  0.00000000000E+00  0.00000000000E+00 -0.14358256397E+04  0.14358256397E+04  0.25500000920E-02 0.  1.
    10030    2    1    2    0    0  0.00000000000E+00  0.00000000000E+00 -0.70747247130E+02  0.28009040323E+04  0.28000103974E+04 0.  0.
        3    1    3    3  502    0  0.79987242604E+03  0.11190233518E+03  0.11085369334E+04  0.13715583012E+04  0.10100000352E+00 0. -1.
       -3    1    3    3    0  502 -0.79987242604E+03 -0.11190233518E+03 -0.11792841805E+04  0.14293457312E+04  0.10100000352E+00 0.  1.
</event>
<event>
 5   0  0.1366235E-07  0.2799595E+04  0.7818609E-02  0.8303394E-01
        1   -1    0    0  501    0  0.00000000000E+00  0.00000000000E+00  0.12518274790E+04  0.12518274790E+04  0.50400001928E-02 0.  1.
       -1   -1    0    0    0  501  0.00000000000E+00  0.00000000000E+00 -0.15652576027E+04  0.15652576027E+04  0.50400001928E-02 0. -1.
    10030    2    1    2    0    0  0.00000000000E+00  0.00000000000E+00 -0.31343012370E+03  0.28170850816E+04  0.27995945983E+04 0.  0.
        2    1    3    3  502    0 -0.11918833235E+04 -0.31969506321E+03 -0.82163202971E+03  0.14825214948E+04  0.25500000920E-02 0. -1.
       -2    1    3    3    0  502  0.11918833235E+04  0.31969506321E+03  0.50820190601E+03  0.13345635869E+04  0.25500000920E-02 0.  1.
</event>
<event>
 5   0  0.3406920E-07  0.2800322E+04  0.7818609E-02  0.8303168E-01
        2   -1    0    0  501    0  0.00000000000E+00  0.00000000000E+00  0.15604329586E+04  0.15604329586E+04  0.25500000920E-02 0.  1.
       -2   -1    0    0    0  501  0.00000000000E+00  0.00000000000E+00 -0.12563509359E+04  0.12563509360E+04  0.25500000920E-02 0. -1.
    10030    2    1    2    0    0  0.00000000000E+00  0.00000000000E+00  0.30408202265E+03  0.28167838946E+04  0.28003224157E+04 0.  0.
        4    1    3    3  502    0  0.75007687510E+03 -0.10799248544E+04  0.63611500975E+03  0.14606494885E+04  0.12699999809E+01 0.  1.
       -4    1    3    3    0  502 -0.75007687510E+03  0.10799248544E+04 -0.33203298710E+03  0.13561344060E+04  0.12699999809E+01 0. -1.
</event>
<event>
 5   0  0.1357902E-07  0.2800015E+04  0.7818609E-02  0.8303264E-01
       -1   -1    0    0    0  501  0.00000000000E+00  0.00000000000E+00  0.79673889827E+03  0.79673889829E+03  0.50400001928E-02 0. -1.
        1   -1    0    0  501    0  0.00000000000E+00  0.00000000000E+00 -0.24600548259E+04  0.24600548259E+04  0.50400001928E-02 0.  1.
    10030    2    1    2    0    0  0.00000000000E+00  0.00000000000E+00 -0.16633159276E+04  0.32567937242E+04  0.28000152655E+04 0.  0.
        4    1    3    3  502    0 -0.11146280161E+04 -0.10727735573E+03 -0.18090477392E+04  0.21275712399E+04  0.12699999809E+01 0.  1.
       -4    1    3    3    0  502  0.11146280161E+04  0.10727735573E+03  0.14573181157E+03  0.11292224843E+04  0.12699999809E+01 0. -1.
</event>
<event>
 5   0  0.3406920E-07  0.2802116E+04  0.7818609E-02  0.8302612E-01
        2   -1    0    0  501    0  0.00000000000E+00  0.00000000000E+00  0.21520530932E+04  0.21520530932E+04  0.25500000920E-02 0.  1.
       -2   -1    0    0    0  501  0.00000000000E+00  0.00000000000E+00 -0.91213526428E+03  0.91213526429E+03  0.25500000920E-02 0. -1.
    10030    2    1    2    0    0  0.00000000000E+00  0.00000000000E+00  0.12399178289E+04  0.30641883575E+04  0.28021159983E+04 0.  0.
        4    1    3    3  502    0 -0.10560495240E+04 -0.91143894120E+03  0.76253886204E+03  0.15897888758E+04  0.12699999809E+01 0.  1.
       -4    1    3    3    0  502  0.10560495240E+04  0.91143894120E+03  0.47737896690E+03  0.14743994817E+04  0.12699999809E+01 0. -1.
</event>
<event>
 5   0  0.3522569E-07  0.2800249E+04  0.7818609E-02  0.8303191E-01
        2   -1    0    0  501    0  0.00000000000E+00  0.00000000000E+00  0.13088186583E+04  0.13088186583E+04  0.25500000920E-02 0.  1.
       -2   -1    0    0    0  501  0.00000000000E+00  0.00000000000E+00 -0.14977997651E+04  0.14977997651E+04  0.25500000920E-02 0. -1.
    10030    2    1    2    0    0  0.00000000000E+00  0.00000000000E+00 -0.18898110687E+03  0.28066184234E+04  0.28002487596E+04 0.  0.
        1    1    3    3  502    0  0.94760769040E+03  0.73536818145E+03 -0.81836714706E+03  0.14520507858E+04  0.50400001928E-02 0. -1.
       -1    1    3    3    0  502 -0.94760769040E+03 -0.73536818145E+03  0.62938604019E+03  0.13545676376E+04  0.50400001928E-02 0.  1.
</event>
<event>
 5   0  0.3571498E-07  0.2799826E+04  0.7818609E-02  0.8303322E-01
        2   -1    0    0  501    0  0.00000000000E+00  0.00000000000E+00  0.24154977943E+04  0.24154977943E+04  0.25500000920E-02 0.  1.
       -2   -1    0    0    0  501  0.00000000000E+00  0.00000000000E+00 -0.81132602584E+03  0.81132602584E+03  0.25500000920E-02 0. -1.
    10030    2    1    2    0    0  0.00000000000E+00  0.00000000000E+00  0.16041717685E+04  0.32268238201E+04  0.27998258702E+04 0.  0.
        2    1    3    3  502    0 -0.70786262913E+03 -0.11800084377E+03  0.21873815206E+04  0.23020928777E+04  0.25500000920E-02 0.  1.
       -2    1    3    3    0  502  0.70786262913E+03  0.11800084377E+03 -0.58320975216E+03  0.92473094243E+03  0.25500000920E-02 0. -1.
</event>
<event>
 5   0  0.1374680E-07  0.2798890E+04  0.7818609E-02  0.8303613E-01
        1   -1    0    0  501    0  0.00000000000E+00  0.00000000000E+00  0.19465366650E+04  0.19465366650E+04  0.50400001928E-02 0.  1.
       -1   -1    0    0    0  501  0.00000000000E+00  0.00000000000E+00 -0.10061186397E+04  0.10061186397E+04  0.50400001928E-02 0. -1.
    10030    2    1    2    0    0  0.00000000000E+00  0.00000000000E+00  0.94041802527E+03  0.29526553047E+04  0.27988903670E+04 0.  0.
        3    1    3    3  502    0  0.88867994271E+03 -0.87794174565E+03  0.11356674877E+04  0.16882755706E+04  0.10100000352E+00 0.  1.
       -3    1    3    3    0  502 -0.88867994271E+03  0.87794174565E+03 -0.19524946245E+03  0.12643797341E+04  0.10100000352E+00 0. -1.
</event>
<event>
 5   0  0.1346049E-07  0.2799414E+04  0.7818609E-02  0.8303450E-01
       -1   -1    0    0    0  501  0.00000000000E+00  0.00000000000E+00  0.10279051415E+04  0.10279051416E+04  0.50400001928E-02 0. -1.
        1   -1    0    0  501    0  0.00000000000E+00  0.00000000000E+00 -0.19059925238E+04  0.19059925238E+04  0.50400001928E-02 0.  1.
    10030    2    1    2    0    0  0.00000000000E+00  0.00000000000E+00 -0.87808738226E+03  0.29338976654E+04  0.27994138779E+04 0.  0.
        1    1    3    3  502    0 -0.11600887660E+04 -0.12699933080E+03 -0.12489858719E+04  0.17093567454E+04  0.50400001928E-02 0.  1.
       -1    1    3    3    0  502  0.11600887660E+04  0.12699933080E+03  0.37089848960E+03  0.12245409199E+04  0.50400001928E-02 0. -1.
</event>
<event>
 5   0  0.1366235E-07  0.2799351E+04  0.7818609E-02  0.8303470E-01
        1   -1    0    0  501    0  0.00000000000E+00  0.00000000000E+00  0.19619993606E+04  0.19619993606E+04  0.50400001928E-02 0. -1.
       -1   -1    0    0    0  501  0.00000000000E+00  0.00000000000E+00 -0.99851817206E+03  0.99851817207E+03  0.50400001928E-02 0.  1.
    10030    2    1    2    0    0  0.00000000000E+00  0.00000000000E+00  0.96348118855E+03  0.29605175327E+04  0.27993513643E+04 0.  0.
        2    1    3    3  502    0  0.37996901117E+03  0.56287039712E+03 -0.81260587966E+03  0.10590221193E+04  0.25500000920E-02 0.  1.
       -2    1    3    3    0  502 -0.37996901117E+03 -0.56287039712E+03  0.17760870682E+04  0.19014954134E+04  0.25500000920E-02 0. -1.
</event>
<event>
 5   0  0.3571498E-07  0.2798723E+04  0.7818609E-02  0.8303665E-01
       -2   -1    0    0    0  501  0.00000000000E+00  0.00000000000E+00  0.76290824985E+03  0.76290824985E+03  0.25500000920E-02 0. -1.
        2   -1    0    0  501    0  0.00000000000E+00  0.00000000000E+00 -0.25667738665E+04  0.25667738665E+04  0.25500000920E-02 0.  1.
    10030    2    1    2    0    0  0.00000000000E+00  0.00000000000E+00 -0.18038656167E+04  0.33296821164E+04  0.27987232505E+04 0.  0.
        2    1    3    3  502    0  0.11296192577E+04 -0.17453057933E+03  0.58508430340E+02  0.11445190374E+04  0.25500000920E-02 0. -1.
       -2    1    3    3    0  502 -0.11296192577E+04  0.17453057933E+03 -0.18623740470E+04  0.21851630790E+04  0.25500000920E-02 0.  1.
</event>
<event>
 5   0  0.3557628E-07  0.2800023E+04  0.7818609E-02  0.8303261E-01
        2   -1    0    0  501    0  0.00000000000E+00  0.00000000000E+00  0.19386335292E+04  0.19386335292E+04  0.25500000920E-02 0. -1.
       -2   -1    0    0    0  501  0.00000000000E+00  0.00000000000E+00 -0.10110381352E+04  0.10110381352E+04  0.25500000920E-02 0.  1.
    10030    2    1    2    0    0  0.00000000000E+00  0.00000000000E+00  0.92759539399E+03  0.29496716644E+04  0.28000231629E+04 0.  0.
        5    1    3    3  502    0  0.77243486715E+03  0.10587711337E+04 -0.54812547065E+02  0.13117463333E+04  0.46999998093E+01 0.  1.
       -5    1    3    3    0  502 -0.77243486715E+03 -0.10587711337E+04  0.98240794106E+03  0.16379253311E+04  0.46999998093E+01 0. -1.
</event>
<event>
 5   0  0.1346049E-07  0.2799357E+04  0.7818609E-02  0.8303468E-01
        1   -1    0    0  501    0  0.00000000000E+00  0.00000000000E+00  0.90789905357E+03  0.90789905358E+03  0.50400001928E-02 0.  1.
       -1   -1    0    0    0  501  0.00000000000E+00  0.00000000000E+00 -0.21578386922E+04  0.21578386922E+04  0.50400001928E-02 0. -1.
    10030    2    1    2    0    0  0.00000000000E+00  0.00000000000E+00 -0.12499396387E+04  0.30657377458E+04  0.27993568593E+04 0.  0.
        1    1    3    3  502    0 -0.13078926063E+04  0.48458801057E+03 -0.75311310545E+03  0.15851144940E+04  0.50400001928E-02 0.  1.
       -1    1    3    3    0  502  0.13078926063E+04 -0.48458801057E+03 -0.49682653321E+03  0.14806232518E+04  0.50400001928E-02 0. -1.
</event>
<event>
 5   0  0.3522569E-07  0.2799080E+04  0.7818609E-02  0.8303554E-01
       -2   -1    0    0    0  501  0.00000000000E+00  0.00000000000E+00  0.10217932426E+04  0.10217932426E+04  0.25500000920E-02 0. -1.
        2   -1    0    0  501    0  0.00000000000E+00  0.00000000000E+00 -0.19169360653E+04  0.19169360653E+04  0.25500000920E-02 0.  1.
    10030    2    1    2    0    0  0.00000000000E+00  0.00000000000E+00 -0.89514282271E+03  0.29387293079E+04  0.27990800761E+04 0.  0.
        1    1    3    3  502    0  0.10860320690E+04 -0.21082480863E+03  0.45239998383E+03  0.11952315676E+04  0.50400001928E-02 0. -1.
       -1    1    3    3    0  502 -0.10860320690E+04  0.21082480863E+03 -0.13475428065E+04  0.17434977403E+04  0.50400001928E-02 0.  1.
</event>
<event>
 5   0  0.1346049E-07  0.2799452E+04  0.7818609E-02  0.8303438E-01
       -1   -1    0    0    0  501  0.00000000000E+00  0.00000000000E+00  0.12117407497E+04  0.12117407498E+04  0.50400001928E-02 0. -1.
        1   -1    0    0  501    0  0.00000000000E+00  0.00000000000E+00 -0.16168748397E+04  0.16168748397E+04  0.50400001928E-02 0.  1.
    10030    2    1    2    0    0  0.00000000000E+00  0.00000000000E+00 -0.40513408992E+03  0.28286155894E+04  0.27994521825E+04 0.  0.
        1    1    3    3  502    0  0.91963719515E+03 -0.10338017376E+04  0.11189471454E+02  0.13836920928E+04  0.50400001928E-02 0.  1.
       -1    1    3    3    0  502 -0.91963719515E+03  0.10338017376E+04 -0.41632356138E+03  0.14449234966E+04  0.50400001928E-02 0. -1.
</event>
<event>
 5   0  0.3557628E-07  0.2799843E+04  0.7818609E-02  0.8303317E-01
       -2   -1    0    0    0  501  0.00000000000E+00  0.00000000000E+00  0.14083872807E+04  0.14083872807E+04  0.25500000920E-02 0.  1.
        2   -1    0    0  501    0  0.00000000000E+00  0.00000000000E+00 -0.13915069506E+04  0.13915069506E+04  0.25500000920E-02 0. -1.
    10030    2    1    2    0    0  0.00000000000E+00  0.00000000000E+00  0.16880330103E+02  0.27998942314E+04  0.27998433459E+04 0.  0.
        5    1    3    3  502    0 -0.11804412249E+04  0.69311001401E+01 -0.74408203279E+03  0.13954102218E+04  0.46999998093E+01 0. -1.
       -5    1    3    3    0  502  0.11804412249E+04 -0.69311001401E+01  0.76096236289E+03  0.14044840096E+04  0.46999998093E+01 0.  1.
</event>
<event>
 5   0  0.3406920E-07  0.2801932E+04  0.7818609E-02  0.8302669E-01
        2   -1    0    0  501    0  0.00000000000E+00  0.00000000000E+00  0.14048713307E+04  0.14048713307E+04  0.25500000920E-02 0. -1.
       -2   -1    0    0    0  501  0.00000000000E+00  0.00000000000E+00 -0.13970717448E+04  0.13970717448E+04  0.25500000920E-02 0.  1.
    10030    2    1    2    0    0  0.00000000000E+00  0.00000000000E+00  0.77995859390E+01  0.28019430755E+04  0.28019322199E+04 0.  0.
        4    1    3    3  502    0 -0.30313411450E+03 -0.30718832908E+03  0.13367400807E+04  0.14046816782E+04  0.12699999809E+01 0. -1.
       -4    1    3    3    0  502  0.30313411450E+03  0.30718832908E+03 -0.13289404947E+04  0.13972613973E+04  0.12699999809E+01 0.  1.
</event>
<event>
 5   0  0.3557628E-07  0.2796503E+04  0.7818609E-02  0.8304355E-01
       -2   -1    0    0    0  501  0.00000000000E+00  0.00000000000E+00  0.97951120284E+03  0.97951120284E+03  0.25500000920E-02 0.  1.
        2   -1    0    0  501    0  0.00000000000E+00  0.00000000000E+00 -0.19960029120E+04  0.19960029120E+04  0.25500000920E-02 0. -1.
    10030    2    1    2    0    0  0.00000000000E+00  0.00000000000E+00 -0.10164917092E+04  0.29755141149E+04  0.27965029685E+04 0.  0.
        5    1    3    3  502    0  0.29151577661E+03 -0.10887537529E+04  0.37220050245E+03  0.11869799857E+04  0.46999998093E+01 0.  1.
       -5    1    3    3    0  502 -0.29151577661E+03  0.10887537529E+04 -0.13886922116E+04  0.17885341291E+04  0.46999998093E+01 0. -1.
</event>
<event>
 5   0  0.3557628E-07  0.2800830E+04  0.7818609E-02  0.8303011E-01
        2   -1    0    0  501    0  0.00000000000E+00  0.00000000000E+00  0.16878378874E+04  0.16878378874E+04  0.25500000920E-02 0.  1.
       -2   -1    0    0    0  501  0.00000000000E+00  0.00000000000E+00 -0.11619373698E+04  0.11619373698E+04  0.25500000920E-02 0. -1.
    10030    2    1    2    0    0  0.00000000000E+00  0.00000000000E+00  0.52590051759E+03  0.28497752572E+04  0.28008298167E+04 0.  0.
        5    1    3    3  502    0 -0.27035018070E+03 -0.71476445383E+03 -0.93108311507E+03  0.12045394563E+04  0.46999998093E+01 0. -1.
       -5    1    3    3    0  502  0.27035018070E+03  0.71476445383E+03  0.14569836327E+04  0.16452358009E+04  0.46999998093E+01 0.  1.
</event>
<event>
 5   0  0.1173363E-07  0.2797507E+04  0.7818609E-02  0.8304043E-01
        4   -1    0    0  501    0  0.00000000000E+00  0.00000000000E+00  0.11703410765E+04  0.11703417656E+04  0.12699999809E+01 0. -1.
       -4   -1    0    0    0  501  0.00000000000E+00  0.00000000000E+00 -0.16717426760E+04  0.16717431584E+04  0.12699999809E+01 0.  1.
    10030    2    1    2    0    0  0.00000000000E+00  0.00000000000E+00 -0.50140159941E+03  0.28420849240E+04  0.27975065954E+04 0.  0.
        5    1    3    3  502    0  0.74038251814E+03  0.99324532496E+03  0.40909886236E+03  0.13046403788E+04  0.46999998093E+01 0. -1.
       -5    1    3    3    0  502 -0.74038251814E+03 -0.99324532496E+03 -0.91050046177E+03  0.15374445452E+04  0.46999998093E+01 0.  1.
</event>
<event>
 5   0  0.3522569E-07  0.2799627E+04  0.7818609E-02  0.8303384E-01
       -2   -1    0    0    0  501  0.00000000000E+00  0.00000000000E+00  0.11753405498E+04  0.11753405498E+04  0.25500000920E-02 0. -1.
        2   -1    0    0  501    0  0.00000000000E+00  0.00000000000E+00 -0.16671573389E+04  0.16671573389E+04  0.25500000920E-02 0.  1.
    10030    2    1    2    0    0  0.00000000000E+00  0.00000000000E+00 -0.49181678910E+03  0.28424978887E+04  0.27996268490E+04 0.  0.
        1    1    3    3  502    0  0.28337699088E+03 -0.58040926448E+03  0.10150026738E+04  0.12030826494E+04  0.50400001928E-02 0. -1.
       -1    1    3    3    0  502 -0.28337699088E+03  0.58040926448E+03 -0.15068194629E+04  0.16394152394E+04  0.50400001928E-02 0.  1.
</event>
<event>
 5   0  0.1366235E-07  0.2799971E+04  0.7818609E-02  0.8303277E-01
       -1   -1    0    0    0  501  0.00000000000E+00  0.00000000000E+00  0.10917306589E+04  0.10917306589E+04  0.50400001928E-02 0. -1.
        1   -1    0    0  501    0  0.00000000000E+00  0.00000000000E+00 -0.17952772953E+04  0.17952772953E+04  0.50400001928E-02 0.  1.
    10030    2    1    2    0    0  0.00000000000E+00  0.00000000000E+00 -0.70354663643E+03  0.28870079542E+04  0.27999709031E+04 0.  0.
        2    1    3    3  502    0 -0.95228788110E+03 -0.31918783021E+03  0.65385237461E+03  0.11984389877E+04  0.25500000920E-02 0. -1.
       -2    1    3    3    0  502  0.95228788110E+03  0.31918783021E+03 -0.13573990110E+04  0.16885689665E+04  0.25500000920E-02 0.  1.
</event>
<event>
 5   0  0.3406920E-07  0.2799670E+04  0.7818609E-02  0.8303371E-01
       -2   -1    0    0    0  501  0.00000000000E+00  0.00000000000E+00  0.13000031754E+04  0.13000031754E+04  0.25500000920E-02 0. -1.
        2   -1    0    0  501    0  0.00000000000E+00  0.00000000000E+00 -0.15073334327E+04  0.15073334327E+04  0.25500000920E-02 0.  1.
    10030    2    1    2    0    0  0.00000000000E+00  0.00000000000E+00 -0.20733025737E+03  0.28073366081E+04  0.27996701584E+04 0.  0.
        4    1    3    3  502    0  0.62414212422E+03  0.11319618956E+04 -0.64239372022E+03  0.14434550319E+04  0.12699999809E+01 0.  1.
       -4    1    3    3    0  502 -0.62414212422E+03 -0.11319618956E+04  0.43506346285E+03  0.13638815762E+04  0.12699999809E+01 0. -1.
</event>
<event>
 5   0  0.1374680E-07  0.2800524E+04  0.7818609E-02  0.8303106E-01
        1   -1    0    0  501    0  0.00000000000E+00  0.00000000000E+00  0.10425035148E+04  0.10425035148E+04  0.50400001928E-02 0. -1.
       -1   -1    0    0    0  501  0.00000000000E+00  0.00000000000E+00 -0.18807935711E+04  0.18807935711E+04  0.50400001928E-02 0.  1.
    10030    2    1    2    0    0  0.00000000000E+00  0.00000000000E+00 -0.83829005629E+03  0.29232970860E+04  0.28005241714E+04 0.  0.
        3    1    3    3  502    0 -0.23884381464E+03  0.76296721021E+03  0.78084732480E+03  0.11175365258E+04  0.10100000352E+00 0. -1.
       -3    1    3    3    0  502  0.23884381464E+03 -0.76296721021E+03 -0.16191373811E+04  0.18057605602E+04  0.10100000352E+00 0.  1.
</event>
<event>
 5   0  0.3502141E-07  0.2799485E+04  0.7818609E-02  0.8303428E-01
        2   -1    0    0  501    0  0.00000000000E+00  0.00000000000E+00  0.19010988169E+04  0.19010988169E+04  0.25500000920E-02 0.  1.
       -2   -1    0    0    0  501  0.00000000000E+00  0.00000000000E+00 -0.10306036603E+04  0.10306036603E+04  0.25500000920E-02 0. -1.
    10030    2    1    2    0    0  0.00000000000E+00  0.00000000000E+00  0.87049515659E+03  0.29317024771E+04  0.27994852378E+04 0.  0.
        3    1    3    3  502    0 -0.50601731307E+03  0.10448185427E+04  0.12542183043E+04  0.17090239534E+04  0.10100000352E+00 0.  1.
       -3    1    3    3    0  502  0.50601731307E+03 -0.10448185427E+04 -0.38372314766E+03  0.12226785238E+04  0.10100000352E+00 0. -1.
</event>
<event>
 5   0  0.1357902E-07  0.2800135E+04  0.7818609E-02  0.8303227E-01
       -1   -1    0    0    0  501  0.00000000000E+00  0.00000000000E+00  0.12361966075E+04  0.12361966076E+04  0.50400001928E-02 0.  1.
        1   -1    0    0  501    0  0.00000000000E+00  0.00000000000E+00 -0.15856608534E+04  0.15856608534E+04  0.50400001928E-02 0. -1.
    10030    2    1    2    0    0  0.00000000000E+00  0.00000000000E+00 -0.34946424590E+03  0.28218574610E+04  0.28001346880E+04 0.  0.
        4    1    3    3  502    0 -0.87943672164E+03  0.10619743377E+04  0.70027557383E+02  0.13806172218E+04  0.12699999809E+01 0.  1.
       -4    1    3    3    0  502  0.87943672164E+03 -0.10619743377E+04 -0.41949180328E+03  0.14412402392E+04  0.12699999809E+01 0. -1.
</event>
<event>
 5   0  0.3522569E-07  0.2800253E+04  0.7818609E-02  0.8303190E-01
        2   -1    0    0  501    0  0.00000000000E+00  0.00000000000E+00  0.10020523172E+04  0.10020523172E+04  0.25500000920E-02 0.  1.
       -2   -1    0    0    0  501  0.00000000000E+00  0.00000000000E+00 -0.19563392259E+04  0.19563392259E+04  0.25500000920E-02 0. -1.
    10030    2    1    2    0    0  0.00000000000E+00  0.00000000000E+00 -0.95428690877E+03  0.29583915431E+04  0.28002530275E+04 0.  0.
        1    1    3    3  502    0  0.71622669932E+02  0.10502126565E+04 -0.14524675889E+04  0.17938055992E+04  0.50400001928E-02 0. -1.
       -1    1    3    3    0  502 -0.71622669932E+02 -0.10502126565E+04  0.49818068013E+03  0.11645859439E+04  0.50400001928E-02 0.  1.
</event>
<event>
 5   0  0.1361741E-07  0.2796423E+04  0.7818609E-02  0.8304380E-01
       -1   -1    0    0    0  501  0.00000000000E+00  0.00000000000E+00  0.13774553452E+04  0.13774553452E+04  0.50400001928E-02 0.  1.
        1   -1    0    0  501    0  0.00000000000E+00  0.00000000000E+00 -0.14192808832E+04  0.14192808832E+04  0.50400001928E-02 0. -1.
    10030    2    1    2    0    0  0.00000000000E+00  0.00000000000E+00 -0.41825538037E+02  0.27967362284E+04  0.27964234578E+04 0.  0.
        5    1    3    3  502    0 -0.25918889136E+03  0.16687104871E+03 -0.13848648217E+04  0.14187661867E+04  0.46999998093E+01 0. -1.
       -5    1    3    3    0  502  0.25918889136E+03 -0.16687104871E+03  0.13430392836E+04  0.13779700417E+04  0.46999998093E+01 0.  1.
</event>
<event>
 5   0  0.1357902E-07  0.2800885E+04  0.7818609E-02  0.8302994E-01
       -1   -1    0    0    0  501  0.00000000000E+00  0.00000000000E+00  0.17179778321E+04  0.17179778322E+04  0.50400001928E-02 0. -1.
        1   -1    0    0  501    0  0.00000000000E+00  0.00000000000E+00 -0.11415976134E+04  0.11415976134E+04  0.50400001928E-02 0.  1.
    10030    2    1    2    0    0  0.00000000000E+00  0.00000000000E+00  0.57638021876E+03  0.28595754456E+04  0.28008851409E+04 0.  0.
        4    1    3    3  502    0 -0.10096402065E+04  0.54084565093E+03 -0.53451808121E+03  0.12639614538E+04  0.12699999809E+01 0.  1.
       -4    1    3    3    0  502  0.10096402065E+04 -0.54084565093E+03  0.11108983000E+04  0.15956139917E+04  0.12699999809E+01 0. -1.
</event>
<event>
 5   0  0.3502141E-07  0.2798417E+04  0.7818609E-02  0.8303760E-01
        2   -1    0    0  501    0  0.00000000000E+00  0.00000000000E+00  0.12296923666E+04  0.12296923666E+04  0.25500000920E-02 0. -1.
       -2   -1    0    0    0  501  0.00000000000E+00  0.00000000000E+00 -0.15920931122E+04  0.15920931122E+04  0.25500000920E-02 0.  1.
    10030    2    1    2    0    0  0.00000000000E+00  0.00000000000E+00 -0.36240074565E+03  0.28217854788E+04  0.27984172290E+04 0.  0.
        3    1    3    3  502    0  0.74834376956E+03  0.96152818558E+03  0.51246115952E+03  0.13218060748E+04  0.10100000352E+00 0. -1.
       -3    1    3    3    0  502 -0.74834376956E+03 -0.96152818558E+03 -0.87486190517E+03  0.14999794040E+04  0.10100000352E+00 0.  1.
</event>
<event>
 5   0  0.1361741E-07  0.2799431E+04  0.7818609E-02  0.8303445E-01
        1   -1    0    0  501    0  0.00000000000E+00  0.00000000000E+00  0.12900535020E+04  0.12900535020E+04  0.50400001928E-02 0. -1.
       -1   -1    0    0    0  501  0.00000000000E+00  0.00000000000E+00 -0.15186996368E+04  0.15186996368E+04  0.50400001928E-02 0.  1.
    10030    2    1    2    0    0  0.00000000000E+00  0.00000000000E+00 -0.22864613479E+03  0.28087531389E+04  0.27994312172E+04 0.  0.
        5    1    3    3  502    0 -0.43117971611E+03  0.58276309502E+03 -0.13156626360E+04  0.15021714397E+04  0.46999998093E+01 0.  1.
       -5    1    3    3    0  502  0.43117971611E+03 -0.58276309502E+03  0.10870165012E+04  0.13065816991E+04  0.46999998093E+01 0. -1.
</event>
<event>
 5   0  0.1374680E-07  0.2797177E+04  0.7818609E-02  0.8304145E-01
        1   -1    0    0  501    0  0.00000000000E+00  0.00000000000E+00  0.16404932900E+04  0.16404932900E+04  0.50400001928E-02 0. -1.
       -1   -1    0    0    0  501  0.00000000000E+00  0.00000000000E+00 -0.11923543424E+04  0.11923543425E+04  0.50400001928E-02 0.  1.
    10030    2    1    2    0    0  0.00000000000E+00  0.00000000000E+00  0.44813894751E+03  0.28328476324E+04  0.27971766466E+04 0.  0.
        3    1    3    3  502    0  0.11089794366E+04 -0.23935484195E+03  0.10523766763E+04  0.15474568847E+04  0.10100000352E+00 0. -1.
       -3    1    3    3    0  502 -0.11089794366E+04  0.23935484195E+03 -0.60423772879E+03  0.12853907477E+04  0.10100000352E+00 0.  1.
</event>
<event>
 5   0  0.1366235E-07  0.2798927E+04  0.7818609E-02  0.8303602E-01
        1   -1    0    0  501    0  0.00000000000E+00  0.00000000000E+00  0.18144046801E+04  0.18144046801E+04  0.50400001928E-02 0.  1.
       -1   -1    0    0    0  501  0.00000000000E+00  0.00000000000E+00 -0.10794164855E+04  0.10794164855E+04  0.50400001928E-02 0. -1.
    10030    2    1    2    0    0  0.00000000000E+00  0.00000000000E+00  0.73498819457E+03  0.28938211656E+04  0.27989271681E+04 0.  0.
        2    1    3    3  502    0 -0.75502411830E+03 -0.11736943018E+04  0.47533074839E+03  0.14742995129E+04  0.25500000920E-02 0.  1.
       -2    1    3    3    0  502  0.75502411830E+03  0.11736943018E+04  0.25965744618E+03  0.14195216527E+04  0.25500000920E-02 0. -1.
</event>
<event>
 5   0  0.3571498E-07  0.2799745E+04  0.7818609E-02  0.8303347E-01
        2   -1    0    0  501    0  0.00000000000E+00  0.00000000000E+00  0.21604215391E+04  0.21604215391E+04  0.25500000920E-02 0.  1.
       -2   -1    0    0    0  501  0.00000000000E+00  0.00000000000E+00 -0.90706534671E+03  0.90706534671E+03  0.25500000920E-02 0. -1.
    10030    2    1    2    0    0  0.00000000000E+00  0.00000000000E+00  0.12533561924E+04  0.30674868858E+04  0.27997453544E+04 0.  0.
        2    1    3    3  502    0  0.11089215051E+04 -0.84677568229E+03  0.50220195381E+03  0.14828832601E+04  0.25500000920E-02 0.  1.
       -2    1    3    3    0  502 -0.11089215051E+04  0.84677568229E+03  0.75115423857E+03  0.15846036257E+04  0.25500000920E-02 0. -1.
</event>
<event>
 5   0  0.1366235E-07  0.2801141E+04  0.7818609E-02  0.8302914E-01
       -1   -1    0    0    0  501  0.00000000000E+00  0.00000000000E+00  0.13929137254E+04  0.13929137254E+04  0.50400001928E-02 0. -1.
        1   -1    0    0  501    0  0.00000000000E+00  0.00000000000E+00 -0.14082690283E+04  0.14082690283E+04  0.50400001928E-02 0.  1.
    10030    2    1    2    0    0  0.00000000000E+00  0.00000000000E+00 -0.15355302945E+02  0.28011827537E+04  0.28011406667E+04 0.  0.
        2    1    3    3  502    0  0.10554043574E+03 -0.12924218995E+04 -0.53693423008E+03  0.14034926139E+04  0.25500000920E-02 0.  1.
       -2    1    3    3    0  502 -0.10554043574E+03  0.12924218995E+04  0.52157892714E+03  0.13976901398E+04  0.25500000920E-02 0. -1.
</event>
<event>
 5   0  0.1366235E-07  0.2795709E+04  0.7818609E-02  0.8304602E-01
        1   -1    0    0  501    0  0.00000000000E+00  0.00000000000E+00  0.12760327707E+04  0.12760327707E+04  0.50400001928E-02 0. -1.
       -1   -1    0    0    0  501  0.00000000000E+00  0.00000000000E+00 -0.15313060513E+04  0.15313060513E+04  0.50400001928E-02 0.  1.
    10030    2    1    2    0    0  0.00000000000E+00  0.00000000000E+00 -0.25527328064E+03  0.28073388220E+04  0.27957086425E+04 0.  0.
        2    1    3    3  502    0  0.23380699563E+02 -0.11511811802E+04  0.66827146521E+03  0.13312969308E+04  0.25500000920E-02 0. -1.
       -2    1    3    3    0  502 -0.23380699563E+02  0.11511811802E+04 -0.92354474584E+03  0.14760418911E+04  0.25500000920E-02 0.  1.
</event>
<event>
 5   0  0.1374680E-07  0.2800070E+04  0.7818609E-02  0.8303247E-01
       -1   -1    0    0    0  501  0.00000000000E+00  0.00000000000E+00  0.12083003725E+04  0.12083003725E+04  0.50400001928E-02 0. -1.
        1   -1    0    0  501    0  0.00000000000E+00  0.00000000000E+00 -0.16221942929E+04  0.16221942929E+04  0.50400001928E-02 0.  1.
    10030    2    1    2    0    0  0.00000000000E+00  0.00000000000E+00 -0.41389392040E+03  0.28304946654E+04  0.28000699765E+04 0.  0.
        3    1    3    3  502    0 -0.36432082402E+03 -0.23914915320E+03  0.11379892215E+04  0.12185817407E+04  0.10100000352E+00 0. -1.
       -3    1    3    3    0  502  0.36432082402E+03  0.23914915320E+03 -0.15518831419E+04  0.16119129247E+04  0.10100000352E+00 0.  1.
</event>
<event>
 5   0  0.3522569E-07  0.2800810E+04  0.7818609E-02  0.8303017E-01
        2   -1    0    0  501    0  0.00000000000E+00  0.00000000000E+00  0.10997436261E+04  0.10997436261E+04  0.25500000920E-02 0.  1.
       -2   -1    0    0    0  501  0.00000000000E+00  0.00000000000E+00 -0.17832650096E+04  0.17832650096E+04  0.25500000920E-02 0. -1.
    10030    2    1    2    0    0  0.00000000000E+00  0.00000000000E+00 -0.68352138351E+03  0.28830086357E+04  0.28008101170E+04 0.  0.
        1    1    3    3  502    0  0.13114604289E+04 -0.41876486839E+03 -0.77633380450E+02  0.13788833936E+04  0.50400001928E-02 0.  1.
       -1    1    3    3    0  502 -0.13114604289E+04  0.41876486839E+03 -0.60588800306E+03  0.15041252420E+04  0.50400001928E-02 0. -1.
</event>
<event>
 5   0  0.3406920E-07  0.2799729E+04  0.7818609E-02  0.8303353E-01
       -2   -1    0    0    0  501  0.00000000000E+00  0.00000000000E+00  0.11344674214E+04  0.11344674214E+04  0.25500000920E-02 0. -1.
        2   -1    0    0  501    0  0.00000000000E+00  0.00000000000E+00 -0.17273482614E+04  0.17273482614E+04  0.25500000920E-02 0.  1.
    10030    2    1    2    0    0  0.00000000000E+00  0.00000000000E+00 -0.59288083999E+03  0.28618156828E+04  0.27997287925E+04 0.  0.
        4    1    3    3  502    0 -0.32472565439E+03 -0.11231576934E+04 -0.10833757456E+04  0.15939368162E+04  0.12699999809E+01 0.  1.
       -4    1    3    3    0  502  0.32472565439E+03  0.11231576934E+04  0.49049490561E+03  0.12678788666E+04  0.12699999809E+01 0. -1.
</event>
<event>
 5   0  0.1346049E-07  0.2799557E+04  0.7818609E-02  0.8303406E-01
       -1   -1    0    0    0  501  0.00000000000E+00  0.00000000000E+00  0.15853404166E+04  0.15853404166E+04  0.50400001928E-02 0.  1.
        1   -1    0    0  501    0  0.00000000000E+00  0.00000000000E+00 -0.12359359409E+04  0.12359359409E+04  0.50400001928E-02 0. -1.
    10030    2    1    2    0    0  0.00000000000E+00  0.00000000000E+00  0.34940447571E+03  0.28212763575E+04  0.27995565359E+04 0.  0.
        1    1    3    3  502    0 -0.79216926922E+02 -0.54020530824E+03  0.14736093068E+04  0.15715029385E+04  0.50400001928E-02 0.  1.
       -1    1    3    3    0  502  0.79216926922E+02  0.54020530824E+03 -0.11242048311E+04  0.12497734190E+04  0.50400001928E-02 0. -1.
</event>
<event>
 5   0  0.3522569E-07  0.2799459E+04  0.7818609E-02  0.8303436E-01
       -2   -1    0    0    0  501  0.00000000000E+00  0.00000000000E+00  0.12952949405E+04  0.12952949405E+04  0.25500000920E-02 0. -1.
        2   -1    0    0  501    0  0.00000000000E+00  0.00000000000E+00 -0.15125842128E+04  0.15125842128E+04  0.25500000920E-02 0.  1.
    10030    2    1    2    0    0  0.00000000000E+00  0.00000000000E+00 -0.21728927230E+03  0.28078791534E+04  0.27994590035E+04 0.  0.
        1    1    3    3  502    0  0.89187863399E+03  0.63435947420E+03 -0.98384191024E+03  0.14716671990E+04  0.50400001928E-02 0.  1.
       -1    1    3    3    0  502 -0.89187863399E+03 -0.63435947420E+03  0.76655263795E+03  0.13362119544E+04  0.50400001928E-02 0. -1.
</event>
<event>
 5   0  0.3406920E-07  0.2800981E+04  0.7818609E-02  0.8302964E-01
        2   -1    0    0  501    0  0.00000000000E+00  0.00000000000E+00  0.15985257365E+04  0.15985257365E+04  0.25500000920E-02 0. -1.
       -2   -1    0    0    0  501  0.00000000000E+00  0.00000000000E+00 -0.12269890395E+04  0.12269890395E+04  0.25500000920E-02 0.  1.
    10030    2    1    2    0    0  0.00000000000E+00  0.00000000000E+00  0.37153669700E+03  0.28255147759E+04  0.28009809410E+04 0.  0.
        4    1    3    3  502    0 -0.12062753120E+04 -0.18925891123E+03 -0.50613510034E+03  0.13217766137E+04  0.12699999809E+01 0.  1.
       -4    1    3    3    0  502  0.12062753120E+04  0.18925891123E+03  0.87767179733E+03  0.15037381622E+04  0.12699999809E+01 0. -1.
</event>
<event>
 5   0  0.3557628E-07  0.2798840E+04  0.7818609E-02  0.8303629E-01
       -2   -1    0    0    0  501  0.00000000000E+00  0.00000000000E+00  0.11870161124E+04  0.11870161124E+04  0.25500000920E-02 0.  1.
        2   -1    0    0  501    0  0.00000000000E+00  0.00000000000E+00 -0.16498311726E+04  0.16498311726E+04  0.25500000920E-02 0. -1.
    10030    2    1    2    0    0  0.00000000000E+00  0.00000000000E+00 -0.46281506017E+03  0.28368472849E+04  0.27988398915E+04 0.  0.
        5    1    3    3  502    0 -0.62829962205E+03  0.12345729550E+04 -0.30158229550E+02  0.13855909949E+04  0.46999998093E+01 0.  1.
       -5    1    3    3    0  502  0.62829962205E+03 -0.12345729550E+04 -0.43265683062E+03  0.14512562900E+04  0.46999998093E+01 0. -1.
</event>
<event>
 5   0  0.3522569E-07  0.2801025E+04  0.7818609E-02  0.8302950E-01
        2   -1    0    0  501    0  0.00000000000E+00  0.00000000000E+00  0.21831227482E+04  0.21831227483E+04  0.25500000920E-02 0. -1.
       -2   -1    0    0    0  501  0.00000000000E+00  0.00000000000E+00 -0.89845418073E+03  0.89845418073E+03  0.25500000920E-02 0.  1.
    10030    2    1    2    0    0  0.00000000000E+00  0.00000000000E+00  0.12846685675E+04  0.30815769290E+04  0.28010253553E+04 0.  0.
        1    1    3    3  502    0  0.98771439429E+03 -0.88970741126E+03  0.11272501536E+04  0.17429434618E+04  0.50400001928E-02 0.  1.
       -1    1    3    3    0  502 -0.98771439429E+03  0.88970741126E+03  0.15741841396E+03  0.13386334672E+04  0.50400001928E-02 0. -1.
</event>
<event>
 5   0  0.3557628E-07  0.2800067E+04  0.7818609E-02  0.8303247E-01
       -2   -1    0    0    0  501  0.00000000000E+00  0.00000000000E+00  0.11468968795E+04  0.11468968795E+04  0.25500000920E-02 0. -1.
        2   -1    0    0  501    0  0.00000000000E+00  0.00000000000E+00 -0.17090415115E+04  0.17090415115E+04  0.25500000920E-02 0.  1.
    10030    2    1    2    0    0  0.00000000000E+00  0.00000000000E+00 -0.56214463196E+03  0.28559383911E+04  0.28000674110E+04 0.  0.
        5    1    3    3  502    0 -0.88155128342E+03 -0.73197171785E+03  0.53944014805E+03  0.12664647742E+04  0.46999998093E+01 0. -1.
       -5    1    3    3    0  502  0.88155128342E+03  0.73197171785E+03 -0.11015847800E+04  0.15894736168E+04  0.46999998093E+01 0.  1.
</event>
<event>
 5   0  0.3522569E-07  0.2798424E+04  0.7818609E-02  0.8303758E-01
       -2   -1    0    0    0  501  0.00000000000E+00  0.00000000000E+00  0.12477586952E+04  0.12477586952E+04  0.25500000920E-02 0. -1.
        2   -1    0    0  501    0  0.00000000000E+00  0.00000000000E+00 -0.15690485623E+04  0.15690485623E+04  0.25500000920E-02 0.  1.
    10030    2    1    2    0    0  0.00000000000E+00  0.00000000000E+00 -0.32128986709E+03  0.28168072576E+04  0.27984238327E+04 0.  0.
        1    1    3    3  502    0 -0.10571031632E+04 -0.45902213846E+02 -0.10822028147E+04  0.15135181013E+04  0.50400001928E-02 0.  1.
       -1    1    3    3    0  502  0.10571031632E+04  0.45902213846E+02  0.76091294759E+03  0.13032891562E+04  0.50400001928E-02 0. -1.
</event>
<event>
 5   0  0.1357902E-07  0.2795158E+04  0.7818609E-02  0.8304773E-01
        1   -1    0    0  501    0  0.00000000000E+00  0.00000000000E+00  0.14565239862E+04  0.14565239862E+04  0.50400001928E-02 0. -1.
       -1   -1    0    0    0  501  0.00000000000E+00  0.00000000000E+00 -0.13410196655E+04  0.13410196655E+04  0.50400001928E-02 0.  1.
    10030    2    1    2    0    0  0.00000000000E+00  0.00000000000E+00  0.11550432067E+03  0.27975436518E+04  0.27951581772E+04 0.  0.
        4    1    3    3  502    0  0.76155642514E+03 -0.53495974338E+03 -0.98576681888E+03  0.13556872611E+04  0.12699999809E+01 0.  1.
       -4    1    3    3    0  502 -0.76155642514E+03  0.53495974338E+03  0.11012711396E+04  0.14418563907E+04  0.12699999809E+01 0. -1.
</event>
<event>
 5   0  0.1374680E-07  0.2801438E+04  0.7818609E-02  0.8302822E-01
        1   -1    0    0  501    0  0.00000000000E+00  0.00000000000E+00  0.15115008251E+04  0.15115008251E+04  0.50400001928E-02 0.  1.
       -1   -1    0    0    0  501  0.00000000000E+00  0.00000000000E+00 -0.12980564586E+04  0.12980564586E+04  0.50400001928E-02 0. -1.
    10030    2    1    2    0    0  0.00000000000E+00  0.00000000000E+00  0.21344436652E+03  0.28095572837E+04  0.28014377795E+04 0.  0.
        3    1    3    3  502    0 -0.15326558563E+03 -0.34121507144E+03  0.14604846157E+04  0.15076250819E+04  0.10100000352E+00 0.  1.
       -3    1    3    3    0  502  0.15326558563E+03  0.34121507144E+03 -0.12470402492E+04  0.13019322018E+04  0.10100000352E+00 0. -1.
</event>
<event>
 5   0  0.3522569E-07  0.2798374E+04  0.7818609E-02  0.8303773E-01
        2   -1    0    0  501    0  0.00000000000E+00  0.00000000000E+00  0.26093595915E+04  0.26093595915E+04  0.25500000920E-02 0. -1.
       -2   -1    0    0    0  501  0.00000000000E+00  0.00000000000E+00 -0.75026981985E+03  0.75026981985E+03  0.25500000920E-02 0.  1.
    10030    2    1    2    0    0  0.00000000000E+00  0.00000000000E+00  0.18590897716E+04  0.33596294113E+04  0.27983736352E+04 0.  0.
        1    1    3    3  502    0 -0.11481639618E+04 -0.48723676571E+03  0.16830374498E+03  0.12585731205E+04  0.50400001928E-02 0.  1.
       -1    1    3    3    0  502  0.11481639618E+04  0.48723676571E+03  0.16907860266E+04  0.21010562908E+04  0.50400001928E-02 0. -1.
</event>
<event>
 5   0  0.1366235E-07  0.2806098E+04  0.7818609E-02  0.8301378E-01
        1   -1    0    0  501    0  0.00000000000E+00  0.00000000000E+00  0.18345570613E+04  0.18345570613E+04  0.50400001928E-02 0. -1.
       -1   -1    0    0    0  501  0.00000000000E+00  0.00000000000E+00 -0.10730362042E+04  0.10730362042E+04  0.50400001928E-02 0.  1.
    10030    2    1    2    0    0  0.00000000000E+00  0.00000000000E+00  0.76152085708E+03  0.29075932655E+04  0.28060977499E+04 0.  0.
        2    1    3    3  502    0  0.11236944362E+04 -0.21220811566E+03 -0.46155350402E+03  0.12331881881E+04  0.25500000920E-02 0.  1.
       -2    1    3    3    0  502 -0.11236944362E+04  0.21220811566E+03  0.12230743611E+04  0.16744050774E+04  0.25500000920E-02 0. -1.
</event>
<event>
 5   0  0.3571498E-07  0.2798842E+04  0.7818609E-02  0.8303628E-01
        2   -1    0    0  501    0  0.00000000000E+00  0.00000000000E+00  0.18525440544E+04  0.18525440544E+04  0.25500000920E-02 0. -1.
       -2   -1    0    0    0  501  0.00000000000E+00  0.00000000000E+00 -0.10571299455E+04  0.10571299455E+04  0.25500000920E-02 0.  1.
    10030    2    1    2    0    0  0.00000000000E+00  0.00000000000E+00  0.79541410889E+03  0.29096739998E+04  0.27988424716E+04 0.  0.
        2    1    3    3  502    0  0.43976909117E+03 -0.94455767475E+03 -0.57352205220E+03  0.11893332581E+04  0.25500000920E-02 0.  1.
       -2    1    3    3    0  502 -0.43976909117E+03  0.94455767475E+03  0.13689361611E+04  0.17203407417E+04  0.25500000920E-02 0. -1.
</event>
<event>
 5   0  0.1357902E-07  0.2799927E+04  0.7818609E-02  0.8303291E-01
       -1   -1    0    0    0  501  0.00000000000E+00  0.00000000000E+00  0.10542179864E+04  0.10542179864E+04  0.50400001928E-02 0. -1.
        1   -1    0    0  501    0  0.00000000000E+00  0.00000000000E+00 -0.18591007937E+04  0.18591007938E+04  0.50400001928E-02 0.  1.
    10030    2    1    2    0    0  0.00000000000E+00  0.00000000000E+00 -0.80488280737E+03  0.29133187801E+04  0.27999267814E+04 0.  0.
        4    1    3    3  502    0  0.79757616494E+02  0.10986880687E+04 -0.13013855636E+04  0.17050169348E+04  0.12699999809E+01 0.  1.
       -4    1    3    3    0  502 -0.79757616494E+02 -0.10986880687E+04  0.49650275626E+03  0.12083018454E+04  0.12699999809E+01 0. -1.
</event>
<event>
 5   0  0.3557628E-07  0.2799961E+04  0.7818609E-02  0.8303281E-01
       -2   -1    0    0    0  501  0.00000000000E+00  0.00000000000E+00  0.10550567923E+04  0.10550567924E+04  0.25500000920E-02 0. -1.
        2   -1    0    0  501    0  0.00000000000E+00  0.00000000000E+00 -0.18576675666E+04  0.18576675666E+04  0.25500000920E-02 0.  1.
    10030    2    1    2    0    0  0.00000000000E+00  0.00000000000E+00 -0.80261077428E+03  0.29127243590E+04  0.27999605598E+04 0.  0.
        5    1    3    3  502    0 -0.12602234034E+04 -0.36221578727E+03  0.10891596790E+03  0.13157690075E+04  0.46999998093E+01 0. -1.
       -5    1    3    3    0  502  0.12602234034E+04  0.36221578727E+03 -0.91152674218E+03  0.15969553515E+04  0.46999998093E+01 0.  1.
</event>
<event>
 5   0  0.1346049E-07  0.2799619E+04  0.7818609E-02  0.8303387E-01
        1   -1    0    0  501    0  0.00000000000E+00  0.00000000000E+00  0.17857737000E+04  0.17857737001E+04  0.50400001928E-02 0.  1.
       -1   -1    0    0    0  501  0.00000000000E+00  0.00000000000E+00 -0.10972649994E+04  0.10972649994E+04  0.50400001928E-02 0. -1.
    10030    2    1    2    0    0  0.00000000000E+00  0.00000000000E+00  0.68850870062E+03  0.28830386995E+04  0.27996192441E+04 0.  0.
        1    1    3    3  502    0  0.82325051839E+02  0.69204499595E+03 -0.90590498652E+03  0.11429643631E+04  0.50400001928E-02 0. -1.
       -1    1    3    3    0  502 -0.82325051839E+02 -0.69204499595E+03  0.15944136871E+04  0.17400743364E+04  0.50400001928E-02 0.  1.
</event>
<event>
 5   0  0.3522569E-07  0.2802680E+04  0.7818609E-02  0.8302437E-01
        2   -1    0    0  501    0  0.00000000000E+00  0.00000000000E+00  0.20834241104E+04  0.20834241104E+04  0.25500000920E-02 0.  1.
       -2   -1    0    0    0  501  0.00000000000E+00  0.00000000000E+00 -0.94256062504E+03  0.94256062505E+03  0.25500000920E-02 0. -1.
    10030    2    1    2    0    0  0.00000000000E+00  0.00000000000E+00  0.11408634853E+04  0.30259847354E+04  0.28026798117E+04 0.  0.
        1    1    3    3  502    0  0.43347756495E+03  0.74067658199E+03 -0.62564646950E+03  0.10620443038E+04  0.50400001928E-02 0. -1.
       -1    1    3    3    0  502 -0.43347756495E+03 -0.74067658199E+03  0.17665099548E+04  0.19639404316E+04  0.50400001928E-02 0.  1.
</event>
<event>
 5   0  0.1366235E-07  0.2796451E+04  0.7818609E-02  0.8304371E-01
       -1   -1    0    0    0  501  0.00000000000E+00  0.00000000000E+00  0.10788299782E+04  0.10788299782E+04  0.50400001928E-02 0.  1.
        1   -1    0    0  501    0  0.00000000000E+00  0.00000000000E+00 -0.18121797837E+04  0.18121797837E+04  0.50400001928E-02 0. -1.
    10030    2    1    2    0    0  0.00000000000E+00  0.00000000000E+00 -0.73334980554E+03  0.28910097620E+04  0.27964505192E+04 0.  0.
        2    1    3    3  502    0  0.11841509542E+04  0.60487599675E+03 -0.81366699204E+03  0.15588914098E+04  0.25500000920E-02 0.  1.
       -2    1    3    3    0  502 -0.11841509542E+04 -0.60487599675E+03  0.80317186509E+02  0.13321183521E+04  0.25500000920E-02 0. -1.
</event>
<event>
 5   0  0.1366235E-07  0.2799883E+04  0.7818609E-02  0.8303305E-01
        1   -1    0    0  501    0  0.00000000000E+00  0.00000000000E+00  0.12146723191E+04  0.12146723191E+04  0.50400001928E-02 0.  1.
       -1   -1    0    0    0  501  0.00000000000E+00  0.00000000000E+00 -0.16134694091E+04  0.16134694092E+04  0.50400001928E-02 0. -1.
    10030    2    1    2    0    0  0.00000000000E+00  0.00000000000E+00 -0.39879709001E+03  0.28281417283E+04  0.27998833041E+04 0.  0.
        2    1    3    3  502    0  0.97342682488E+03  0.71906843630E+03 -0.91021782630E+03  0.15143036983E+04  0.25500000920E-02 0. -1.
       -2    1    3    3    0  502 -0.97342682488E+03 -0.71906843630E+03  0.51142073628E+03  0.13138380300E+04  0.25500000920E-02 0.  1.
</event>
<event>
 5   0  0.1361741E-07  0.2800474E+04  0.7818609E-02  0.8303121E-01
       -1   -1    0    0    0  501  0.00000000000E+00  0.00000000000E+00  0.68733395858E+03  0.68733395860E+03  0.50400001928E-02 0. -1.
        1   -1    0    0  501    0  0.00000000000E+00  0.00000000000E+00 -0.28525624795E+04  0.28525624795E+04  0.50400001928E-02 0.  1.
    10030    2    1    2    0    0  0.00000000000E+00  0.00000000000E+00 -0.21652285209E+04  0.35398964381E+04  0.28004735751E+04 0.  0.
        5    1    3    3  502    0  0.45007981252E+03  0.11567914334E+04 -0.19017076444E+04  0.22709584568E+04  0.46999998093E+01 0.  1.
       -5    1    3    3    0  502 -0.45007981252E+03 -0.11567914334E+04 -0.26352087653E+03  0.12689379813E+04  0.46999998093E+01 0. -1.
</event>
<event>
 5   0  0.1361741E-07  0.2797726E+04  0.7818609E-02  0.8303975E-01
        1   -1    0    0  501    0  0.00000000000E+00  0.00000000000E+00  0.14380982982E+04  0.14380982982E+04  0.50400001928E-02 0.  1.
       -1   -1    0    0    0  501  0.00000000000E+00  0.00000000000E+00 -0.13606977978E+04  0.13606977978E+04  0.50400001928E-02 0. -1.
    10030    2    1    2    0    0  0.00000000000E+00  0.00000000000E+00  0.77400500405E+02  0.27987960960E+04  0.27977256387E+04 0.  0.
        5    1    3    3  502    0  0.79615970850E+03 -0.36521036324E+02 -0.11113443357E+04  0.13675936495E+04  0.46999998093E+01 0. -1.
       -5    1    3    3    0  502 -0.79615970850E+03  0.36521036324E+02  0.11887448361E+04  0.14312024465E+04  0.46999998093E+01 0.  1.
</event>
<event>
 5   0  0.1357902E-07  0.2800353E+04  0.7818609E-02  0.8303159E-01
        1   -1    0    0  501    0  0.00000000000E+00  0.00000000000E+00  0.17587850270E+04  0.17587850270E+04  0.50400001928E-02 0. -1.
       -1   -1    0    0    0  501  0.00000000000E+00  0.00000000000E+00 -0.11146869254E+04  0.11146869254E+04  0.50400001928E-02 0.  1.
    10030    2    1    2    0    0  0.00000000000E+00  0.00000000000E+00  0.64409810160E+03  0.28734719523E+04  0.28003533163E+04 0.  0.
        4    1    3    3  502    0 -0.83542454348E+03 -0.10739878084E+04 -0.16892320057E+02  0.13607611634E+04  0.12699999809E+01 0.  1.
       -4    1    3    3    0  502  0.83542454348E+03  0.10739878084E+04  0.66099042166E+03  0.15127107889E+04  0.12699999809E+01 0. -1.
</event>
<event>
 5   0  0.3406920E-07  0.2800437E+04  0.7818609E-02  0.8303133E-01
       -2   -1    0    0    0  501  0.00000000000E+00  0.00000000000E+00  0.11256810623E+04  0.11256810623E+04  0.25500000920E-02 0.  1.
        2   -1    0    0  501    0  0.00000000000E+00  0.00000000000E+00 -0.17417121661E+04  0.17417121661E+04  0.25500000920E-02 0. -1.
    10030    2    1    2    0    0  0.00000000000E+00  0.00000000000E+00 -0.61603110379E+03  0.28673932283E+04  0.28004373953E+04 0.  0.
        4    1    3    3  502    0  0.15078959804E+03 -0.65801642572E+03 -0.15640843537E+04  0.17035505856E+04  0.12699999809E+01 0. -1.
       -4    1    3    3    0  502 -0.15078959804E+03  0.65801642572E+03  0.94805324993E+03  0.11638426427E+04  0.12699999809E+01 0.  1.
</event>
<event>
 5   0  0.3522569E-07  0.2798340E+04  0.7818609E-02  0.8303784E-01
       -2   -1    0    0    0  501  0.00000000000E+00  0.00000000000E+00  0.72473979623E+03  0.72473979624E+03  0.25500000920E-02 0. -1.
        2   -1    0    0  501    0  0.00000000000E+00  0.00000000000E+00 -0.27012129573E+04  0.27012129573E+04  0.25500000920E-02 0.  1.
    10030    2    1    2    0    0  0.00000000000E+00  0.00000000000E+00 -0.19764731611E+04  0.34259527536E+04  0.27983398852E+04 0.  0.
        1    1    3    3  502    0  0.78671942152E+03  0.63429727672E+03 -0.21729555164E+04  0.23964549151E+04  0.50400001928E-02 0.  1.
       -1    1    3    3    0  502 -0.78671942152E+03 -0.63429727672E+03  0.19648235537E+03  0.10294978385E+04  0.50400001928E-02 0. -1.
</event>
<event>
 5   0  0.3557628E-07  0.2800864E+04  0.7818609E-02  0.8303000E-01
       -2   -1    0    0    0  501  0.00000000000E+00  0.00000000000E+00  0.11292702488E+04  0.11292702488E+04  0.25500000920E-02 0.  1.
        2   -1    0    0  501    0  0.00000000000E+00  0.00000000000E+00 -0.17367058934E+04  0.17367058934E+04  0.25500000920E-02 0. -1.
    10030    2    1    2    0    0  0.00000000000E+00  0.00000000000E+00 -0.60743564456E+03  0.28659761422E+04  0.28008643640E+04 0.  0.
        5    1    3    3  502    0  0.61682026721E+02  0.29978451537E+03  0.10946205772E+04  0.11366141500E+04  0.46999998093E+01 0.  1.
       -5    1    3    3    0  502 -0.61682026721E+02 -0.29978451537E+03 -0.17020562217E+04  0.17293619922E+04  0.46999998093E+01 0. -1.
</event>
<event>
 5   0  0.3571498E-07  0.2799488E+04  0.7818609E-02  0.8303427E-01
        2   -1    0    0  501    0  0.00000000000E+00  0.00000000000E+00  0.18543761821E+04  0.18543761821E+04  0.25500000920E-02 0.  1.
       -2   -1    0    0    0  501  0.00000000000E+00  0.00000000000E+00 -0.10565727033E+04  0.10565727034E+04  0.25500000920E-02 0. -1.
    10030    2    1    2    0    0  0.00000000000E+00  0.00000000000E+00  0.79780347875E+03  0.29109488855E+04  0.27994879930E+04 0.  0.
        2    1    3    3  502    0  0.97553649408E+03  0.19227234755E+03 -0.62553646712E+03  0.11747067628E+04  0.25500000920E-02 0. -1.
       -2    1    3    3    0  502 -0.97553649408E+03 -0.19227234755E+03  0.14233399459E+04  0.17362421226E+04  0.25500000920E-02 0.  1.
</event>
<event>
 5   0  0.1366235E-07  0.2799399E+04  0.7818609E-02  0.8303455E-01
       -1   -1    0    0    0  501  0.00000000000E+00  0.00000000000E+00  0.13866714790E+04  0.13866714790E+04  0.50400001928E-02 0. -1.
        1   -1    0    0  501    0  0.00000000000E+00  0.00000000000E+00 -0.14128504054E+04  0.14128504054E+04  0.50400001928E-02 0.  1.
    10030    2    1    2    0    0  0.00000000000E+00  0.00000000000E+00 -0.26178926355E+02  0.27995218844E+04  0.27993994794E+04 0.  0.
        2    1    3    3  502    0 -0.58225390598E+03  0.27757219783E+03 -0.12553568954E+04  0.14113776500E+04  0.25500000920E-02 0.  1.
       -2    1    3    3    0  502  0.58225390598E+03 -0.27757219783E+03  0.12291779691E+04  0.13881442345E+04  0.25500000920E-02 0. -1.
</event>
<event>
 5   0  0.1346049E-07  0.2799965E+04  0.7818609E-02  0.8303279E-01
        1   -1    0    0  501    0  0.00000000000E+00  0.00000000000E+00  0.15498616388E+04  0.15498616388E+04  0.50400001928E-02 0. -1.
       -1   -1    0    0    0  501  0.00000000000E+00  0.00000000000E+00 -0.12645976411E+04  0.12645976411E+04  0.50400001928E-02 0.  1.
    10030    2    1    2    0    0  0.00000000000E+00  0.00000000000E+00  0.28526399775E+03  0.28144592799E+04  0.27999652658E+04 0.  0.
        1    1    3    3  502    0 -0.51520161844E+03 -0.12633111904E+04  0.45820539693E+03  0.14392150838E+04  0.50400001928E-02 0. -1.
       -1    1    3    3    0  502  0.51520161844E+03  0.12633111904E+04 -0.17294139918E+03  0.13752441962E+04  0.50400001928E-02 0.  1.
</event>
<event>
 5   0  0.3557628E-07  0.2799364E+04  0.7818609E-02  0.8303466E-01
        2   -1    0    0  501    0  0.00000000000E+00  0.00000000000E+00  0.22921445311E+04  0.22921445311E+04  0.25500000920E-02 0.  1.
       -2   -1    0    0    0  501  0.00000000000E+00  0.00000000000E+00 -0.85470597284E+03  0.85470597284E+03  0.25500000920E-02 0. -1.
    10030    2    1    2    0    0  0.00000000000E+00  0.00000000000E+00  0.14374385583E+04  0.31468505039E+04  0.27993639430E+04 0.  0.
        5    1    3    3  502    0 -0.94247993731E+02  0.82228102195E+03  0.19875727665E+04  0.21530202868E+04  0.46999998093E+01 0.  1.
       -5    1    3    3    0  502  0.94247993731E+02 -0.82228102195E+03 -0.55013420823E+03  0.99383021712E+03  0.46999998093E+01 0. -1.
</event>
<event>
 5   0  0.3522569E-07  0.2810888E+04  0.7818609E-02  0.8299896E-01
       -2   -1    0    0    0  501  0.00000000000E+00  0.00000000000E+00  0.17279089206E+04  0.17279089206E+04  0.25500000920E-02 0.  1.
        2   -1    0    0  501    0  0.00000000000E+00  0.00000000000E+00 -0.11431583371E+04  0.11431583371E+04  0.25500000920E-02 0. -1.
    10030    2    1    2    0    0  0.00000000000E+00  0.00000000000E+00  0.58475058351E+03  0.28710672577E+04  0.28108884633E+04 0.  0.
        1    1    3    3  502    0 -0.36901402303E+03  0.13542425670E+04  0.36552707980E+03  0.14504324615E+04  0.50400001928E-02 0. -1.
       -1    1    3    3    0  502  0.36901402303E+03 -0.13542425670E+04  0.21922350372E+03  0.14206347961E+04  0.50400001928E-02 0.  1.
</event>
<event>
 5   0  0.1361741E-07  0.2786105E+04  0.7818609E-02  0.8307595E-01
       -1   -1    0    0    0  501  0.00000000000E+00  0.00000000000E+00  0.75556943021E+03  0.75556943023E+03  0.50400001928E-02 0.  1.
        1   -1    0    0  501    0  0.00000000000E+00  0.00000000000E+00 -0.25683885509E+04  0.25683885509E+04  0.50400001928E-02 0. -1.
    10030    2    1    2    0    0  0.00000000000E+00  0.00000000000E+00 -0.18128191207E+04  0.33239579811E+04  0.27861054352E+04 0.  0.
        5    1    3    3  502    0  0.93741768705E+03  0.46818688866E+02 -0.21345133588E+04  0.23317618400E+04  0.46999998093E+01 0. -1.
       -5    1    3    3    0  502 -0.93741768705E+03 -0.46818688866E+02  0.32169423812E+03  0.99219614112E+03  0.46999998093E+01 0.  1.
</event>
<event>
 5   0  0.1374680E-07  0.2811840E+04  0.7818609E-02  0.8299602E-01
        1   -1    0    0  501    0  0.00000000000E+00  0.00000000000E+00  0.16014432334E+04  0.16014432334E+04  0.50400001928E-02 0.  1.
       -1   -1    0    0    0  501  0.00000000000E+00  0.00000000000E+00 -0.12342689254E+04  0.12342689255E+04  0.50400001928E-02 0. -1.
    10030    2    1    2    0    0  0.00000000000E+00  0.00000000000E+00  0.36717430793E+03  0.28357121588E+04  0.28118404072E+04 0.  0.
        3    1    3    3  502    0  0.28640522665E+03 -0.13082291411E+04 -0.24797124005E+03  0.13619769401E+04  0.10100000352E+00 0. -1.
       -3    1    3    3    0  502 -0.28640522665E+03  0.13082291411E+04  0.61514554798E+03  0.14737352187E+04  0.10100000352E+00 0.  1.
</event>
<event>
 5   0  0.3557628E-07  0.2800666E+04  0.7818609E-02  0.8303062E-01
        2   -1    0    0  501    0  0.00000000000E+00  0.00000000000E+00  0.21465759324E+04  0.21465759324E+04  0.25500000920E-02 0. -1.
       -2   -1    0    0    0  501  0.00000000000E+00  0.00000000000E+00 -0.91351673431E+03  0.91351673432E+03  0.25500000920E-02 0.  1.
    10030    2    1    2    0    0  0.00000000000E+00  0.00000000000E+00  0.12330591981E+04  0.30600926667E+04  0.28006663748E+04 0.  0.
        5    1    3    3  502    0 -0.11478465789E+04  0.30383921494E+03 -0.19455307007E+03  0.12032219347E+04  0.46999998093E+01 0.  1.
       -5    1    3    3    0  502  0.11478465789E+04 -0.30383921494E+03  0.14276122681E+04  0.18568707320E+04  0.46999998093E+01 0. -1.
</event>
<event>
 5   0  0.1374680E-07  0.2800014E+04  0.7818609E-02  0.8303264E-01
        1   -1    0    0  501    0  0.00000000000E+00  0.00000000000E+00  0.30610536758E+04  0.30610536758E+04  0.50400001928E-02 0. -1.
       -1   -1    0    0    0  501  0.00000000000E+00  0.00000000000E+00 -0.64030896254E+03  0.64030896256E+03  0.50400001928E-02 0.  1.
    10030    2    1    2    0    0  0.00000000000E+00  0.00000000000E+00  0.24207447133E+04  0.37013626384E+04  0.28000143596E+04 0.  0.
        3    1    3    3  502    0 -0.42856028432E+03 -0.11548545744E+04  0.33086394967E+03  0.12754700971E+04  0.10100000352E+00 0.  1.
       -3    1    3    3    0  502  0.42856028432E+03  0.11548545744E+04  0.20898807636E+04  0.24258925412E+04  0.10100000352E+00 0. -1.
</event>
<event>
 5   0  0.3502141E-07  0.2816938E+04  0.7818609E-02  0.8298029E-01
        2   -1    0    0  501    0  0.00000000000E+00  0.00000000000E+00  0.13896495213E+04  0.13896495213E+04  0.25500000920E-02 0. -1.
       -2   -1    0    0    0  501  0.00000000000E+00  0.00000000000E+00 -0.14275431078E+04  0.14275431078E+04  0.25500000920E-02 0.  1.
    10030    2    1    2    0    0  0.00000000000E+00  0.00000000000E+00 -0.37893586434E+02  0.28171926291E+04  0.28169377674E+04 0.  0.
        3    1    3    3  502    0  0.32714283349E+03  0.89919841006E+02  0.13481723406E+04  0.13902074239E+04  0.10100000352E+00 0. -1.
       -3    1    3    3    0  502 -0.32714283349E+03 -0.89919841006E+02 -0.13860659271E+04  0.14269852051E+04  0.10100000352E+00 0.  1.
</event>
<event>
 5   0  0.1366235E-07  0.2799677E+04  0.7818609E-02  0.8303369E-01
        1   -1    0    0  501    0  0.00000000000E+00  0.00000000000E+00  0.25022106337E+04  0.25022106337E+04  0.50400001928E-02 0. -1.
       -1   -1    0    0    0  501  0.00000000000E+00  0.00000000000E+00 -0.78312653915E+03  0.78312653917E+03  0.50400001928E-02 0.  1.
    10030    2    1    2    0    0  0.00000000000E+00  0.00000000000E+00  0.17190840945E+04  0.32853371728E+04  0.27996768055E+04 0.  0.
        2    1    3    3  502    0  0.48837071456E+03 -0.12777934009E+04  0.51087007136E+03  0.14602226406E+04  0.25500000920E-02 0.  1.
       -2    1    3    3    0  502 -0.48837071456E+03  0.12777934009E+04  0.12082140231E+04  0.18251145323E+04  0.25500000920E-02 0. -1.
</event>
<event>
 5   0  0.3522569E-07  0.2799239E+04  0.7818609E-02  0.8303505E-01
        2   -1    0    0  501    0  0.00000000000E+00  0.00000000000E+00  0.16667761598E+04  0.16667761598E+04  0.25500000920E-02 0.  1.
       -2   -1    0    0    0  501  0.00000000000E+00  0.00000000000E+00 -0.11752839417E+04  0.11752839417E+04  0.25500000920E-02 0. -1.
    10030    2    1    2    0    0  0.00000000000E+00  0.00000000000E+00  0.49149221803E+03  0.28420601015E+04  0.27992393646E+04 0.  0.
        1    1    3    3  502    0 -0.41764350401E+02 -0.76539182148E+03  0.14347135609E+04  0.16266443690E+04  0.50400001928E-02 0.  1.
       -1    1    3    3    0  502  0.41764350401E+02  0.76539182148E+03 -0.94322134283E+03  0.12154157326E+04  0.50400001928E-02 0. -1.
</event>
<event>
 5   0  0.1366235E-07  0.2799777E+04  0.7818609E-02  0.8303338E-01
       -1   -1    0    0    0  501  0.00000000000E+00  0.00000000000E+00  0.17922352193E+04  0.17922352193E+04  0.50400001928E-02 0. -1.
        1   -1    0    0  501    0  0.00000000000E+00  0.00000000000E+00 -0.10934319218E+04  0.10934319218E+04  0.50400001928E-02 0.  1.
    10030    2    1    2    0    0  0.00000000000E+00  0.00000000000E+00  0.69880329744E+03  0.28856671411E+04  0.27997765626E+04 0.  0.
        2    1    3    3  502    0 -0.11704780118E+03 -0.46498773501E+03  0.17049576688E+04  0.17710997809E+04  0.25500000920E-02 0. -1.
       -2    1    3    3    0  502  0.11704780118E+03  0.46498773501E+03 -0.10061543713E+04  0.11145673602E+04  0.25500000920E-02 0.  1.
</event>
<event>
 5   0  0.3406920E-07  0.2800007E+04  0.7818609E-02  0.8303266E-01
        2   -1    0    0  501    0  0.00000000000E+00  0.00000000000E+00  0.21401015183E+04  0.21401015183E+04  0.25500000920E-02 0. -1.
       -2   -1    0    0    0  501  0.00000000000E+00  0.00000000000E+00 -0.91584896590E+03  0.91584896591E+03  0.25500000920E-02 0.  1.
    10030    2    1    2    0    0  0.00000000000E+00  0.00000000000E+00  0.12242525524E+04  0.30559504842E+04  0.28000069732E+04 0.  0.
        4    1    3    3  502    0  0.10663560541E+04  0.79157428841E+03  0.12856586697E+03  0.13342548045E+04  0.12699999809E+01 0.  1.
       -4    1    3    3    0  502 -0.10663560541E+04 -0.79157428841E+03  0.10956866855E+04  0.17216956798E+04  0.12699999809E+01 0. -1.
</event>
<event>
 5   0  0.1357902E-07  0.2799803E+04  0.7818609E-02  0.8303329E-01
       -1   -1    0    0    0  501  0.00000000000E+00  0.00000000000E+00  0.10936150361E+04  0.10936150361E+04  0.50400001928E-02 0.  1.
        1   -1    0    0  501    0  0.00000000000E+00  0.00000000000E+00 -0.17919695369E+04  0.17919695370E+04  0.50400001928E-02 0. -1.
    10030    2    1    2    0    0  0.00000000000E+00  0.00000000000E+00 -0.69835450083E+03  0.28855845731E+04  0.27998034430E+04 0.  0.
        4    1    3    3  502    0  0.65386685732E+03 -0.51921051024E+03 -0.15072596614E+04  0.17230655011E+04  0.12699999809E+01 0. -1.
       -4    1    3    3    0  502 -0.65386685732E+03  0.51921051024E+03  0.80890516061E+03  0.11625190720E+04  0.12699999809E+01 0.  1.
</event>
<event>
 5   0  0.1366235E-07  0.2799583E+04  0.7818609E-02  0.8303398E-01
       -1   -1    0    0    0  501  0.00000000000E+00  0.00000000000E+00  0.99969583066E+03  0.99969583067E+03  0.50400001928E-02 0.  1.
        1   -1    0    0  501    0  0.00000000000E+00  0.00000000000E+00 -0.19600127029E+04  0.19600127029E+04  0.50400001928E-02 0. -1.
    10030    2    1    2    0    0  0.00000000000E+00  0.00000000000E+00 -0.96031687222E+03  0.29597085336E+04  0.27995832026E+04 0.  0.
        2    1    3    3  502    0 -0.12520018390E+04 -0.54443156058E+03 -0.15344857019E+03  0.13738488973E+04  0.25500000920E-02 0. -1.
       -2    1    3    3    0  502  0.12520018390E+04  0.54443156058E+03 -0.80686830203E+03  0.15858596362E+04  0.25500000920E-02 0.  1.
</event>
<event>
 5   0  0.1361741E-07  0.2799868E+04  0.7818609E-02  0.8303309E-01
        1   -1    0    0  501    0  0.00000000000E+00  0.00000000000E+00  0.18280267835E+04  0.18280267835E+04  0.50400001928E-02 0.  1.
       -1   -1    0    0    0  501  0.00000000000E+00  0.00000000000E+00 -0.10720930686E+04  0.10720930686E+04  0.50400001928E-02 0. -1.
    10030    2    1    2    0    0  0.00000000000E+00  0.00000000000E+00  0.75593371494E+03  0.29001198521E+04  0.27998677425E+04 0.  0.
        5    1    3    3  502    0 -0.12832354000E+04  0.34127082412E+03  0.83727866590E+03  0.15697823167E+04  0.46999998093E+01 0.  1.
       -5    1    3    3    0  502  0.12832354000E+04 -0.34127082412E+03 -0.81344950955E+02  0.13303375355E+04  0.46999998093E+01 0. -1.
</event>
<event>
 5   0  0.1366235E-07  0.2799349E+04  0.7818609E-02  0.8303470E-01
        1   -1    0    0  501    0  0.00000000000E+00  0.00000000000E+00  0.93753337554E+03  0.93753337555E+03  0.50400001928E-02 0.  1.
       -1   -1    0    0    0  501  0.00000000000E+00  0.00000000000E+00 -0.20896206170E+04  0.20896206170E+04  0.50400001928E-02 0. -1.
    10030    2    1    2    0    0  0.00000000000E+00  0.00000000000E+00 -0.11520872415E+04  0.30271539926E+04  0.27993492606E+04 0.  0.
        2    1    3    3  502    0  0.29056808026E+03  0.11037082080E+04  0.30013094659E+03  0.11801187240E+04  0.25500000920E-02 0.  1.
       -2    1    3    3    0  502 -0.29056808026E+03 -0.11037082080E+04 -0.14522181881E+04  0.18470352686E+04  0.25500000920E-02 0. -1.
</event>
<event>
 5   0  0.1374680E-07  0.2800175E+04  0.7818609E-02  0.8303214E-01
        1   -1    0    0  501    0  0.00000000000E+00  0.00000000000E+00  0.18001154797E+04  0.18001154797E+04  0.50400001928E-02 0.  1.
       -1   -1    0    0    0  501  0.00000000000E+00  0.00000000000E+00 -0.10889552858E+04  0.10889552858E+04  0.50400001928E-02 0. -1.
    10030    2    1    2    0    0  0.00000000000E+00  0.00000000000E+00  0.71116019395E+03  0.28890707655E+04  0.28001751850E+04 0.  0.
        3    1    3    3  502    0 -0.10681751750E+04  0.79137416528E+03 -0.97653772949E+02  0.13329694458E+04  0.10100000352E+00 0. -1.
       -3    1    3    3    0  502  0.10681751750E+04 -0.79137416528E+03  0.80881396690E+03  0.15561013197E+04  0.10100000352E+00 0.  1.
</event>
<event>
 5   0  0.1361741E-07  0.2810325E+04  0.7818609E-02  0.8300070E-01
       -1   -1    0    0    0  501  0.00000000000E+00  0.00000000000E+00  0.10654819138E+04  0.10654819138E+04  0.50400001928E-02 0. -1.
        1   -1    0    0  501    0  0.00000000000E+00  0.00000000000E+00 -0.18531350183E+04  0.18531350183E+04  0.50400001928E-02 0.  1.
    10030    2    1    2    0    0  0.00000000000E+00  0.00000000000E+00 -0.78765310451E+03  0.29186169321E+04  0.28103251384E+04 0.  0.
        5    1    3    3  502    0 -0.15802183604E+03 -0.13960467886E+04 -0.36964367053E+03  0.14527821825E+04  0.46999998093E+01 0.  1.
       -5    1    3    3    0  502  0.15802183604E+03  0.13960467886E+04 -0.41800943398E+03  0.14658347497E+04  0.46999998093E+01 0. -1.
</event>
<event>
 5   0  0.1361741E-07  0.2799904E+04  0.7818609E-02  0.8303298E-01
       -1   -1    0    0    0  501  0.00000000000E+00  0.00000000000E+00  0.12863492743E+04  0.12863492744E+04  0.50400001928E-02 0. -1.
        1   -1    0    0  501    0  0.00000000000E+00  0.00000000000E+00 -0.15235871417E+04  0.15235871417E+04  0.50400001928E-02 0.  1.
    10030    2    1    2    0    0  0.00000000000E+00  0.00000000000E+00 -0.23723786733E+03  0.28099364160E+04  0.27999037227E+04 0.  0.
        5    1    3    3  502    0  0.84796853332E+03 -0.90550186352E+03  0.53244199739E+03  0.13500003070E+04  0.46999998093E+01 0. -1.
       -5    1    3    3    0  502 -0.84796853332E+03  0.90550186352E+03 -0.76967986472E+03  0.14599361090E+04  0.46999998093E+01 0.  1.
</event>
<event>
 5   0  0.1361741E-07  0.2800489E+04  0.7818609E-02  0.8303117E-01
       -1   -1    0    0    0  501  0.00000000000E+00  0.00000000000E+00  0.15234151668E+04  0.15234151668E+04  0.50400001928E-02 0.  1.
        1   -1    0    0  501    0  0.00000000000E+00  0.00000000000E+00 -0.12870319559E+04  0.12870319559E+04  0.50400001928E-02 0. -1.
    10030    2    1    2    0    0  0.00000000000E+00  0.00000000000E+00  0.23638321088E+03  0.28104471228E+04  0.28004885301E+04 0.  0.
        5    1    3    3  502    0  0.13163053157E+04  0.32275464028E+03 -0.23495699149E+03  0.13755206723E+04  0.46999998093E+01 0.  1.
       -5    1    3    3    0  502 -0.13163053157E+04 -0.32275464028E+03  0.47134020238E+03  0.14349264505E+04  0.46999998093E+01 0. -1.
</event>
<event>
 5   0  0.3406920E-07  0.2799499E+04  0.7818609E-02  0.8303424E-01
       -2   -1    0    0    0  501  0.00000000000E+00  0.00000000000E+00  0.13752302365E+04  0.13752302365E+04  0.25500000920E-02 0.  1.
        2   -1    0    0  501    0  0.00000000000E+00  0.00000000000E+00 -0.14247054268E+04  0.14247054268E+04  0.25500000920E-02 0. -1.
    10030    2    1    2    0    0  0.00000000000E+00  0.00000000000E+00 -0.49475190307E+02  0.27999356632E+04  0.27994985129E+04 0.  0.
        4    1    3    3  502    0  0.13640167357E+04 -0.16130889479E+02  0.28914975740E+03  0.13944214054E+04  0.12699999809E+01 0.  1.
       -4    1    3    3    0  502 -0.13640167357E+04  0.16130889479E+02 -0.33862494771E+03  0.14055142578E+04  0.12699999809E+01 0. -1.
</event>
<event>
 5   0  0.1357902E-07  0.2800424E+04  0.7818609E-02  0.8303137E-01
       -1   -1    0    0    0  501  0.00000000000E+00  0.00000000000E+00  0.11300590869E+04  0.11300590869E+04  0.50400001928E-02 0.  1.
        1   -1    0    0  501    0  0.00000000000E+00  0.00000000000E+00 -0.17349476903E+04  0.17349476904E+04  0.50400001928E-02 0. -1.
    10030    2    1    2    0    0  0.00000000000E+00  0.00000000000E+00 -0.60488860345E+03  0.28650067773E+04  0.28004238271E+04 0.  0.
        4    1    3    3  502    0  0.61866553848E+03 -0.12280267887E+04 -0.32164319197E+02  0.13754392021E+04  0.12699999809E+01 0.  1.
       -4    1    3    3    0  502 -0.61866553848E+03  0.12280267887E+04 -0.57272428425E+03  0.14895675752E+04  0.12699999809E+01 0. -1.
</event>
<event>
 5   0  0.3502141E-07  0.2799587E+04  0.7818609E-02  0.8303397E-01
        2   -1    0    0  501    0  0.00000000000E+00  0.00000000000E+00  0.13477373708E+04  0.13477373708E+04  0.25500000920E-02 0. -1.
       -2   -1    0    0    0  501  0.00000000000E+00  0.00000000000E+00 -0.14538601263E+04  0.14538601263E+04  0.25500000920E-02 0.  1.
    10030    2    1    2    0    0  0.00000000000E+00  0.00000000000E+00 -0.10612275552E+03  0.28015974971E+04  0.27995868438E+04 0.  0.
        3    1    3    3  502    0  0.32938981175E+02  0.13969042450E+04 -0.13675856511E+03  0.14039691455E+04  0.10100000352E+00 0. -1.
       -3    1    3    3    0  502 -0.32938981175E+02 -0.13969042450E+04  0.30635809593E+02  0.13976283516E+04  0.10100000352E+00 0.  1.
</event>
<event>
 5   0  0.3522569E-07  0.2800720E+04  0.7818609E-02  0.8303045E-01
        2   -1    0    0  501    0  0.00000000000E+00  0.00000000000E+00  0.20598478409E+04  0.20598478409E+04  0.25500000920E-02 0.  1.
       -2   -1    0    0    0  501  0.00000000000E+00  0.00000000000E+00 -0.95201575021E+03  0.95201575021E+03  0.25500000920E-02 0. -1.
    10030    2    1    2    0    0  0.00000000000E+00  0.00000000000E+00  0.11078320907E+04  0.30118635912E+04  0.28007196130E+04 0.  0.
        1    1    3    3  502    0 -0.50082445496E+03 -0.11734613691E+04 -0.66808867271E+02  0.12776150220E+04  0.50400001928E-02 0. -1.
       -1    1    3    3    0  502  0.50082445496E+03  0.11734613691E+04  0.11746409580E+04  0.17342485692E+04  0.50400001928E-02 0.  1.
</event>
<event>
 5   0  0.1357902E-07  0.2784045E+04  0.7818609E-02  0.8308239E-01
       -1   -1    0    0    0  501  0.00000000000E+00  0.00000000000E+00  0.10804571895E+04  0.10804571895E+04  0.50400001928E-02 0.  1.
        1   -1    0    0  501    0  0.00000000000E+00  0.00000000000E+00 -0.17934316717E+04  0.17934316717E+04  0.50400001928E-02 0. -1.
    10030    2    1    2    0    0  0.00000000000E+00  0.00000000000E+00 -0.71297448216E+03  0.28738888612E+04  0.27840446431E+04 0.  0.
        4    1    3    3  502    0 -0.35814088118E+03  0.51700415846E+03  0.92542821536E+03  0.11189178635E+04  0.12699999809E+01 0.  1.
       -4    1    3    3    0  502  0.35814088118E+03 -0.51700415846E+03 -0.16384026975E+04  0.17549709977E+04  0.12699999809E+01 0. -1.
</event>
<event>
 5   0  0.3522569E-07  0.2799878E+04  0.7818609E-02  0.8303306E-01
       -2   -1    0    0    0  501  0.00000000000E+00  0.00000000000E+00  0.16314522790E+04  0.16314522790E+04  0.25500000920E-02 0.  1.
        2   -1    0    0  501    0  0.00000000000E+00  0.00000000000E+00 -0.12012791146E+04  0.12012791146E+04  0.25500000920E-02 0. -1.
    10030    2    1    2    0    0  0.00000000000E+00  0.00000000000E+00  0.43017316448E+03  0.28327313936E+04  0.27998782468E+04 0.  0.
        1    1    3    3  502    0  0.13955702747E+02  0.12418202323E+04 -0.43865105038E+03  0.13170903519E+04  0.50400001928E-02 0. -1.
       -1    1    3    3    0  502 -0.13955702747E+02 -0.12418202323E+04  0.86882421486E+03  0.15156410417E+04  0.50400001928E-02 0.  1.
</event>
<event>
 5   0  0.3502141E-07  0.2799774E+04  0.7818609E-02  0.8303339E-01
        2   -1    0    0  501    0  0.00000000000E+00  0.00000000000E+00  0.13586918840E+04  0.13586918840E+04  0.25500000920E-02 0.  1.
       -2   -1    0    0    0  501  0.00000000000E+00  0.00000000000E+00 -0.14423310443E+04  0.14423310443E+04  0.25500000920E-02 0. -1.
    10030    2    1    2    0    0  0.00000000000E+00  0.00000000000E+00 -0.83639160322E+02  0.28010229284E+04  0.27997739080E+04 0.  0.
        3    1    3    3  502    0  0.10356195663E+04 -0.25408876428E+03 -0.94920517197E+03  0.14276061974E+04  0.10100000352E+00 0. -1.
       -3    1    3    3    0  502 -0.10356195663E+04  0.25408876428E+03  0.86556601165E+03  0.13734167310E+04  0.10100000352E+00 0.  1.
</event>
<event>
 5   0  0.1366235E-07  0.2798093E+04  0.7818609E-02  0.8303861E-01
       -1   -1    0    0    0  501  0.00000000000E+00  0.00000000000E+00  0.12162415990E+04  0.12162415990E+04  0.50400001928E-02 0. -1.
        1   -1    0    0  501    0  0.00000000000E+00  0.00000000000E+00 -0.16093278024E+04  0.16093278024E+04  0.50400001928E-02 0.  1.
    10030    2    1    2    0    0  0.00000000000E+00  0.00000000000E+00 -0.39308620338E+03  0.28255694014E+04  0.27980932220E+04 0.  0.
        2    1    3    3  502    0 -0.13798639981E+03 -0.37511407788E+03  0.11573612553E+04  0.12244328863E+04  0.25500000920E-02 0. -1.
       -2    1    3    3    0  502  0.13798639981E+03  0.37511407788E+03 -0.15504474586E+04  0.16011365151E+04  0.25500000920E-02 0.  1.
</event>
<event>
 5   0  0.3522569E-07  0.2801073E+04  0.7818609E-02  0.8302935E-01
       -2   -1    0    0    0  501  0.00000000000E+00  0.00000000000E+00  0.19125381890E+04  0.19125381890E+04  0.25500000920E-02 0. -1.
        2   -1    0    0  501    0  0.00000000000E+00  0.00000000000E+00 -0.10256013983E+04  0.10256013983E+04  0.25500000920E-02 0.  1.
    10030    2    1    2    0    0  0.00000000000E+00  0.00000000000E+00  0.88693679064E+03  0.29381395873E+04  0.28010725381E+04 0.  0.
        1    1    3    3  502    0 -0.19442311161E+03 -0.23398622921E+03 -0.99052494945E+03  0.10361899330E+04  0.50400001928E-02 0.  1.
       -1    1    3    3    0  502  0.19442311161E+03  0.23398622921E+03  0.18774617401E+04  0.19019496543E+04  0.50400001928E-02 0. -1.
</event>
<event>
 5   0  0.1357902E-07  0.2800894E+04  0.7818609E-02  0.8302991E-01
        1   -1    0    0  501    0  0.00000000000E+00  0.00000000000E+00  0.13077838250E+04  0.13077838250E+04  0.50400001928E-02 0.  1.
       -1   -1    0    0    0  501  0.00000000000E+00  0.00000000000E+00 -0.14996755614E+04  0.14996755614E+04  0.50400001928E-02 0. -1.
    10030    2    1    2    0    0  0.00000000000E+00  0.00000000000E+00 -0.19189173647E+03  0.28074593864E+04  0.28008937445E+04 0.  0.
        4    1    3    3  502    0  0.24823634004E+03 -0.56648761842E+03  0.11634708355E+04  0.13176477148E+04  0.12699999809E+01 0.  1.
       -4    1    3    3    0  502 -0.24823634004E+03  0.56648761842E+03 -0.13553625720E+04  0.14898116716E+04  0.12699999809E+01 0. -1.
</event>
<event>
 5   0  0.1366235E-07  0.2799731E+04  0.7818609E-02  0.8303352E-01
       -1   -1    0    0    0  501  0.00000000000E+00  0.00000000000E+00  0.93033397467E+03  0.93033397468E+03  0.50400001928E-02 0.  1.
        1   -1    0    0  501    0  0.00000000000E+00  0.00000000000E+00 -0.21063655884E+04  0.21063655885E+04  0.50400001928E-02 0. -1.
    10030    2    1    2    0    0  0.00000000000E+00  0.00000000000E+00 -0.11760316138E+04  0.30366995631E+04  0.27997310371E+04 0.  0.
        2    1    3    3  502    0  0.28269707202E+03  0.13245151954E+04 -0.97205384633E+03  0.16670773280E+04  0.25500000920E-02 0. -1.
       -2    1    3    3    0  502 -0.28269707202E+03 -0.13245151954E+04 -0.20397776745E+03  0.13696222351E+04  0.25500000920E-02 0.  1.
</event>
<event>
 5   0  0.1346049E-07  0.2799590E+04  0.7818609E-02  0.8303396E-01
        1   -1    0    0  501    0  0.00000000000E+00  0.00000000000E+00  0.74479959232E+03  0.74479959233E+03  0.50400001928E-02 0. -1.
       -1   -1    0    0    0  501  0.00000000000E+00  0.00000000000E+00 -0.26308092932E+04  0.26308092932E+04  0.50400001928E-02 0.  1.
    10030    2    1    2    0    0  0.00000000000E+00  0.00000000000E+00 -0.18860097009E+04  0.33756088856E+04  0.27995897479E+04 0.  0.
        1    1    3    3  502    0 -0.88771926004E+03  0.16404493925E+03 -0.22329161033E+04  0.24084996473E+04  0.50400001928E-02 0.  1.
       -1    1    3    3    0  502  0.88771926004E+03 -0.16404493925E+03  0.34690640235E+03  0.96710923828E+03  0.50400001928E-02 0. -1.
</event>
<event>
 5   0  0.3522569E-07  0.2800509E+04  0.7818609E-02  0.8303110E-01
       -2   -1    0    0    0  501  0.00000000000E+00  0.00000000000E+00  0.70949179394E+03  0.70949179395E+03  0.25500000920E-02 0.  1.
        2   -1    0    0  501    0  0.00000000000E+00  0.00000000000E+00 -0.27635448935E+04  0.27635448935E+04  0.25500000920E-02 0. -1.
    10030    2    1    2    0    0  0.00000000000E+00  0.00000000000E+00 -0.20540530995E+04  0.34730366874E+04  0.28005088281E+04 0.  0.
        1    1    3    3  502    0  0.56369227433E+03 -0.76078957737E+03  0.25228533233E+03  0.97989675483E+03  0.50400001928E-02 0.  1.
       -1    1    3    3    0  502 -0.56369227433E+03  0.76078957737E+03 -0.23063384318E+04  0.24931399326E+04  0.50400001928E-02 0. -1.
</event>
<event>
 5   0  0.1346049E-07  0.2801115E+04  0.7818609E-02  0.8302922E-01
        1   -1    0    0  501    0  0.00000000000E+00  0.00000000000E+00  0.10481616287E+04  0.10481616287E+04  0.50400001928E-02 0.  1.
       -1   -1    0    0    0  501  0.00000000000E+00  0.00000000000E+00 -0.18714300455E+04  0.18714300455E+04  0.50400001928E-02 0. -1.
    10030    2    1    2    0    0  0.00000000000E+00  0.00000000000E+00 -0.82326841679E+03  0.29195916742E+04  0.28011148955E+04 0.  0.
        1    1    3    3  502    0 -0.36582744478E+03 -0.20891333052E+03  0.98055789835E+03  0.10672245739E+04  0.50400001928E-02 0.  1.
       -1    1    3    3    0  502  0.36582744478E+03  0.20891333052E+03 -0.18038263151E+04  0.18523671003E+04  0.50400001928E-02 0. -1.
</event>
<event>
 5   0  0.1357902E-07  0.2800828E+04  0.7818609E-02  0.8303011E-01
       -1   -1    0    0    0  501  0.00000000000E+00  0.00000000000E+00  0.11582874795E+04  0.11582874795E+04  0.50400001928E-02 0.  1.
        1   -1    0    0  501    0  0.00000000000E+00  0.00000000000E+00 -0.16931538470E+04  0.16931538470E+04  0.50400001928E-02 0. -1.
    10030    2    1    2    0    0  0.00000000000E+00  0.00000000000E+00 -0.53486636752E+03  0.28514413266E+04  0.28008276648E+04 0.  0.
        4    1    3    3  502    0 -0.22676637552E+03 -0.12552382662E+04 -0.85590215194E+03  0.15361042284E+04  0.12699999809E+01 0. -1.
       -4    1    3    3    0  502  0.22676637552E+03  0.12552382662E+04  0.32103578443E+03  0.13153370982E+04  0.12699999809E+01 0.  1.
</event>
<event>
 5   0  0.3571498E-07  0.2799390E+04  0.7818609E-02  0.8303458E-01
        2   -1    0    0  501    0  0.00000000000E+00  0.00000000000E+00  0.87847702737E+03  0.87847702737E+03  0.25500000920E-02 0.  1.
       -2   -1    0    0    0  501  0.00000000000E+00  0.00000000000E+00 -0.22301622884E+04  0.22301622884E+04  0.25500000920E-02 0. -1.
    10030    2    1    2    0    0  0.00000000000E+00  0.00000000000E+00 -0.13516852610E+04  0.31086393157E+04  0.27993901748E+04 0.  0.
        2    1    3    3  502    0 -0.58763084313E+03  0.12552614299E+04 -0.89275436250E+03  0.16486362901E+04  0.25500000920E-02 0.  1.
       -2    1    3    3    0  502  0.58763084313E+03 -0.12552614299E+04 -0.45893089850E+03  0.14600030256E+04  0.25500000920E-02 0. -1.
</event>
<event>
 5   0  0.3571498E-07  0.2798046E+04  0.7818609E-02  0.8303875E-01
        2   -1    0    0  501    0  0.00000000000E+00  0.00000000000E+00  0.17112232169E+04  0.17112232170E+04  0.25500000920E-02 0. -1.
       -2   -1    0    0    0  501  0.00000000000E+00  0.00000000000E+00 -0.11437818072E+04  0.11437818072E+04  0.25500000920E-02 0.  1.
    10030    2    1    2    0    0  0.00000000000E+00  0.00000000000E+00  0.56744140980E+03  0.28550050241E+04  0.27980464496E+04 0.  0.
        2    1    3    3  502    0  0.12559581198E+04 -0.36372163328E+03  0.79138450068E+03  0.15284023205E+04  0.25500000920E-02 0. -1.
       -2    1    3    3    0  502 -0.12559581198E+04  0.36372163328E+03 -0.22394309088E+03  0.13266027036E+04  0.25500000920E-02 0.  1.
</event>
<event>
 5   0  0.3557628E-07  0.2801848E+04  0.7818609E-02  0.8302695E-01
       -2   -1    0    0    0  501  0.00000000000E+00  0.00000000000E+00  0.14910787113E+04  0.14910787113E+04  0.25500000920E-02 0.  1.
        2   -1    0    0  501    0  0.00000000000E+00  0.00000000000E+00 -0.13162202948E+04  0.13162202948E+04  0.25500000920E-02 0. -1.
    10030    2    1    2    0    0  0.00000000000E+00  0.00000000000E+00  0.17485841653E+03  0.28072990061E+04  0.28018480052E+04 0.  0.
        5    1    3    3  502    0 -0.89357026286E+03 -0.80565291516E+03 -0.63161699112E+03  0.13588622255E+04  0.46999998093E+01 0. -1.
       -5    1    3    3    0  502  0.89357026286E+03  0.80565291516E+03  0.80647540765E+03  0.14484367806E+04  0.46999998093E+01 0.  1.
</event>
<event>
 5   0  0.3522569E-07  0.2799193E+04  0.7818609E-02  0.8303519E-01
        2   -1    0    0  501    0  0.00000000000E+00  0.00000000000E+00  0.22779189666E+04  0.22779189666E+04  0.25500000920E-02 0.  1.
       -2   -1    0    0    0  501  0.00000000000E+00  0.00000000000E+00 -0.85993851949E+03  0.85993851949E+03  0.25500000920E-02 0. -1.
    10030    2    1    2    0    0  0.00000000000E+00  0.00000000000E+00  0.14179804471E+04  0.31378574861E+04  0.27991929292E+04 0.  0.
        1    1    3    3  502    0 -0.54087193278E+03 -0.35775947812E+02 -0.73749415640E+03  0.91527045011E+03  0.50400001928E-02 0. -1.
       -1    1    3    3    0  502  0.54087193278E+03  0.35775947812E+02  0.21554746035E+04  0.22225870360E+04  0.50400001928E-02 0.  1.
</event>
<event>
 5   0  0.1374680E-07  0.2799474E+04  0.7818609E-02  0.8303432E-01
        1   -1    0    0  501    0  0.00000000000E+00  0.00000000000E+00  0.10670789941E+04  0.10670789942E+04  0.50400001928E-02 0. -1.
       -1   -1    0    0    0  501  0.00000000000E+00  0.00000000000E+00 -0.18360994974E+04  0.18360994974E+04  0.50400001928E-02 0.  1.
    10030    2    1    2    0    0  0.00000000000E+00  0.00000000000E+00 -0.76902050322E+03  0.29031784915E+04  0.27994736683E+04 0.  0.
        3    1    3    3  502    0 -0.49020428050E+03  0.10798899538E+04  0.38653811520E+03  0.12473468939E+04  0.10100000352E+00 0. -1.
       -3    1    3    3    0  502  0.49020428050E+03 -0.10798899538E+04 -0.11555586184E+04  0.16558315976E+04  0.10100000352E+00 0.  1.
</event>
<event>
 5   0  0.3406920E-07  0.2799623E+04  0.7818609E-02  0.8303385E-01
        2   -1    0    0  501    0  0.00000000000E+00  0.00000000000E+00  0.10810839067E+04  0.10810839067E+04  0.25500000920E-02 0. -1.
       -2   -1    0    0    0  501  0.00000000000E+00  0.00000000000E+00 -0.18125072473E+04  0.18125072473E+04  0.25500000920E-02 0.  1.
    10030    2    1    2    0    0  0.00000000000E+00  0.00000000000E+00 -0.73142334064E+03  0.28935911541E+04  0.27996231289E+04 0.  0.
        4    1    3    3  502    0 -0.71829532972E+03  0.88122512100E+03  0.47837897587E+03  0.12334317784E+04  0.12699999809E+01 0. -1.
       -4    1    3    3    0  502  0.71829532972E+03 -0.88122512100E+03 -0.12098023165E+04  0.16601593756E+04  0.12699999809E+01 0.  1.
</event>
<event>
 5   0  0.3557628E-07  0.2798978E+04  0.7818609E-02  0.8303586E-01
        2   -1    0    0  501    0  0.00000000000E+00  0.00000000000E+00  0.12540583275E+04  0.12540583275E+04  0.25500000920E-02 0. -1.
       -2   -1    0    0    0  501  0.00000000000E+00  0.00000000000E+00 -0.15617845840E+04  0.15617845840E+04  0.25500000920E-02 0.  1.
    10030    2    1    2    0    0  0.00000000000E+00  0.00000000000E+00 -0.30772625648E+03  0.28158429115E+04  0.27989776443E+04 0.  0.
        5    1    3    3  502    0 -0.12873779265E+04 -0.54865563915E+03 -0.14029344444E+03  0.14064385080E+04  0.46999998093E+01 0.  1.
       -5    1    3    3    0  502  0.12873779265E+04  0.54865563915E+03 -0.16743281204E+03  0.14094044035E+04  0.46999998093E+01 0. -1.
</event>
<event>
 5   0  0.3522569E-07  0.2794663E+04  0.7818609E-02  0.8304927E-01
        2   -1    0    0  501    0  0.00000000000E+00  0.00000000000E+00  0.18483470811E+04  0.18483470811E+04  0.25500000920E-02 0.  1.
       -2   -1    0    0    0  501  0.00000000000E+00  0.00000000000E+00 -0.10563683661E+04  0.10563683661E+04  0.25500000920E-02 0. -1.
    10030    2    1    2    0    0  0.00000000000E+00  0.00000000000E+00  0.79197871492E+03  0.29047154472E+04  0.27946630467E+04 0.  0.
        1    1    3    3  502    0  0.12760520216E+04 -0.56922473841E+03  0.38093372424E+03  0.14482527635E+04  0.50400001928E-02 0.  1.
       -1    1    3    3    0  502 -0.12760520216E+04  0.56922473841E+03  0.41104499068E+03  0.14564626837E+04  0.50400001928E-02 0. -1.
</event>
<event>
 5   0  0.1346049E-07  0.2804172E+04  0.7818609E-02  0.8301974E-01
       -1   -1    0    0    0  501  0.00000000000E+00  0.00000000000E+00  0.88377730553E+03  0.88377730554E+03  0.50400001928E-02 0. -1.
        1   -1    0    0  501    0  0.00000000000E+00  0.00000000000E+00 -0.22243662972E+04  0.22243662972E+04  0.50400001928E-02 0.  1.
    10030    2    1    2    0    0  0.00000000000E+00  0.00000000000E+00 -0.13405889916E+04  0.31081436027E+04  0.28041715016E+04 0.  0.
        1    1    3    3  502    0  0.52575215313E+03  0.12526330795E+04 -0.28579073176E+03  0.13882295562E+04  0.50400001928E-02 0.  1.
       -1    1    3    3    0  502 -0.52575215313E+03 -0.12526330795E+04 -0.10547982599E+04  0.17199140465E+04  0.50400001928E-02 0. -1.
</event>
<event>
 5   0  0.1366235E-07  0.2798246E+04  0.7818609E-02  0.8303813E-01
        1   -1    0    0  501    0  0.00000000000E+00  0.00000000000E+00  0.95836106023E+03  0.95836106024E+03  0.50400001928E-02 0.  1.
       -1   -1    0    0    0  501  0.00000000000E+00  0.00000000000E+00 -0.20425965927E+04  0.20425965927E+04  0.50400001928E-02 0. -1.
    10030    2    1    2    0    0  0.00000000000E+00  0.00000000000E+00 -0.10842355325E+04  0.30009576529E+04  0.27982459050E+04 0.  0.
        2    1    3    3  502    0  0.69427764606E+03  0.11636761123E+04 -0.16848046532E+03  0.13654849729E+04  0.25500000920E-02 0.  1.
       -2    1    3    3    0  502 -0.69427764606E+03 -0.11636761123E+04 -0.91575506715E+03  0.16354726800E+04  0.25500000920E-02 0. -1.
</event>
<event>
 5   0  0.1366235E-07  0.2800588E+04  0.7818609E-02  0.8303086E-01
       -1   -1    0    0    0  501  0.00000000000E+00  0.00000000000E+00  0.12300942876E+04  0.12300942876E+04  0.50400001928E-02 0. -1.
        1   -1    0    0  501    0  0.00000000000E+00  0.00000000000E+00 -0.15940425973E+04  0.15940425973E+04  0.50400001928E-02 0.  1.
    10030    2    1    2    0    0  0.00000000000E+00  0.00000000000E+00 -0.36394830973E+03  0.28241368849E+04  0.28005875763E+04 0.  0.
        2    1    3    3  502    0 -0.90821338909E+03 -0.54775762368E+03  0.74000743066E+03  0.12932520914E+04  0.25500000920E-02 0. -1.
       -2    1    3    3    0  502  0.90821338909E+03  0.54775762368E+03 -0.11039557404E+04  0.15308847936E+04  0.25500000920E-02 0.  1.
</event>
<event>
 5   0  0.3571498E-07  0.2800603E+04  0.7818609E-02  0.8303081E-01
        2   -1    0    0  501    0  0.00000000000E+00  0.00000000000E+00  0.20638268892E+04  0.20638268892E+04  0.25500000920E-02 0. -1.
       -2   -1    0    0    0  501  0.00000000000E+00  0.00000000000E+00 -0.95010115847E+03  0.95010115848E+03  0.25500000920E-02 0.  1.
    10030    2    1    2    0    0  0.00000000000E+00  0.00000000000E+00  0.11137257307E+04  0.30139280476E+04  0.28006030196E+04 0.  0.
        2    1    3    3  502    0  0.13384800695E+04 -0.22697652555E+03  0.18750394878E+03  0.13704761838E+04  0.25500000920E-02 0.  1.
       -2    1    3    3    0  502 -0.13384800695E+04  0.22697652555E+03  0.92622178191E+03  0.16434518639E+04  0.25500000920E-02 0. -1.
</event>
<event>
 5   0  0.3406920E-07  0.2799150E+04  0.7818609E-02  0.8303532E-01
        2   -1    0    0  501    0  0.00000000000E+00  0.00000000000E+00  0.11333134304E+04  0.11333134304E+04  0.25500000920E-02 0.  1.
       -2   -1    0    0    0  501  0.00000000000E+00  0.00000000000E+00 -0.17283924400E+04  0.17283924400E+04  0.25500000920E-02 0. -1.
    10030    2    1    2    0    0  0.00000000000E+00  0.00000000000E+00 -0.59507900961E+03  0.28617058704E+04  0.27991501319E+04 0.  0.
        4    1    3    3  502    0  0.62584570661E+03 -0.78047962569E+03 -0.12981762500E+04  0.16389308965E+04  0.12699999809E+01 0. -1.
       -4    1    3    3    0  502 -0.62584570661E+03  0.78047962569E+03  0.70309724035E+03  0.12227749739E+04  0.12699999809E+01 0.  1.
</event>
<event>
 5   0  0.3557628E-07  0.2799331E+04  0.7818609E-02  0.8303476E-01
        2   -1    0    0  501    0  0.00000000000E+00  0.00000000000E+00  0.12415865124E+04  0.12415865124E+04  0.25500000920E-02 0. -1.
       -2   -1    0    0    0  501  0.00000000000E+00  0.00000000000E+00 -0.15778708529E+04  0.15778708529E+04  0.25500000920E-02 0.  1.
    10030    2    1    2    0    0  0.00000000000E+00  0.00000000000E+00 -0.33628434049E+03  0.28194573653E+04  0.27993307552E+04 0.  0.
        5    1    3    3  502    0  0.50811369952E+03  0.85884724672E+03  0.82036366352E+03  0.12918269061E+04  0.46999998093E+01 0. -1.
       -5    1    3    3    0  502 -0.50811369952E+03 -0.85884724672E+03 -0.11566480040E+04  0.15276304593E+04  0.46999998093E+01 0.  1.
</event>
<event>
 5   0  0.1346049E-07  0.2800360E+04  0.7818609E-02  0.8303157E-01
       -1   -1    0    0    0  501  0.00000000000E+00  0.00000000000E+00  0.10111605868E+04  0.10111605869E+04  0.50400001928E-02 0.  1.
        1   -1    0    0  501    0  0.00000000000E+00  0.00000000000E+00 -0.19388652182E+04  0.19388652182E+04  0.50400001928E-02 0. -1.
    10030    2    1    2    0    0  0.00000000000E+00  0.00000000000E+00 -0.92770463138E+03  0.29500258051E+04  0.28003600425E+04 0.  0.
        1    1    3    3  502    0 -0.80039774800E+02 -0.73018270794E+03  0.79188392461E+03  0.10801172634E+04  0.50400001928E-02 0.  1.
       -1    1    3    3    0  502  0.80039774800E+02  0.73018270794E+03 -0.17195885560E+04  0.18699085417E+04  0.50400001928E-02 0. -1.
</event>
<event>
 5   0  0.1357902E-07  0.2800045E+04  0.7818609E-02  0.8303254E-01
        1   -1    0    0  501    0  0.00000000000E+00  0.00000000000E+00  0.20205413598E+04  0.20205413598E+04  0.50400001928E-02 0. -1.
       -1   -1    0    0    0  501  0.00000000000E+00  0.00000000000E+00 -0.97006812406E+03  0.97006812407E+03  0.50400001928E-02 0.  1.
    10030    2    1    2    0    0  0.00000000000E+00  0.00000000000E+00  0.10504732358E+04  0.29906094839E+04  0.28000448329E+04 0.  0.
        4    1    3    3  502    0  0.53515870796E+03  0.10896897426E+04  0.12700049687E+04  0.17569100179E+04  0.12699999809E+01 0. -1.
       -4    1    3    3    0  502 -0.53515870796E+03 -0.10896897426E+04 -0.21953173291E+03  0.12336994660E+04  0.12699999809E+01 0.  1.
</event>
<event>
 5   0  0.3571498E-07  0.2800989E+04  0.7818609E-02  0.8302961E-01
        2   -1    0    0  501    0  0.00000000000E+00  0.00000000000E+00  0.14761032141E+04  0.14761032141E+04  0.25500000920E-02 0.  1.
       -2   -1    0    0    0  501  0.00000000000E+00  0.00000000000E+00 -0.13287583087E+04  0.13287583087E+04  0.25500000920E-02 0. -1.
    10030    2    1    2    0    0  0.00000000000E+00  0.00000000000E+00  0.14734490543E+03  0.28048615228E+04  0.28009886899E+04 0.  0.
        2    1    3    3  502    0  0.13307562071E+03  0.97326101197E+03 -0.92592530657E+03  0.13499199204E+04  0.25500000920E-02 0. -1.
       -2    1    3    3    0  502 -0.13307562071E+03 -0.97326101197E+03  0.10732702120E+04  0.14549416023E+04  0.25500000920E-02 0.  1.
</event>
<event>
 5   0  0.3522569E-07  0.2802015E+04  0.7818609E-02  0.8302643E-01
        2   -1    0    0  501    0  0.00000000000E+00  0.00000000000E+00  0.20217241928E+04  0.20217241928E+04  0.25500000920E-02 0.  1.
       -2   -1    0    0    0  501  0.00000000000E+00  0.00000000000E+00 -0.97086502791E+03  0.97086502791E+03  0.25500000920E-02 0. -1.
    10030    2    1    2    0    0  0.00000000000E+00  0.00000000000E+00  0.10508591649E+04  0.29925892207E+04  0.28020145002E+04 0.  0.
        1    1    3    3  502    0  0.16546422483E+03 -0.35478489062E+03 -0.91126512900E+03  0.99179376065E+03  0.50400001928E-02 0. -1.
       -1    1    3    3    0  502 -0.16546422483E+03  0.35478489062E+03  0.19621242939E+04  0.20007954600E+04  0.50400001928E-02 0.  1.
</event>
<event>
 5   0  0.3522569E-07  0.2797455E+04  0.7818609E-02  0.8304059E-01
       -2   -1    0    0    0  501  0.00000000000E+00  0.00000000000E+00  0.10204852562E+04  0.10204852562E+04  0.25500000920E-02 0. -1.
        2   -1    0    0  501    0  0.00000000000E+00  0.00000000000E+00 -0.19171656489E+04  0.19171656489E+04  0.25500000920E-02 0.  1.
    10030    2    1    2    0    0  0.00000000000E+00  0.00000000000E+00 -0.89668039273E+03  0.29376509051E+04  0.27974554712E+04 0.  0.
        1    1    3    3  502    0 -0.10258834821E+02  0.39839015839E+03 -0.18562857674E+04  0.18985828432E+04  0.50400001928E-02 0.  1.
       -1    1    3    3    0  502  0.10258834821E+02 -0.39839015839E+03  0.95960537472E+03  0.10390680619E+04  0.50400001928E-02 0. -1.
</event>
<event>
 5   0  0.1366235E-07  0.2799916E+04  0.7818609E-02  0.8303294E-01
        1   -1    0    0  501    0  0.00000000000E+00  0.00000000000E+00  0.15484100554E+04  0.15484100554E+04  0.50400001928E-02 0. -1.
       -1   -1    0    0    0  501  0.00000000000E+00  0.00000000000E+00 -0.12657384990E+04  0.12657384990E+04  0.50400001928E-02 0.  1.
    10030    2    1    2    0    0  0.00000000000E+00  0.00000000000E+00  0.28267155635E+03  0.28141485544E+04  0.27999158697E+04 0.  0.
        2    1    3    3  502    0  0.25488066562E+03 -0.13759741333E+04  0.10096632098E+03  0.14030193039E+04  0.25500000920E-02 0.  1.
       -2    1    3    3    0  502 -0.25488066562E+03  0.13759741333E+04  0.18170523537E+03  0.14111292505E+04  0.25500000920E-02 0. -1.
</event>
<event>
 5   0  0.3557628E-07  0.2800923E+04  0.7818609E-02  0.8302982E-01
        2   -1    0    0  501    0  0.00000000000E+00  0.00000000000E+00  0.19889729576E+04  0.19889729576E+04  0.25500000920E-02 0. -1.
       -2   -1    0    0    0  501  0.00000000000E+00  0.00000000000E+00 -0.98608293108E+03  0.98608293109E+03  0.25500000920E-02 0.  1.
    10030    2    1    2    0    0  0.00000000000E+00  0.00000000000E+00  0.10028900265E+04  0.29750558887E+04  0.28009229078E+04 0.  0.
        5    1    3    3  502    0 -0.93297252396E+03  0.10080621846E+04  0.21125076944E+03  0.13897035929E+04  0.46999998093E+01 0.  1.
       -5    1    3    3    0  502  0.93297252396E+03 -0.10080621846E+04  0.79163925708E+03  0.15853522958E+04  0.46999998093E+01 0. -1.
</event>
<event>
 5   0  0.1357902E-07  0.2795974E+04  0.7818609E-02  0.8304519E-01
       -1   -1    0    0    0  501  0.00000000000E+00  0.00000000000E+00  0.78280248577E+03  0.78280248578E+03  0.50400001928E-02 0.  1.
        1   -1    0    0  501    0  0.00000000000E+00  0.00000000000E+00 -0.24966298365E+04  0.24966298365E+04  0.50400001928E-02 0. -1.
    10030    2    1    2    0    0  0.00000000000E+00  0.00000000000E+00 -0.17138273508E+04  0.32794323223E+04  0.27959742789E+04 0.  0.
        4    1    3    3  502    0 -0.93357742671E+03  0.97590391887E+01  0.36353760542E+03  0.10019098033E+04  0.12699999809E+01 0.  1.
       -4    1    3    3    0  502  0.93357742671E+03 -0.97590391887E+01 -0.20773649562E+04  0.22775225190E+04  0.12699999809E+01 0. -1.
</event>
<event>
 5   0  0.1346049E-07  0.2799834E+04  0.7818609E-02  0.8303320E-01
       -1   -1    0    0    0  501  0.00000000000E+00  0.00000000000E+00  0.12561941179E+04  0.12561941179E+04  0.50400001928E-02 0.  1.
        1   -1    0    0  501    0  0.00000000000E+00  0.00000000000E+00 -0.15600835754E+04  0.15600835754E+04  0.50400001928E-02 0. -1.
    10030    2    1    2    0    0  0.00000000000E+00  0.00000000000E+00 -0.30388945751E+03  0.28162776933E+04  0.27998341457E+04 0.  0.
        1    1    3    3  502    0 -0.10777822378E+04  0.40795901612E+03 -0.95142253288E+03  0.14944062189E+04  0.50400001928E-02 0. -1.
       -1    1    3    3    0  502  0.10777822378E+04 -0.40795901612E+03  0.64753307537E+03  0.13218714744E+04  0.50400001928E-02 0.  1.
</event>
<event>
 5   0  0.1346049E-07  0.2799589E+04  0.7818609E-02  0.8303396E-01
        1   -1    0    0  501    0  0.00000000000E+00  0.00000000000E+00  0.16347736039E+04  0.16347736039E+04  0.50400001928E-02 0. -1.
       -1   -1    0    0    0  501  0.00000000000E+00  0.00000000000E+00 -0.11985907123E+04  0.11985907123E+04  0.50400001928E-02 0.  1.
    10030    2    1    2    0    0  0.00000000000E+00  0.00000000000E+00  0.43618289159E+03  0.28333643163E+04  0.27995888687E+04 0.  0.
        1    1    3    3  502    0  0.59782007184E+03  0.18219100202E+03  0.14857368138E+04  0.16118301026E+04  0.50400001928E-02 0. -1.
       -1    1    3    3    0  502 -0.59782007184E+03 -0.18219100202E+03 -0.10495539223E+04  0.12215342137E+04  0.50400001928E-02 0.  1.
</event>
<event>
 5   0  0.1366235E-07  0.2800850E+04  0.7818609E-02  0.8303004E-01
       -1   -1    0    0    0  501  0.00000000000E+00  0.00000000000E+00  0.11807638486E+04  0.11807638486E+04  0.50400001928E-02 0. -1.
        1   -1    0    0  501    0  0.00000000000E+00  0.00000000000E+00 -0.16609505909E+04  0.16609505909E+04  0.50400001928E-02 0.  1.
    10030    2    1    2    0    0  0.00000000000E+00  0.00000000000E+00 -0.48018674227E+03  0.28417144395E+04  0.28008501653E+04 0.  0.
        2    1    3    3  502    0 -0.75915196522E+03  0.83659779528E+03 -0.10798054530E+04  0.15627499460E+04  0.25500000920E-02 0.  1.
       -2    1    3    3    0  502  0.75915196522E+03 -0.83659779528E+03  0.59961871077E+03  0.12789644935E+04  0.25500000920E-02 0. -1.
</event>
<event>
 5   0  0.1374680E-07  0.2799715E+04  0.7818609E-02  0.8303357E-01
        1   -1    0    0  501    0  0.00000000000E+00  0.00000000000E+00  0.18068374612E+04  0.18068374612E+04  0.50400001928E-02 0.  1.
       -1   -1    0    0    0  501  0.00000000000E+00  0.00000000000E+00 -0.10845474681E+04  0.10845474681E+04  0.50400001928E-02 0. -1.
    10030    2    1    2    0    0  0.00000000000E+00  0.00000000000E+00  0.72228999304E+03  0.28913849293E+04  0.27997149811E+04 0.  0.
        3    1    3    3  502    0  0.10860624025E+04 -0.87434953037E+03  0.23222851809E+03  0.14134881458E+04  0.10100000352E+00 0.  1.
       -3    1    3    3    0  502 -0.10860624025E+04  0.87434953037E+03  0.49006147495E+03  0.14778967836E+04  0.10100000352E+00 0. -1.
</event>
<event>
 5   0  0.3502141E-07  0.2808344E+04  0.7818609E-02  0.8300682E-01
       -2   -1    0    0    0  501  0.00000000000E+00  0.00000000000E+00  0.13608669635E+04  0.13608669635E+04  0.25500000920E-02 0. -1.
        2   -1    0    0  501    0  0.00000000000E+00  0.00000000000E+00 -0.14488555206E+04  0.14488555206E+04  0.25500000920E-02 0.  1.
    10030    2    1    2    0    0  0.00000000000E+00  0.00000000000E+00 -0.87988557161E+02  0.28097224841E+04  0.28083444325E+04 0.  0.
        3    1    3    3  502    0  0.79489670391E+03 -0.10841088981E+04  0.36184836980E+03  0.13921519765E+04  0.10100000352E+00 0. -1.
       -3    1    3    3    0  502 -0.79489670391E+03  0.10841088981E+04 -0.44983692696E+03  0.14175705076E+04  0.10100000352E+00 0.  1.
</event>
<event>
 5   0  0.1374680E-07  0.2799791E+04  0.7818609E-02  0.8303333E-01
       -1   -1    0    0    0  501  0.00000000000E+00  0.00000000000E+00  0.87672977573E+03  0.87672977575E+03  0.50400001928E-02 0. -1.
        1   -1    0    0  501    0  0.00000000000E+00  0.00000000000E+00 -0.22352465151E+04  0.22352465151E+04  0.50400001928E-02 0.  1.
    10030    2    1    2    0    0  0.00000000000E+00  0.00000000000E+00 -0.13585167394E+04  0.31119762909E+04  0.27997908321E+04 0.  0.
        3    1    3    3  502    0  0.87687501874E+03  0.38888748019E+03  0.45401918220E+03  0.10612618427E+04  0.10100000352E+00 0. -1.
       -3    1    3    3    0  502 -0.87687501874E+03 -0.38888748019E+03 -0.18125359216E+04  0.20507144482E+04  0.10100000352E+00 0.  1.
</event>
<event>
 5   0  0.3406920E-07  0.2801891E+04  0.7818609E-02  0.8302682E-01
        2   -1    0    0  501    0  0.00000000000E+00  0.00000000000E+00  0.24932066805E+04  0.24932066805E+04  0.25500000920E-02 0. -1.
       -2   -1    0    0    0  501  0.00000000000E+00  0.00000000000E+00 -0.78719840952E+03  0.78719840952E+03  0.25500000920E-02 0.  1.
    10030    2    1    2    0    0  0.00000000000E+00  0.00000000000E+00  0.17060082710E+04  0.32804050900E+04  0.28018910282E+04 0.  0.
        4    1    3    3  502    0 -0.67967361819E+02  0.13458220975E+04  0.40444001630E+03  0.14069221798E+04  0.12699999809E+01 0.  1.
       -4    1    3    3    0  502  0.67967361819E+02 -0.13458220975E+04  0.13015682546E+04  0.18734829102E+04  0.12699999809E+01 0. -1.
</event>
<event>
 5   0  0.3502141E-07  0.2800247E+04  0.7818609E-02  0.8303192E-01
       -2   -1    0    0    0  501  0.00000000000E+00  0.00000000000E+00  0.12736195563E+04  0.12736195563E+04  0.25500000920E-02 0. -1.
        2   -1    0    0  501    0  0.00000000000E+00  0.00000000000E+00 -0.15391930170E+04  0.15391930170E+04  0.25500000920E-02 0.  1.
    10030    2    1    2    0    0  0.00000000000E+00  0.00000000000E+00 -0.26557346071E+03  0.28128125732E+04  0.28002473657E+04 0.  0.
        3    1    3    3  502    0  0.77059156587E+03  0.24852650967E+03  0.10146039034E+04  0.12980746813E+04  0.10100000352E+00 0. -1.
       -3    1    3    3    0  502 -0.77059156587E+03 -0.24852650967E+03 -0.12801773641E+04  0.15147378919E+04  0.10100000352E+00 0.  1.
</event>
<event>
 5   0  0.3571498E-07  0.2800133E+04  0.7818609E-02  0.8303227E-01
       -2   -1    0    0    0  501  0.00000000000E+00  0.00000000000E+00  0.17787064315E+04  0.17787064315E+04  0.25500000920E-02 0. -1.
        2   -1    0    0  501    0  0.00000000000E+00  0.00000000000E+00 -0.11020287370E+04  0.11020287370E+04  0.25500000920E-02 0.  1.
    10030    2    1    2    0    0  0.00000000000E+00  0.00000000000E+00  0.67667769444E+03  0.28807351685E+04  0.28001325698E+04 0.  0.
        2    1    3    3  502    0 -0.10083231051E+04  0.97078081510E+03  0.30492744152E+03  0.14325193262E+04  0.25500000920E-02 0.  1.
       -2    1    3    3    0  502  0.10083231051E+04 -0.97078081510E+03  0.37175025293E+03  0.14482158423E+04  0.25500000920E-02 0. -1.
</event>
<event>
 5   0  0.1361741E-07  0.2783346E+04  0.7818609E-02  0.8308458E-01
       -1   -1    0    0    0  501  0.00000000000E+00  0.00000000000E+00  0.94491746607E+03  0.94491746609E+03  0.50400001928E-02 0. -1.
        1   -1    0    0  501    0  0.00000000000E+00  0.00000000000E+00 -0.20496536141E+04  0.20496536142E+04  0.50400001928E-02 0.  1.
    10030    2    1    2    0    0  0.00000000000E+00  0.00000000000E+00 -0.11047361481E+04  0.29945710802E+04  0.27833458279E+04 0.  0.
        5    1    3    3  502    0 -0.32140414092E+03  0.83510429757E+03 -0.16991020012E+04  0.19203305732E+04  0.46999998093E+01 0.  1.
       -5    1    3    3    0  502  0.32140414092E+03 -0.83510429757E+03  0.59436585317E+03  0.10742405071E+04  0.46999998093E+01 0. -1.
</event>
<event>
 5   0  0.1346049E-07  0.2798836E+04  0.7818609E-02  0.8303630E-01
        1   -1    0    0  501    0  0.00000000000E+00  0.00000000000E+00  0.19388677286E+04  0.19388677286E+04  0.50400001928E-02 0. -1.
       -1   -1    0    0    0  501  0.00000000000E+00  0.00000000000E+00 -0.10100591184E+04  0.10100591184E+04  0.50400001928E-02 0.  1.
    10030    2    1    2    0    0  0.00000000000E+00  0.00000000000E+00  0.92880861018E+03  0.29489268471E+04  0.27988362072E+04 0.  0.
        1    1    3    3  502    0  0.13483798255E+04 -0.34932082230E+03  0.60661587650E+03  0.15192550846E+04  0.50400001928E-02 0. -1.
       -1    1    3    3    0  502 -0.13483798255E+04  0.34932082230E+03  0.32219273369E+03  0.14296717624E+04  0.50400001928E-02 0.  1.
</event>
<event>
 5   0  0.3406920E-07  0.2799273E+04  0.7818609E-02  0.8303494E-01
        2   -1    0    0  501    0  0.00000000000E+00  0.00000000000E+00  0.11481059632E+04  0.11481059632E+04  0.25500000920E-02 0.  1.
       -2   -1    0    0    0  501  0.00000000000E+00  0.00000000000E+00 -0.17062727297E+04  0.17062727297E+04  0.25500000920E-02 0. -1.
    10030    2    1    2    0    0  0.00000000000E+00  0.00000000000E+00 -0.55816676655E+03  0.28543786929E+04  0.27992726883E+04 0.  0.
        4    1    3    3  502    0  0.12814856914E+04 -0.50869517604E+03 -0.33502210219E+02  0.13791665492E+04  0.12699999809E+01 0.  1.
       -4    1    3    3    0  502 -0.12814856914E+04  0.50869517604E+03 -0.52466455633E+03  0.14752121437E+04  0.12699999809E+01 0. -1.
</event>
<event>
 5   0  0.3406920E-07  0.2797434E+04  0.7818609E-02  0.8304065E-01
       -2   -1    0    0    0  501  0.00000000000E+00  0.00000000000E+00  0.77826315507E+03  0.77826315508E+03  0.25500000920E-02 0.  1.
        2   -1    0    0  501    0  0.00000000000E+00  0.00000000000E+00 -0.25138149107E+04  0.25138149107E+04  0.25500000920E-02 0. -1.
    10030    2    1    2    0    0  0.00000000000E+00  0.00000000000E+00 -0.17355517557E+04  0.32920780658E+04  0.27974341985E+04 0.  0.
        4    1    3    3  502    0 -0.16509839972E+03  0.10081499604E+02 -0.25022643116E+04  0.25077255465E+04  0.12699999809E+01 0. -1.
       -4    1    3    3    0  502  0.16509839972E+03 -0.10081499604E+02  0.76671255597E+03  0.78435251935E+03  0.12699999809E+01 0.  1.
</event>
<event>
 5   0  0.3557628E-07  0.2800290E+04  0.7818609E-02  0.8303178E-01
        2   -1    0    0  501    0  0.00000000000E+00  0.00000000000E+00  0.18904239034E+04  0.18904239035E+04  0.25500000920E-02 0.  1.
       -2   -1    0    0    0  501  0.00000000000E+00  0.00000000000E+00 -0.10370190806E+04  0.10370190806E+04  0.25500000920E-02 0. -1.
    10030    2    1    2    0    0  0.00000000000E+00  0.00000000000E+00  0.85340482281E+03  0.29274429841E+04  0.28002897410E+04 0.  0.
        5    1    3    3  502    0 -0.13899070216E+04  0.23585077372E+02  0.60158807716E+03  0.15147039608E+04  0.46999998093E+01 0. -1.
       -5    1    3    3    0  502  0.13899070216E+04 -0.23585077372E+02  0.25181674564E+03  0.14127390233E+04  0.46999998093E+01 0.  1.
</event>
<event>
 5   0  0.3502141E-07  0.2801847E+04  0.7818609E-02  0.8302695E-01
       -2   -1    0    0    0  501  0.00000000000E+00  0.00000000000E+00  0.66514144205E+03  0.66514144205E+03  0.25500000920E-02 0. -1.
        2   -1    0    0  501    0  0.00000000000E+00  0.00000000000E+00 -0.29506312291E+04  0.29506312291E+04  0.25500000920E-02 0.  1.
    10030    2    1    2    0    0  0.00000000000E+00  0.00000000000E+00 -0.22854897870E+04  0.36157726712E+04  0.28018473268E+04 0.  0.
        3    1    3    3  502    0  0.24494984416E+03 -0.39754172177E+03 -0.28472488745E+04  0.28852843898E+04  0.10100000352E+00 0.  1.
       -3    1    3    3    0  502 -0.24494984416E+03  0.39754172177E+03  0.56175908741E+03  0.73048828135E+03  0.10100000352E+00 0. -1.
</event>
<event>
 5   0  0.3406920E-07  0.2797347E+04  0.7818609E-02  0.8304092E-01
        2   -1    0    0  501    0  0.00000000000E+00  0.00000000000E+00  0.15995374213E+04  0.15995374213E+04  0.25500000920E-02 0.  1.
       -2   -1    0    0    0  501  0.00000000000E+00  0.00000000000E+00 -0.12230335987E+04  0.12230335987E+04  0.25500000920E-02 0. -1.
    10030    2    1    2    0    0  0.00000000000E+00  0.00000000000E+00  0.37650382268E+03  0.28225710200E+04  0.27973473210E+04 0.  0.
        4    1    3    3  502    0  0.79794087604E+02  0.35297568518E+03  0.15514811125E+04  0.15931271720E+04  0.12699999809E+01 0.  1.
       -4    1    3    3    0  502 -0.79794087604E+02 -0.35297568518E+03 -0.11749772899E+04  0.12294438480E+04  0.12699999809E+01 0. -1.
</event>
<event>
 5   0  0.1361741E-07  0.2799993E+04  0.7818609E-02  0.8303271E-01
        1   -1    0    0  501    0  0.00000000000E+00  0.00000000000E+00  0.10003798137E+04  0.10003798137E+04  0.50400001928E-02 0. -1.
       -1   -1    0    0    0  501  0.00000000000E+00  0.00000000000E+00 -0.19592459918E+04  0.19592459918E+04  0.50400001928E-02 0.  1.
    10030    2    1    2    0    0  0.00000000000E+00  0.00000000000E+00 -0.95886617815E+03  0.29596258055E+04  0.27999929573E+04 0.  0.
        5    1    3    3  502    0 -0.48050359075E+03  0.13144917358E+04 -0.44288085987E+03  0.14679706299E+04  0.46999998093E+01 0. -1.
       -5    1    3    3    0  502  0.48050359075E+03 -0.13144917358E+04 -0.51598531828E+03  0.14916551756E+04  0.46999998093E+01 0.  1.
</event>
<event>
 5   0  0.1366235E-07  0.2796070E+04  0.7818609E-02  0.8304490E-01
        1   -1    0    0  501    0  0.00000000000E+00  0.00000000000E+00  0.27341195664E+04  0.27341195664E+04  0.50400001928E-02 0.  1.
       -1   -1    0    0    0  501  0.00000000000E+00  0.00000000000E+00 -0.71485583745E+03  0.71485583747E+03  0.50400001928E-02 0. -1.
    10030    2    1    2    0    0  0.00000000000E+00  0.00000000000E+00  0.20192637290E+04  0.34489754039E+04  0.27960696217E+04 0.  0.
        2    1    3    3  502    0 -0.64905217884E+03 -0.12149653759E+04  0.71489887847E+03  0.15519310558E+04  0.25500000920E-02 0. -1.
       -2    1    3    3    0  502  0.64905217884E+03  0.12149653759E+04  0.13043648505E+04  0.18970443481E+04  0.25500000920E-02 0.  1.
</event>
<event>
 5   0  0.3406920E-07  0.2801197E+04  0.7818609E-02  0.8302897E-01
        2   -1    0    0  501    0  0.00000000000E+00  0.00000000000E+00  0.26405023412E+04  0.26405023412E+04  0.25500000920E-02 0.  1.
       -2   -1    0    0    0  501  0.00000000000E+00  0.00000000000E+00 -0.74291776269E+03  0.74291776270E+03  0.25500000920E-02 0. -1.
    10030    2    1    2    0    0  0.00000000000E+00  0.00000000000E+00  0.18975845785E+04  0.33834201039E+04  0.28011969525E+04 0.  0.
        4    1    3    3  502    0  0.91864808461E+03  0.64956068235E+01  0.22257555410E+04  0.24078924058E+04  0.12699999809E+01 0.  1.
       -4    1    3    3    0  502 -0.91864808461E+03 -0.64956068235E+01 -0.32817096255E+03  0.97552769814E+03  0.12699999809E+01 0. -1.
</event>
<event>
 5   0  0.3502141E-07  0.2797902E+04  0.7818609E-02  0.8303920E-01
        2   -1    0    0  501    0  0.00000000000E+00  0.00000000000E+00  0.18087093549E+04  0.18087093549E+04  0.25500000920E-02 0. -1.
       -2   -1    0    0    0  501  0.00000000000E+00  0.00000000000E+00 -0.10820224583E+04  0.10820224583E+04  0.25500000920E-02 0.  1.
    10030    2    1    2    0    0  0.00000000000E+00  0.00000000000E+00  0.72668689666E+03  0.28907318132E+04  0.27979021731E+04 0.  0.
        3    1    3    3  502    0  0.81846880306E+03  0.63573488935E+03  0.13342090095E+04  0.16894270397E+04  0.10100000352E+00 0. -1.
       -3    1    3    3    0  502 -0.81846880306E+03 -0.63573488935E+03 -0.60752211287E+03  0.12013047735E+04  0.10100000352E+00 0.  1.
</event>
<event>
 5   0  0.1173363E-07  0.2800272E+04  0.7818609E-02  0.8303184E-01
        3   -1    0    0  501    0  0.00000000000E+00  0.00000000000E+00  0.12022697297E+04  0.12022697339E+04  0.10100000352E+00 0.  1.
       -3   -1    0    0    0  501  0.00000000000E+00  0.00000000000E+00 -0.16305660696E+04  0.16305660727E+04  0.10100000352E+00 0. -1.
    10030    2    1    2    0    0  0.00000000000E+00  0.00000000000E+00 -0.42829633991E+03  0.28328358066E+04  0.28002715855E+04 0.  0.
        5    1    3    3  502    0 -0.10691785280E+04 -0.83674954954E+03  0.13197918574E+03  0.13640869213E+04  0.46999998093E+01 0.  1.
       -5    1    3    3    0  502  0.10691785280E+04  0.83674954954E+03 -0.56027552565E+03  0.14687488853E+04  0.46999998093E+01 0. -1.
</event>
<event>
 5   0  0.3571498E-07  0.2806914E+04  0.7818609E-02  0.8301125E-01
       -2   -1    0    0    0  501  0.00000000000E+00  0.00000000000E+00  0.11810314303E+04  0.11810314303E+04  0.25500000920E-02 0.  1.
        2   -1    0    0  501    0  0.00000000000E+00  0.00000000000E+00 -0.16677721416E+04  0.16677721416E+04  0.25500000920E-02 0. -1.
    10030    2    1    2    0    0  0.00000000000E+00  0.00000000000E+00 -0.48674071136E+03  0.28488035719E+04  0.28069138339E+04 0.  0.
        2    1    3    3  502    0  0.58718932633E+03  0.12631847231E+04 -0.69749056916E+02  0.13947372084E+04  0.25500000920E-02 0. -1.
       -2    1    3    3    0  502 -0.58718932633E+03 -0.12631847231E+04 -0.41699165444E+03  0.14540663635E+04  0.25500000920E-02 0.  1.
</event>
<event>
 5   0  0.3406920E-07  0.2800989E+04  0.7818609E-02  0.8302962E-01
       -2   -1    0    0    0  501  0.00000000000E+00  0.00000000000E+00  0.94710954108E+03  0.94710954108E+03  0.25500000920E-02 0. -1.
        2   -1    0    0  501    0  0.00000000000E+00  0.00000000000E+00 -0.20709160080E+04  0.20709160080E+04  0.25500000920E-02 0.  1.
    10030    2    1    2    0    0  0.00000000000E+00  0.00000000000E+00 -0.11238064669E+04  0.30180255491E+04  0.28009886183E+04 0.  0.
        4    1    3    3  502    0 -0.77463929793E+03 -0.14667976067E+03 -0.18090909665E+04  0.19734215799E+04  0.12699999809E+01 0.  1.
       -4    1    3    3    0  502  0.77463929793E+03  0.14667976067E+03  0.68528449960E+03  0.10446039692E+04  0.12699999809E+01 0. -1.
</event>
<event>
 5   0  0.1346049E-07  0.2799071E+04  0.7818609E-02  0.8303557E-01
       -1   -1    0    0    0  501  0.00000000000E+00  0.00000000000E+00  0.12067377787E+04  0.12067377787E+04  0.50400001928E-02 0. -1.
        1   -1    0    0  501    0  0.00000000000E+00  0.00000000000E+00 -0.16231355662E+04  0.16231355662E+04  0.50400001928E-02 0.  1.
    10030    2    1    2    0    0  0.00000000000E+00  0.00000000000E+00 -0.41639778752E+03  0.28298733449E+04  0.27990705655E+04 0.  0.
        1    1    3    3  502    0  0.50870426397E+03  0.12494343446E+03  0.11038920020E+04  0.12218708778E+04  0.50400001928E-02 0. -1.
       -1    1    3    3    0  502 -0.50870426397E+03 -0.12494343446E+03 -0.15202897895E+04  0.16080024671E+04  0.50400001928E-02 0.  1.
</event>
<event>
 5   0  0.3571498E-07  0.2801201E+04  0.7818609E-02  0.8302895E-01
       -2   -1    0    0    0  501  0.00000000000E+00  0.00000000000E+00  0.12467776783E+04  0.12467776783E+04  0.25500000920E-02 0.  1.
        2   -1    0    0  501    0  0.00000000000E+00  0.00000000000E+00 -0.15734018557E+04  0.15734018557E+04  0.25500000920E-02 0. -1.
    10030    2    1    2    0    0  0.00000000000E+00  0.00000000000E+00 -0.32662417740E+03  0.28201795340E+04  0.28012013941E+04 0.  0.
        2    1    3    3  502    0 -0.13909609791E+03 -0.46744095099E+03  0.11585315539E+04  0.12569980623E+04  0.25500000920E-02 0.  1.
       -2    1    3    3    0  502  0.13909609791E+03  0.46744095099E+03 -0.14851557313E+04  0.15631814717E+04  0.25500000920E-02 0. -1.
</event>
<event>
 5   0  0.1361741E-07  0.2800717E+04  0.7818609E-02  0.8303046E-01
        1   -1    0    0  501    0  0.00000000000E+00  0.00000000000E+00  0.13694436302E+04  0.13694436302E+04  0.50400001928E-02 0.  1.
       -1   -1    0    0    0  501  0.00000000000E+00  0.00000000000E+00 -0.14319715110E+04  0.14319715110E+04  0.50400001928E-02 0. -1.
    10030    2    1    2    0    0  0.00000000000E+00  0.00000000000E+00 -0.62527880846E+02  0.28014151412E+04  0.28007172398E+04 0.  0.
        5    1    3    3  502    0 -0.73591158387E+03  0.45617648621E+02 -0.12220795413E+04  0.14272867002E+04  0.46999998093E+01 0. -1.
       -5    1    3    3    0  502  0.73591158387E+03 -0.45617648621E+02  0.11595516605E+04  0.13741284410E+04  0.46999998093E+01 0.  1.
</event>
<event>
 5   0  0.1374680E-07  0.2800195E+04  0.7818609E-02  0.8303208E-01
       -1   -1    0    0    0  501  0.00000000000E+00  0.00000000000E+00  0.17759646563E+04  0.17759646563E+04  0.50400001928E-02 0. -1.
        1   -1    0    0  501    0  0.00000000000E+00  0.00000000000E+00 -0.11037795540E+04  0.11037795540E+04  0.50400001928E-02 0.  1.
    10030    2    1    2    0    0  0.00000000000E+00  0.00000000000E+00  0.67218510233E+03  0.28797442103E+04  0.28001953333E+04 0.  0.
        3    1    3    3  502    0  0.13577239374E+03 -0.78761572280E+03  0.15183152698E+04  0.17158245652E+04  0.10100000352E+00 0. -1.
       -3    1    3    3    0  502 -0.13577239374E+03  0.78761572280E+03 -0.84613016748E+03  0.11639196451E+04  0.10100000352E+00 0.  1.
</event>
<event>
 5   0  0.3557628E-07  0.2799643E+04  0.7818609E-02  0.8303379E-01
        2   -1    0    0  501    0  0.00000000000E+00  0.00000000000E+00  0.19195733353E+04  0.19195733353E+04  0.25500000920E-02 0. -1.
       -2   -1    0    0    0  501  0.00000000000E+00  0.00000000000E+00 -0.10207996308E+04  0.10207996308E+04  0.25500000920E-02 0.  1.
    10030    2    1    2    0    0  0.00000000000E+00  0.00000000000E+00  0.89877370451E+03  0.29403729661E+04  0.27996426571E+04 0.  0.
        5    1    3    3  502    0 -0.10607787627E+04  0.82733620278E+03  0.85580212368E+03  0.15944140430E+04  0.46999998093E+01 0. -1.
       -5    1    3    3    0  502  0.10607787627E+04 -0.82733620278E+03  0.42971580836E+02  0.13459589230E+04  0.46999998093E+01 0.  1.
</event>
<event>
 5   0  0.1361741E-07  0.2798402E+04  0.7818609E-02  0.8303765E-01
       -1   -1    0    0    0  501  0.00000000000E+00  0.00000000000E+00  0.86164853867E+03  0.86164853869E+03  0.50400001928E-02 0. -1.
        1   -1    0    0  501    0  0.00000000000E+00  0.00000000000E+00 -0.22721128831E+04  0.22721128831E+04  0.50400001928E-02 0.  1.
    10030    2    1    2    0    0  0.00000000000E+00  0.00000000000E+00 -0.14104643444E+04  0.31337614217E+04  0.27984015047E+04 0.  0.
        5    1    3    3  502    0  0.42535748724E+03 -0.11790630916E+04 -0.14015365468E+04  0.18802780507E+04  0.46999998093E+01 0.  1.
       -5    1    3    3    0  502 -0.42535748724E+03  0.11790630916E+04 -0.89277975368E+01  0.12534833710E+04  0.46999998093E+01 0. -1.
</event>
<event>
 5   0  0.3502141E-07  0.2801884E+04  0.7818609E-02  0.8302684E-01
       -2   -1    0    0    0  501  0.00000000000E+00  0.00000000000E+00  0.14049755859E+04  0.14049755859E+04  0.25500000920E-02 0. -1.
        2   -1    0    0  501    0  0.00000000000E+00  0.00000000000E+00 -0.13969195615E+04  0.13969195615E+04  0.25500000920E-02 0.  1.
    10030    2    1    2    0    0  0.00000000000E+00  0.00000000000E+00  0.80560244290E+01  0.28018951474E+04  0.28018835660E+04 0.  0.
        3    1    3    3  502    0 -0.37834514778E+03  0.48289322827E+02  0.13520547114E+04  0.14048234275E+04  0.10100000352E+00 0. -1.
       -3    1    3    3    0  502  0.37834514778E+03 -0.48289322827E+02 -0.13439986870E+04  0.13970717199E+04  0.10100000352E+00 0.  1.
</event>
<event>
 5   0  0.1346049E-07  0.2800401E+04  0.7818609E-02  0.8303144E-01
        1   -1    0    0  501    0  0.00000000000E+00  0.00000000000E+00  0.19093216040E+04  0.19093216040E+04  0.50400001928E-02 0.  1.
       -1   -1    0    0    0  501  0.00000000000E+00  0.00000000000E+00 -0.10268365707E+04  0.10268365707E+04  0.50400001928E-02 0. -1.
    10030    2    1    2    0    0  0.00000000000E+00  0.00000000000E+00  0.88248503327E+03  0.29361581747E+04  0.28004008629E+04 0.  0.
        1    1    3    3  502    0 -0.93171144760E+03  0.10449733382E+04  0.46482159250E+03  0.14751659608E+04  0.50400001928E-02 0.  1.
       -1    1    3    3    0  502  0.93171144760E+03 -0.10449733382E+04  0.41766344076E+03  0.14609922138E+04  0.50400001928E-02 0. -1.
</event>
<event>
 5   0  0.1361741E-07  0.2797619E+04  0.7818609E-02  0.8304008E-01
       -1   -1    0    0    0  501  0.00000000000E+00  0.00000000000E+00  0.10235557196E+04  0.10235557196E+04  0.50400001928E-02 0.  1.
        1   -1    0    0  501    0  0.00000000000E+00  0.00000000000E+00 -0.19116380084E+04  0.19116380084E+04  0.50400001928E-02 0. -1.
    10030    2    1    2    0    0  0.00000000000E+00  0.00000000000E+00 -0.88808228883E+03  0.29351937280E+04  0.27976190000E+04 0.  0.
        5    1    3    3  502    0 -0.70697438525E+03 -0.94629760507E+03  0.34203860492E+03  0.12297578770E+04  0.46999998093E+01 0.  1.
       -5    1    3    3    0  502  0.70697438525E+03  0.94629760507E+03 -0.12301208938E+04  0.17054358510E+04  0.46999998093E+01 0. -1.
</event>
<event>
 5   0  0.3502141E-07  0.2800666E+04  0.7818609E-02  0.8303062E-01
       -2   -1    0    0    0  501  0.00000000000E+00  0.00000000000E+00  0.77084791741E+03  0.77084791741E+03  0.25500000920E-02 0. -1.
        2   -1    0    0  501    0  0.00000000000E+00  0.00000000000E+00 -0.25438648062E+04  0.25438648062E+04  0.25500000920E-02 0.  1.
    10030    2    1    2    0    0  0.00000000000E+00  0.00000000000E+00 -0.17730168888E+04  0.33147127236E+04  0.28006662693E+04 0.  0.
        3    1    3    3  502    0  0.12851749625E+04  0.54589330660E+03 -0.10120907612E+04  0.17245294737E+04  0.10100000352E+00 0.  1.
       -3    1    3    3    0  502 -0.12851749625E+04 -0.54589330660E+03 -0.76092612755E+03  0.15901832499E+04  0.10100000352E+00 0. -1.
</event>
<event>
 5   0  0.3557628E-07  0.2799552E+04  0.7818609E-02  0.8303407E-01
        2   -1    0    0  501    0  0.00000000000E+00  0.00000000000E+00  0.17638404381E+04  0.17638404381E+04  0.25500000920E-02 0. -1.
       -2   -1    0    0    0  501  0.00000000000E+00  0.00000000000E+00 -0.11108563070E+04  0.11108563070E+04  0.25500000920E-02 0.  1.
    10030    2    1    2    0    0  0.00000000000E+00  0.00000000000E+00  0.65298413108E+03  0.28746967452E+04  0.27995523037E+04 0.  0.
        5    1    3    3  502    0  0.10573910413E+04 -0.68421059155E+03 -0.30074867037E+03  0.12948713452E+04  0.46999998093E+01 0.  1.
       -5    1    3    3    0  502 -0.10573910413E+04  0.68421059155E+03  0.95373280146E+03  0.15798254000E+04  0.46999998093E+01 0. -1.
</event>
<event>
 5   0  0.3557628E-07  0.2800195E+04  0.7818609E-02  0.8303208E-01
        2   -1    0    0  501    0  0.00000000000E+00  0.00000000000E+00  0.15630355427E+04  0.15630355427E+04  0.25500000920E-02 0. -1.
       -2   -1    0    0    0  501  0.00000000000E+00  0.00000000000E+00 -0.12541451669E+04  0.12541451669E+04  0.25500000920E-02 0.  1.
    10030    2    1    2    0    0  0.00000000000E+00  0.00000000000E+00  0.30889037576E+03  0.28171807096E+04  0.28001953300E+04 0.  0.
        5    1    3    3  502    0  0.80022770897E+02 -0.10881695321E+04 -0.72822191715E+03  0.13118101330E+04  0.46999998093E+01 0.  1.
       -5    1    3    3    0  502 -0.80022770897E+02  0.10881695321E+04  0.10371122929E+04  0.15053705765E+04  0.46999998093E+01 0. -1.
</event>
<event>
 5   0  0.1357902E-07  0.2799145E+04  0.7818609E-02  0.8303534E-01
       -1   -1    0    0    0  501  0.00000000000E+00  0.00000000000E+00  0.14567432633E+04  0.14567432633E+04  0.50400001928E-02 0. -1.
        1   -1    0    0  501    0  0.00000000000E+00  0.00000000000E+00 -0.13446458428E+04  0.13446458428E+04  0.50400001928E-02 0.  1.
    10030    2    1    2    0    0  0.00000000000E+00  0.00000000000E+00  0.11209742047E+03  0.28013891061E+04  0.27991454217E+04 0.  0.
        4    1    3    3  502    0  0.15733954816E+02  0.14189541259E+03 -0.13373389107E+04  0.13449382293E+04  0.12699999809E+01 0.  1.
       -4    1    3    3    0  502 -0.15733954816E+02 -0.14189541259E+03  0.14494363312E+04  0.14564508768E+04  0.12699999809E+01 0. -1.
</event>
<event>
 5   0  0.1173363E-07  0.2800547E+04  0.7818609E-02  0.8303098E-01
       -3   -1    0    0    0  501  0.00000000000E+00  0.00000000000E+00  0.16247585247E+04  0.16247585279E+04  0.10100000352E+00 0.  1.
        3   -1    0    0  501    0  0.00000000000E+00  0.00000000000E+00 -0.12068046470E+04  0.12068046512E+04  0.10100000352E+00 0. -1.
    10030    2    1    2    0    0  0.00000000000E+00  0.00000000000E+00  0.41795387778E+03  0.28315631791E+04  0.28005471953E+04 0.  0.
        4    1    3    3  502    0  0.99306052062E+03  0.81972293272E+03  0.76520571026E+03  0.14978839327E+04  0.12699999809E+01 0.  1.
       -4    1    3    3    0  502 -0.99306052062E+03 -0.81972293272E+03 -0.34725183248E+03  0.13336792463E+04  0.12699999809E+01 0. -1.
</event>
<event>
 5   0  0.1357902E-07  0.2800522E+04  0.7818609E-02  0.8303106E-01
       -1   -1    0    0    0  501  0.00000000000E+00  0.00000000000E+00  0.11098039430E+04  0.11098039431E+04  0.50400001928E-02 0. -1.
        1   -1    0    0  501    0  0.00000000000E+00  0.00000000000E+00 -0.17667362803E+04  0.17667362803E+04  0.50400001928E-02 0.  1.
    10030    2    1    2    0    0  0.00000000000E+00  0.00000000000E+00 -0.65693233727E+03  0.28765402234E+04  0.28005220158E+04 0.  0.
        4    1    3    3  502    0 -0.90861456913E+03 -0.43195686766E+02 -0.14219204826E+04  0.16879886772E+04  0.12699999809E+01 0.  1.
       -4    1    3    3    0  502  0.90861456913E+03  0.43195686766E+02  0.76498814532E+03  0.11885515462E+04  0.12699999809E+01 0. -1.
</event>
<event>
 5   0  0.1374680E-07  0.2801155E+04  0.7818609E-02  0.8302910E-01
       -1   -1    0    0    0  501  0.00000000000E+00  0.00000000000E+00  0.15710180268E+04  0.15710180268E+04  0.50400001928E-02 0. -1.
        1   -1    0    0  501    0  0.00000000000E+00  0.00000000000E+00 -0.12486283068E+04  0.12486283069E+04  0.50400001928E-02 0.  1.
    10030    2    1    2    0    0  0.00000000000E+00  0.00000000000E+00  0.32238971994E+03  0.28196463336E+04  0.28011551751E+04 0.  0.
        3    1    3    3  502    0 -0.10222544151E+04 -0.88883190557E+03  0.51934031147E+03  0.14507724201E+04  0.10100000352E+00 0. -1.
       -3    1    3    3    0  502  0.10222544151E+04  0.88883190557E+03 -0.19695059153E+03  0.13688739136E+04  0.10100000352E+00 0.  1.
</event>
<event>
 5   0  0.1346049E-07  0.2797277E+04  0.7818609E-02  0.8304114E-01
       -1   -1    0    0    0  501  0.00000000000E+00  0.00000000000E+00  0.99432668725E+03  0.99432668727E+03  0.50400001928E-02 0.  1.
        1   -1    0    0  501    0  0.00000000000E+00  0.00000000000E+00 -0.19673504981E+04  0.19673504981E+04  0.50400001928E-02 0. -1.
    10030    2    1    2    0    0  0.00000000000E+00  0.00000000000E+00 -0.97302381084E+03  0.29616771854E+04  0.27972766066E+04 0.  0.
        1    1    3    3  502    0 -0.59433949043E+03 -0.74985573819E+03 -0.15665970649E+04  0.18356877245E+04  0.50400001928E-02 0. -1.
       -1    1    3    3    0  502  0.59433949043E+03  0.74985573819E+03  0.59357325410E+03  0.11259894609E+04  0.50400001928E-02 0.  1.
</event>
<event>
 5   0  0.3502141E-07  0.2799654E+04  0.7818609E-02  0.8303376E-01
       -2   -1    0    0    0  501  0.00000000000E+00  0.00000000000E+00  0.10838219447E+04  0.10838219447E+04  0.25500000920E-02 0.  1.
        2   -1    0    0  501    0  0.00000000000E+00  0.00000000000E+00 -0.18079688407E+04  0.18079688407E+04  0.25500000920E-02 0. -1.
    10030    2    1    2    0    0  0.00000000000E+00  0.00000000000E+00 -0.72414689597E+03  0.28917907855E+04  0.27996544822E+04 0.  0.
        3    1    3    3  502    0  0.76179057463E+03 -0.30058913845E+03  0.81055797916E+03  0.11522512563E+04  0.10100000352E+00 0.  1.
       -3    1    3    3    0  502 -0.76179057463E+03  0.30058913845E+03 -0.15347048751E+04  0.17395395292E+04  0.10100000352E+00 0. -1.
</event>
<event>
 5   0  0.3557628E-07  0.2799236E+04  0.7818609E-02  0.8303506E-01
        2   -1    0    0  501    0  0.00000000000E+00  0.00000000000E+00  0.24152981892E+04  0.24152981892E+04  0.25500000920E-02 0.  1.
       -2   -1    0    0    0  501  0.00000000000E+00  0.00000000000E+00 -0.81105094171E+03  0.81105094172E+03  0.25500000920E-02 0. -1.
    10030    2    1    2    0    0  0.00000000000E+00  0.00000000000E+00  0.16042472475E+04  0.32263491309E+04  0.27992355177E+04 0.  0.
        5    1    3    3  502    0 -0.14097502670E+03  0.58069840967E+03  0.22608680465E+04  0.23385104265E+04  0.46999998093E+01 0.  1.
       -5    1    3    3    0  502  0.14097502670E+03 -0.58069840967E+03 -0.65662079909E+03  0.88783870435E+03  0.46999998093E+01 0. -1.
</event>
<event>
 5   0  0.3557628E-07  0.2800195E+04  0.7818609E-02  0.8303208E-01
       -2   -1    0    0    0  501  0.00000000000E+00  0.00000000000E+00  0.21061370447E+04  0.21061370447E+04  0.25500000920E-02 0.  1.
        2   -1    0    0  501    0  0.00000000000E+00  0.00000000000E+00 -0.93074363723E+03  0.93074363723E+03  0.25500000920E-02 0. -1.
    10030    2    1    2    0    0  0.00000000000E+00  0.00000000000E+00  0.11753934074E+04  0.30368806819E+04  0.28001954599E+04 0.  0.
        5    1    3    3  502    0  0.64129112770E+03  0.12225990281E+04  0.33509590031E+03  0.14206738002E+04  0.46999998093E+01 0. -1.
       -5    1    3    3    0  502 -0.64129112770E+03 -0.12225990281E+04  0.84029750713E+03  0.16162068817E+04  0.46999998093E+01 0.  1.
</event>
<event>
 5   0  0.1346049E-07  0.2801558E+04  0.7818609E-02  0.8302785E-01
        1   -1    0    0  501    0  0.00000000000E+00  0.00000000000E+00  0.18199779953E+04  0.18199779953E+04  0.50400001928E-02 0.  1.
       -1   -1    0    0    0  501  0.00000000000E+00  0.00000000000E+00 -0.10781348512E+04  0.10781348513E+04  0.50400001928E-02 0. -1.
    10030    2    1    2    0    0  0.00000000000E+00  0.00000000000E+00  0.74184314405E+03  0.28981128466E+04  0.28015579275E+04 0.  0.
        1    1    3    3  502    0  0.34376542077E+03 -0.28597120673E+03 -0.10023191502E+04  0.10975417415E+04  0.50400001928E-02 0. -1.
       -1    1    3    3    0  502 -0.34376542077E+03  0.28597120673E+03  0.17441622942E+04  0.18005711050E+04  0.50400001928E-02 0.  1.
</event>
<event>
 5   0  0.3522569E-07  0.2798188E+04  0.7818609E-02  0.8303831E-01
        2   -1    0    0  501    0  0.00000000000E+00  0.00000000000E+00  0.12899521783E+04  0.12899521783E+04  0.25500000920E-02 0. -1.
       -2   -1    0    0    0  501  0.00000000000E+00  0.00000000000E+00 -0.15174700963E+04  0.15174700963E+04  0.25500000920E-02 0.  1.
    10030    2    1    2    0    0  0.00000000000E+00  0.00000000000E+00 -0.22751791806E+03  0.28074222746E+04  0.27981878823E+04 0.  0.
        1    1    3    3  502    0 -0.12354833979E+04 -0.24293249972E+03  0.49819526196E+03  0.13541174044E+04  0.50400001928E-02 0.  1.
       -1    1    3    3    0  502  0.12354833979E+04  0.24293249972E+03 -0.72571318002E+03  0.14533048701E+04  0.50400001928E-02 0. -1.
</event>
<event>
 5   0  0.3522569E-07  0.2799540E+04  0.7818609E-02  0.8303411E-01
        2   -1    0    0  501    0  0.00000000000E+00  0.00000000000E+00  0.10134037092E+04  0.10134037092E+04  0.25500000920E-02 0.  1.
       -2   -1    0    0    0  501  0.00000000000E+00  0.00000000000E+00 -0.19334412030E+04  0.19334412030E+04  0.25500000920E-02 0. -1.
    10030    2    1    2    0    0  0.00000000000E+00  0.00000000000E+00 -0.92003749389E+03  0.29468449122E+04  0.27995403098E+04 0.  0.
        1    1    3    3  502    0  0.43449893638E+03  0.57121875702E+02  0.93933081520E+03  0.10365300839E+04  0.50400001928E-02 0.  1.
       -1    1    3    3    0  502 -0.43449893638E+03 -0.57121875702E+02 -0.18593683091E+04  0.19103148283E+04  0.50400001928E-02 0. -1.
</event>
<event>
 5   0  0.1374680E-07  0.2799504E+04  0.7818609E-02  0.8303422E-01
        1   -1    0    0  501    0  0.00000000000E+00  0.00000000000E+00  0.13783191728E+04  0.13783191728E+04  0.50400001928E-02 0. -1.
       -1   -1    0    0    0  501  0.00000000000E+00  0.00000000000E+00 -0.14215179572E+04  0.14215179572E+04  0.50400001928E-02 0.  1.
    10030    2    1    2    0    0  0.00000000000E+00  0.00000000000E+00 -0.43198784394E+02  0.27998371300E+04  0.27995038524E+04 0.  0.
        3    1    3    3  502    0  0.28164279910E+03 -0.59253256741E+03 -0.12582286743E+04  0.14189985612E+04  0.10100000352E+00 0.  1.
       -3    1    3    3    0  502 -0.28164279910E+03  0.59253256741E+03  0.12150298899E+04  0.13808385688E+04  0.10100000352E+00 0. -1.
</event>
<event>
 5   0  0.3406920E-07  0.2801079E+04  0.7818609E-02  0.8302933E-01
        2   -1    0    0  501    0  0.00000000000E+00  0.00000000000E+00  0.16287559673E+04  0.16287559673E+04  0.25500000920E-02 0. -1.
       -2   -1    0    0    0  501  0.00000000000E+00  0.00000000000E+00 -0.12042999868E+04  0.12042999868E+04  0.25500000920E-02 0.  1.
    10030    2    1    2    0    0  0.00000000000E+00  0.00000000000E+00  0.42445598056E+03  0.28330559541E+04  0.28010789278E+04 0.  0.
        4    1    3    3  502    0 -0.41399713309E+03 -0.13371816811E+04  0.25814117824E+03  0.14234068130E+04  0.12699999809E+01 0. -1.
       -4    1    3    3    0  502  0.41399713309E+03  0.13371816811E+04  0.16631480232E+03  0.14096491411E+04  0.12699999809E+01 0.  1.
</event>
<event>
 5   0  0.1366235E-07  0.2800567E+04  0.7818609E-02  0.8303092E-01
        1   -1    0    0  501    0  0.00000000000E+00  0.00000000000E+00  0.23908562085E+04  0.23908562086E+04  0.50400001928E-02 0. -1.
       -1   -1    0    0    0  501  0.00000000000E+00  0.00000000000E+00 -0.82012187751E+03  0.82012187752E+03  0.50400001928E-02 0.  1.
    10030    2    1    2    0    0  0.00000000000E+00  0.00000000000E+00  0.15707343310E+04  0.32109780861E+04  0.28005667160E+04 0.  0.
        2    1    3    3  502    0 -0.13826764061E+04  0.14360857902E+03  0.97850489390E+03  0.16999674395E+04  0.25500000920E-02 0. -1.
       -2    1    3    3    0  502  0.13826764061E+04 -0.14360857902E+03  0.59222943715E+03  0.15110106466E+04  0.25500000920E-02 0.  1.
</event>
<event>
 5   0  0.3571498E-07  0.2799529E+04  0.7818609E-02  0.8303415E-01
        2   -1    0    0  501    0  0.00000000000E+00  0.00000000000E+00  0.18233960288E+04  0.18233960288E+04  0.25500000920E-02 0. -1.
       -2   -1    0    0    0  501  0.00000000000E+00  0.00000000000E+00 -0.10745554542E+04  0.10745554542E+04  0.25500000920E-02 0.  1.
    10030    2    1    2    0    0  0.00000000000E+00  0.00000000000E+00  0.74884057458E+03  0.28979514830E+04  0.27995286375E+04 0.  0.
        2    1    3    3  502    0 -0.20931265787E+03  0.13793932164E+04  0.25729323456E+03  0.14187097105E+04  0.25500000920E-02 0. -1.
       -2    1    3    3    0  502  0.20931265787E+03 -0.13793932164E+04  0.49154734002E+03  0.14792417725E+04  0.25500000920E-02 0.  1.
</event>
<event>
 5   0  0.1346049E-07  0.2799295E+04  0.7818609E-02  0.8303487E-01
       -1   -1    0    0    0  501  0.00000000000E+00  0.00000000000E+00  0.76579211292E+03  0.76579211294E+03  0.50400001928E-02 0.  1.
        1   -1    0    0  501    0  0.00000000000E+00  0.00000000000E+00 -0.25581521820E+04  0.25581521820E+04  0.50400001928E-02 0. -1.
    10030    2    1    2    0    0  0.00000000000E+00  0.00000000000E+00 -0.17923600691E+04  0.33239442949E+04  0.27992947431E+04 0.  0.
        1    1    3    3  502    0 -0.13859717067E+04 -0.51212576526E+00 -0.11279401521E+04  0.17869434296E+04  0.50400001928E-02 0.  1.
       -1    1    3    3    0  502  0.13859717067E+04  0.51212576526E+00 -0.66441991703E+03  0.15370008654E+04  0.50400001928E-02 0. -1.
</event>
<event>
 5   0  0.3571498E-07  0.2799554E+04  0.7818609E-02  0.8303407E-01
        2   -1    0    0  501    0  0.00000000000E+00  0.00000000000E+00  0.14490892247E+04  0.14490892247E+04  0.25500000920E-02 0. -1.
       -2   -1    0    0    0  501  0.00000000000E+00  0.00000000000E+00 -0.13521430712E+04  0.13521430712E+04  0.25500000920E-02 0.  1.
    10030    2    1    2    0    0  0.00000000000E+00  0.00000000000E+00  0.96946153547E+02  0.28012322959E+04  0.27995542179E+04 0.  0.
        2    1    3    3  502    0 -0.10965933861E+03 -0.13859842939E+04 -0.11409991461E+03  0.13949897577E+04  0.25500000920E-02 0.  1.
       -2    1    3    3    0  502  0.10965933861E+03  0.13859842939E+04  0.21104606816E+03  0.14062425382E+04  0.25500000920E-02 0. -1.
</event>
<event>
 5   0  0.3557628E-07  0.2800121E+04  0.7818609E-02  0.8303231E-01
       -2   -1    0    0    0  501  0.00000000000E+00  0.00000000000E+00  0.92741494126E+03  0.92741494127E+03  0.25500000920E-02 0.  1.
        2   -1    0    0  501    0  0.00000000000E+00  0.00000000000E+00 -0.21135847128E+04  0.21135847128E+04  0.25500000920E-02 0. -1.
    10030    2    1    2    0    0  0.00000000000E+00  0.00000000000E+00 -0.11861697715E+04  0.30409996540E+04  0.28001214561E+04 0.  0.
        5    1    3    3  502    0  0.14179508046E+03 -0.13714989902E+04 -0.85695217604E+03  0.16234236807E+04  0.46999998093E+01 0. -1.
       -5    1    3    3    0  502 -0.14179508046E+03  0.13714989902E+04 -0.32921759545E+03  0.14175759733E+04  0.46999998093E+01 0.  1.
</event>
<event>
 5   0  0.3557628E-07  0.2800781E+04  0.7818609E-02  0.8303026E-01
        2   -1    0    0  501    0  0.00000000000E+00  0.00000000000E+00  0.20958772411E+04  0.20958772411E+04  0.25500000920E-02 0.  1.
       -2   -1    0    0    0  501  0.00000000000E+00  0.00000000000E+00 -0.93569101288E+03  0.93569101288E+03  0.25500000920E-02 0. -1.
    10030    2    1    2    0    0  0.00000000000E+00  0.00000000000E+00  0.11601862282E+04  0.30315682539E+04  0.28007809615E+04 0.  0.
        5    1    3    3  502    0  0.10121468056E+04  0.91614542283E+03  0.24244675626E+03  0.13865663026E+04  0.46999998093E+01 0.  1.
       -5    1    3    3    0  502 -0.10121468056E+04 -0.91614542283E+03  0.91773947193E+03  0.16450019514E+04  0.46999998093E+01 0. -1.
</event>
<event>
 5   0  0.3557628E-07  0.2796219E+04  0.7818609E-02  0.8304443E-01
        2   -1    0    0  501    0  0.00000000000E+00  0.00000000000E+00  0.18860717162E+04  0.18860717162E+04  0.25500000920E-02 0. -1.
       -2   -1    0    0    0  501  0.00000000000E+00  0.00000000000E+00 -0.10363922134E+04  0.10363922134E+04  0.25500000920E-02 0.  1.
    10030    2    1    2    0    0  0.00000000000E+00  0.00000000000E+00  0.84967950280E+03  0.29224639295E+04  0.27962189045E+04 0.  0.
        5    1    3    3  502    0  0.83865936358E+03  0.11143597477E+04  0.32275289688E+03  0.14315511509E+04  0.46999998093E+01 0.  1.
       -5    1    3    3    0  502 -0.83865936358E+03 -0.11143597477E+04  0.52692660592E+03  0.14909127786E+04  0.46999998093E+01 0. -1.
</event>
<event>
 5   0  0.1374680E-07  0.2799945E+04  0.7818609E-02  0.8303285E-01
        1   -1    0    0  501    0  0.00000000000E+00  0.00000000000E+00  0.20241934657E+04  0.20241934657E+04  0.50400001928E-02 0.  1.
       -1   -1    0    0    0  501  0.00000000000E+00  0.00000000000E+00 -0.96824917886E+03  0.96824917888E+03  0.50400001928E-02 0. -1.
    10030    2    1    2    0    0  0.00000000000E+00  0.00000000000E+00  0.10559442869E+04  0.29924426446E+04  0.27999454717E+04 0.  0.
        3    1    3    3  502    0 -0.37837048904E+02  0.13593949812E+04  0.17264312566E+03  0.13708362470E+04  0.10100000352E+00 0. -1.
       -3    1    3    3    0  502  0.37837048904E+02 -0.13593949812E+04  0.88330116121E+03  0.16216063976E+04  0.10100000352E+00 0.  1.
</event>
<event>
 5   0  0.1374680E-07  0.2797870E+04  0.7818609E-02  0.8303930E-01
       -1   -1    0    0    0  501  0.00000000000E+00  0.00000000000E+00  0.19974026257E+04  0.19974026257E+04  0.50400001928E-02 0.  1.
        1   -1    0    0  501    0  0.00000000000E+00  0.00000000000E+00 -0.97978205579E+03  0.97978205580E+03  0.50400001928E-02 0. -1.
    10030    2    1    2    0    0  0.00000000000E+00  0.00000000000E+00  0.10176205699E+04  0.29771846815E+04  0.27978700834E+04 0.  0.
        3    1    3    3  502    0  0.11675854437E+04  0.11485779426E+03 -0.30197519077E+03  0.12114607328E+04  0.10100000352E+00 0. -1.
       -3    1    3    3    0  502 -0.11675854437E+04 -0.11485779426E+03  0.13195957607E+04  0.17657239487E+04  0.10100000352E+00 0.  1.
</event>
<event>
 5   0  0.1374680E-07  0.2801942E+04  0.7818609E-02  0.8302666E-01
        1   -1    0    0  501    0  0.00000000000E+00  0.00000000000E+00  0.18784758714E+04  0.18784758714E+04  0.50400001928E-02 0. -1.
       -1   -1    0    0    0  501  0.00000000000E+00  0.00000000000E+00 -0.10448467602E+04  0.10448467602E+04  0.50400001928E-02 0.  1.
    10030    2    1    2    0    0  0.00000000000E+00  0.00000000000E+00  0.83362911123E+03  0.29233226316E+04  0.28019417755E+04 0.  0.
        3    1    3    3  502    0 -0.82806093199E+03 -0.28578493046E+03 -0.72387449188E+03  0.11363767966E+04  0.10100000352E+00 0.  1.
       -3    1    3    3    0  502  0.82806093199E+03  0.28578493046E+03  0.15575036031E+04  0.17869458351E+04  0.10100000352E+00 0. -1.
</event>
<event>
 5   0  0.3522569E-07  0.2798273E+04  0.7818609E-02  0.8303805E-01
        2   -1    0    0  501    0  0.00000000000E+00  0.00000000000E+00  0.11847303045E+04  0.11847303045E+04  0.25500000920E-02 0.  1.
       -2   -1    0    0    0  501  0.00000000000E+00  0.00000000000E+00 -0.16523443378E+04  0.16523443378E+04  0.25500000920E-02 0. -1.
    10030    2    1    2    0    0  0.00000000000E+00  0.00000000000E+00 -0.46761403330E+03  0.28370746423E+04  0.27982726175E+04 0.  0.
        1    1    3    3  502    0 -0.62075432531E+03 -0.93093795051E+03 -0.10854554196E+04  0.15589082295E+04  0.50400001928E-02 0. -1.
       -1    1    3    3    0  502  0.62075432531E+03  0.93093795051E+03  0.61784138632E+03  0.12781664128E+04  0.50400001928E-02 0.  1.
</event>
<event>
 5   0  0.1361741E-07  0.2799075E+04  0.7818609E-02  0.8303556E-01
        1   -1    0    0  501    0  0.00000000000E+00  0.00000000000E+00  0.12452450535E+04  0.12452450535E+04  0.50400001928E-02 0.  1.
       -1   -1    0    0    0  501  0.00000000000E+00  0.00000000000E+00 -0.15729472537E+04  0.15729472537E+04  0.50400001928E-02 0. -1.
    10030    2    1    2    0    0  0.00000000000E+00  0.00000000000E+00 -0.32770220024E+03  0.28181923072E+04  0.27990746951E+04 0.  0.
        5    1    3    3  502    0  0.32002164247E+03 -0.65173742217E+03  0.10407767571E+04  0.12690208301E+04  0.46999998093E+01 0.  1.
       -5    1    3    3    0  502 -0.32002164247E+03  0.65173742217E+03 -0.13684789573E+04  0.15491714772E+04  0.46999998093E+01 0. -1.
</event>
<event>
 5   0  0.3522569E-07  0.2799782E+04  0.7818609E-02  0.8303336E-01
       -2   -1    0    0    0  501  0.00000000000E+00  0.00000000000E+00  0.16114359898E+04  0.16114359898E+04  0.25500000920E-02 0.  1.
        2   -1    0    0  501    0  0.00000000000E+00  0.00000000000E+00 -0.12161167701E+04  0.12161167701E+04  0.25500000920E-02 0. -1.
    10030    2    1    2    0    0  0.00000000000E+00  0.00000000000E+00  0.39531921968E+03  0.28275527599E+04  0.27997816566E+04 0.  0.
        1    1    3    3  502    0  0.10007004792E+02  0.48541595051E+03 -0.11283627412E+04  0.12283856320E+04  0.50400001928E-02 0. -1.
       -1    1    3    3    0  502 -0.10007004792E+02 -0.48541595051E+03  0.15236819609E+04  0.15991671279E+04  0.50400001928E-02 0.  1.
</event>
<event>
 5   0  0.3502141E-07  0.2800412E+04  0.7818609E-02  0.8303140E-01
       -2   -1    0    0    0  501  0.00000000000E+00  0.00000000000E+00  0.99152986273E+03  0.99152986273E+03  0.25500000920E-02 0. -1.
        2   -1    0    0  501    0  0.00000000000E+00  0.00000000000E+00 -0.19773251443E+04  0.19773251443E+04  0.25500000920E-02 0.  1.
    10030    2    1    2    0    0  0.00000000000E+00  0.00000000000E+00 -0.98579528154E+03  0.29688550070E+04  0.28004120617E+04 0.  0.
        3    1    3    3  502    0  0.80126027260E+03  0.60241816829E+03 -0.15292722476E+04  0.18285511454E+04  0.10100000352E+00 0.  1.
       -3    1    3    3    0  502 -0.80126027260E+03 -0.60241816829E+03  0.54347696604E+03  0.11403038616E+04  0.10100000352E+00 0. -1.
</event>
<event>
 5   0  0.3571498E-07  0.2788837E+04  0.7818609E-02  0.8306742E-01
       -2   -1    0    0    0  501  0.00000000000E+00  0.00000000000E+00  0.15712274192E+04  0.15712274192E+04  0.25500000920E-02 0.  1.
        2   -1    0    0  501    0  0.00000000000E+00  0.00000000000E+00 -0.12375060908E+04  0.12375060908E+04  0.25500000920E-02 0. -1.
    10030    2    1    2    0    0  0.00000000000E+00  0.00000000000E+00  0.33372132838E+03  0.28087335100E+04  0.27888373931E+04 0.  0.
        2    1    3    3  502    0 -0.20336249659E+03  0.89327404307E+03 -0.89188059504E+03  0.12785717879E+04  0.25500000920E-02 0. -1.
       -2    1    3    3    0  502  0.20336249659E+03 -0.89327404307E+03  0.12256019234E+04  0.15301617221E+04  0.25500000920E-02 0.  1.
</event>
<event>
 5   0  0.1366235E-07  0.2800951E+04  0.7818609E-02  0.8302973E-01
       -1   -1    0    0    0  501  0.00000000000E+00  0.00000000000E+00  0.22300154028E+04  0.22300154028E+04  0.50400001928E-02 0. -1.
        1   -1    0    0  501    0  0.00000000000E+00  0.00000000000E+00 -0.87951478409E+03  0.87951478410E+03  0.50400001928E-02 0.  1.
    10030    2    1    2    0    0  0.00000000000E+00  0.00000000000E+00  0.13505006187E+04  0.31095301869E+04  0.28009509211E+04 0.  0.
        2    1    3    3  502    0  0.11059191913E+04  0.78227767064E+03  0.28068554862E+03  0.13834016008E+04  0.25500000920E-02 0. -1.
       -2    1    3    3    0  502 -0.11059191913E+04 -0.78227767064E+03  0.10698150701E+04  0.17261285862E+04  0.25500000920E-02 0.  1.
</event>
<event>
 5   0  0.3557628E-07  0.2795785E+04  0.7818609E-02  0.8304578E-01
       -2   -1    0    0    0  501  0.00000000000E+00  0.00000000000E+00  0.12790613869E+04  0.12790613869E+04  0.25500000920E-02 0.  1.
        2   -1    0    0  501    0  0.00000000000E+00  0.00000000000E+00 -0.15277636498E+04  0.15277636498E+04  0.25500000920E-02 0. -1.
    10030    2    1    2    0    0  0.00000000000E+00  0.00000000000E+00 -0.24870226296E+03  0.28068250367E+04  0.27957850366E+04 0.  0.
        5    1    3    3  502    0 -0.50074426318E+03 -0.97379219116E+03  0.74802512576E+03  0.13261145227E+04  0.46999998093E+01 0.  1.
       -5    1    3    3    0  502  0.50074426318E+03  0.97379219116E+03 -0.99672738873E+03  0.14807105139E+04  0.46999998093E+01 0. -1.
</event>
<event>
 5   0  0.3557628E-07  0.2797451E+04  0.7818609E-02  0.8304060E-01
        2   -1    0    0  501    0  0.00000000000E+00  0.00000000000E+00  0.15564019786E+04  0.15564019786E+04  0.25500000920E-02 0. -1.
       -2   -1    0    0    0  501  0.00000000000E+00  0.00000000000E+00 -0.12570230153E+04  0.12570230153E+04  0.25500000920E-02 0.  1.
    10030    2    1    2    0    0  0.00000000000E+00  0.00000000000E+00  0.29937896333E+03  0.28134249939E+04  0.27974510599E+04 0.  0.
        5    1    3    3  502    0 -0.11751167115E+04 -0.19240112065E+03  0.88770092047E+03  0.14852449263E+04  0.46999998093E+01 0. -1.
       -5    1    3    3    0  502  0.11751167115E+04  0.19240112065E+03 -0.58832195713E+03  0.13281800676E+04  0.46999998093E+01 0.  1.
</event>
<event>
 5   0  0.3522569E-07  0.2800558E+04  0.7818609E-02  0.8303095E-01
       -2   -1    0    0    0  501  0.00000000000E+00  0.00000000000E+00  0.88479271149E+03  0.88479271149E+03  0.25500000920E-02 0. -1.
        2   -1    0    0  501    0  0.00000000000E+00  0.00000000000E+00 -0.22160912665E+04  0.22160912665E+04  0.25500000920E-02 0.  1.
    10030    2    1    2    0    0  0.00000000000E+00  0.00000000000E+00 -0.13312985551E+04  0.31008839780E+04  0.28005580877E+04 0.  0.
        1    1    3    3  502    0 -0.48901447362E+03 -0.24365926355E+03 -0.20932033020E+04  0.21633319338E+04  0.50400001928E-02 0.  1.
       -1    1    3    3    0  502  0.48901447362E+03  0.24365926355E+03  0.76190474699E+03  0.93755204423E+03  0.50400001928E-02 0. -1.
</event>
<event>
 5   0  0.3406920E-07  0.2799214E+04  0.7818609E-02  0.8303512E-01
        2   -1    0    0  501    0  0.00000000000E+00  0.00000000000E+00  0.23105391180E+04  0.23105391180E+04  0.25500000920E-02 0.  1.
       -2   -1    0    0    0  501  0.00000000000E+00  0.00000000000E+00 -0.84781094648E+03  0.84781094648E+03  0.25500000920E-02 0. -1.
    10030    2    1    2    0    0  0.00000000000E+00  0.00000000000E+00  0.14627281715E+04  0.31583500645E+04  0.27992144301E+04 0.  0.
        4    1    3    3  502    0 -0.91700588998E+03 -0.62144921225E+03  0.16965706011E+04  0.20261915860E+04  0.12699999809E+01 0.  1.
       -4    1    3    3    0  502  0.91700588998E+03  0.62144921225E+03 -0.23384242958E+03  0.11321584785E+04  0.12699999809E+01 0. -1.
</event>
<event>
 5   0  0.1366235E-07  0.2803833E+04  0.7818609E-02  0.8302079E-01
       -1   -1    0    0    0  501  0.00000000000E+00  0.00000000000E+00  0.23888082118E+04  0.23888082118E+04  0.50400001928E-02 0. -1.
        1   -1    0    0  501    0  0.00000000000E+00  0.00000000000E+00 -0.82274083473E+03  0.82274083475E+03  0.50400001928E-02 0.  1.
    10030    2    1    2    0    0  0.00000000000E+00  0.00000000000E+00  0.15660673771E+04  0.32115490466E+04  0.28038331350E+04 0.  0.
        2    1    3    3  502    0  0.10254768861E+04  0.84624299791E+03  0.27382028671E+03  0.13574636661E+04  0.25500000920E-02 0.  1.
       -2    1    3    3    0  502 -0.10254768861E+04 -0.84624299791E+03  0.12922470904E+04  0.18540853805E+04  0.25500000920E-02 0. -1.
</event>
<event>
 5   0  0.1366235E-07  0.2799658E+04  0.7818609E-02  0.8303375E-01
       -1   -1    0    0    0  501  0.00000000000E+00  0.00000000000E+00  0.13089400418E+04  0.13089400418E+04  0.50400001928E-02 0.  1.
        1   -1    0    0  501    0  0.00000000000E+00  0.00000000000E+00 -0.14970285852E+04  0.14970285852E+04  0.50400001928E-02 0. -1.
    10030    2    1    2    0    0  0.00000000000E+00  0.00000000000E+00 -0.18808854341E+03  0.28059686271E+04  0.27996575926E+04 0.  0.
        2    1    3    3  502    0  0.70463334014E+03  0.11732088169E+04  0.20088695474E+03  0.13832146040E+04  0.25500000920E-02 0.  1.
       -2    1    3    3    0  502 -0.70463334014E+03 -0.11732088169E+04 -0.38897549815E+03  0.14227540231E+04  0.25500000920E-02 0. -1.
</event>
<event>
 5   0  0.3557628E-07  0.2799831E+04  0.7818609E-02  0.8303321E-01
        2   -1    0    0  501    0  0.00000000000E+00  0.00000000000E+00  0.20679854194E+04  0.20679854194E+04  0.25500000920E-02 0. -1.
       -2   -1    0    0    0  501  0.00000000000E+00  0.00000000000E+00 -0.94766787034E+03  0.94766787034E+03  0.25500000920E-02 0.  1.
    10030    2    1    2    0    0  0.00000000000E+00  0.00000000000E+00  0.11203175490E+04  0.30156532897E+04  0.27998309508E+04 0.  0.
        5    1    3    3  502    0 -0.10194081157E+04 -0.40818390965E+03  0.14953842576E+04  0.18552636412E+04  0.46999998093E+01 0. -1.
       -5    1    3    3    0  502  0.10194081157E+04  0.40818390965E+03 -0.37506670859E+03  0.11603896485E+04  0.46999998093E+01 0.  1.
</event>
<event>
 5   0  0.3502141E-07  0.2799556E+04  0.7818609E-02  0.8303406E-01
       -2   -1    0    0    0  501  0.00000000000E+00  0.00000000000E+00  0.94490726320E+03  0.94490726321E+03  0.25500000920E-02 0.  1.
        2   -1    0    0  501    0  0.00000000000E+00  0.00000000000E+00 -0.20736198602E+04  0.20736198602E+04  0.25500000920E-02 0. -1.
    10030    2    1    2    0    0  0.00000000000E+00  0.00000000000E+00 -0.11287125970E+04  0.30185271234E+04  0.27995560127E+04 0.  0.
        3    1    3    3  502    0 -0.20784202508E+03  0.54966873820E+03 -0.19341768065E+04  0.20214781617E+04  0.10100000352E+00 0. -1.
       -3    1    3    3    0  502  0.20784202508E+03 -0.54966873820E+03  0.80546420949E+03  0.99704896174E+03  0.10100000352E+00 0.  1.
</event>
<event>
 5   0  0.1366235E-07  0.2797329E+04  0.7818609E-02  0.8304098E-01
       -1   -1    0    0    0  501  0.00000000000E+00  0.00000000000E+00  0.13427713557E+04  0.13427713557E+04  0.50400001928E-02 0. -1.
        1   -1    0    0  501    0  0.00000000000E+00  0.00000000000E+00 -0.14568844480E+04  0.14568844480E+04  0.50400001928E-02 0.  1.
    10030    2    1    2    0    0  0.00000000000E+00  0.00000000000E+00 -0.11411309231E+03  0.27996558037E+04  0.27973292301E+04 0.  0.
        2    1    3    3  502    0 -0.41161246938E+03  0.79427991268E+03  0.10189922207E+04  0.13559684917E+04  0.25500000920E-02 0. -1.
       -2    1    3    3    0  502  0.41161246938E+03 -0.79427991268E+03 -0.11331053130E+04  0.14436873120E+04  0.25500000920E-02 0.  1.
</event>
<event>
 5   0  0.3406920E-07  0.2801300E+04  0.7818609E-02  0.8302865E-01
        2   -1    0    0  501    0  0.00000000000E+00  0.00000000000E+00  0.18543014108E+04  0.18543014108E+04  0.25500000920E-02 0. -1.
       -2   -1    0    0    0  501  0.00000000000E+00  0.00000000000E+00 -0.10579834765E+04  0.10579834765E+04  0.25500000920E-02 0.  1.
    10030    2    1    2    0    0  0.00000000000E+00  0.00000000000E+00  0.79631793427E+03  0.29122848873E+04  0.28012998790E+04 0.  0.
        4    1    3    3  502    0 -0.63324736123E+03  0.12283210656E+04  0.16098955987E+03  0.13912922453E+04  0.12699999809E+01 0.  1.
       -4    1    3    3    0  502  0.63324736123E+03 -0.12283210656E+04  0.63532837440E+03  0.15209926419E+04  0.12699999809E+01 0. -1.
</event>
<event>
 5   0  0.1357902E-07  0.2798143E+04  0.7818609E-02  0.8303845E-01
       -1   -1    0    0    0  501  0.00000000000E+00  0.00000000000E+00  0.94733530063E+03  0.94733530065E+03  0.50400001928E-02 0. -1.
        1   -1    0    0  501    0  0.00000000000E+00  0.00000000000E+00 -0.20662179922E+04  0.20662179922E+04  0.50400001928E-02 0.  1.
    10030    2    1    2    0    0  0.00000000000E+00  0.00000000000E+00 -0.11188826916E+04  0.30135532928E+04  0.27981431292E+04 0.  0.
        4    1    3    3  502    0 -0.18583644687E+03  0.26736977294E+03 -0.20248423414E+04  0.20508558947E+04  0.12699999809E+01 0.  1.
       -4    1    3    3    0  502  0.18583644687E+03 -0.26736977294E+03  0.90595964980E+03  0.96269739817E+03  0.12699999809E+01 0. -1.
</event>
<event>
 5   0  0.1374680E-07  0.2800709E+04  0.7818609E-02  0.8303048E-01
        1   -1    0    0  501    0  0.00000000000E+00  0.00000000000E+00  0.58911461008E+03  0.58911461010E+03  0.50400001928E-02 0. -1.
       -1   -1    0    0    0  501  0.00000000000E+00  0.00000000000E+00 -0.33287107564E+04  0.33287107564E+04  0.50400001928E-02 0.  1.
    10030    2    1    2    0    0  0.00000000000E+00  0.00000000000E+00 -0.27395961463E+04  0.39178253665E+04  0.28007085813E+04 0.  0.
        3    1    3    3  502    0  0.40614473970E+03  0.12471847566E+04 -0.68368330260E+03  0.14791369900E+04  0.10100000352E+00 0. -1.
       -3    1    3    3    0  502 -0.40614473970E+03 -0.12471847566E+04 -0.20559128437E+04  0.24386883765E+04  0.10100000352E+00 0.  1.
</event>
<event>
 5   0  0.3522569E-07  0.2800237E+04  0.7818609E-02  0.8303195E-01
        2   -1    0    0  501    0  0.00000000000E+00  0.00000000000E+00  0.18144979743E+04  0.18144979743E+04  0.25500000920E-02 0.  1.
       -2   -1    0    0    0  501  0.00000000000E+00  0.00000000000E+00 -0.10803711310E+04  0.10803711310E+04  0.25500000920E-02 0. -1.
    10030    2    1    2    0    0  0.00000000000E+00  0.00000000000E+00  0.73412684323E+03  0.28948691053E+04  0.28002365819E+04 0.  0.
        1    1    3    3  502    0  0.12755618619E+04 -0.55773181211E+03  0.21300240706E+03  0.14083653160E+04  0.50400001928E-02 0. -1.
       -1    1    3    3    0  502 -0.12755618619E+04  0.55773181211E+03  0.52112443617E+03  0.14865037893E+04  0.50400001928E-02 0.  1.
</event>
<event>
 5   0  0.1366235E-07  0.2802935E+04  0.7818609E-02  0.8302358E-01
        1   -1    0    0  501    0  0.00000000000E+00  0.00000000000E+00  0.14251690765E+04  0.14251690766E+04  0.50400001928E-02 0. -1.
       -1   -1    0    0    0  501  0.00000000000E+00  0.00000000000E+00 -0.13781596282E+04  0.13781596282E+04  0.50400001928E-02 0.  1.
    10030    2    1    2    0    0  0.00000000000E+00  0.00000000000E+00  0.47009448383E+02  0.28033287047E+04  0.28029345227E+04 0.  0.
        2    1    3    3  502    0 -0.22627747131E+03  0.11620394808E+04  0.77365902723E+03  0.14142438048E+04  0.25500000920E-02 0. -1.
       -2    1    3    3    0  502  0.22627747131E+03 -0.11620394808E+04 -0.72664957885E+03  0.13890849000E+04  0.25500000920E-02 0.  1.
</event>
<event>
 5   0  0.3522569E-07  0.2798294E+04  0.7818609E-02  0.8303798E-01
       -2   -1    0    0    0  501  0.00000000000E+00  0.00000000000E+00  0.12713846557E+04  0.12713846557E+04  0.25500000920E-02 0.  1.
        2   -1    0    0  501    0  0.00000000000E+00  0.00000000000E+00 -0.15397484405E+04  0.15397484405E+04  0.25500000920E-02 0. -1.
    10030    2    1    2    0    0  0.00000000000E+00  0.00000000000E+00 -0.26836378485E+03  0.28111330962E+04  0.27982941524E+04 0.  0.
        1    1    3    3  502    0  0.13904782691E+04  0.82483931996E+02 -0.17471296820E+01  0.13929237123E+04  0.50400001928E-02 0.  1.
       -1    1    3    3    0  502 -0.13904782691E+04 -0.82483931996E+02 -0.26661665517E+03  0.14182093839E+04  0.50400001928E-02 0. -1.
</event>
<event>
 5   0  0.3502141E-07  0.2802132E+04  0.7818609E-02  0.8302607E-01
        2   -1    0    0  501    0  0.00000000000E+00  0.00000000000E+00  0.13892912653E+04  0.13892912653E+04  0.25500000920E-02 0.  1.
       -2   -1    0    0    0  501  0.00000000000E+00  0.00000000000E+00 -0.14129403484E+04  0.14129403484E+04  0.25500000920E-02 0. -1.
    10030    2    1    2    0    0  0.00000000000E+00  0.00000000000E+00 -0.23649083138E+02  0.28022316137E+04  0.28021318202E+04 0.  0.
        3    1    3    3  502    0  0.54390532364E+02 -0.13846687705E+04  0.19487036196E+03  0.13993714311E+04  0.10100000352E+00 0.  1.
       -3    1    3    3    0  502 -0.54390532364E+02  0.13846687705E+04 -0.21851944510E+03  0.14028601826E+04  0.10100000352E+00 0. -1.
</event>
<event>
 5   0  0.1346049E-07  0.2798930E+04  0.7818609E-02  0.8303601E-01
       -1   -1    0    0    0  501  0.00000000000E+00  0.00000000000E+00  0.12459070686E+04  0.12459070686E+04  0.50400001928E-02 0. -1.
        1   -1    0    0  501    0  0.00000000000E+00  0.00000000000E+00 -0.15719485494E+04  0.15719485494E+04  0.50400001928E-02 0.  1.
    10030    2    1    2    0    0  0.00000000000E+00  0.00000000000E+00 -0.32604148080E+03  0.28178556181E+04  0.27989296592E+04 0.  0.
        1    1    3    3  502    0  0.12862120928E+03 -0.12358122291E+04 -0.81136797192E+03  0.14839451698E+04  0.50400001928E-02 0.  1.
       -1    1    3    3    0  502 -0.12862120928E+03  0.12358122291E+04  0.48532649112E+03  0.13339104483E+04  0.50400001928E-02 0. -1.
</event>
<event>
 5   0  0.1346049E-07  0.2800145E+04  0.7818609E-02  0.8303223E-01
       -1   -1    0    0    0  501  0.00000000000E+00  0.00000000000E+00  0.15511131702E+04  0.15511131702E+04  0.50400001928E-02 0.  1.
        1   -1    0    0  501    0  0.00000000000E+00  0.00000000000E+00 -0.12637396549E+04  0.12637396549E+04  0.50400001928E-02 0. -1.
    10030    2    1    2    0    0  0.00000000000E+00  0.00000000000E+00  0.28737351530E+03  0.28148528252E+04  0.28001451552E+04 0.  0.
        1    1    3    3  502    0  0.12258066836E+04  0.15157347451E+03 -0.51903821848E+03  0.13397675978E+04  0.50400001928E-02 0. -1.
       -1    1    3    3    0  502 -0.12258066836E+04 -0.15157347451E+03  0.80641173377E+03  0.14750852274E+04  0.50400001928E-02 0.  1.
</event>
<event>
 5   0  0.3522569E-07  0.2799843E+04  0.7818609E-02  0.8303317E-01
       -2   -1    0    0    0  501  0.00000000000E+00  0.00000000000E+00  0.11003815424E+04  0.11003815424E+04  0.25500000920E-02 0. -1.
        2   -1    0    0  501    0  0.00000000000E+00  0.00000000000E+00 -0.17810005120E+04  0.17810005120E+04  0.25500000920E-02 0.  1.
    10030    2    1    2    0    0  0.00000000000E+00  0.00000000000E+00 -0.68061896961E+03  0.28813820544E+04  0.27998429173E+04 0.  0.
        1    1    3    3  502    0 -0.48291076441E+03  0.62837455255E+03  0.84730116356E+03  0.11601623363E+04  0.50400001928E-02 0. -1.
       -1    1    3    3    0  502  0.48291076441E+03 -0.62837455255E+03 -0.15279201332E+04  0.17212197181E+04  0.50400001928E-02 0.  1.
</event>
<event>
 5   0  0.1366235E-07  0.2799954E+04  0.7818609E-02  0.8303283E-01
        1   -1    0    0  501    0  0.00000000000E+00  0.00000000000E+00  0.22450538622E+04  0.22450538622E+04  0.50400001928E-02 0.  1.
       -1   -1    0    0    0  501  0.00000000000E+00  0.00000000000E+00 -0.87300133992E+03  0.87300133994E+03  0.50400001928E-02 0. -1.
    10030    2    1    2    0    0  0.00000000000E+00  0.00000000000E+00  0.13720525223E+04  0.31180552021E+04  0.27999535924E+04 0.  0.
        2    1    3    3  502    0 -0.66292781802E+03  0.59116051029E+03 -0.51903671349E+03  0.10287580623E+04  0.25500000920E-02 0. -1.
       -2    1    3    3    0  502  0.66292781802E+03 -0.59116051029E+03  0.18910892357E+04  0.20892971398E+04  0.25500000920E-02 0.  1.
</event>
<event>
 5   0  0.1346049E-07  0.2820686E+04  0.7818609E-02  0.8296875E-01
        1   -1    0    0  501    0  0.00000000000E+00  0.00000000000E+00  0.12692281498E+04  0.12692281499E+04  0.50400001928E-02 0. -1.
       -1   -1    0    0    0  501  0.00000000000E+00  0.00000000000E+00 -0.15671476436E+04  0.15671476436E+04  0.50400001928E-02 0.  1.
    10030    2    1    2    0    0  0.00000000000E+00  0.00000000000E+00 -0.29791949378E+03  0.28363757935E+04  0.28206863734E+04 0.  0.
        1    1    3    3  502    0  0.73877598795E+03  0.11856654801E+04 -0.34362193686E+03  0.14386342922E+04  0.50400001928E-02 0. -1.
       -1    1    3    3    0  502 -0.73877598795E+03 -0.11856654801E+04  0.45702443083E+02  0.13977415013E+04  0.50400001928E-02 0.  1.
</event>
<event>
 5   0  0.3502141E-07  0.2800642E+04  0.7818609E-02  0.8303069E-01
        2   -1    0    0  501    0  0.00000000000E+00  0.00000000000E+00  0.97268059583E+03  0.97268059584E+03  0.25500000920E-02 0. -1.
       -2   -1    0    0    0  501  0.00000000000E+00  0.00000000000E+00 -0.20159735036E+04  0.20159735036E+04  0.25500000920E-02 0.  1.
    10030    2    1    2    0    0  0.00000000000E+00  0.00000000000E+00 -0.10432929077E+04  0.29886540994E+04  0.28006415755E+04 0.  0.
        3    1    3    3  502    0 -0.62106018537E+03 -0.10865738816E+04 -0.11919376286E+04  0.17283153285E+04  0.10100000352E+00 0.  1.
       -3    1    3    3    0  502  0.62106018537E+03  0.10865738816E+04  0.14864472090E+03  0.12603387709E+04  0.10100000352E+00 0. -1.
</event>
<event>
 5   0  0.1357902E-07  0.2800988E+04  0.7818609E-02  0.8302962E-01
       -1   -1    0    0    0  501  0.00000000000E+00  0.00000000000E+00  0.10114844759E+04  0.10114844759E+04  0.50400001928E-02 0. -1.
        1   -1    0    0  501    0  0.00000000000E+00  0.00000000000E+00 -0.19391131120E+04  0.19391131120E+04  0.50400001928E-02 0.  1.
    10030    2    1    2    0    0  0.00000000000E+00  0.00000000000E+00 -0.92762863606E+03  0.29505975880E+04  0.28009875472E+04 0.  0.
        4    1    3    3  502    0 -0.88732626254E+03  0.63029056246E+03 -0.13922337432E+04  0.17671815124E+04  0.12699999809E+01 0.  1.
       -4    1    3    3    0  502  0.88732626254E+03 -0.63029056246E+03  0.46460510714E+03  0.11834160755E+04  0.12699999809E+01 0. -1.
</event>
<event>
 5   0  0.1346049E-07  0.2799625E+04  0.7818609E-02  0.8303385E-01
       -1   -1    0    0    0  501  0.00000000000E+00  0.00000000000E+00  0.19076489212E+04  0.19076489212E+04  0.50400001928E-02 0.  1.
        1   -1    0    0  501    0  0.00000000000E+00  0.00000000000E+00 -0.10271675660E+04  0.10271675661E+04  0.50400001928E-02 0. -1.
    10030    2    1    2    0    0  0.00000000000E+00  0.00000000000E+00  0.88048135517E+03  0.29348164873E+04  0.27996250458E+04 0.  0.
        1    1    3    3  502    0  0.47534535765E+03  0.75857950587E+03  0.15683473753E+04  0.18058542481E+04  0.50400001928E-02 0.  1.
       -1    1    3    3    0  502 -0.47534535765E+03 -0.75857950587E+03 -0.68786602014E+03  0.11289622392E+04  0.50400001928E-02 0. -1.
</event>
<event>
 5   0  0.1346049E-07  0.2800574E+04  0.7818609E-02  0.8303090E-01
        1   -1    0    0  501    0  0.00000000000E+00  0.00000000000E+00  0.20119413801E+04  0.20119413801E+04  0.50400001928E-02 0. -1.
       -1   -1    0    0    0  501  0.00000000000E+00  0.00000000000E+00 -0.97458259545E+03  0.97458259546E+03  0.50400001928E-02 0.  1.
    10030    2    1    2    0    0  0.00000000000E+00  0.00000000000E+00  0.10373587846E+04  0.29865239756E+04  0.28005735499E+04 0.  0.
        1    1    3    3  502    0  0.82753790301E+03  0.11295087219E+04  0.50382167154E+03  0.14881012098E+04  0.50400001928E-02 0.  1.
       -1    1    3    3    0  502 -0.82753790301E+03 -0.11295087219E+04  0.53353711310E+03  0.14984227658E+04  0.50400001928E-02 0. -1.
</event>
<event>
 5   0  0.3571498E-07  0.2799351E+04  0.7818609E-02  0.8303470E-01
       -2   -1    0    0    0  501  0.00000000000E+00  0.00000000000E+00  0.14489739740E+04  0.14489739741E+04  0.25500000920E-02 0. -1.
        2   -1    0    0  501    0  0.00000000000E+00  0.00000000000E+00 -0.13520541121E+04  0.13520541121E+04  0.25500000920E-02 0.  1.
    10030    2    1    2    0    0  0.00000000000E+00  0.00000000000E+00  0.96919861936E+02  0.28010280862E+04  0.27993507961E+04 0.  0.
        2    1    3    3  502    0 -0.80557405597E+03 -0.36745192477E+03 -0.10362194511E+04  0.13629824751E+04  0.25500000920E-02 0.  1.
       -2    1    3    3    0  502  0.80557405597E+03  0.36745192477E+03  0.11331393130E+04  0.14380456110E+04  0.25500000920E-02 0. -1.
</event>
<event>
 5   0  0.3406920E-07  0.2819249E+04  0.7818609E-02  0.8297317E-01
        2   -1    0    0  501    0  0.00000000000E+00  0.00000000000E+00  0.19866821352E+04  0.19866821352E+04  0.25500000920E-02 0.  1.
       -2   -1    0    0    0  501  0.00000000000E+00  0.00000000000E+00 -0.10001809456E+04  0.10001809456E+04  0.25500000920E-02 0. -1.
    10030    2    1    2    0    0  0.00000000000E+00  0.00000000000E+00  0.98650118960E+03  0.29868630809E+04  0.28192492736E+04 0.  0.
        4    1    3    3  502    0  0.24382637993E+03 -0.42447689394E+03 -0.90723615975E+03  0.10308787511E+04  0.12699999809E+01 0. -1.
       -4    1    3    3    0  502 -0.24382637993E+03  0.42447689394E+03  0.18937373494E+04  0.19559843298E+04  0.12699999809E+01 0.  1.
</event>
<event>
 5   0  0.3502141E-07  0.2802172E+04  0.7818609E-02  0.8302594E-01
       -2   -1    0    0    0  501  0.00000000000E+00  0.00000000000E+00  0.11731350397E+04  0.11731350397E+04  0.25500000920E-02 0.  1.
        2   -1    0    0  501    0  0.00000000000E+00  0.00000000000E+00 -0.16733301148E+04  0.16733301148E+04  0.25500000920E-02 0. -1.
    10030    2    1    2    0    0  0.00000000000E+00  0.00000000000E+00 -0.50019507513E+03  0.28464651545E+04  0.28021721508E+04 0.  0.
        3    1    3    3  502    0  0.66644272673E+02  0.98704377770E+03 -0.12579217681E+04  0.16003324851E+04  0.10100000352E+00 0. -1.
       -3    1    3    3    0  502 -0.66644272673E+02 -0.98704377770E+03  0.75772669297E+03  0.12461326693E+04  0.10100000352E+00 0.  1.
</event>
<event>
 5   0  0.1374680E-07  0.2801469E+04  0.7818609E-02  0.8302812E-01
        1   -1    0    0  501    0  0.00000000000E+00  0.00000000000E+00  0.22127915963E+04  0.22127915963E+04  0.50400001928E-02 0. -1.
       -1   -1    0    0    0  501  0.00000000000E+00  0.00000000000E+00 -0.88668892968E+03  0.88668892969E+03  0.50400001928E-02 0.  1.
    10030    2    1    2    0    0  0.00000000000E+00  0.00000000000E+00  0.13261026666E+04  0.30994805260E+04  0.28014694802E+04 0.  0.
        3    1    3    3  502    0 -0.76892297355E+03 -0.10787348779E+04  0.11666002127E+04  0.17651820140E+04  0.10100000352E+00 0.  1.
       -3    1    3    3    0  502  0.76892297355E+03  0.10787348779E+04  0.15950245395E+03  0.13342985120E+04  0.10100000352E+00 0. -1.
</event>
<event>
 5   0  0.3502141E-07  0.2800642E+04  0.7818609E-02  0.8303069E-01
        2   -1    0    0  501    0  0.00000000000E+00  0.00000000000E+00  0.16429758548E+04  0.16429758548E+04  0.25500000920E-02 0.  1.
       -2   -1    0    0    0  501  0.00000000000E+00  0.00000000000E+00 -0.11935043262E+04  0.11935043262E+04  0.25500000920E-02 0. -1.
    10030    2    1    2    0    0  0.00000000000E+00  0.00000000000E+00  0.44947152860E+03  0.28364801810E+04  0.28006419196E+04 0.  0.
        3    1    3    3  502    0  0.12761484719E+04 -0.35023371016E+03 -0.23903234995E+03  0.13447509244E+04  0.10100000352E+00 0. -1.
       -3    1    3    3    0  502 -0.12761484719E+04  0.35023371016E+03  0.68850387856E+03  0.14917292566E+04  0.10100000352E+00 0.  1.
</event>
<event>
 5   0  0.3571498E-07  0.2800778E+04  0.7818609E-02  0.8303027E-01
       -2   -1    0    0    0  501  0.00000000000E+00  0.00000000000E+00  0.13246578526E+04  0.13246578526E+04  0.25500000920E-02 0. -1.
        2   -1    0    0  501    0  0.00000000000E+00  0.00000000000E+00 -0.14804496957E+04  0.14804496957E+04  0.25500000920E-02 0.  1.
    10030    2    1    2    0    0  0.00000000000E+00  0.00000000000E+00 -0.15579184310E+03  0.28051075482E+04  0.28007779738E+04 0.  0.
        2    1    3    3  502    0  0.23622056185E+03  0.84819597150E+03 -0.11685479662E+04  0.14631270995E+04  0.25500000920E-02 0.  1.
       -2    1    3    3    0  502 -0.23622056185E+03 -0.84819597150E+03  0.10127561231E+04  0.13419804487E+04  0.25500000920E-02 0. -1.
</event>
<event>
 5   0  0.1374680E-07  0.2805033E+04  0.7818609E-02  0.8301708E-01
        1   -1    0    0  501    0  0.00000000000E+00  0.00000000000E+00  0.15907638699E+04  0.15907638699E+04  0.50400001928E-02 0.  1.
       -1   -1    0    0    0  501  0.00000000000E+00  0.00000000000E+00 -0.12365456964E+04  0.12365456964E+04  0.50400001928E-02 0. -1.
    10030    2    1    2    0    0  0.00000000000E+00  0.00000000000E+00  0.35421817345E+03  0.28273095663E+04  0.28050327751E+04 0.  0.
        3    1    3    3  502    0 -0.13517929895E+03  0.63245319265E+02  0.15827375010E+04  0.15897582900E+04  0.10100000352E+00 0.  1.
       -3    1    3    3    0  502  0.13517929895E+03 -0.63245319265E+02 -0.12285193275E+04  0.12375512764E+04  0.10100000352E+00 0. -1.
</event>
<event>
 5   0  0.3557628E-07  0.2800830E+04  0.7818609E-02  0.8303011E-01
        2   -1    0    0  501    0  0.00000000000E+00  0.00000000000E+00  0.15531689509E+04  0.15531689509E+04  0.25500000920E-02 0.  1.
       -2   -1    0    0    0  501  0.00000000000E+00  0.00000000000E+00 -0.12626846673E+04  0.12626846673E+04  0.25500000920E-02 0. -1.
    10030    2    1    2    0    0  0.00000000000E+00  0.00000000000E+00  0.29048428358E+03  0.28158536182E+04  0.28008303198E+04 0.  0.
        5    1    3    3  502    0  0.67499875547E+03 -0.35728876250E+03 -0.10348777446E+04  0.12861852962E+04  0.46999998093E+01 0. -1.
       -5    1    3    3    0  502 -0.67499875547E+03  0.35728876250E+03  0.13253620282E+04  0.15296683221E+04  0.46999998093E+01 0.  1.
</event>
<event>
 5   0  0.1173363E-07  0.2800160E+04  0.7818609E-02  0.8303219E-01
       -3   -1    0    0    0  501  0.00000000000E+00  0.00000000000E+00  0.20304301440E+04  0.20304301465E+04  0.10100000352E+00 0.  1.
        3   -1    0    0  501    0  0.00000000000E+00  0.00000000000E+00 -0.96542324734E+03  0.96542325262E+03  0.10100000352E+00 0. -1.
    10030    2    1    2    0    0  0.00000000000E+00  0.00000000000E+00  0.10650068967E+04  0.29958533992E+04  0.28001603346E+04 0.  0.
        1    1    3    3  502    0  0.22031530145E+02 -0.13875720457E+04  0.73088849669E+03  0.15684513270E+04  0.50400001928E-02 0. -1.
       -1    1    3    3    0  502 -0.22031530145E+02  0.13875720457E+04  0.33411839999E+03  0.14274020722E+04  0.50400001928E-02 0.  1.
</event>
<event>
 5   0  0.3557628E-07  0.2803383E+04  0.7818609E-02  0.8302219E-01
        2   -1    0    0  501    0  0.00000000000E+00  0.00000000000E+00  0.14410562164E+04  0.14410562164E+04  0.25500000920E-02 0.  1.
       -2   -1    0    0    0  501  0.00000000000E+00  0.00000000000E+00 -0.13634024119E+04  0.13634024119E+04  0.25500000920E-02 0. -1.
    10030    2    1    2    0    0  0.00000000000E+00  0.00000000000E+00  0.77653804573E+02  0.28044586283E+04  0.28033833282E+04 0.  0.
        5    1    3    3  502    0 -0.80885024779E+03  0.62877096964E+03 -0.91816209658E+03  0.13757308535E+04  0.46999998093E+01 0. -1.
       -5    1    3    3    0  502  0.80885024779E+03 -0.62877096964E+03  0.99581590115E+03  0.14287277748E+04  0.46999998093E+01 0.  1.
</event>
<event>
 5   0  0.3522569E-07  0.2798744E+04  0.7818609E-02  0.8303659E-01
       -2   -1    0    0    0  501  0.00000000000E+00  0.00000000000E+00  0.11518614357E+04  0.11518614357E+04  0.25500000920E-02 0. -1.
        2   -1    0    0  501    0  0.00000000000E+00  0.00000000000E+00 -0.17000668466E+04  0.17000668466E+04  0.25500000920E-02 0.  1.
    10030    2    1    2    0    0  0.00000000000E+00  0.00000000000E+00 -0.54820541085E+03  0.28519282823E+04  0.27987436029E+04 0.  0.
        1    1    3    3  502    0  0.72798997765E+03  0.11648101492E+04 -0.54655856501E+03  0.14783363475E+04  0.50400001928E-02 0.  1.
       -1    1    3    3    0  502 -0.72798997765E+03 -0.11648101492E+04 -0.16468458373E+01  0.13735919348E+04  0.50400001928E-02 0. -1.
</event>
<event>
 5   0  0.3406920E-07  0.2800921E+04  0.7818609E-02  0.8302983E-01
        2   -1    0    0  501    0  0.00000000000E+00  0.00000000000E+00  0.25478843034E+04  0.25478843034E+04  0.25500000920E-02 0. -1.
       -2   -1    0    0    0  501  0.00000000000E+00  0.00000000000E+00 -0.76977171474E+03  0.76977171474E+03  0.25500000920E-02 0.  1.
    10030    2    1    2    0    0  0.00000000000E+00  0.00000000000E+00  0.17781125887E+04  0.33176560182E+04  0.28009207552E+04 0.  0.
        4    1    3    3  502    0  0.10241757079E+04  0.23569623736E+03  0.19854588121E+04  0.22464498446E+04  0.12699999809E+01 0. -1.
       -4    1    3    3    0  502 -0.10241757079E+04 -0.23569623736E+03 -0.20734622339E+03  0.10712061736E+04  0.12699999809E+01 0.  1.
</event>
<event>
 5   0  0.1374680E-07  0.2800310E+04  0.7818609E-02  0.8303172E-01
        1   -1    0    0  501    0  0.00000000000E+00  0.00000000000E+00  0.13711690893E+04  0.13711690893E+04  0.50400001928E-02 0. -1.
       -1   -1    0    0    0  501  0.00000000000E+00  0.00000000000E+00 -0.14297540201E+04  0.14297540201E+04  0.50400001928E-02 0.  1.
    10030    2    1    2    0    0  0.00000000000E+00  0.00000000000E+00 -0.58584930866E+02  0.28009231094E+04  0.28003103526E+04 0.  0.
        3    1    3    3  502    0 -0.19354954244E+03 -0.99396240814E+03  0.93787921111E+03  0.13802319077E+04  0.10100000352E+00 0. -1.
       -3    1    3    3    0  502  0.19354954244E+03  0.99396240814E+03 -0.99646414198E+03  0.14206912017E+04  0.10100000352E+00 0.  1.
</event>
<event>
 5   0  0.1357902E-07  0.2800794E+04  0.7818609E-02  0.8303022E-01
        1   -1    0    0  501    0  0.00000000000E+00  0.00000000000E+00  0.14111626431E+04  0.14111626431E+04  0.50400001928E-02 0. -1.
       -1   -1    0    0    0  501  0.00000000000E+00  0.00000000000E+00 -0.13897139765E+04  0.13897139765E+04  0.50400001928E-02 0.  1.
    10030    2    1    2    0    0  0.00000000000E+00  0.00000000000E+00  0.21448666586E+02  0.28008766197E+04  0.28007944932E+04 0.  0.
        4    1    3    3  502    0 -0.67843684755E+03  0.30371540820E+03 -0.11761513292E+04  0.13913494052E+04  0.12699999809E+01 0.  1.
       -4    1    3    3    0  502  0.67843684755E+03 -0.30371540820E+03  0.11975999958E+04  0.14095272144E+04  0.12699999809E+01 0. -1.
</event>
<event>
 5   0  0.3522569E-07  0.2809520E+04  0.7818609E-02  0.8300319E-01
       -2   -1    0    0    0  501  0.00000000000E+00  0.00000000000E+00  0.10509692380E+04  0.10509692380E+04  0.25500000920E-02 0. -1.
        2   -1    0    0  501    0  0.00000000000E+00  0.00000000000E+00 -0.18776480323E+04  0.18776480323E+04  0.25500000920E-02 0.  1.
    10030    2    1    2    0    0  0.00000000000E+00  0.00000000000E+00 -0.82667879422E+03  0.29286172703E+04  0.28095197609E+04 0.  0.
        1    1    3    3  502    0  0.36456202693E+03 -0.50068700052E+03  0.90096497501E+03  0.10933118632E+04  0.50400001928E-02 0. -1.
       -1    1    3    3    0  502 -0.36456202693E+03  0.50068700052E+03 -0.17276437692E+04  0.18353054071E+04  0.50400001928E-02 0.  1.
</event>
<event>
 5   0  0.1346049E-07  0.2801580E+04  0.7818609E-02  0.8302778E-01
       -1   -1    0    0    0  501  0.00000000000E+00  0.00000000000E+00  0.91762907076E+03  0.91762907078E+03  0.50400001928E-02 0. -1.
        1   -1    0    0  501    0  0.00000000000E+00  0.00000000000E+00 -0.21383512092E+04  0.21383512092E+04  0.50400001928E-02 0.  1.
    10030    2    1    2    0    0  0.00000000000E+00  0.00000000000E+00 -0.12207221384E+04  0.30559802800E+04  0.28015804348E+04 0.  0.
        1    1    3    3  502    0 -0.12824323007E+04  0.37481209151E+03 -0.15131902024E+03  0.13446241689E+04  0.50400001928E-02 0. -1.
       -1    1    3    3    0  502  0.12824323007E+04 -0.37481209151E+03 -0.10694031182E+04  0.17113561111E+04  0.50400001928E-02 0.  1.
</event>
<event>
 5   0  0.3406920E-07  0.2799036E+04  0.7818609E-02  0.8303568E-01
       -2   -1    0    0    0  501  0.00000000000E+00  0.00000000000E+00  0.94036023570E+03  0.94036023570E+03  0.25500000920E-02 0. -1.
        2   -1    0    0  501    0  0.00000000000E+00  0.00000000000E+00 -0.20828725569E+04  0.20828725569E+04  0.25500000920E-02 0.  1.
    10030    2    1    2    0    0  0.00000000000E+00  0.00000000000E+00 -0.11425123212E+04  0.30232327926E+04  0.27990359258E+04 0.  0.
        4    1    3    3  502    0  0.22468386446E+03 -0.76846346895E+03 -0.18110796205E+04  0.19801590710E+04  0.12699999809E+01 0.  1.
       -4    1    3    3    0  502 -0.22468386446E+03  0.76846346895E+03  0.66856729927E+03  0.10430737216E+04  0.12699999809E+01 0. -1.
</event>
<event>
 5   0  0.3557628E-07  0.2800578E+04  0.7818609E-02  0.8303089E-01
       -2   -1    0    0    0  501  0.00000000000E+00  0.00000000000E+00  0.96914488672E+03  0.96914488673E+03  0.25500000920E-02 0.  1.
        2   -1    0    0  501    0  0.00000000000E+00  0.00000000000E+00 -0.20232369300E+04  0.20232369300E+04  0.25500000920E-02 0. -1.
    10030    2    1    2    0    0  0.00000000000E+00  0.00000000000E+00 -0.10540920433E+04  0.29923818168E+04  0.28005783155E+04 0.  0.
        5    1    3    3  502    0 -0.18983831692E+03 -0.16162903297E+03 -0.19993208765E+04  0.20148122960E+04  0.46999998093E+01 0. -1.
       -5    1    3    3    0  502  0.18983831692E+03  0.16162903297E+03  0.94522883318E+03  0.97756952078E+03  0.46999998093E+01 0.  1.
</event>
<event>
 5   0  0.3557628E-07  0.2801544E+04  0.7818609E-02  0.8302789E-01
       -2   -1    0    0    0  501  0.00000000000E+00  0.00000000000E+00  0.81805881652E+03  0.81805881652E+03  0.25500000920E-02 0.  1.
        2   -1    0    0  501    0  0.00000000000E+00  0.00000000000E+00 -0.23985590930E+04  0.23985590930E+04  0.25500000920E-02 0. -1.
    10030    2    1    2    0    0  0.00000000000E+00  0.00000000000E+00 -0.15805002765E+04  0.32166179095E+04  0.28015441549E+04 0.  0.
        5    1    3    3  502    0  0.22175283187E+03 -0.45019496056E+03 -0.22917902762E+04  0.23460977347E+04  0.46999998093E+01 0. -1.
       -5    1    3    3    0  502 -0.22175283187E+03  0.45019496056E+03  0.71128999972E+03  0.87052017476E+03  0.46999998093E+01 0.  1.
</event>
<event>
 5   0  0.1357902E-07  0.2804476E+04  0.7818609E-02  0.8301880E-01
       -1   -1    0    0    0  501  0.00000000000E+00  0.00000000000E+00  0.15086392703E+04  0.15086392703E+04  0.50400001928E-02 0. -1.
        1   -1    0    0  501    0  0.00000000000E+00  0.00000000000E+00 -0.13033412755E+04  0.13033412756E+04  0.50400001928E-02 0.  1.
    10030    2    1    2    0    0  0.00000000000E+00  0.00000000000E+00  0.20529799479E+03  0.28119805459E+04  0.28044763012E+04 0.  0.
        4    1    3    3  502    0  0.13745873848E+04 -0.15293769038E+03 -0.12903161598E+03  0.13890756590E+04  0.12699999809E+01 0. -1.
       -4    1    3    3    0  502 -0.13745873848E+04  0.15293769038E+03  0.33432961078E+03  0.14229048869E+04  0.12699999809E+01 0.  1.
</event>
<event>
 5   0  0.1357902E-07  0.2799930E+04  0.7818609E-02  0.8303290E-01
       -1   -1    0    0    0  501  0.00000000000E+00  0.00000000000E+00  0.11930829449E+04  0.11930829449E+04  0.50400001928E-02 0. -1.
        1   -1    0    0  501    0  0.00000000000E+00  0.00000000000E+00 -0.16427207145E+04  0.16427207145E+04  0.50400001928E-02 0.  1.
    10030    2    1    2    0    0  0.00000000000E+00  0.00000000000E+00 -0.44963776964E+03  0.28358036594E+04  0.27999300475E+04 0.  0.
        4    1    3    3  502    0  0.69845417595E+03 -0.70341247853E+03  0.77641825432E+03  0.12591482317E+04  0.12699999809E+01 0. -1.
       -4    1    3    3    0  502 -0.69845417595E+03  0.70341247853E+03 -0.12260560240E+04  0.15766554277E+04  0.12699999809E+01 0.  1.
</event>
<event>
 5   0  0.1346049E-07  0.2799629E+04  0.7818609E-02  0.8303383E-01
       -1   -1    0    0    0  501  0.00000000000E+00  0.00000000000E+00  0.85684351129E+03  0.85684351131E+03  0.50400001928E-02 0. -1.
        1   -1    0    0  501    0  0.00000000000E+00  0.00000000000E+00 -0.22868601700E+04  0.22868601700E+04  0.50400001928E-02 0.  1.
    10030    2    1    2    0    0  0.00000000000E+00  0.00000000000E+00 -0.14300166587E+04  0.31437036813E+04  0.27996294740E+04 0.  0.
        1    1    3    3  502    0 -0.46474966429E+02 -0.67225382411E+03  0.66272907787E+03  0.94514282372E+03  0.50400001928E-02 0. -1.
       -1    1    3    3    0  502  0.46474966429E+02  0.67225382411E+03 -0.20927457366E+04  0.21985608576E+04  0.50400001928E-02 0.  1.
</event>
<event>
 5   0  0.3557628E-07  0.2800264E+04  0.7818609E-02  0.8303186E-01
       -2   -1    0    0    0  501  0.00000000000E+00  0.00000000000E+00  0.13100560202E+04  0.13100560202E+04  0.25500000920E-02 0. -1.
        2   -1    0    0  501    0  0.00000000000E+00  0.00000000000E+00 -0.14964013043E+04  0.14964013043E+04  0.25500000920E-02 0.  1.
    10030    2    1    2    0    0  0.00000000000E+00  0.00000000000E+00 -0.18634528405E+03  0.28064573245E+04  0.28002639428E+04 0.  0.
        5    1    3    3  502    0  0.45580809060E+03  0.13135742177E+04 -0.25818553425E+03  0.14141853135E+04  0.46999998093E+01 0.  1.
       -5    1    3    3    0  502 -0.45580809060E+03 -0.13135742177E+04  0.71840250202E+02  0.13922720110E+04  0.46999998093E+01 0. -1.
</event>
<event>
 5   0  0.3406920E-07  0.2799698E+04  0.7818609E-02  0.8303362E-01
        2   -1    0    0  501    0  0.00000000000E+00  0.00000000000E+00  0.12537011705E+04  0.12537011705E+04  0.25500000920E-02 0.  1.
       -2   -1    0    0    0  501  0.00000000000E+00  0.00000000000E+00 -0.15630335005E+04  0.15630335005E+04  0.25500000920E-02 0. -1.
    10030    2    1    2    0    0  0.00000000000E+00  0.00000000000E+00 -0.30933232998E+03  0.28167346710E+04  0.27996977902E+04 0.  0.
        4    1    3    3  502    0  0.67614578129E+03 -0.12081867729E+04  0.53199231227E+02  0.13855396663E+04  0.12699999809E+01 0.  1.
       -4    1    3    3    0  502 -0.67614578129E+03  0.12081867729E+04 -0.36253156121E+03  0.14311950047E+04  0.12699999809E+01 0. -1.
</event>
<event>
 5   0  0.3522569E-07  0.2800039E+04  0.7818609E-02  0.8303256E-01
       -2   -1    0    0    0  501  0.00000000000E+00  0.00000000000E+00  0.10843908971E+04  0.10843908971E+04  0.25500000920E-02 0.  1.
        2   -1    0    0  501    0  0.00000000000E+00  0.00000000000E+00 -0.18075162707E+04  0.18075162707E+04  0.25500000920E-02 0. -1.
    10030    2    1    2    0    0  0.00000000000E+00  0.00000000000E+00 -0.72312537358E+03  0.28919071679E+04  0.28000387072E+04 0.  0.
        1    1    3    3  502    0 -0.12786754597E+04  0.35383364393E+02  0.22613351613E+03  0.12989993383E+04  0.50400001928E-02 0.  1.
       -1    1    3    3    0  502  0.12786754597E+04 -0.35383364393E+02 -0.94925888970E+03  0.15929078296E+04  0.50400001928E-02 0. -1.
</event>
<event>
 5   0  0.3522569E-07  0.2802366E+04  0.7818609E-02  0.8302534E-01
        2   -1    0    0  501    0  0.00000000000E+00  0.00000000000E+00  0.23322744464E+04  0.23322744464E+04  0.25500000920E-02 0. -1.
       -2   -1    0    0    0  501  0.00000000000E+00  0.00000000000E+00 -0.84180201760E+03  0.84180201761E+03  0.25500000920E-02 0.  1.
    10030    2    1    2    0    0  0.00000000000E+00  0.00000000000E+00  0.14904724288E+04  0.31740764640E+04  0.28023656682E+04 0.  0.
        1    1    3    3  502    0 -0.39843705420E+03  0.39734219738E+03  0.21986766642E+04  0.22695400375E+04  0.50400001928E-02 0. -1.
       -1    1    3    3    0  502  0.39843705420E+03 -0.39734219738E+03 -0.70820423536E+03  0.90453642657E+03  0.50400001928E-02 0.  1.
</event>
<event>
 5   0  0.1366235E-07  0.2799245E+04  0.7818609E-02  0.8303503E-01
        1   -1    0    0  501    0  0.00000000000E+00  0.00000000000E+00  0.30199821175E+04  0.30199821175E+04  0.50400001928E-02 0. -1.
       -1   -1    0    0    0  501  0.00000000000E+00  0.00000000000E+00 -0.64866041697E+03  0.64866041699E+03  0.50400001928E-02 0.  1.
    10030    2    1    2    0    0  0.00000000000E+00  0.00000000000E+00  0.23713217006E+04  0.36686425345E+04  0.27992447979E+04 0.  0.
        2    1    3    3  502    0  0.55748971721E+03 -0.54627463785E+03  0.27082695423E+04  0.28184986568E+04  0.25500000920E-02 0. -1.
       -2    1    3    3    0  502 -0.55748971721E+03  0.54627463785E+03 -0.33694784173E+03  0.85014387771E+03  0.25500000920E-02 0.  1.
</event>
<event>
 5   0  0.1361741E-07  0.2786742E+04  0.7818609E-02  0.8307396E-01
        1   -1    0    0  501    0  0.00000000000E+00  0.00000000000E+00  0.25592811286E+04  0.25592811286E+04  0.50400001928E-02 0. -1.
       -1   -1    0    0    0  501  0.00000000000E+00  0.00000000000E+00 -0.75860470955E+03  0.75860470956E+03  0.50400001928E-02 0.  1.
    10030    2    1    2    0    0  0.00000000000E+00  0.00000000000E+00  0.18006764190E+04  0.33178858382E+04  0.27867419810E+04 0.  0.
        5    1    3    3  502    0 -0.25723036896E+03  0.58093212676E+03  0.23767794387E+04  0.24602341735E+04  0.46999998093E+01 0. -1.
       -5    1    3    3    0  502  0.25723036896E+03 -0.58093212676E+03 -0.57610301961E+03  0.85765166462E+03  0.46999998093E+01 0.  1.
</event>
<event>
 5   0  0.3557628E-07  0.2808440E+04  0.7818609E-02  0.8300653E-01
       -2   -1    0    0    0  501  0.00000000000E+00  0.00000000000E+00  0.15997011293E+04  0.15997011293E+04  0.25500000920E-02 0. -1.
        2   -1    0    0  501    0  0.00000000000E+00  0.00000000000E+00 -0.12326260258E+04  0.12326260258E+04  0.25500000920E-02 0.  1.
    10030    2    1    2    0    0  0.00000000000E+00  0.00000000000E+00  0.36707510348E+03  0.28323271550E+04  0.28084395991E+04 0.  0.
        5    1    3    3  502    0  0.11652896511E+04 -0.77336200952E+03  0.56680584081E+02  0.13997226680E+04  0.46999998093E+01 0.  1.
       -5    1    3    3    0  502 -0.11652896511E+04  0.77336200952E+03  0.31039451940E+03  0.14326044871E+04  0.46999998093E+01 0. -1.
</event>
<event>
 5   0  0.1357902E-07  0.2800915E+04  0.7818609E-02  0.8302984E-01
       -1   -1    0    0    0  501  0.00000000000E+00  0.00000000000E+00  0.17390825411E+04  0.17390825411E+04  0.50400001928E-02 0.  1.
        1   -1    0    0  501    0  0.00000000000E+00  0.00000000000E+00 -0.11277680026E+04  0.11277680026E+04  0.50400001928E-02 0. -1.
    10030    2    1    2    0    0  0.00000000000E+00  0.00000000000E+00  0.61131453851E+03  0.28668505437E+04  0.28009153102E+04 0.  0.
        4    1    3    3  502    0  0.42525004381E+03 -0.58955403129E+03 -0.91954625976E+03  0.11721682867E+04  0.12699999809E+01 0. -1.
       -4    1    3    3    0  502 -0.42525004381E+03  0.58955403129E+03  0.15308607983E+04  0.16946822570E+04  0.12699999809E+01 0.  1.
</event>
<event>
 5   0  0.3571498E-07  0.2794921E+04  0.7818609E-02  0.8304847E-01
       -2   -1    0    0    0  501  0.00000000000E+00  0.00000000000E+00  0.11009609036E+04  0.11009609036E+04  0.25500000920E-02 0. -1.
        2   -1    0    0  501    0  0.00000000000E+00  0.00000000000E+00 -0.17738097840E+04  0.17738097840E+04  0.25500000920E-02 0.  1.
    10030    2    1    2    0    0  0.00000000000E+00  0.00000000000E+00 -0.67284888037E+03  0.28747706876E+04  0.27949205517E+04 0.  0.
        2    1    3    3  502    0 -0.75571106742E+03 -0.38928463682E+03  0.80443211281E+03  0.11703643749E+04  0.25500000920E-02 0. -1.
       -2    1    3    3    0  502  0.75571106742E+03  0.38928463682E+03 -0.14772809932E+04  0.17044063127E+04  0.25500000920E-02 0.  1.
</event>
<event>
 5   0  0.1346049E-07  0.2796459E+04  0.7818609E-02  0.8304369E-01
        1   -1    0    0  501    0  0.00000000000E+00  0.00000000000E+00  0.18925685082E+04  0.18925685083E+04  0.50400001928E-02 0. -1.
       -1   -1    0    0    0  501  0.00000000000E+00  0.00000000000E+00 -0.10330117042E+04  0.10330117042E+04  0.50400001928E-02 0.  1.
    10030    2    1    2    0    0  0.00000000000E+00  0.00000000000E+00  0.85955680402E+03  0.29255802125E+04  0.27964587750E+04 0.  0.
        1    1    3    3  502    0  0.66529448394E+03 -0.15068149036E+03  0.17066771482E+04  0.18379522709E+04  0.50400001928E-02 0. -1.
       -1    1    3    3    0  502 -0.66529448394E+03  0.15068149036E+03 -0.84712034414E+03  0.10876279416E+04  0.50400001928E-02 0.  1.
</event>
<event>
 5   0  0.3502141E-07  0.2801098E+04  0.7818609E-02  0.8302928E-01
       -2   -1    0    0    0  501  0.00000000000E+00  0.00000000000E+00  0.94535827617E+03  0.94535827617E+03  0.25500000920E-02 0.  1.
        2   -1    0    0  501    0  0.00000000000E+00  0.00000000000E+00 -0.20749138739E+04  0.20749138739E+04  0.25500000920E-02 0. -1.
    10030    2    1    2    0    0  0.00000000000E+00  0.00000000000E+00 -0.11295555977E+04  0.30202721500E+04  0.28010976441E+04 0.  0.
        3    1    3    3  502    0  0.17450238249E+03  0.12620820220E+03  0.92739825533E+03  0.95207516825E+03  0.10100000352E+00 0.  1.
       -3    1    3    3    0  502 -0.17450238249E+03 -0.12620820220E+03 -0.20569538530E+04  0.20681969818E+04  0.10100000352E+00 0. -1.
</event>
<event>
 5   0  0.3557628E-07  0.2800031E+04  0.7818609E-02  0.8303259E-01
        2   -1    0    0  501    0  0.00000000000E+00  0.00000000000E+00  0.13827156092E+04  0.13827156092E+04  0.25500000920E-02 0.  1.
       -2   -1    0    0    0  501  0.00000000000E+00  0.00000000000E+00 -0.14175320050E+04  0.14175320050E+04  0.25500000920E-02 0. -1.
    10030    2    1    2    0    0  0.00000000000E+00  0.00000000000E+00 -0.34816395755E+02  0.28002476142E+04  0.28000311640E+04 0.  0.
        5    1    3    3  502    0 -0.10868413036E+03  0.35020633254E+03  0.13338308919E+04  0.13833234089E+04  0.46999998093E+01 0.  1.
       -5    1    3    3    0  502  0.10868413036E+03 -0.35020633254E+03 -0.13686472876E+04  0.14169242053E+04  0.46999998093E+01 0. -1.
</event>
<event>
 5   0  0.1346049E-07  0.2805041E+04  0.7818609E-02  0.8301705E-01
        1   -1    0    0  501    0  0.00000000000E+00  0.00000000000E+00  0.18979863319E+04  0.18979863319E+04  0.50400001928E-02 0.  1.
       -1   -1    0    0    0  501  0.00000000000E+00  0.00000000000E+00 -0.10363948857E+04  0.10363948857E+04  0.50400001928E-02 0. -1.
    10030    2    1    2    0    0  0.00000000000E+00  0.00000000000E+00  0.86159144622E+03  0.29343812176E+04  0.28050406967E+04 0.  0.
        1    1    3    3  502    0 -0.10865660202E+04 -0.49404159928E+03 -0.33961336553E+03  0.12409835036E+04  0.50400001928E-02 0. -1.
       -1    1    3    3    0  502  0.10865660202E+04  0.49404159928E+03  0.12012048118E+04  0.16933977140E+04  0.50400001928E-02 0.  1.
</event>
<event>
 5   0  0.1357902E-07  0.2800217E+04  0.7818609E-02  0.8303201E-01
       -1   -1    0    0    0  501  0.00000000000E+00  0.00000000000E+00  0.15415249079E+04  0.15415249079E+04  0.50400001928E-02 0.  1.
        1   -1    0    0  501    0  0.00000000000E+00  0.00000000000E+00 -0.12716649088E+04  0.12716649088E+04  0.50400001928E-02 0. -1.
    10030    2    1    2    0    0  0.00000000000E+00  0.00000000000E+00  0.26985999915E+03  0.28131898167E+04  0.28002165140E+04 0.  0.
        4    1    3    3  502    0 -0.86859539657E+03 -0.34169381756E+03  0.11833591515E+04  0.15071672509E+04  0.12699999809E+01 0.  1.
       -4    1    3    3    0  502  0.86859539657E+03  0.34169381756E+03 -0.91349915237E+03  0.13060225657E+04  0.12699999809E+01 0. -1.
</event>
<event>
 5   0  0.1173363E-07  0.2798353E+04  0.7818609E-02  0.8303780E-01
       -3   -1    0    0    0  501  0.00000000000E+00  0.00000000000E+00  0.17415064966E+04  0.17415064995E+04  0.10100000352E+00 0. -1.
        3   -1    0    0  501    0  0.00000000000E+00  0.00000000000E+00 -0.11241389203E+04  0.11241389249E+04  0.10100000352E+00 0.  1.
    10030    2    1    2    0    0  0.00000000000E+00  0.00000000000E+00  0.61736757628E+03  0.28656454244E+04  0.27983532611E+04 0.  0.
        4    1    3    3  502    0  0.39707538969E+03  0.56275252016E+03  0.15558933841E+04  0.17015184687E+04  0.12699999809E+01 0. -1.
       -4    1    3    3    0  502 -0.39707538969E+03 -0.56275252016E+03 -0.93852580778E+03  0.11641269556E+04  0.12699999809E+01 0.  1.
</event>
<event>
 5   0  0.1361741E-07  0.2799917E+04  0.7818609E-02  0.8303294E-01
       -1   -1    0    0    0  501  0.00000000000E+00  0.00000000000E+00  0.94970545820E+03  0.94970545821E+03  0.50400001928E-02 0.  1.
        1   -1    0    0  501    0  0.00000000000E+00  0.00000000000E+00 -0.20636748185E+04  0.20636748185E+04  0.50400001928E-02 0. -1.
    10030    2    1    2    0    0  0.00000000000E+00  0.00000000000E+00 -0.11139693603E+04  0.30133802767E+04  0.27999165981E+04 0.  0.
        5    1    3    3  502    0  0.13289413587E+03 -0.13845627272E+04 -0.72778610237E+03  0.15698310411E+04  0.46999998093E+01 0.  1.
       -5    1    3    3    0  502 -0.13289413587E+03  0.13845627272E+04 -0.38618325791E+03  0.14435492356E+04  0.46999998093E+01 0. -1.
</event>
<event>
 5   0  0.3557628E-07  0.2799159E+04  0.7818609E-02  0.8303530E-01
       -2   -1    0    0    0  501  0.00000000000E+00  0.00000000000E+00  0.14087871952E+04  0.14087871952E+04  0.25500000920E-02 0.  1.
        2   -1    0    0  501    0  0.00000000000E+00  0.00000000000E+00 -0.13904318623E+04  0.13904318623E+04  0.25500000920E-02 0. -1.
    10030    2    1    2    0    0  0.00000000000E+00  0.00000000000E+00  0.18355332865E+02  0.27992190575E+04  0.27991588761E+04 0.  0.
        5    1    3    3  502    0  0.44636218512E+03 -0.96684981344E+03  0.91736168756E+03  0.14055647683E+04  0.46999998093E+01 0.  1.
       -5    1    3    3    0  502 -0.44636218512E+03  0.96684981344E+03 -0.89900635469E+03  0.13936542892E+04  0.46999998093E+01 0. -1.
</event>
<event>
 5   0  0.3557628E-07  0.2801277E+04  0.7818609E-02  0.8302872E-01
        2   -1    0    0  501    0  0.00000000000E+00  0.00000000000E+00  0.15859377968E+04  0.15859377968E+04  0.25500000920E-02 0.  1.
       -2   -1    0    0    0  501  0.00000000000E+00  0.00000000000E+00 -0.12369893623E+04  0.12369893623E+04  0.25500000920E-02 0. -1.
    10030    2    1    2    0    0  0.00000000000E+00  0.00000000000E+00  0.34894843447E+03  0.28229271591E+04  0.28012769830E+04 0.  0.
        5    1    3    3  502    0  0.65769213181E+03 -0.12749872887E+03  0.14140014799E+04  0.15646843583E+04  0.46999998093E+01 0.  1.
       -5    1    3    3    0  502 -0.65769213181E+03  0.12749872887E+03 -0.10650530454E+04  0.12582428007E+04  0.46999998093E+01 0. -1.
</event>
<event>
 5   0  0.3502141E-07  0.2800716E+04  0.7818609E-02  0.8303046E-01
       -2   -1    0    0    0  501  0.00000000000E+00  0.00000000000E+00  0.20310268577E+04  0.20310268577E+04  0.25500000920E-02 0. -1.
        2   -1    0    0  501    0  0.00000000000E+00  0.00000000000E+00 -0.96552247764E+03  0.96552247765E+03  0.25500000920E-02 0.  1.
    10030    2    1    2    0    0  0.00000000000E+00  0.00000000000E+00  0.10655043800E+04  0.29965493353E+04  0.28007156827E+04 0.  0.
        3    1    3    3  502    0  0.11174675266E+04 -0.83862061289E+03  0.63416296391E+03  0.15343340185E+04  0.10100000352E+00 0.  1.
       -3    1    3    3    0  502 -0.11174675266E+04  0.83862061289E+03  0.43134141610E+03  0.14622153168E+04  0.10100000352E+00 0. -1.
</event>
<event>
 5   0  0.3557628E-07  0.2799527E+04  0.7818609E-02  0.8303415E-01
        2   -1    0    0  501    0  0.00000000000E+00  0.00000000000E+00  0.19849869552E+04  0.19849869552E+04  0.25500000920E-02 0.  1.
       -2   -1    0    0    0  501  0.00000000000E+00  0.00000000000E+00 -0.98707867945E+03  0.98707867946E+03  0.25500000920E-02 0. -1.
    10030    2    1    2    0    0  0.00000000000E+00  0.00000000000E+00  0.99790827577E+03  0.29720656347E+04  0.27995273190E+04 0.  0.
        5    1    3    3  502    0  0.31535231302E+03 -0.13067302599E+04  0.84611614717E+02  0.13469121236E+04  0.46999998093E+01 0. -1.
       -5    1    3    3    0  502 -0.31535231302E+03  0.13067302599E+04  0.91329666105E+03  0.16251535111E+04  0.46999998093E+01 0.  1.
</event>
<event>
 5   0  0.1366235E-07  0.2803481E+04  0.7818609E-02  0.8302188E-01
       -1   -1    0    0    0  501  0.00000000000E+00  0.00000000000E+00  0.20393715662E+04  0.20393715662E+04  0.50400001928E-02 0. -1.
        1   -1    0    0  501    0  0.00000000000E+00  0.00000000000E+00 -0.96347160417E+03  0.96347160419E+03  0.50400001928E-02 0.  1.
    10030    2    1    2    0    0  0.00000000000E+00  0.00000000000E+00  0.10758999620E+04  0.30028431704E+04  0.28034811178E+04 0.  0.
        2    1    3    3  502    0  0.12677360153E+04  0.12892010431E+03 -0.87621428123E+02  0.12772832546E+04  0.25500000920E-02 0. -1.
       -2    1    3    3    0  502 -0.12677360153E+04 -0.12892010431E+03  0.11635213902E+04  0.17255599158E+04  0.25500000920E-02 0.  1.
</event>
<event>
 5   0  0.3502141E-07  0.2799637E+04  0.7818609E-02  0.8303381E-01
        2   -1    0    0  501    0  0.00000000000E+00  0.00000000000E+00  0.13709782038E+04  0.13709782038E+04  0.25500000920E-02 0. -1.
       -2   -1    0    0    0  501  0.00000000000E+00  0.00000000000E+00 -0.14292655531E+04  0.14292655531E+04  0.25500000920E-02 0.  1.
    10030    2    1    2    0    0  0.00000000000E+00  0.00000000000E+00 -0.58287349276E+02  0.28002437570E+04  0.27996370628E+04 0.  0.
        3    1    3    3  502    0 -0.80701206841E+03 -0.65951605473E+03 -0.96383106965E+03  0.14195774886E+04  0.10100000352E+00 0.  1.
       -3    1    3    3    0  502  0.80701206841E+03  0.65951605473E+03  0.90554372037E+03  0.13806662684E+04  0.10100000352E+00 0. -1.
</event>
<event>
 5   0  0.3406920E-07  0.2799099E+04  0.7818609E-02  0.8303548E-01
       -2   -1    0    0    0  501  0.00000000000E+00  0.00000000000E+00  0.13406061294E+04  0.13406061294E+04  0.25500000920E-02 0.  1.
        2   -1    0    0  501    0  0.00000000000E+00  0.00000000000E+00 -0.14610846843E+04  0.14610846843E+04  0.25500000920E-02 0. -1.
    10030    2    1    2    0    0  0.00000000000E+00  0.00000000000E+00 -0.12047855496E+03  0.28016908137E+04  0.27990992003E+04 0.  0.
        4    1    3    3  502    0  0.56217879059E+03 -0.50835039306E+03  0.11174011032E+04  0.13502044116E+04  0.12699999809E+01 0.  1.
       -4    1    3    3    0  502 -0.56217879059E+03  0.50835039306E+03 -0.12378796581E+04  0.14514864021E+04  0.12699999809E+01 0. -1.
</event>
<event>
 5   0  0.3502141E-07  0.2798550E+04  0.7818609E-02  0.8303719E-01
        2   -1    0    0  501    0  0.00000000000E+00  0.00000000000E+00  0.21941959656E+04  0.21941959656E+04  0.25500000920E-02 0. -1.
       -2   -1    0    0    0  501  0.00000000000E+00  0.00000000000E+00 -0.89234095765E+03  0.89234095766E+03  0.25500000920E-02 0.  1.
    10030    2    1    2    0    0  0.00000000000E+00  0.00000000000E+00  0.13018550079E+04  0.30865369232E+04  0.27985502884E+04 0.  0.
        3    1    3    3  502    0 -0.66286250053E+03  0.12254037296E+04  0.79460154559E+03  0.16038680187E+04  0.10100000352E+00 0. -1.
       -3    1    3    3    0  502  0.66286250053E+03 -0.12254037296E+04  0.50725346231E+03  0.14826689045E+04  0.10100000352E+00 0.  1.
</event>
<event>
 5   0  0.1366235E-07  0.2799752E+04  0.7818609E-02  0.8303345E-01
        1   -1    0    0  501    0  0.00000000000E+00  0.00000000000E+00  0.17430502820E+04  0.17430502820E+04  0.50400001928E-02 0.  1.
       -1   -1    0    0    0  501  0.00000000000E+00  0.00000000000E+00 -0.11242664655E+04  0.11242664655E+04  0.50400001928E-02 0. -1.
    10030    2    1    2    0    0  0.00000000000E+00  0.00000000000E+00  0.61878381646E+03  0.28673167475E+04  0.27997521174E+04 0.  0.
        2    1    3    3  502    0 -0.81092358412E+03  0.65472648962E+03  0.12664977883E+04  0.16402074513E+04  0.25500000920E-02 0.  1.
       -2    1    3    3    0  502  0.81092358412E+03 -0.65472648962E+03 -0.64771397183E+03  0.12271092962E+04  0.25500000920E-02 0. -1.
</event>
<event>
 5   0  0.3571498E-07  0.2800421E+04  0.7818609E-02  0.8303138E-01
       -2   -1    0    0    0  501  0.00000000000E+00  0.00000000000E+00  0.10181892975E+04  0.10181892975E+04  0.25500000920E-02 0.  1.
        2   -1    0    0  501    0  0.00000000000E+00  0.00000000000E+00 -0.19255649780E+04  0.19255649780E+04  0.25500000920E-02 0. -1.
    10030    2    1    2    0    0  0.00000000000E+00  0.00000000000E+00 -0.90737568054E+03  0.29437542755E+04  0.28004211485E+04 0.  0.
        2    1    3    3  502    0 -0.93639379597E+03  0.71803524874E+03  0.33867084847E+03  0.12276424167E+04  0.25500000920E-02 0.  1.
       -2    1    3    3    0  502  0.93639379597E+03 -0.71803524874E+03 -0.12460465290E+04  0.17161118588E+04  0.25500000920E-02 0. -1.
</event>
<event>
 5   0  0.1357902E-07  0.2800330E+04  0.7818609E-02  0.8303166E-01
       -1   -1    0    0    0  501  0.00000000000E+00  0.00000000000E+00  0.86625563673E+03  0.86625563675E+03  0.50400001928E-02 0. -1.
        1   -1    0    0  501    0  0.00000000000E+00  0.00000000000E+00 -0.22631455757E+04  0.22631455757E+04  0.50400001928E-02 0.  1.
    10030    2    1    2    0    0  0.00000000000E+00  0.00000000000E+00 -0.13968899389E+04  0.31294012124E+04  0.28003304174E+04 0.  0.
        4    1    3    3  502    0  0.44701394635E+03  0.75532988528E+03 -0.19175655686E+04  0.21088869165E+04  0.12699999809E+01 0.  1.
       -4    1    3    3    0  502 -0.44701394635E+03 -0.75532988528E+03  0.52067562970E+03  0.10205142959E+04  0.12699999809E+01 0. -1.
</event>
<event>
 5   0  0.1357902E-07  0.2798620E+04  0.7818609E-02  0.8303697E-01
       -1   -1    0    0    0  501  0.00000000000E+00  0.00000000000E+00  0.11145105000E+04  0.11145105001E+04  0.50400001928E-02 0. -1.
        1   -1    0    0  501    0  0.00000000000E+00  0.00000000000E+00 -0.17568862060E+04  0.17568862060E+04  0.50400001928E-02 0.  1.
    10030    2    1    2    0    0  0.00000000000E+00  0.00000000000E+00 -0.64237570593E+03  0.28713967060E+04  0.27986197484E+04 0.  0.
        4    1    3    3  502    0  0.51348871735E+03 -0.10427759769E+04  0.47818371398E+03  0.12568666111E+04  0.12699999809E+01 0. -1.
       -4    1    3    3    0  502 -0.51348871735E+03  0.10427759769E+04 -0.11205594199E+04  0.16145300949E+04  0.12699999809E+01 0.  1.
</event>
<event>
 5   0  0.3406920E-07  0.2795585E+04  0.7818609E-02  0.8304640E-01
        2   -1    0    0  501    0  0.00000000000E+00  0.00000000000E+00  0.21153694502E+04  0.21153694502E+04  0.25500000920E-02 0. -1.
       -2   -1    0    0    0  501  0.00000000000E+00  0.00000000000E+00 -0.92363255544E+03  0.92363255545E+03  0.25500000920E-02 0.  1.
    10030    2    1    2    0    0  0.00000000000E+00  0.00000000000E+00  0.11917368947E+04  0.30390020056E+04  0.27955851559E+04 0.  0.
        4    1    3    3  502    0  0.59845031109E+03 -0.10442158784E+04 -0.17686526532E+03  0.12164754459E+04  0.12699999809E+01 0.  1.
       -4    1    3    3    0  502 -0.59845031109E+03  0.10442158784E+04  0.13686021600E+04  0.18225265597E+04  0.12699999809E+01 0. -1.
</event>
<event>
 5   0  0.1374680E-07  0.2798035E+04  0.7818609E-02  0.8303879E-01
        1   -1    0    0  501    0  0.00000000000E+00  0.00000000000E+00  0.10783444800E+04  0.10783444800E+04  0.50400001928E-02 0.  1.
       -1   -1    0    0    0  501  0.00000000000E+00  0.00000000000E+00 -0.18150513284E+04  0.18150513284E+04  0.50400001928E-02 0. -1.
    10030    2    1    2    0    0  0.00000000000E+00  0.00000000000E+00 -0.73670684835E+03  0.28933958084E+04  0.27980354401E+04 0.  0.
        3    1    3    3  502    0  0.29434039325E+03  0.41631652314E+03 -0.17155571788E+04  0.17897184579E+04  0.10100000352E+00 0. -1.
       -3    1    3    3    0  502 -0.29434039325E+03 -0.41631652314E+03  0.97885033044E+03  0.11036773506E+04  0.10100000352E+00 0.  1.
</event>
<event>
 5   0  0.1366235E-07  0.2799512E+04  0.7818609E-02  0.8303420E-01
       -1   -1    0    0    0  501  0.00000000000E+00  0.00000000000E+00  0.98303745006E+03  0.98303745007E+03  0.50400001928E-02 0.  1.
        1   -1    0    0  501    0  0.00000000000E+00  0.00000000000E+00 -0.19931256090E+04  0.19931256090E+04  0.50400001928E-02 0. -1.
    10030    2    1    2    0    0  0.00000000000E+00  0.00000000000E+00 -0.10100881590E+04  0.29761630591E+04  0.27995121835E+04 0.  0.
        2    1    3    3  502    0 -0.13206357990E+04 -0.38551858581E+03 -0.77942624929E+03  0.15812048481E+04  0.25500000920E-02 0. -1.
       -2    1    3    3    0  502  0.13206357990E+04  0.38551858581E+03 -0.23066190966E+03  0.13949582109E+04  0.25500000920E-02 0.  1.
</event>
<event>
 5   0  0.3522569E-07  0.2799538E+04  0.7818609E-02  0.8303412E-01
        2   -1    0    0  501    0  0.00000000000E+00  0.00000000000E+00  0.24610202193E+04  0.24610202193E+04  0.25500000920E-02 0. -1.
       -2   -1    0    0    0  501  0.00000000000E+00  0.00000000000E+00 -0.79615487090E+03  0.79615487091E+03  0.25500000920E-02 0.  1.
    10030    2    1    2    0    0  0.00000000000E+00  0.00000000000E+00  0.16648653484E+04  0.32571750903E+04  0.27995379869E+04 0.  0.
        1    1    3    3  502    0 -0.97334556139E+03  0.96457065183E+03  0.11646944110E+04  0.17984190822E+04  0.50400001928E-02 0.  1.
       -1    1    3    3    0  502  0.97334556139E+03 -0.96457065183E+03  0.50017093741E+03  0.14587560080E+04  0.50400001928E-02 0. -1.
</event>
<event>
 5   0  0.3502141E-07  0.2799866E+04  0.7818609E-02  0.8303310E-01
        2   -1    0    0  501    0  0.00000000000E+00  0.00000000000E+00  0.17323575537E+04  0.17323575537E+04  0.25500000920E-02 0.  1.
       -2   -1    0    0    0  501  0.00000000000E+00  0.00000000000E+00 -0.11312977048E+04  0.11312977048E+04  0.25500000920E-02 0. -1.
    10030    2    1    2    0    0  0.00000000000E+00  0.00000000000E+00  0.60105984897E+03  0.28636552585E+04  0.27998657999E+04 0.  0.
        3    1    3    3  502    0  0.95868460891E+02  0.12950188430E+04 -0.23440374269E+03  0.13195490481E+04  0.10100000352E+00 0.  1.
       -3    1    3    3    0  502 -0.95868460891E+02 -0.12950188430E+04  0.83546359165E+03  0.15441062103E+04  0.10100000352E+00 0. -1.
</event>
<event>
 5   0  0.3406920E-07  0.2800061E+04  0.7818609E-02  0.8303249E-01
        2   -1    0    0  501    0  0.00000000000E+00  0.00000000000E+00  0.12185373853E+04  0.12185373853E+04  0.25500000920E-02 0.  1.
       -2   -1    0    0    0  501  0.00000000000E+00  0.00000000000E+00 -0.16085559788E+04  0.16085559788E+04  0.25500000920E-02 0. -1.
    10030    2    1    2    0    0  0.00000000000E+00  0.00000000000E+00 -0.39001859355E+03  0.28270933641E+04  0.28000611397E+04 0.  0.
        4    1    3    3  502    0  0.13253215311E+04 -0.34238471044E+03  0.10173204909E+03  0.13726090024E+04  0.12699999809E+01 0.  1.
       -4    1    3    3    0  502 -0.13253215311E+04  0.34238471044E+03 -0.49175064264E+03  0.14544843616E+04  0.12699999809E+01 0. -1.
</event>
<event>
 5   0  0.1346049E-07  0.2800306E+04  0.7818609E-02  0.8303173E-01
       -1   -1    0    0    0  501  0.00000000000E+00  0.00000000000E+00  0.11806077448E+04  0.11806077448E+04  0.50400001928E-02 0.  1.
        1   -1    0    0  501    0  0.00000000000E+00  0.00000000000E+00 -0.16605243253E+04  0.16605243253E+04  0.50400001928E-02 0. -1.
    10030    2    1    2    0    0  0.00000000000E+00  0.00000000000E+00 -0.47991658054E+03  0.28411320701E+04  0.28003056111E+04 0.  0.
        1    1    3    3  502    0  0.29569505404E+02  0.47395605218E+03  0.10964083210E+04  0.11948304907E+04  0.50400001928E-02 0.  1.
       -1    1    3    3    0  502 -0.29569505404E+02 -0.47395605218E+03 -0.15763249016E+04  0.16463015794E+04  0.50400001928E-02 0. -1.
</event>
<event>
 5   0  0.3406920E-07  0.2801005E+04  0.7818609E-02  0.8302956E-01
        2   -1    0    0  501    0  0.00000000000E+00  0.00000000000E+00  0.22796694442E+04  0.22796694442E+04  0.25500000920E-02 0.  1.
       -2   -1    0    0    0  501  0.00000000000E+00  0.00000000000E+00 -0.86039109270E+03  0.86039109270E+03  0.25500000920E-02 0. -1.
    10030    2    1    2    0    0  0.00000000000E+00  0.00000000000E+00  0.14192783515E+04  0.31400605369E+04  0.28010050226E+04 0.  0.
        4    1    3    3  502    0 -0.10308676755E+04 -0.41251192884E+02  0.17713938725E+04  0.20499335818E+04  0.12699999809E+01 0.  1.
       -4    1    3    3    0  502  0.10308676755E+04  0.41251192884E+02 -0.35211552096E+03  0.10901269551E+04  0.12699999809E+01 0. -1.
</event>
<event>
 5   0  0.1374680E-07  0.2799493E+04  0.7818609E-02  0.8303426E-01
        1   -1    0    0  501    0  0.00000000000E+00  0.00000000000E+00  0.23571422479E+04  0.23571422479E+04  0.50400001928E-02 0.  1.
       -1   -1    0    0    0  501  0.00000000000E+00  0.00000000000E+00 -0.83121439446E+03  0.83121439447E+03  0.50400001928E-02 0. -1.
    10030    2    1    2    0    0  0.00000000000E+00  0.00000000000E+00  0.15259278534E+04  0.31883566424E+04  0.27994932158E+04 0.  0.
        3    1    3    3  502    0  0.31077408785E+03  0.18053045407E+03  0.23036959661E+04  0.23315631866E+04  0.10100000352E+00 0.  1.
       -3    1    3    3    0  502 -0.31077408785E+03 -0.18053045407E+03 -0.77776811270E+03  0.85679345577E+03  0.10100000352E+00 0. -1.
</event>
<event>
 5   0  0.3502141E-07  0.2799079E+04  0.7818609E-02  0.8303554E-01
       -2   -1    0    0    0  501  0.00000000000E+00  0.00000000000E+00  0.12503750551E+04  0.12503750551E+04  0.25500000920E-02 0.  1.
        2   -1    0    0  501    0  0.00000000000E+00  0.00000000000E+00 -0.15664987646E+04  0.15664987646E+04  0.25500000920E-02 0. -1.
    10030    2    1    2    0    0  0.00000000000E+00  0.00000000000E+00 -0.31612370949E+03  0.28168738197E+04  0.27990791193E+04 0.  0.
        3    1    3    3  502    0 -0.13448777337E+04  0.12847415461E+03 -0.52577392333E+03  0.14497034026E+04  0.10100000352E+00 0.  1.
       -3    1    3    3    0  502  0.13448777337E+04 -0.12847415461E+03  0.20965021383E+03  0.13671704171E+04  0.10100000352E+00 0. -1.
</event>
<event>
 5   0  0.3502141E-07  0.2801554E+04  0.7818609E-02  0.8302786E-01
        2   -1    0    0  501    0  0.00000000000E+00  0.00000000000E+00  0.24318452195E+04  0.24318452195E+04  0.25500000920E-02 0. -1.
       -2   -1    0    0    0  501  0.00000000000E+00  0.00000000000E+00 -0.80686749687E+03  0.80686749687E+03  0.25500000920E-02 0.  1.
    10030    2    1    2    0    0  0.00000000000E+00  0.00000000000E+00  0.16249777226E+04  0.32387127163E+04  0.28015544721E+04 0.  0.
        3    1    3    3  502    0 -0.62851535507E+03  0.11053326177E+04  0.13308946106E+03  0.12784774390E+04  0.10100000352E+00 0.  1.
       -3    1    3    3    0  502  0.62851535507E+03 -0.11053326177E+04  0.14918882615E+04  0.19602352773E+04  0.10100000352E+00 0. -1.
</event>
<event>
 5   0  0.1346049E-07  0.2800690E+04  0.7818609E-02  0.8303054E-01
       -1   -1    0    0    0  501  0.00000000000E+00  0.00000000000E+00  0.13167530821E+04  0.13167530821E+04  0.50400001928E-02 0. -1.
        1   -1    0    0  501    0  0.00000000000E+00  0.00000000000E+00 -0.14892441086E+04  0.14892441086E+04  0.50400001928E-02 0.  1.
    10030    2    1    2    0    0  0.00000000000E+00  0.00000000000E+00 -0.17249102653E+03  0.28059971907E+04  0.28006904649E+04 0.  0.
        1    1    3    3  502    0  0.48635199216E+03 -0.43022329848E+03  0.11568053282E+04  0.13265854342E+04  0.50400001928E-02 0. -1.
       -1    1    3    3    0  502 -0.48635199216E+03  0.43022329848E+03 -0.13292963547E+04  0.14794117566E+04  0.50400001928E-02 0.  1.
</event>
<event>
 5   0  0.1346049E-07  0.2800034E+04  0.7818609E-02  0.8303258E-01
        1   -1    0    0  501    0  0.00000000000E+00  0.00000000000E+00  0.17440401263E+04  0.17440401263E+04  0.50400001928E-02 0.  1.
       -1   -1    0    0    0  501  0.00000000000E+00  0.00000000000E+00 -0.11238546735E+04  0.11238546735E+04  0.50400001928E-02 0. -1.
    10030    2    1    2    0    0  0.00000000000E+00  0.00000000000E+00  0.62018545273E+03  0.28678947998E+04  0.28000340332E+04 0.  0.
        1    1    3    3  502    0  0.89164812104E+03 -0.45789302631E+03 -0.69101331240E+03  0.12174571012E+04  0.50400001928E-02 0. -1.
       -1    1    3    3    0  502 -0.89164812104E+03  0.45789302631E+03  0.13111987651E+04  0.16504376986E+04  0.50400001928E-02 0.  1.
</event>
<event>
 5   0  0.3522569E-07  0.2799909E+04  0.7818609E-02  0.8303296E-01
       -2   -1    0    0    0  501  0.00000000000E+00  0.00000000000E+00  0.14938387965E+04  0.14938387965E+04  0.25500000920E-02 0.  1.
        2   -1    0    0  501    0  0.00000000000E+00  0.00000000000E+00 -0.13119710348E+04  0.13119710348E+04  0.25500000920E-02 0. -1.
    10030    2    1    2    0    0  0.00000000000E+00  0.00000000000E+00  0.18186776166E+03  0.28058098313E+04  0.27999094497E+04 0.  0.
        1    1    3    3  502    0  0.30767846198E+03  0.71137316342E+03  0.12592188969E+04  0.14786311386E+04  0.50400001928E-02 0.  1.
       -1    1    3    3    0  502 -0.30767846198E+03 -0.71137316342E+03 -0.10773511353E+04  0.13271786927E+04  0.50400001928E-02 0. -1.
</event>
<event>
 5   0  0.1357902E-07  0.2797459E+04  0.7818609E-02  0.8304058E-01
       -1   -1    0    0    0  501  0.00000000000E+00  0.00000000000E+00  0.14728987669E+04  0.14728987670E+04  0.50400001928E-02 0.  1.
        1   -1    0    0  501    0  0.00000000000E+00  0.00000000000E+00 -0.13282947789E+04  0.13282947790E+04  0.50400001928E-02 0. -1.
    10030    2    1    2    0    0  0.00000000000E+00  0.00000000000E+00  0.14460398800E+03  0.28011935459E+04  0.27974586625E+04 0.  0.
        4    1    3    3  502    0 -0.63714648420E+03  0.11388774457E+04 -0.43180300443E+03  0.13745737253E+04  0.12699999809E+01 0. -1.
       -4    1    3    3    0  502  0.63714648420E+03 -0.11388774457E+04  0.57640699243E+03  0.14266198206E+04  0.12699999809E+01 0.  1.
</event>
<event>
 5   0  0.3557628E-07  0.2800721E+04  0.7818609E-02  0.8303045E-01
        2   -1    0    0  501    0  0.00000000000E+00  0.00000000000E+00  0.15740135444E+04  0.15740135444E+04  0.25500000920E-02 0. -1.
       -2   -1    0    0    0  501  0.00000000000E+00  0.00000000000E+00 -0.12458653958E+04  0.12458653958E+04  0.25500000920E-02 0.  1.
    10030    2    1    2    0    0  0.00000000000E+00  0.00000000000E+00  0.32814814865E+03  0.28198789402E+04  0.28007206269E+04 0.  0.
        5    1    3    3  502    0 -0.79309573216E+02 -0.53616928367E+03  0.14641150856E+04  0.15612247061E+04  0.46999998093E+01 0. -1.
       -5    1    3    3    0  502  0.79309573216E+02  0.53616928367E+03 -0.11359669370E+04  0.12586542341E+04  0.46999998093E+01 0.  1.
</event>
<event>
 5   0  0.1366235E-07  0.2805883E+04  0.7818609E-02  0.8301444E-01
        1   -1    0    0  501    0  0.00000000000E+00  0.00000000000E+00  0.13621830455E+04  0.13621830455E+04  0.50400001928E-02 0.  1.
       -1   -1    0    0    0  501  0.00000000000E+00  0.00000000000E+00 -0.14449190604E+04  0.14449190604E+04  0.50400001928E-02 0. -1.
    10030    2    1    2    0    0  0.00000000000E+00  0.00000000000E+00 -0.82736014873E+02  0.28071021059E+04  0.28058825679E+04 0.  0.
        2    1    3    3  502    0  0.11760463119E+04  0.49562829088E+03 -0.62429777005E+03  0.14207322183E+04  0.25500000920E-02 0. -1.
       -2    1    3    3    0  502 -0.11760463119E+04 -0.49562829088E+03  0.54156175518E+03  0.13863698876E+04  0.25500000920E-02 0.  1.
</event>
<event>
 5   0  0.1361741E-07  0.2799748E+04  0.7818609E-02  0.8303346E-01
       -1   -1    0    0    0  501  0.00000000000E+00  0.00000000000E+00  0.20185825680E+04  0.20185825680E+04  0.50400001928E-02 0.  1.
        1   -1    0    0  501    0  0.00000000000E+00  0.00000000000E+00 -0.97080389222E+03  0.97080389223E+03  0.50400001928E-02 0. -1.
    10030    2    1    2    0    0  0.00000000000E+00  0.00000000000E+00  0.10477786758E+04  0.29893864602E+04  0.27997484271E+04 0.  0.
        5    1    3    3  502    0  0.56186225174E+03 -0.93922118000E+03 -0.40804125561E+03  0.11680519557E+04  0.46999998093E+01 0. -1.
       -5    1    3    3    0  502 -0.56186225174E+03  0.93922118000E+03  0.14558199314E+04  0.18213345046E+04  0.46999998093E+01 0.  1.
</event>
<event>
 5   0  0.1346049E-07  0.2800621E+04  0.7818609E-02  0.8303076E-01
       -1   -1    0    0    0  501  0.00000000000E+00  0.00000000000E+00  0.19048341024E+04  0.19048341024E+04  0.50400001928E-02 0. -1.
        1   -1    0    0  501    0  0.00000000000E+00  0.00000000000E+00 -0.10294174318E+04  0.10294174318E+04  0.50400001928E-02 0.  1.
    10030    2    1    2    0    0  0.00000000000E+00  0.00000000000E+00  0.87541667060E+03  0.29342515342E+04  0.28006209524E+04 0.  0.
        1    1    3    3  502    0  0.31758984139E+03 -0.46913872102E+03  0.17794029407E+04  0.18674124538E+04  0.50400001928E-02 0. -1.
       -1    1    3    3    0  502 -0.31758984139E+03  0.46913872102E+03 -0.90398627015E+03  0.10668390804E+04  0.50400001928E-02 0.  1.
</event>
<event>
 5   0  0.3557628E-07  0.2800356E+04  0.7818609E-02  0.8303158E-01
       -2   -1    0    0    0  501  0.00000000000E+00  0.00000000000E+00  0.11651064777E+04  0.11651064777E+04  0.25500000920E-02 0.  1.
        2   -1    0    0  501    0  0.00000000000E+00  0.00000000000E+00 -0.16826771851E+04  0.16826771851E+04  0.25500000920E-02 0. -1.
    10030    2    1    2    0    0  0.00000000000E+00  0.00000000000E+00 -0.51757070741E+03  0.28477836629E+04  0.28003557548E+04 0.  0.
        5    1    3    3  502    0  0.47444790419E+03 -0.99519379561E+03  0.61894592284E+03  0.12643684787E+04  0.46999998093E+01 0.  1.
       -5    1    3    3    0  502 -0.47444790419E+03  0.99519379561E+03 -0.11365166302E+04  0.15834151842E+04  0.46999998093E+01 0. -1.
</event>
<event>
 5   0  0.1366235E-07  0.2799317E+04  0.7818609E-02  0.8303480E-01
       -1   -1    0    0    0  501  0.00000000000E+00  0.00000000000E+00  0.76235431767E+03  0.76235431769E+03  0.50400001928E-02 0. -1.
        1   -1    0    0  501    0  0.00000000000E+00  0.00000000000E+00 -0.25697291459E+04  0.25697291459E+04  0.50400001928E-02 0.  1.
    10030    2    1    2    0    0  0.00000000000E+00  0.00000000000E+00 -0.18073748283E+04  0.33320834636E+04  0.27993171379E+04 0.  0.
        2    1    3    3  502    0 -0.87558986178E+03  0.10294880609E+04 -0.47033759338E+03  0.14309859277E+04  0.25500000920E-02 0. -1.
       -2    1    3    3    0  502  0.87558986178E+03 -0.10294880609E+04 -0.13370372349E+04  0.19010975359E+04  0.25500000920E-02 0.  1.
</event>
<event>
 5   0  0.1374680E-07  0.2797831E+04  0.7818609E-02  0.8303942E-01
        1   -1    0    0  501    0  0.00000000000E+00  0.00000000000E+00  0.13482544320E+04  0.13482544320E+04  0.50400001928E-02 0.  1.
       -1   -1    0    0    0  501  0.00000000000E+00  0.00000000000E+00 -0.14514800419E+04  0.14514800419E+04  0.50400001928E-02 0. -1.
    10030    2    1    2    0    0  0.00000000000E+00  0.00000000000E+00 -0.10322560995E+03  0.27997344739E+04  0.27978308737E+04 0.  0.
        3    1    3    3  502    0  0.15092833926E+03 -0.13472127754E+04  0.29387963501E+03  0.13871290048E+04  0.10100000352E+00 0. -1.
       -3    1    3    3    0  502 -0.15092833926E+03  0.13472127754E+04 -0.39710524496E+03  0.14126054692E+04  0.10100000352E+00 0.  1.
</event>
<event>
 5   0  0.3502141E-07  0.2799427E+04  0.7818609E-02  0.8303446E-01
        2   -1    0    0  501    0  0.00000000000E+00  0.00000000000E+00  0.11802320752E+04  0.11802320752E+04  0.25500000920E-02 0. -1.
       -2   -1    0    0    0  501  0.00000000000E+00  0.00000000000E+00 -0.16600110915E+04  0.16600110915E+04  0.25500000920E-02 0.  1.
    10030    2    1    2    0    0  0.00000000000E+00  0.00000000000E+00 -0.47977901637E+03  0.28402431667E+04  0.27994273239E+04 0.  0.
        3    1    3    3  502    0  0.55764070344E+03 -0.25422703943E+03 -0.15166504598E+04  0.16357943542E+04  0.10100000352E+00 0.  1.
       -3    1    3    3    0  502 -0.55764070344E+03  0.25422703943E+03  0.10368714434E+04  0.12044488126E+04  0.10100000352E+00 0. -1.
</event>
<event>
 5   0  0.3557628E-07  0.2797743E+04  0.7818609E-02  0.8303969E-01
        2   -1    0    0  501    0  0.00000000000E+00  0.00000000000E+00  0.18099343530E+04  0.18099343530E+04  0.25500000920E-02 0. -1.
       -2   -1    0    0    0  501  0.00000000000E+00  0.00000000000E+00 -0.10811673983E+04  0.10811673983E+04  0.25500000920E-02 0.  1.
    10030    2    1    2    0    0  0.00000000000E+00  0.00000000000E+00  0.72876695479E+03  0.28911017513E+04  0.27977433875E+04 0.  0.
        5    1    3    3  502    0  0.12929646480E+04 -0.50894331018E+03  0.19763261871E+03  0.14035175866E+04  0.46999998093E+01 0. -1.
       -5    1    3    3    0  502 -0.12929646480E+04  0.50894331018E+03  0.53113433607E+03  0.14875841647E+04  0.46999998093E+01 0.  1.
</event>
<event>
 5   0  0.3522569E-07  0.2798174E+04  0.7818609E-02  0.8303836E-01
        2   -1    0    0  501    0  0.00000000000E+00  0.00000000000E+00  0.22460641841E+04  0.22460641841E+04  0.25500000920E-02 0.  1.
       -2   -1    0    0    0  501  0.00000000000E+00  0.00000000000E+00 -0.87149965453E+03  0.87149965453E+03  0.25500000920E-02 0. -1.
    10030    2    1    2    0    0  0.00000000000E+00  0.00000000000E+00  0.13745645295E+04  0.31175638386E+04  0.27981738048E+04 0.  0.
        1    1    3    3  502    0  0.70811402616E+03 -0.11882846660E+04  0.45358247845E+03  0.14557413872E+04  0.50400001928E-02 0. -1.
       -1    1    3    3    0  502 -0.70811402616E+03  0.11882846660E+04  0.92098205110E+03  0.16618224514E+04  0.50400001928E-02 0.  1.
</event>
<event>
 5   0  0.1357902E-07  0.2796411E+04  0.7818609E-02  0.8304383E-01
        1   -1    0    0  501    0  0.00000000000E+00  0.00000000000E+00  0.12300647169E+04  0.12300647169E+04  0.50400001928E-02 0.  1.
       -1   -1    0    0    0  501  0.00000000000E+00  0.00000000000E+00 -0.15893301216E+04  0.15893301216E+04  0.50400001928E-02 0. -1.
    10030    2    1    2    0    0  0.00000000000E+00  0.00000000000E+00 -0.35926540477E+03  0.28193948385E+04  0.27964112044E+04 0.  0.
        4    1    3    3  502    0 -0.63500817227E+03  0.77718124822E+03  0.80188347225E+03  0.12846263221E+04  0.12699999809E+01 0.  1.
       -4    1    3    3    0  502  0.63500817227E+03 -0.77718124822E+03 -0.11611488770E+04  0.15347685164E+04  0.12699999809E+01 0. -1.
</event>
<event>
 5   0  0.1361741E-07  0.2799592E+04  0.7818609E-02  0.8303395E-01
       -1   -1    0    0    0  501  0.00000000000E+00  0.00000000000E+00  0.97936708327E+03  0.97936708328E+03  0.50400001928E-02 0.  1.
        1   -1    0    0  501    0  0.00000000000E+00  0.00000000000E+00 -0.20007098583E+04  0.20007098583E+04  0.50400001928E-02 0. -1.
    10030    2    1    2    0    0  0.00000000000E+00  0.00000000000E+00 -0.10213427751E+04  0.29800769416E+04  0.27995923835E+04 0.  0.
        5    1    3    3  502    0  0.61319290475E+03 -0.46795315758E+03 -0.17540602291E+04  0.19161772031E+04  0.46999998093E+01 0. -1.
       -5    1    3    3    0  502 -0.61319290475E+03  0.46795315758E+03  0.73271745409E+03  0.10638997385E+04  0.46999998093E+01 0.  1.
</event>
<event>
 5   0  0.1346049E-07  0.2799309E+04  0.7818609E-02  0.8303483E-01
       -1   -1    0    0    0  501  0.00000000000E+00  0.00000000000E+00  0.12758961231E+04  0.12758961231E+04  0.50400001928E-02 0. -1.
        1   -1    0    0  501    0  0.00000000000E+00  0.00000000000E+00 -0.15354167187E+04  0.15354167187E+04  0.50400001928E-02 0.  1.
    10030    2    1    2    0    0  0.00000000000E+00  0.00000000000E+00 -0.25952059568E+03  0.28113128418E+04  0.27993086566E+04 0.  0.
        1    1    3    3  502    0 -0.28499853750E+03 -0.92255073895E+03  0.88785096697E+03  0.13117177181E+04  0.50400001928E-02 0. -1.
       -1    1    3    3    0  502  0.28499853750E+03  0.92255073895E+03 -0.11473715627E+04  0.14995951237E+04  0.50400001928E-02 0.  1.
</event>
<event>
 5   0  0.3571498E-07  0.2798661E+04  0.7818609E-02  0.8303684E-01
       -2   -1    0    0    0  501  0.00000000000E+00  0.00000000000E+00  0.70758048811E+03  0.70758048812E+03  0.25500000920E-02 0.  1.
        2   -1    0    0  501    0  0.00000000000E+00  0.00000000000E+00 -0.27673539519E+04  0.27673539519E+04  0.25500000920E-02 0. -1.
    10030    2    1    2    0    0  0.00000000000E+00  0.00000000000E+00 -0.20597734638E+04  0.34749344400E+04  0.27986608655E+04 0.  0.
        2    1    3    3  502    0 -0.65066165526E+03 -0.12195014893E+04 -0.13007274654E+04  0.18980085382E+04  0.25500000920E-02 0. -1.
       -2    1    3    3    0  502  0.65066165526E+03  0.12195014893E+04 -0.75904599839E+03  0.15769259018E+04  0.25500000920E-02 0.  1.
</event>
<event>
 5   0  0.1374680E-07  0.2800319E+04  0.7818609E-02  0.8303169E-01
       -1   -1    0    0    0  501  0.00000000000E+00  0.00000000000E+00  0.12664582720E+04  0.12664582720E+04  0.50400001928E-02 0.  1.
        1   -1    0    0  501    0  0.00000000000E+00  0.00000000000E+00 -0.15479752837E+04  0.15479752837E+04  0.50400001928E-02 0. -1.
    10030    2    1    2    0    0  0.00000000000E+00  0.00000000000E+00 -0.28151701166E+03  0.28144335557E+04  0.28003186268E+04 0.  0.
        3    1    3    3  502    0 -0.83457197234E+03  0.23689464478E+03 -0.12453051378E+04  0.15177003480E+04  0.10100000352E+00 0. -1.
       -3    1    3    3    0  502  0.83457197234E+03 -0.23689464478E+03  0.96378812616E+03  0.12967332078E+04  0.10100000352E+00 0.  1.
</event>
<event>
 5   0  0.1366235E-07  0.2800913E+04  0.7818609E-02  0.8302985E-01
       -1   -1    0    0    0  501  0.00000000000E+00  0.00000000000E+00  0.22283839157E+04  0.22283839157E+04  0.50400001928E-02 0. -1.
        1   -1    0    0  501    0  0.00000000000E+00  0.00000000000E+00 -0.88013462721E+03  0.88013462723E+03  0.50400001928E-02 0.  1.
    10030    2    1    2    0    0  0.00000000000E+00  0.00000000000E+00  0.13482492885E+04  0.31085185430E+04  0.28009125991E+04 0.  0.
        2    1    3    3  502    0  0.91506570814E+02  0.47233852487E+03  0.21337854312E+04  0.21873539725E+04  0.25500000920E-02 0. -1.
       -2    1    3    3    0  502 -0.91506570814E+02 -0.47233852487E+03 -0.78553614264E+03  0.92116457052E+03  0.25500000920E-02 0.  1.
</event>
<event>
 5   0  0.1357902E-07  0.2800709E+04  0.7818609E-02  0.8303048E-01
       -1   -1    0    0    0  501  0.00000000000E+00  0.00000000000E+00  0.10397249620E+04  0.10397249620E+04  0.50400001928E-02 0. -1.
        1   -1    0    0  501    0  0.00000000000E+00  0.00000000000E+00 -0.18860686698E+04  0.18860686698E+04  0.50400001928E-02 0.  1.
    10030    2    1    2    0    0  0.00000000000E+00  0.00000000000E+00 -0.84634370778E+03  0.29257936319E+04  0.28007089646E+04 0.  0.
        4    1    3    3  502    0  0.81012532206E+03 -0.97465748487E+03 -0.10453649186E+04  0.16428784727E+04  0.12699999809E+01 0.  1.
       -4    1    3    3    0  502 -0.81012532206E+03  0.97465748487E+03  0.19902121084E+03  0.12829151591E+04  0.12699999809E+01 0. -1.
</event>
<event>
 5   0  0.3522569E-07  0.2800141E+04  0.7818609E-02  0.8303225E-01
        2   -1    0    0  501    0  0.00000000000E+00  0.00000000000E+00  0.14232000803E+04  0.14232000803E+04  0.25500000920E-02 0. -1.
       -2   -1    0    0    0  501  0.00000000000E+00  0.00000000000E+00 -0.13773163636E+04  0.13773163636E+04  0.25500000920E-02 0.  1.
    10030    2    1    2    0    0  0.00000000000E+00  0.00000000000E+00  0.45883716621E+02  0.28005164439E+04  0.28001405388E+04 0.  0.
        1    1    3    3  502    0 -0.17656195184E+03  0.73548928361E+03 -0.11553835893E+04  0.13809525146E+04  0.50400001928E-02 0.  1.
       -1    1    3    3    0  502  0.17656195184E+03 -0.73548928361E+03  0.12012673059E+04  0.14195639293E+04  0.50400001928E-02 0. -1.
</event>
<event>
 5   0  0.3502141E-07  0.2798737E+04  0.7818609E-02  0.8303661E-01
       -2   -1    0    0    0  501  0.00000000000E+00  0.00000000000E+00  0.22973323522E+04  0.22973323522E+04  0.25500000920E-02 0. -1.
        2   -1    0    0  501    0  0.00000000000E+00  0.00000000000E+00 -0.85239375945E+03  0.85239375946E+03  0.25500000920E-02 0.  1.
    10030    2    1    2    0    0  0.00000000000E+00  0.00000000000E+00  0.14449385928E+04  0.31497261117E+04  0.27987366867E+04 0.  0.
        3    1    3    3  502    0  0.31277154550E+03  0.93043405093E+03 -0.39995333142E+03  0.10599510556E+04  0.10100000352E+00 0.  1.
       -3    1    3    3    0  502 -0.31277154550E+03 -0.93043405093E+03  0.18448919242E+04  0.20897750561E+04  0.10100000352E+00 0. -1.
</event>
<event>
 5   0  0.1366235E-07  0.2799813E+04  0.7818609E-02  0.8303326E-01
        1   -1    0    0  501    0  0.00000000000E+00  0.00000000000E+00  0.16462054361E+04  0.16462054361E+04  0.50400001928E-02 0.  1.
       -1   -1    0    0    0  501  0.00000000000E+00  0.00000000000E+00 -0.11904579743E+04  0.11904579743E+04  0.50400001928E-02 0. -1.
    10030    2    1    2    0    0  0.00000000000E+00  0.00000000000E+00  0.45574746183E+03  0.28366634104E+04  0.27998131286E+04 0.  0.
        2    1    3    3  502    0  0.10261030102E+04 -0.69671841734E+03  0.88559786403E+03  0.15240037787E+04  0.25500000920E-02 0.  1.
       -2    1    3    3    0  502 -0.10261030102E+04  0.69671841734E+03 -0.42985040220E+03  0.13126596318E+04  0.25500000920E-02 0. -1.
</event>
<event>
 5   0  0.1361741E-07  0.2800177E+04  0.7818609E-02  0.8303213E-01
        1   -1    0    0  501    0  0.00000000000E+00  0.00000000000E+00  0.15813360528E+04  0.15813360528E+04  0.50400001928E-02 0.  1.
       -1   -1    0    0    0  501  0.00000000000E+00  0.00000000000E+00 -0.12396147008E+04  0.12396147008E+04  0.50400001928E-02 0. -1.
    10030    2    1    2    0    0  0.00000000000E+00  0.00000000000E+00  0.34172135194E+03  0.28209507536E+04  0.28001767215E+04 0.  0.
        5    1    3    3  502    0  0.40892112018E+03 -0.43190317060E+03  0.14477291676E+04  0.15651513231E+04  0.46999998093E+01 0.  1.
       -5    1    3    3    0  502 -0.40892112018E+03  0.43190317060E+03 -0.11060078157E+04  0.12557994305E+04  0.46999998093E+01 0. -1.
</event>
<event>
 5   0  0.3557628E-07  0.2799728E+04  0.7818609E-02  0.8303353E-01
       -2   -1    0    0    0  501  0.00000000000E+00  0.00000000000E+00  0.10659937392E+04  0.10659937392E+04  0.25500000920E-02 0. -1.
        2   -1    0    0  501    0  0.00000000000E+00  0.00000000000E+00 -0.18383023839E+04  0.18383023839E+04  0.25500000920E-02 0.  1.
    10030    2    1    2    0    0  0.00000000000E+00  0.00000000000E+00 -0.77230864469E+03  0.29042961232E+04  0.27997277240E+04 0.  0.
        5    1    3    3  502    0 -0.11625135105E+03  0.61606743514E+03  0.91220917280E+03  0.11068880369E+04  0.46999998093E+01 0. -1.
       -5    1    3    3    0  502  0.11625135105E+03 -0.61606743514E+03 -0.16845178175E+04  0.17974080863E+04  0.46999998093E+01 0.  1.
</event>
<event>
 5   0  0.3522569E-07  0.2800062E+04  0.7818609E-02  0.8303249E-01
       -2   -1    0    0    0  501  0.00000000000E+00  0.00000000000E+00  0.11346604870E+04  0.11346604870E+04  0.25500000920E-02 0.  1.
        2   -1    0    0  501    0  0.00000000000E+00  0.00000000000E+00 -0.17274658965E+04  0.17274658965E+04  0.25500000920E-02 0. -1.
    10030    2    1    2    0    0  0.00000000000E+00  0.00000000000E+00 -0.59280540950E+03  0.28621263835E+04  0.28000623532E+04 0.  0.
        1    1    3    3  502    0  0.87831159554E+02 -0.15133229584E+03  0.11234401843E+04  0.11369844432E+04  0.50400001928E-02 0.  1.
       -1    1    3    3    0  502 -0.87831159554E+02  0.15133229584E+03 -0.17162455938E+04  0.17251419404E+04  0.50400001928E-02 0. -1.
</event>
<event>
 5   0  0.1173363E-07  0.2799277E+04  0.7818609E-02  0.8303493E-01
        3   -1    0    0  501    0  0.00000000000E+00  0.00000000000E+00  0.17879071893E+04  0.17879071921E+04  0.10100000352E+00 0. -1.
       -3   -1    0    0    0  501  0.00000000000E+00  0.00000000000E+00 -0.10956874007E+04  0.10956874054E+04  0.10100000352E+00 0.  1.
    10030    2    1    2    0    0  0.00000000000E+00  0.00000000000E+00  0.69221978853E+03  0.28835945975E+04  0.27992766149E+04 0.  0.
        1    1    3    3  502    0 -0.97455775793E+03  0.95346376222E+03  0.67207685233E+03  0.15200471259E+04  0.50400001928E-02 0. -1.
       -1    1    3    3    0  502  0.97455775793E+03 -0.95346376222E+03  0.20142936199E+02  0.13635474716E+04  0.50400001928E-02 0.  1.
</event>
<event>
 5   0  0.1357902E-07  0.2799805E+04  0.7818609E-02  0.8303329E-01
        1   -1    0    0  501    0  0.00000000000E+00  0.00000000000E+00  0.12846404171E+04  0.12846404171E+04  0.50400001928E-02 0.  1.
       -1   -1    0    0    0  501  0.00000000000E+00  0.00000000000E+00 -0.15255066661E+04  0.15255066662E+04  0.50400001928E-02 0. -1.
    10030    2    1    2    0    0  0.00000000000E+00  0.00000000000E+00 -0.24086624904E+03  0.28101470833E+04  0.27998053646E+04 0.  0.
        4    1    3    3  502    0  0.85544668678E+01  0.95734276129E+03  0.90468540715E+03  0.13172075160E+04  0.12699999809E+01 0.  1.
       -4    1    3    3    0  502 -0.85544668678E+01 -0.95734276129E+03 -0.11455516562E+04  0.14929395672E+04  0.12699999809E+01 0. -1.
</event>
<event>
 5   0  0.3406920E-07  0.2792674E+04  0.7818609E-02  0.8305546E-01
        2   -1    0    0  501    0  0.00000000000E+00  0.00000000000E+00  0.15469138352E+04  0.15469138352E+04  0.25500000920E-02 0.  1.
       -2   -1    0    0    0  501  0.00000000000E+00  0.00000000000E+00 -0.12604171469E+04  0.12604171469E+04  0.25500000920E-02 0. -1.
    10030    2    1    2    0    0  0.00000000000E+00  0.00000000000E+00  0.28649668828E+03  0.28073309821E+04  0.27926737888E+04 0.  0.
        4    1    3    3  502    0  0.35512171965E+03 -0.73041937457E+03  0.12850491645E+04  0.15201897469E+04  0.12699999809E+01 0.  1.
       -4    1    3    3    0  502 -0.35512171965E+03  0.73041937457E+03 -0.99855247625E+03  0.12871412352E+04  0.12699999809E+01 0. -1.
</event>
<event>
 5   0  0.3522569E-07  0.2799475E+04  0.7818609E-02  0.8303431E-01
       -2   -1    0    0    0  501  0.00000000000E+00  0.00000000000E+00  0.76004930548E+03  0.76004930549E+03  0.25500000920E-02 0.  1.
        2   -1    0    0  501    0  0.00000000000E+00  0.00000000000E+00 -0.25778130747E+04  0.25778130747E+04  0.25500000920E-02 0. -1.
    10030    2    1    2    0    0  0.00000000000E+00  0.00000000000E+00 -0.18177637692E+04  0.33378623802E+04  0.27994749773E+04 0.  0.
        1    1    3    3  502    0 -0.29065153612E+03  0.12564126180E+04 -0.25995664294E+03  0.13155335185E+04  0.50400001928E-02 0. -1.
       -1    1    3    3    0  502  0.29065153612E+03 -0.12564126180E+04 -0.15578071263E+04  0.20223288617E+04  0.50400001928E-02 0.  1.
</event>
<event>
 5   0  0.3557628E-07  0.2798929E+04  0.7818609E-02  0.8303601E-01
       -2   -1    0    0    0  501  0.00000000000E+00  0.00000000000E+00  0.17841065124E+04  0.17841065124E+04  0.25500000920E-02 0.  1.
        2   -1    0    0  501    0  0.00000000000E+00  0.00000000000E+00 -0.10977488732E+04  0.10977488732E+04  0.25500000920E-02 0. -1.
    10030    2    1    2    0    0  0.00000000000E+00  0.00000000000E+00  0.68635763923E+03  0.28818553856E+04  0.27989290192E+04 0.  0.
        5    1    3    3  502    0  0.10544117376E+04 -0.27665109699E+03  0.12467668367E+04  0.16561309057E+04  0.46999998093E+01 0.  1.
       -5    1    3    3    0  502 -0.10544117376E+04  0.27665109699E+03 -0.56040919748E+03  0.12257244798E+04  0.46999998093E+01 0. -1.
</event>
<event>
 5   0  0.3557628E-07  0.2802662E+04  0.7818609E-02  0.8302442E-01
       -2   -1    0    0    0  501  0.00000000000E+00  0.00000000000E+00  0.18315991395E+04  0.18315991395E+04  0.25500000920E-02 0.  1.
        2   -1    0    0  501    0  0.00000000000E+00  0.00000000000E+00 -0.10721389616E+04  0.10721389616E+04  0.25500000920E-02 0. -1.
    10030    2    1    2    0    0  0.00000000000E+00  0.00000000000E+00  0.75946017798E+03  0.29037381011E+04  0.28026621626E+04 0.  0.
        5    1    3    3  502    0 -0.45653719481E+02 -0.81885278030E+03  0.15569756617E+04  0.17597725532E+04  0.46999998093E+01 0.  1.
       -5    1    3    3    0  502  0.45653719481E+02  0.81885278030E+03 -0.79751548375E+03  0.11439655479E+04  0.46999998093E+01 0. -1.
</event>
<event>
 5   0  0.3557628E-07  0.2799935E+04  0.7818609E-02  0.8303288E-01
       -2   -1    0    0    0  501  0.00000000000E+00  0.00000000000E+00  0.15600239163E+04  0.15600239163E+04  0.25500000920E-02 0.  1.
        2   -1    0    0  501    0  0.00000000000E+00  0.00000000000E+00 -0.12563329544E+04  0.12563329544E+04  0.25500000920E-02 0. -1.
    10030    2    1    2    0    0  0.00000000000E+00  0.00000000000E+00  0.30369096185E+03  0.28163568707E+04  0.27999353247E+04 0.  0.
        5    1    3    3  502    0 -0.12478143545E+04  0.43186744116E+03 -0.31600308549E+03  0.13577297928E+04  0.46999998093E+01 0. -1.
       -5    1    3    3    0  502  0.12478143545E+04 -0.43186744116E+03  0.61969404735E+03  0.14586270779E+04  0.46999998093E+01 0.  1.
</event>
<event>
 5   0  0.1361741E-07  0.2799230E+04  0.7818609E-02  0.8303508E-01
        1   -1    0    0  501    0  0.00000000000E+00  0.00000000000E+00  0.17005495029E+04  0.17005495030E+04  0.50400001928E-02 0. -1.
       -1   -1    0    0    0  501  0.00000000000E+00  0.00000000000E+00 -0.11519346631E+04  0.11519346631E+04  0.50400001928E-02 0.  1.
    10030    2    1    2    0    0  0.00000000000E+00  0.00000000000E+00  0.54861483987E+03  0.28524841660E+04  0.27992298360E+04 0.  0.
        5    1    3    3  502    0 -0.18219443659E+03 -0.12480260795E+03 -0.11340603244E+04  0.11553724131E+04  0.46999998093E+01 0.  1.
       -5    1    3    3    0  502  0.18219443659E+03  0.12480260795E+03  0.16826751642E+04  0.16971117529E+04  0.46999998093E+01 0. -1.
</event>
<event>
 5   0  0.3522569E-07  0.2800166E+04  0.7818609E-02  0.8303217E-01
       -2   -1    0    0    0  501  0.00000000000E+00  0.00000000000E+00  0.86514600475E+03  0.86514600476E+03  0.25500000920E-02 0.  1.
        2   -1    0    0  501    0  0.00000000000E+00  0.00000000000E+00 -0.22657816479E+04  0.22657816479E+04  0.25500000920E-02 0. -1.
    10030    2    1    2    0    0  0.00000000000E+00  0.00000000000E+00 -0.14006356432E+04  0.31309276527E+04  0.28001656668E+04 0.  0.
        1    1    3    3  502    0  0.31828499985E+03 -0.95595952373E+03 -0.17872960172E+04  0.20517287845E+04  0.50400001928E-02 0. -1.
       -1    1    3    3    0  502 -0.31828499985E+03  0.95595952373E+03  0.38666037404E+03  0.10791988681E+04  0.50400001928E-02 0.  1.
</event>
<event>
 5   0  0.1366235E-07  0.2801227E+04  0.7818609E-02  0.8302887E-01
       -1   -1    0    0    0  501  0.00000000000E+00  0.00000000000E+00  0.99899597038E+03  0.99899597040E+03  0.50400001928E-02 0.  1.
        1   -1    0    0  501    0  0.00000000000E+00  0.00000000000E+00 -0.19636902523E+04  0.19636902523E+04  0.50400001928E-02 0. -1.
    10030    2    1    2    0    0  0.00000000000E+00  0.00000000000E+00 -0.96469428193E+03  0.29626862227E+04  0.28012273376E+04 0.  0.
        2    1    3    3  502    0  0.57662293938E+03 -0.48144034069E+02 -0.18313679142E+04  0.19206041496E+04  0.25500000920E-02 0. -1.
       -2    1    3    3    0  502 -0.57662293938E+03  0.48144034069E+02  0.86667363228E+03  0.10420820731E+04  0.25500000920E-02 0.  1.
</event>
<event>
 5   0  0.1366235E-07  0.2800781E+04  0.7818609E-02  0.8303026E-01
       -1   -1    0    0    0  501  0.00000000000E+00  0.00000000000E+00  0.12856231065E+04  0.12856231065E+04  0.50400001928E-02 0.  1.
        1   -1    0    0  501    0  0.00000000000E+00  0.00000000000E+00 -0.15254036710E+04  0.15254036710E+04  0.50400001928E-02 0. -1.
    10030    2    1    2    0    0  0.00000000000E+00  0.00000000000E+00 -0.23978056450E+03  0.28110267775E+04  0.28007814668E+04 0.  0.
        2    1    3    3  502    0 -0.45395842491E+03  0.12173342406E+04  0.40462383869E+03  0.13607723379E+04  0.25500000920E-02 0. -1.
       -2    1    3    3    0  502  0.45395842491E+03 -0.12173342406E+04 -0.64440440319E+03  0.14502544396E+04  0.25500000920E-02 0.  1.
</event>
<event>
 5   0  0.1374680E-07  0.2799895E+04  0.7818609E-02  0.8303301E-01
        1   -1    0    0  501    0  0.00000000000E+00  0.00000000000E+00  0.21971927299E+04  0.21971927299E+04  0.50400001928E-02 0.  1.
       -1   -1    0    0    0  501  0.00000000000E+00  0.00000000000E+00 -0.89198047556E+03  0.89198047557E+03  0.50400001928E-02 0. -1.
    10030    2    1    2    0    0  0.00000000000E+00  0.00000000000E+00  0.13052122543E+04  0.30891732054E+04  0.27998950095E+04 0.  0.
        3    1    3    3  502    0  0.86038884404E+03  0.52895810398E+03 -0.41697889872E+03  0.10926742657E+04  0.10100000352E+00 0. -1.
       -3    1    3    3    0  502 -0.86038884404E+03 -0.52895810398E+03  0.17221911530E+04  0.19964989398E+04  0.10100000352E+00 0.  1.
</event>
<event>
 5   0  0.3522569E-07  0.2799078E+04  0.7818609E-02  0.8303555E-01
        2   -1    0    0  501    0  0.00000000000E+00  0.00000000000E+00  0.19195837992E+04  0.19195837992E+04  0.25500000920E-02 0. -1.
       -2   -1    0    0    0  501  0.00000000000E+00  0.00000000000E+00 -0.10203822819E+04  0.10203822819E+04  0.25500000920E-02 0.  1.
    10030    2    1    2    0    0  0.00000000000E+00  0.00000000000E+00  0.89920151730E+03  0.29399660811E+04  0.27990779177E+04 0.  0.
        1    1    3    3  502    0  0.40907961890E+03  0.12945308975E+04  0.80664151250E+03  0.15791855207E+04  0.50400001928E-02 0. -1.
       -1    1    3    3    0  502 -0.40907961890E+03 -0.12945308975E+04  0.92560004801E+02  0.13607805604E+04  0.50400001928E-02 0.  1.
</event>
<event>
 5   0  0.1357902E-07  0.2800652E+04  0.7818609E-02  0.8303066E-01
       -1   -1    0    0    0  501  0.00000000000E+00  0.00000000000E+00  0.10580924051E+04  0.10580924051E+04  0.50400001928E-02 0. -1.
        1   -1    0    0  501    0  0.00000000000E+00  0.00000000000E+00 -0.18532530031E+04  0.18532530031E+04  0.50400001928E-02 0.  1.
    10030    2    1    2    0    0  0.00000000000E+00  0.00000000000E+00 -0.79516059802E+03  0.29113454082E+04  0.28006520150E+04 0.  0.
        4    1    3    3  502    0 -0.22945254972E+03 -0.12682538234E+04 -0.96675663442E+03  0.16111288702E+04  0.12699999809E+01 0.  1.
       -4    1    3    3    0  502  0.22945254972E+03  0.12682538234E+04  0.17159603640E+03  0.13002165380E+04  0.12699999809E+01 0. -1.
</event>
<event>
 5   0  0.1357902E-07  0.2809714E+04  0.7818609E-02  0.8300259E-01
       -1   -1    0    0    0  501  0.00000000000E+00  0.00000000000E+00  0.85495068715E+03  0.85495068716E+03  0.50400001928E-02 0. -1.
        1   -1    0    0  501    0  0.00000000000E+00  0.00000000000E+00 -0.23084642417E+04  0.23084642418E+04  0.50400001928E-02 0.  1.
    10030    2    1    2    0    0  0.00000000000E+00  0.00000000000E+00 -0.14535135546E+04  0.31634149289E+04  0.28097139283E+04 0.  0.
        4    1    3    3  502    0  0.98766212849E+03  0.60784986689E+03 -0.16194519596E+04  0.19918795654E+04  0.12699999809E+01 0.  1.
       -4    1    3    3    0  502 -0.98766212849E+03 -0.60784986689E+03  0.16593840503E+03  0.11715353635E+04  0.12699999809E+01 0. -1.
</event>
<event>
 5   0  0.1361741E-07  0.2800500E+04  0.7818609E-02  0.8303113E-01
       -1   -1    0    0    0  501  0.00000000000E+00  0.00000000000E+00  0.13056350591E+04  0.13056350591E+04  0.50400001928E-02 0. -1.
        1   -1    0    0  501    0  0.00000000000E+00  0.00000000000E+00 -0.15017215932E+04  0.15017215933E+04  0.50400001928E-02 0.  1.
    10030    2    1    2    0    0  0.00000000000E+00  0.00000000000E+00 -0.19608653411E+03  0.28073566524E+04  0.28005002133E+04 0.  0.
        5    1    3    3  502    0 -0.41744452966E+03  0.13080472501E+04 -0.37336223153E+03  0.14229086372E+04  0.46999998093E+01 0.  1.
       -5    1    3    3    0  502  0.41744452966E+03 -0.13080472501E+04  0.17727569742E+03  0.13844480152E+04  0.46999998093E+01 0. -1.
</event>
<event>
 5   0  0.3571498E-07  0.2799459E+04  0.7818609E-02  0.8303436E-01
        2   -1    0    0  501    0  0.00000000000E+00  0.00000000000E+00  0.23499942584E+04  0.23499942584E+04  0.25500000920E-02 0. -1.
       -2   -1    0    0    0  501  0.00000000000E+00  0.00000000000E+00 -0.83372231792E+03  0.83372231792E+03  0.25500000920E-02 0.  1.
    10030    2    1    2    0    0  0.00000000000E+00  0.00000000000E+00  0.15162719405E+04  0.31837165763E+04  0.27994589908E+04 0.  0.
        2    1    3    3  502    0  0.38039708097E+03 -0.43149251603E+03  0.22093612178E+04  0.22830165836E+04  0.25500000920E-02 0. -1.
       -2    1    3    3    0  502 -0.38039708097E+03  0.43149251603E+03 -0.69308927726E+03  0.90069999270E+03  0.25500000920E-02 0.  1.
</event>
<event>
 5   0  0.3406920E-07  0.2800585E+04  0.7818609E-02  0.8303087E-01
        2   -1    0    0  501    0  0.00000000000E+00  0.00000000000E+00  0.18753173705E+04  0.18753173705E+04  0.25500000920E-02 0. -1.
       -2   -1    0    0    0  501  0.00000000000E+00  0.00000000000E+00 -0.10455930354E+04  0.10455930354E+04  0.25500000920E-02 0.  1.
    10030    2    1    2    0    0  0.00000000000E+00  0.00000000000E+00  0.82972433512E+03  0.29209104058E+04  0.28005847830E+04 0.  0.
        4    1    3    3  502    0 -0.19844458041E+02  0.29479179110E+03 -0.10127124354E+04  0.10549332170E+04  0.12699999809E+01 0.  1.
       -4    1    3    3    0  502  0.19844458041E+02 -0.29479179110E+03  0.18424367706E+04  0.18659771888E+04  0.12699999809E+01 0. -1.
</event>
<event>
 5   0  0.3557628E-07  0.2799787E+04  0.7818609E-02  0.8303334E-01
        2   -1    0    0  501    0  0.00000000000E+00  0.00000000000E+00  0.19177816870E+04  0.19177816870E+04  0.25500000920E-02 0. -1.
       -2   -1    0    0    0  501  0.00000000000E+00  0.00000000000E+00 -0.10218586595E+04  0.10218586595E+04  0.25500000920E-02 0.  1.
    10030    2    1    2    0    0  0.00000000000E+00  0.00000000000E+00  0.89592302754E+03  0.29396403465E+04  0.27997870089E+04 0.  0.
        5    1    3    3  502    0 -0.13711286337E+04  0.49043055655E+02  0.15608109497E+03  0.13808629003E+04  0.46999998093E+01 0. -1.
       -5    1    3    3    0  502  0.13711286337E+04 -0.49043055655E+02  0.73984193257E+03  0.15587774461E+04  0.46999998093E+01 0.  1.
</event>
<event>
 5   0  0.3502141E-07  0.2800522E+04  0.7818609E-02  0.8303106E-01
       -2   -1    0    0    0  501  0.00000000000E+00  0.00000000000E+00  0.98105844760E+03  0.98105844760E+03  0.25500000920E-02 0. -1.
        2   -1    0    0  501    0  0.00000000000E+00  0.00000000000E+00 -0.19985878643E+04  0.19985878643E+04  0.25500000920E-02 0.  1.
    10030    2    1    2    0    0  0.00000000000E+00  0.00000000000E+00 -0.10175294167E+04  0.29796463119E+04  0.28005224566E+04 0.  0.
        3    1    3    3  502    0  0.11803128823E+04  0.75277753731E+03 -0.47651113126E+03  0.14788087737E+04  0.10100000352E+00 0. -1.
       -3    1    3    3    0  502 -0.11803128823E+04 -0.75277753731E+03 -0.54101828542E+03  0.15008375382E+04  0.10100000352E+00 0.  1.
</event>
<event>
 5   0  0.3557628E-07  0.2800787E+04  0.7818609E-02  0.8303024E-01
       -2   -1    0    0    0  501  0.00000000000E+00  0.00000000000E+00  0.90082759599E+03  0.90082759600E+03  0.25500000920E-02 0. -1.
        2   -1    0    0  501    0  0.00000000000E+00  0.00000000000E+00 -0.21770004111E+04  0.21770004111E+04  0.25500000920E-02 0.  1.
    10030    2    1    2    0    0  0.00000000000E+00  0.00000000000E+00 -0.12761728151E+04  0.30778280071E+04  0.28007870657E+04 0.  0.
        5    1    3    3  502    0  0.72878803914E+03 -0.13762981060E+02 -0.19520871282E+04  0.20837436675E+04  0.46999998093E+01 0.  1.
       -5    1    3    3    0  502 -0.72878803914E+03  0.13762981060E+02  0.67591431310E+03  0.99408433962E+03  0.46999998093E+01 0. -1.
</event>
<event>
 5   0  0.3571498E-07  0.2799911E+04  0.7818609E-02  0.8303296E-01
        2   -1    0    0  501    0  0.00000000000E+00  0.00000000000E+00  0.29071213207E+04  0.29071213207E+04  0.25500000920E-02 0. -1.
       -2   -1    0    0    0  501  0.00000000000E+00  0.00000000000E+00 -0.67416338794E+03  0.67416338795E+03  0.25500000920E-02 0.  1.
    10030    2    1    2    0    0  0.00000000000E+00  0.00000000000E+00  0.22329579328E+04  0.35812847087E+04  0.27999105405E+04 0.  0.
        2    1    3    3  502    0 -0.10995452094E+04  0.29879168699E+03  0.76098983110E+02  0.11419576153E+04  0.25500000920E-02 0.  1.
       -2    1    3    3    0  502  0.10995452094E+04 -0.29879168699E+03  0.21568589497E+04  0.24393270934E+04  0.25500000920E-02 0. -1.
</event>
<event>
 5   0  0.1346049E-07  0.2800272E+04  0.7818609E-02  0.8303184E-01
        1   -1    0    0  501    0  0.00000000000E+00  0.00000000000E+00  0.16299056042E+04  0.16299056042E+04  0.50400001928E-02 0.  1.
       -1   -1    0    0    0  501  0.00000000000E+00  0.00000000000E+00 -0.12027570853E+04  0.12027570853E+04  0.50400001928E-02 0. -1.
    10030    2    1    2    0    0  0.00000000000E+00  0.00000000000E+00  0.42714851891E+03  0.28326626896E+04  0.28002717825E+04 0.  0.
        1    1    3    3  502    0  0.49310021986E+03  0.74207866642E+03 -0.87898931745E+03  0.12515793200E+04  0.50400001928E-02 0. -1.
       -1    1    3    3    0  502 -0.49310021986E+03 -0.74207866642E+03  0.13061378364E+04  0.15810833696E+04  0.50400001928E-02 0.  1.
</event>
<event>
 5   0  0.1357902E-07  0.2800089E+04  0.7818609E-02  0.8303241E-01
       -1   -1    0    0    0  501  0.00000000000E+00  0.00000000000E+00  0.86534403158E+03  0.86534403160E+03  0.50400001928E-02 0.  1.
        1   -1    0    0  501    0  0.00000000000E+00  0.00000000000E+00 -0.22651394026E+04  0.22651394026E+04  0.50400001928E-02 0. -1.
    10030    2    1    2    0    0  0.00000000000E+00  0.00000000000E+00 -0.13997953710E+04  0.31304834342E+04  0.28000891863E+04 0.  0.
        4    1    3    3  502    0  0.11293341444E+04 -0.62856491775E+03 -0.98219653722E+02  0.12962014422E+04  0.12699999809E+01 0. -1.
       -4    1    3    3    0  502 -0.11293341444E+04  0.62856491775E+03 -0.13015757173E+04  0.18342819920E+04  0.12699999809E+01 0.  1.
</event>
<event>
 5   0  0.3406920E-07  0.2794709E+04  0.7818609E-02  0.8304913E-01
       -2   -1    0    0    0  501  0.00000000000E+00  0.00000000000E+00  0.11256002243E+04  0.11256002243E+04  0.25500000920E-02 0.  1.
        2   -1    0    0  501    0  0.00000000000E+00  0.00000000000E+00 -0.17347184399E+04  0.17347184399E+04  0.25500000920E-02 0. -1.
    10030    2    1    2    0    0  0.00000000000E+00  0.00000000000E+00 -0.60911821563E+03  0.28603186642E+04  0.27947089043E+04 0.  0.
        4    1    3    3  502    0  0.30867526805E+03 -0.55803184262E+03 -0.15770979676E+04  0.17011524243E+04  0.12699999809E+01 0. -1.
       -4    1    3    3    0  502 -0.30867526805E+03  0.55803184262E+03  0.96797975197E+03  0.11591662398E+04  0.12699999809E+01 0.  1.
</event>
<event>
 5   0  0.3406920E-07  0.2803690E+04  0.7818609E-02  0.8302124E-01
        2   -1    0    0  501    0  0.00000000000E+00  0.00000000000E+00  0.18059461641E+04  0.18059461641E+04  0.25500000920E-02 0.  1.
       -2   -1    0    0    0  501  0.00000000000E+00  0.00000000000E+00 -0.10881657763E+04  0.10881657763E+04  0.25500000920E-02 0. -1.
    10030    2    1    2    0    0  0.00000000000E+00  0.00000000000E+00  0.71778038776E+03  0.28941119404E+04  0.28036895759E+04 0.  0.
        4    1    3    3  502    0 -0.11810904784E+04  0.46326145581E+03 -0.25664778764E+03  0.12943939101E+04  0.12699999809E+01 0. -1.
       -4    1    3    3    0  502  0.11810904784E+04 -0.46326145581E+03  0.97442817540E+03  0.15997180303E+04  0.12699999809E+01 0.  1.
</event>
<event>
 5   0  0.1366235E-07  0.2795303E+04  0.7818609E-02  0.8304728E-01
       -1   -1    0    0    0  501  0.00000000000E+00  0.00000000000E+00  0.11830963841E+04  0.11830963841E+04  0.50400001928E-02 0.  1.
        1   -1    0    0  501    0  0.00000000000E+00  0.00000000000E+00 -0.16511167211E+04  0.16511167211E+04  0.50400001928E-02 0. -1.
    10030    2    1    2    0    0  0.00000000000E+00  0.00000000000E+00 -0.46802033695E+03  0.28342131052E+04  0.27953033628E+04 0.  0.
        2    1    3    3  502    0 -0.40544086909E+03 -0.41927986729E+03  0.10538084621E+04  0.12044460055E+04  0.25500000920E-02 0.  1.
       -2    1    3    3    0  502  0.40544086909E+03  0.41927986729E+03 -0.15218287991E+04  0.16297670996E+04  0.25500000920E-02 0. -1.
</event>
<event>
 5   0  0.1366235E-07  0.2797027E+04  0.7818609E-02  0.8304192E-01
       -1   -1    0    0    0  501  0.00000000000E+00  0.00000000000E+00  0.31713015592E+04  0.31713015592E+04  0.50400001928E-02 0. -1.
        1   -1    0    0  501    0  0.00000000000E+00  0.00000000000E+00 -0.61673104336E+03  0.61673104338E+03  0.50400001928E-02 0.  1.
    10030    2    1    2    0    0  0.00000000000E+00  0.00000000000E+00  0.25545705158E+04  0.37880326026E+04  0.27970270785E+04 0.  0.
        2    1    3    3  502    0 -0.18124137708E+03 -0.75351867127E+03 -0.29930537263E+03  0.83079632330E+03  0.25500000920E-02 0.  1.
       -2    1    3    3    0  502  0.18124137708E+03  0.75351867127E+03  0.28538758885E+04  0.29572362793E+04  0.25500000920E-02 0. -1.
</event>
<event>
 5   0  0.3571498E-07  0.2799638E+04  0.7818609E-02  0.8303381E-01
       -2   -1    0    0    0  501  0.00000000000E+00  0.00000000000E+00  0.86758839555E+03  0.86758839556E+03  0.25500000920E-02 0. -1.
        2   -1    0    0  501    0  0.00000000000E+00  0.00000000000E+00 -0.22585516473E+04  0.22585516473E+04  0.25500000920E-02 0.  1.
    10030    2    1    2    0    0  0.00000000000E+00  0.00000000000E+00 -0.13909632517E+04  0.31261400428E+04  0.27996379766E+04 0.  0.
        2    1    3    3  502    0  0.33170108728E+03  0.89855864474E+03  0.44438202820E+03  0.10558923413E+04  0.25500000920E-02 0. -1.
       -2    1    3    3    0  502 -0.33170108728E+03 -0.89855864474E+03 -0.18353452799E+04  0.20702477016E+04  0.25500000920E-02 0.  1.
</event>
<event>
 5   0  0.3502141E-07  0.2798606E+04  0.7818609E-02  0.8303701E-01
        2   -1    0    0  501    0  0.00000000000E+00  0.00000000000E+00  0.11686482012E+04  0.11686482012E+04  0.25500000920E-02 0. -1.
       -2   -1    0    0    0  501  0.00000000000E+00  0.00000000000E+00 -0.16754818555E+04  0.16754818555E+04  0.25500000920E-02 0.  1.
    10030    2    1    2    0    0  0.00000000000E+00  0.00000000000E+00 -0.50683365427E+03  0.28441300568E+04  0.27986059792E+04 0.  0.
        3    1    3    3  502    0  0.61120854468E+03  0.69083669104E+03  0.81594380077E+03  0.12315013256E+04  0.10100000352E+00 0. -1.
       -3    1    3    3    0  502 -0.61120854468E+03 -0.69083669104E+03 -0.13227774550E+04  0.16126287312E+04  0.10100000352E+00 0.  1.
</event>
<event>
 5   0  0.3571498E-07  0.2799359E+04  0.7818609E-02  0.8303467E-01
        2   -1    0    0  501    0  0.00000000000E+00  0.00000000000E+00  0.10810435854E+04  0.10810435855E+04  0.25500000920E-02 0. -1.
       -2   -1    0    0    0  501  0.00000000000E+00  0.00000000000E+00 -0.18122329504E+04  0.18122329504E+04  0.25500000920E-02 0.  1.
    10030    2    1    2    0    0  0.00000000000E+00  0.00000000000E+00 -0.73118936498E+03  0.28932765359E+04  0.27993590741E+04 0.  0.
        2    1    3    3  502    0 -0.92080784226E+03  0.74326620418E+03 -0.11381832792E+04  0.16418869967E+04  0.25500000920E-02 0.  1.
       -2    1    3    3    0  502  0.92080784226E+03 -0.74326620418E+03  0.40699391425E+03  0.12513895392E+04  0.25500000920E-02 0. -1.
</event>
<event>
 5   0  0.3522569E-07  0.2798657E+04  0.7818609E-02  0.8303685E-01
       -2   -1    0    0    0  501  0.00000000000E+00  0.00000000000E+00  0.13929759258E+04  0.13929759258E+04  0.25500000920E-02 0.  1.
        2   -1    0    0  501    0  0.00000000000E+00  0.00000000000E+00 -0.14057100592E+04  0.14057100592E+04  0.25500000920E-02 0. -1.
    10030    2    1    2    0    0  0.00000000000E+00  0.00000000000E+00 -0.12734133429E+02  0.27986859851E+04  0.27986570145E+04 0.  0.
        1    1    3    3  502    0 -0.12120262788E+04 -0.68537277918E+03 -0.14556881061E+03  0.13999763660E+04  0.50400001928E-02 0. -1.
       -1    1    3    3    0  502  0.12120262788E+04  0.68537277918E+03  0.13283467719E+03  0.13987096190E+04  0.50400001928E-02 0.  1.
</event>
<event>
 5   0  0.1361741E-07  0.2803299E+04  0.7818609E-02  0.8302245E-01
       -1   -1    0    0    0  501  0.00000000000E+00  0.00000000000E+00  0.90624289569E+03  0.90624289570E+03  0.50400001928E-02 0.  1.
        1   -1    0    0  501    0  0.00000000000E+00  0.00000000000E+00 -0.21678745280E+04  0.21678745281E+04  0.50400001928E-02 0. -1.
    10030    2    1    2    0    0  0.00000000000E+00  0.00000000000E+00 -0.12616316324E+04  0.30741174238E+04  0.28032986925E+04 0.  0.
        5    1    3    3  502    0 -0.43751991307E+03  0.77505952876E+03 -0.18182230703E+04  0.20243759955E+04  0.46999998093E+01 0. -1.
       -5    1    3    3    0  502  0.43751991307E+03 -0.77505952876E+03  0.55659143798E+03  0.10497414283E+04  0.46999998093E+01 0.  1.
</event>
<event>
 5   0  0.3557628E-07  0.2795625E+04  0.7818609E-02  0.8304628E-01
        2   -1    0    0  501    0  0.00000000000E+00  0.00000000000E+00  0.22683268930E+04  0.22683268930E+04  0.25500000920E-02 0. -1.
       -2   -1    0    0    0  501  0.00000000000E+00  0.00000000000E+00 -0.86137483012E+03  0.86137483013E+03  0.25500000920E-02 0.  1.
    10030    2    1    2    0    0  0.00000000000E+00  0.00000000000E+00  0.14069520629E+04  0.31297017231E+04  0.27956249334E+04 0.  0.
        5    1    3    3  502    0 -0.11695905655E+04 -0.76217070797E+03  0.62422585372E+03  0.15292240796E+04  0.46999998093E+01 0. -1.
       -5    1    3    3    0  502  0.11695905655E+04  0.76217070797E+03  0.78272620915E+03  0.16004776436E+04  0.46999998093E+01 0.  1.
</event>
<event>
 5   0  0.3406920E-07  0.2802927E+04  0.7818609E-02  0.8302360E-01
       -2   -1    0    0    0  501  0.00000000000E+00  0.00000000000E+00  0.93118330071E+03  0.93118330072E+03  0.25500000920E-02 0. -1.
        2   -1    0    0  501    0  0.00000000000E+00  0.00000000000E+00 -0.21092513076E+04  0.21092513076E+04  0.25500000920E-02 0.  1.
    10030    2    1    2    0    0  0.00000000000E+00  0.00000000000E+00 -0.11780680069E+04  0.30404346083E+04  0.28029267523E+04 0.  0.
        4    1    3    3  502    0  0.22934904275E+03  0.88394663792E+03 -0.17421928803E+04  0.19670282883E+04  0.12699999809E+01 0.  1.
       -4    1    3    3    0  502 -0.22934904275E+03 -0.88394663792E+03  0.56412487340E+03  0.10734063200E+04  0.12699999809E+01 0. -1.
</event>
<event>
 5   0  0.3571498E-07  0.2800241E+04  0.7818609E-02  0.8303193E-01
        2   -1    0    0  501    0  0.00000000000E+00  0.00000000000E+00  0.21767966883E+04  0.21767966883E+04  0.25500000920E-02 0.  1.
       -2   -1    0    0    0  501  0.00000000000E+00  0.00000000000E+00 -0.90056090531E+03  0.90056090532E+03  0.25500000920E-02 0. -1.
    10030    2    1    2    0    0  0.00000000000E+00  0.00000000000E+00  0.12762357829E+04  0.30773575936E+04  0.28002414155E+04 0.  0.
        2    1    3    3  502    0  0.12148744939E+04  0.64829232350E+03  0.35980705302E+03  0.14232582647E+04  0.25500000920E-02 0.  1.
       -2    1    3    3    0  502 -0.12148744939E+04 -0.64829232350E+03  0.91642872992E+03  0.16540993289E+04  0.25500000920E-02 0. -1.
</event>
<event>
 5   0  0.1361741E-07  0.2799510E+04  0.7818609E-02  0.8303420E-01
        1   -1    0    0  501    0  0.00000000000E+00  0.00000000000E+00  0.13781629713E+04  0.13781629713E+04  0.50400001928E-02 0.  1.
       -1   -1    0    0    0  501  0.00000000000E+00  0.00000000000E+00 -0.14216854883E+04  0.14216854883E+04  0.50400001928E-02 0. -1.
    10030    2    1    2    0    0  0.00000000000E+00  0.00000000000E+00 -0.43522517069E+02  0.27998484596E+04  0.27995101692E+04 0.  0.
        5    1    3    3  502    0  0.80762344183E+03  0.34240325844E+03  0.10691485256E+04  0.13829664764E+04  0.46999998093E+01 0.  1.
       -5    1    3    3    0  502 -0.80762344183E+03 -0.34240325844E+03 -0.11126710426E+04  0.14168819832E+04  0.46999998093E+01 0. -1.
</event>
<event>
 5   0  0.1361741E-07  0.2801489E+04  0.7818609E-02  0.8302806E-01
       -1   -1    0    0    0  501  0.00000000000E+00  0.00000000000E+00  0.33737644410E+04  0.33737644410E+04  0.50400001928E-02 0.  1.
        1   -1    0    0  501    0  0.00000000000E+00  0.00000000000E+00 -0.58157163559E+03  0.58157163561E+03  0.50400001928E-02 0. -1.
    10030    2    1    2    0    0  0.00000000000E+00  0.00000000000E+00  0.27921928054E+04  0.39553360766E+04  0.28014893925E+04 0.  0.
        5    1    3    3  502    0 -0.28537818141E+03  0.13532909964E+04  0.10828447380E+04  0.17565340998E+04  0.46999998093E+01 0. -1.
       -5    1    3    3    0  502  0.28537818141E+03 -0.13532909964E+04  0.17093480675E+04  0.21988019768E+04  0.46999998093E+01 0.  1.
</event>
<event>
 5   0  0.3522569E-07  0.2800791E+04  0.7818609E-02  0.8303023E-01
       -2   -1    0    0    0  501  0.00000000000E+00  0.00000000000E+00  0.10183173020E+04  0.10183173020E+04  0.25500000920E-02 0. -1.
        2   -1    0    0  501    0  0.00000000000E+00  0.00000000000E+00 -0.19258314677E+04  0.19258314677E+04  0.25500000920E-02 0.  1.
    10030    2    1    2    0    0  0.00000000000E+00  0.00000000000E+00 -0.90751416576E+03  0.29441487697E+04  0.28007909628E+04 0.  0.
        1    1    3    3  502    0 -0.62763819210E+03 -0.86210477440E+03  0.50042293470E+03  0.11779547766E+04  0.50400001928E-02 0.  1.
       -1    1    3    3    0  502  0.62763819210E+03  0.86210477440E+03 -0.14079371005E+04  0.17661939931E+04  0.50400001928E-02 0. -1.
</event>
<event>
 5   0  0.3557628E-07  0.2817443E+04  0.7818609E-02  0.8297874E-01
       -2   -1    0    0    0  501  0.00000000000E+00  0.00000000000E+00  0.12704204380E+04  0.12704204380E+04  0.25500000920E-02 0. -1.
        2   -1    0    0  501    0  0.00000000000E+00  0.00000000000E+00 -0.15620778829E+04  0.15620778829E+04  0.25500000920E-02 0.  1.
    10030    2    1    2    0    0  0.00000000000E+00  0.00000000000E+00 -0.29165744484E+03  0.28324983209E+04  0.28174425767E+04 0.  0.
        5    1    3    3  502    0  0.11127711240E+04  0.34723256257E+03 -0.94103184004E+03  0.14981298478E+04  0.46999998093E+01 0.  1.
       -5    1    3    3    0  502 -0.11127711240E+04 -0.34723256257E+03  0.64937439520E+03  0.13343684731E+04  0.46999998093E+01 0. -1.
</event>
<event>
 5   0  0.3557628E-07  0.2801893E+04  0.7818609E-02  0.8302681E-01
        2   -1    0    0  501    0  0.00000000000E+00  0.00000000000E+00  0.22733262923E+04  0.22733262923E+04  0.25500000920E-02 0. -1.
       -2   -1    0    0    0  501  0.00000000000E+00  0.00000000000E+00 -0.86333900823E+03  0.86333900823E+03  0.25500000920E-02 0.  1.
    10030    2    1    2    0    0  0.00000000000E+00  0.00000000000E+00  0.14099872840E+04  0.31366653005E+04  0.28018931218E+04 0.  0.
        5    1    3    3  502    0  0.93620458506E+03 -0.54680681140E+03  0.16982149856E+04  0.20148034498E+04  0.46999998093E+01 0. -1.
       -5    1    3    3    0  502 -0.93620458506E+03  0.54680681140E+03 -0.28822770156E+03  0.11218618507E+04  0.46999998093E+01 0.  1.
</event>
<event>
 5   0  0.1357902E-07  0.2797465E+04  0.7818609E-02  0.8304056E-01
       -1   -1    0    0    0  501  0.00000000000E+00  0.00000000000E+00  0.18081539715E+04  0.18081539715E+04  0.50400001928E-02 0. -1.
        1   -1    0    0  501    0  0.00000000000E+00  0.00000000000E+00 -0.10820162192E+04  0.10820162192E+04  0.50400001928E-02 0.  1.
    10030    2    1    2    0    0  0.00000000000E+00  0.00000000000E+00  0.72613775231E+03  0.28901701906E+04  0.27974645119E+04 0.  0.
        4    1    3    3  502    0 -0.74865758421E+03 -0.66692086137E+03  0.13706728906E+04  0.16982395001E+04  0.12699999809E+01 0. -1.
       -4    1    3    3    0  502  0.74865758421E+03  0.66692086137E+03 -0.64453513828E+03  0.11919306906E+04  0.12699999809E+01 0.  1.
</event>
<event>
 5   0  0.1357902E-07  0.2799478E+04  0.7818609E-02  0.8303430E-01
        1   -1    0    0  501    0  0.00000000000E+00  0.00000000000E+00  0.12438590507E+04  0.12438590507E+04  0.50400001928E-02 0.  1.
       -1   -1    0    0    0  501  0.00000000000E+00  0.00000000000E+00 -0.15751535564E+04  0.15751535564E+04  0.50400001928E-02 0. -1.
    10030    2    1    2    0    0  0.00000000000E+00  0.00000000000E+00 -0.33129450569E+03  0.28190126071E+04  0.27994778137E+04 0.  0.
        4    1    3    3  502    0 -0.10121496969E+04  0.17042458291E+03  0.79271644821E+03  0.12968779926E+04  0.12699999809E+01 0.  1.
       -4    1    3    3    0  502  0.10121496969E+04 -0.17042458291E+03 -0.11240109539E+04  0.15221346145E+04  0.12699999809E+01 0. -1.
</event>
<event>
 5   0  0.1366235E-07  0.2798219E+04  0.7818609E-02  0.8303821E-01
       -1   -1    0    0    0  501  0.00000000000E+00  0.00000000000E+00  0.17663791509E+04  0.17663791509E+04  0.50400001928E-02 0.  1.
        1   -1    0    0  501    0  0.00000000000E+00  0.00000000000E+00 -0.11082037769E+04  0.11082037769E+04  0.50400001928E-02 0. -1.
    10030    2    1    2    0    0  0.00000000000E+00  0.00000000000E+00  0.65817537408E+03  0.28745829278E+04  0.27982194671E+04 0.  0.
        2    1    3    3  502    0 -0.90633379351E+03  0.46020840943E+03 -0.65854111552E+03  0.12111602397E+04  0.25500000920E-02 0. -1.
       -2    1    3    3    0  502  0.90633379351E+03 -0.46020840943E+03  0.13167164896E+04  0.16634226881E+04  0.25500000920E-02 0.  1.
</event>
<event>
 5   0  0.3522569E-07  0.2804318E+04  0.7818609E-02  0.8301929E-01
        2   -1    0    0  501    0  0.00000000000E+00  0.00000000000E+00  0.17433399063E+04  0.17433399063E+04  0.25500000920E-02 0. -1.
       -2   -1    0    0    0  501  0.00000000000E+00  0.00000000000E+00 -0.11277488982E+04  0.11277488982E+04  0.25500000920E-02 0.  1.
    10030    2    1    2    0    0  0.00000000000E+00  0.00000000000E+00  0.61559100818E+03  0.28710888045E+04  0.28043178554E+04 0.  0.
        1    1    3    3  502    0  0.85270284863E+03  0.11049530112E+04  0.44525455165E+03  0.14650170377E+04  0.50400001928E-02 0.  1.
       -1    1    3    3    0  502 -0.85270284863E+03 -0.11049530112E+04  0.17033645653E+03  0.14060717668E+04  0.50400001928E-02 0. -1.
</event>
<event>
 5   0  0.3557628E-07  0.2799203E+04  0.7818609E-02  0.8303516E-01
       -2   -1    0    0    0  501  0.00000000000E+00  0.00000000000E+00  0.10252393881E+04  0.10252393881E+04  0.25500000920E-02 0.  1.
        2   -1    0    0  501    0  0.00000000000E+00  0.00000000000E+00 -0.19106602758E+04  0.19106602758E+04  0.25500000920E-02 0. -1.
    10030    2    1    2    0    0  0.00000000000E+00  0.00000000000E+00 -0.88542088776E+03  0.29358996639E+04  0.27992028665E+04 0.  0.
        5    1    3    3  502    0 -0.77903478689E+02  0.79739578375E+03  0.76091674219E+03  0.11049549160E+04  0.46999998093E+01 0.  1.
       -5    1    3    3    0  502  0.77903478689E+02 -0.79739578375E+03 -0.16463376299E+04  0.18309447479E+04  0.46999998093E+01 0. -1.
</event>
<event>
 5   0  0.3502141E-07  0.2801123E+04  0.7818609E-02  0.8302920E-01
       -2   -1    0    0    0  501  0.00000000000E+00  0.00000000000E+00  0.78539239175E+03  0.78539239175E+03  0.25500000920E-02 0.  1.
        2   -1    0    0  501    0  0.00000000000E+00  0.00000000000E+00 -0.24975709345E+04  0.24975709345E+04  0.25500000920E-02 0. -1.
    10030    2    1    2    0    0  0.00000000000E+00  0.00000000000E+00 -0.17121785427E+04  0.32829633262E+04  0.28011234959E+04 0.  0.
        3    1    3    3  502    0 -0.58882252666E+02 -0.10834106736E+04  0.18187514745E+03  0.11001474387E+04  0.10100000352E+00 0.  1.
       -3    1    3    3    0  502  0.58882252666E+02  0.10834106736E+04 -0.18940536902E+04  0.21828158875E+04  0.10100000352E+00 0. -1.
</event>
<event>
 5   0  0.1357902E-07  0.2794244E+04  0.7818609E-02  0.8305058E-01
       -1   -1    0    0    0  501  0.00000000000E+00  0.00000000000E+00  0.98981344162E+03  0.98981344163E+03  0.50400001928E-02 0.  1.
        1   -1    0    0  501    0  0.00000000000E+00  0.00000000000E+00 -0.19720381369E+04  0.19720381369E+04  0.50400001928E-02 0. -1.
    10030    2    1    2    0    0  0.00000000000E+00  0.00000000000E+00 -0.98222469525E+03  0.29618515785E+04  0.27942439802E+04 0.  0.
        4    1    3    3  502    0  0.37793812211E+03 -0.51588657953E+03 -0.18077855544E+04  0.19175678373E+04  0.12699999809E+01 0. -1.
       -4    1    3    3    0  502 -0.37793812211E+03  0.51588657953E+03  0.82556085914E+03  0.10442837412E+04  0.12699999809E+01 0.  1.
</event>
<event>
 5   0  0.3522569E-07  0.2797781E+04  0.7818609E-02  0.8303958E-01
       -2   -1    0    0    0  501  0.00000000000E+00  0.00000000000E+00  0.12284239011E+04  0.12284239011E+04  0.25500000920E-02 0.  1.
        2   -1    0    0  501    0  0.00000000000E+00  0.00000000000E+00 -0.15930127972E+04  0.15930127972E+04  0.25500000920E-02 0. -1.
    10030    2    1    2    0    0  0.00000000000E+00  0.00000000000E+00 -0.36458889611E+03  0.28214366983E+04  0.27977812601E+04 0.  0.
        1    1    3    3  502    0 -0.28447296230E+03  0.11937851704E+04 -0.85942310187E+03  0.14982175968E+04  0.50400001928E-02 0. -1.
       -1    1    3    3    0  502  0.28447296230E+03 -0.11937851704E+04  0.49483420575E+03  0.13232191015E+04  0.50400001928E-02 0.  1.
</event>
<event>
 5   0  0.1357902E-07  0.2801438E+04  0.7818609E-02  0.8302822E-01
        1   -1    0    0  501    0  0.00000000000E+00  0.00000000000E+00  0.18721802471E+04  0.18721802471E+04  0.50400001928E-02 0.  1.
       -1   -1    0    0    0  501  0.00000000000E+00  0.00000000000E+00 -0.10479835858E+04  0.10479835858E+04  0.50400001928E-02 0. -1.
    10030    2    1    2    0    0  0.00000000000E+00  0.00000000000E+00  0.82419666125E+03  0.29201638329E+04  0.28014383225E+04 0.  0.
        4    1    3    3  502    0  0.97026170423E+02  0.10614247757E+04  0.13594469937E+04  0.17274647243E+04  0.12699999809E+01 0.  1.
       -4    1    3    3    0  502 -0.97026170423E+02 -0.10614247757E+04 -0.53525033243E+03  0.11926991086E+04  0.12699999809E+01 0. -1.
</event>
<event>
 5   0  0.3502141E-07  0.2799173E+04  0.7818609E-02  0.8303525E-01
        2   -1    0    0  501    0  0.00000000000E+00  0.00000000000E+00  0.27042331656E+04  0.27042331656E+04  0.25500000920E-02 0. -1.
       -2   -1    0    0    0  501  0.00000000000E+00  0.00000000000E+00 -0.72436148071E+03  0.72436148072E+03  0.25500000920E-02 0.  1.
    10030    2    1    2    0    0  0.00000000000E+00  0.00000000000E+00  0.19798716849E+04  0.34285946463E+04  0.27991729779E+04 0.  0.
        3    1    3    3  502    0 -0.12054345199E+04 -0.43935577582E+03  0.16749123185E+04  0.21098429241E+04  0.10100000352E+00 0. -1.
       -3    1    3    3    0  502  0.12054345199E+04  0.43935577582E+03  0.30495936641E+03  0.13187517222E+04  0.10100000352E+00 0.  1.
</event>
<event>
 5   0  0.3406920E-07  0.2800431E+04  0.7818609E-02  0.8303135E-01
        2   -1    0    0  501    0  0.00000000000E+00  0.00000000000E+00  0.13776141998E+04  0.13776141998E+04  0.25500000920E-02 0.  1.
       -2   -1    0    0    0  501  0.00000000000E+00  0.00000000000E+00 -0.14231876504E+04  0.14231876504E+04  0.25500000920E-02 0. -1.
    10030    2    1    2    0    0  0.00000000000E+00  0.00000000000E+00 -0.45573450537E+02  0.28008018502E+04  0.28004310498E+04 0.  0.
        4    1    3    3  502    0 -0.58528760739E+03 -0.11415593536E+04  0.53843155117E+03  0.13912690212E+04  0.12699999809E+01 0.  1.
       -4    1    3    3    0  502  0.58528760739E+03  0.11415593536E+04 -0.58400500170E+03  0.14095328290E+04  0.12699999809E+01 0. -1.
</event>
<event>
 5   0  0.1346049E-07  0.2800678E+04  0.7818609E-02  0.8303058E-01
       -1   -1    0    0    0  501  0.00000000000E+00  0.00000000000E+00  0.93581352522E+03  0.93581352523E+03  0.50400001928E-02 0.  1.
        1   -1    0    0  501    0  0.00000000000E+00  0.00000000000E+00 -0.20954492961E+04  0.20954492961E+04  0.50400001928E-02 0. -1.
    10030    2    1    2    0    0  0.00000000000E+00  0.00000000000E+00 -0.11596357709E+04  0.30312628213E+04  0.28006783412E+04 0.  0.
        1    1    3    3  502    0  0.10740919379E+04  0.19404317177E+03 -0.15293278658E+04  0.18788746538E+04  0.50400001928E-02 0. -1.
       -1    1    3    3    0  502 -0.10740919379E+04 -0.19404317177E+03  0.36969209491E+03  0.11523881675E+04  0.50400001928E-02 0.  1.
</event>
<event>
 5   0  0.3522569E-07  0.2799359E+04  0.7818609E-02  0.8303467E-01
        2   -1    0    0  501    0  0.00000000000E+00  0.00000000000E+00  0.28315781266E+04  0.28315781266E+04  0.25500000920E-02 0. -1.
       -2   -1    0    0    0  501  0.00000000000E+00  0.00000000000E+00 -0.69187662550E+03  0.69187662550E+03  0.25500000920E-02 0.  1.
    10030    2    1    2    0    0  0.00000000000E+00  0.00000000000E+00  0.21397015011E+04  0.35234547521E+04  0.27993590117E+04 0.  0.
        1    1    3    3  502    0  0.35225645365E+03  0.38992104776E+03  0.27027129540E+04  0.27533216929E+04  0.50400001928E-02 0. -1.
       -1    1    3    3    0  502 -0.35225645365E+03 -0.38992104776E+03 -0.56301145297E+03  0.77013305917E+03  0.50400001928E-02 0.  1.
</event>
<event>
 5   0  0.1361741E-07  0.2799386E+04  0.7818609E-02  0.8303459E-01
       -1   -1    0    0    0  501  0.00000000000E+00  0.00000000000E+00  0.12684315322E+04  0.12684315322E+04  0.50400001928E-02 0. -1.
        1   -1    0    0  501    0  0.00000000000E+00  0.00000000000E+00 -0.15445381592E+04  0.15445381593E+04  0.50400001928E-02 0.  1.
    10030    2    1    2    0    0  0.00000000000E+00  0.00000000000E+00 -0.27610662703E+03  0.28129696915E+04  0.27993862927E+04 0.  0.
        5    1    3    3  502    0  0.11622092300E+02 -0.13993999557E+04 -0.11216973532E+03  0.14039442469E+04  0.46999998093E+01 0.  1.
       -5    1    3    3    0  502 -0.11622092300E+02  0.13993999557E+04 -0.16393689172E+03  0.14090254446E+04  0.46999998093E+01 0. -1.
</event>
<event>
 5   0  0.1361741E-07  0.2800294E+04  0.7818609E-02  0.8303177E-01
       -1   -1    0    0    0  501  0.00000000000E+00  0.00000000000E+00  0.14731468506E+04  0.14731468506E+04  0.50400001928E-02 0. -1.
        1   -1    0    0  501    0  0.00000000000E+00  0.00000000000E+00 -0.13307649186E+04  0.13307649186E+04  0.50400001928E-02 0.  1.
    10030    2    1    2    0    0  0.00000000000E+00  0.00000000000E+00  0.14238193196E+03  0.28039117692E+04  0.28002943765E+04 0.  0.
        5    1    3    3  502    0 -0.43552567881E+03 -0.11777137118E+04 -0.54904270727E+03  0.13704605752E+04  0.46999998093E+01 0.  1.
       -5    1    3    3    0  502  0.43552567881E+03  0.11777137118E+04  0.69142463923E+03  0.14334511940E+04  0.46999998093E+01 0. -1.
</event>
<event>
 5   0  0.1346049E-07  0.2801541E+04  0.7818609E-02  0.8302790E-01
        1   -1    0    0  501    0  0.00000000000E+00  0.00000000000E+00  0.12426221163E+04  0.12426221163E+04  0.50400001928E-02 0.  1.
       -1   -1    0    0    0  501  0.00000000000E+00  0.00000000000E+00 -0.15790460753E+04  0.15790460753E+04  0.50400001928E-02 0. -1.
    10030    2    1    2    0    0  0.00000000000E+00  0.00000000000E+00 -0.33642395901E+03  0.28216681916E+04  0.28015407017E+04 0.  0.
        1    1    3    3  502    0  0.38489194700E+03  0.71089710016E+02 -0.15228514641E+04  0.15723460623E+04  0.50400001928E-02 0. -1.
       -1    1    3    3    0  502 -0.38489194700E+03 -0.71089710016E+02  0.11864275051E+04  0.12493221293E+04  0.50400001928E-02 0.  1.
</event>
<event>
 5   0  0.1374680E-07  0.2800234E+04  0.7818609E-02  0.8303196E-01
        1   -1    0    0  501    0  0.00000000000E+00  0.00000000000E+00  0.14930848843E+04  0.14930848844E+04  0.50400001928E-02 0.  1.
       -1   -1    0    0    0  501  0.00000000000E+00  0.00000000000E+00 -0.13129373799E+04  0.13129373799E+04  0.50400001928E-02 0. -1.
    10030    2    1    2    0    0  0.00000000000E+00  0.00000000000E+00  0.18014750449E+03  0.28060222642E+04  0.28002335302E+04 0.  0.
        3    1    3    3  502    0  0.11615058489E+04 -0.56192835650E+03  0.63476677967E+03  0.14379805943E+04  0.10100000352E+00 0.  1.
       -3    1    3    3    0  502 -0.11615058489E+04  0.56192835650E+03 -0.45461927517E+03  0.13680416699E+04  0.10100000352E+00 0. -1.
</event>
<event>
 5   0  0.1374680E-07  0.2800696E+04  0.7818609E-02  0.8303052E-01
        1   -1    0    0  501    0  0.00000000000E+00  0.00000000000E+00  0.12570307367E+04  0.12570307367E+04  0.50400001928E-02 0.  1.
       -1   -1    0    0    0  501  0.00000000000E+00  0.00000000000E+00 -0.15600050032E+04  0.15600050032E+04  0.50400001928E-02 0. -1.
    10030    2    1    2    0    0  0.00000000000E+00  0.00000000000E+00 -0.30297426650E+03  0.28170357399E+04  0.28006957982E+04 0.  0.
        3    1    3    3  502    0  0.14010128314E+03 -0.85421001118E+02 -0.15503017639E+04  0.15589614127E+04  0.10100000352E+00 0. -1.
       -3    1    3    3    0  502 -0.14010128314E+03  0.85421001118E+02  0.12473274974E+04  0.12580743272E+04  0.10100000352E+00 0.  1.
</event>
<event>
 5   0  0.1357902E-07  0.2791276E+04  0.7818609E-02  0.8305982E-01
        1   -1    0    0  501    0  0.00000000000E+00  0.00000000000E+00  0.15393644454E+04  0.15393644455E+04  0.50400001928E-02 0. -1.
       -1   -1    0    0    0  501  0.00000000000E+00  0.00000000000E+00 -0.12653310841E+04  0.12653310841E+04  0.50400001928E-02 0.  1.
    10030    2    1    2    0    0  0.00000000000E+00  0.00000000000E+00  0.27403336137E+03  0.28046955295E+04  0.27912761831E+04 0.  0.
        4    1    3    3  502    0  0.47426595563E+03 -0.66764372009E+03  0.12725505196E+04  0.15132953352E+04  0.12699999809E+01 0. -1.
       -4    1    3    3    0  502 -0.47426595563E+03  0.66764372009E+03 -0.99851715826E+03  0.12914001943E+04  0.12699999809E+01 0.  1.
</event>
<event>
 5   0  0.1374680E-07  0.2799455E+04  0.7818609E-02  0.8303438E-01
       -1   -1    0    0    0  501  0.00000000000E+00  0.00000000000E+00  0.15438728293E+04  0.15438728293E+04  0.50400001928E-02 0.  1.
        1   -1    0    0  501    0  0.00000000000E+00  0.00000000000E+00 -0.12690403155E+04  0.12690403155E+04  0.50400001928E-02 0. -1.
    10030    2    1    2    0    0  0.00000000000E+00  0.00000000000E+00  0.27483251378E+03  0.28129131447E+04  0.27994548486E+04 0.  0.
        3    1    3    3  502    0  0.60089489827E+03  0.51888825524E+03  0.12957449344E+04  0.15196297725E+04  0.10100000352E+00 0.  1.
       -3    1    3    3    0  502 -0.60089489827E+03 -0.51888825524E+03 -0.10209124206E+04  0.12932833723E+04  0.10100000352E+00 0. -1.
</event>
<event>
 5   0  0.1346049E-07  0.2800911E+04  0.7818609E-02  0.8302986E-01
       -1   -1    0    0    0  501  0.00000000000E+00  0.00000000000E+00  0.94804910117E+03  0.94804910118E+03  0.50400001928E-02 0.  1.
        1   -1    0    0  501    0  0.00000000000E+00  0.00000000000E+00 -0.20687484673E+04  0.20687484673E+04  0.50400001928E-02 0. -1.
    10030    2    1    2    0    0  0.00000000000E+00  0.00000000000E+00 -0.11206993661E+04  0.30167975685E+04  0.28009106555E+04 0.  0.
        1    1    3    3  502    0 -0.12685250054E+04 -0.29025902849E+01 -0.11994760235E+04  0.17458255483E+04  0.50400001928E-02 0. -1.
       -1    1    3    3    0  502  0.12685250054E+04  0.29025902849E+01  0.78776657347E+02  0.12709720202E+04  0.50400001928E-02 0.  1.
</event>
<event>
 5   0  0.1361741E-07  0.2798080E+04  0.7818609E-02  0.8303865E-01
        1   -1    0    0  501    0  0.00000000000E+00  0.00000000000E+00  0.13792335844E+04  0.13792335844E+04  0.50400001928E-02 0.  1.
       -1   -1    0    0    0  501  0.00000000000E+00  0.00000000000E+00 -0.14191312137E+04  0.14191312137E+04  0.50400001928E-02 0. -1.
    10030    2    1    2    0    0  0.00000000000E+00  0.00000000000E+00 -0.39897629355E+02  0.27983647981E+04  0.27980803638E+04 0.  0.
        5    1    3    3  502    0 -0.76274386822E+03 -0.61995670439E+02  0.11513532611E+04  0.13824825834E+04  0.46999998093E+01 0.  1.
       -5    1    3    3    0  502  0.76274386822E+03  0.61995670439E+02 -0.11912508905E+04  0.14158822146E+04  0.46999998093E+01 0. -1.
</event>
<event>
 5   0  0.3502141E-07  0.2801073E+04  0.7818609E-02  0.8302935E-01
        2   -1    0    0  501    0  0.00000000000E+00  0.00000000000E+00  0.22955202758E+04  0.22955202758E+04  0.25500000920E-02 0. -1.
       -2   -1    0    0    0  501  0.00000000000E+00  0.00000000000E+00 -0.85449121834E+03  0.85449121834E+03  0.25500000920E-02 0.  1.
    10030    2    1    2    0    0  0.00000000000E+00  0.00000000000E+00  0.14410290574E+04  0.31500114941E+04  0.28010725925E+04 0.  0.
        3    1    3    3  502    0  0.62229024415E+03 -0.69660642485E+03  0.18940628217E+04  0.21118663882E+04  0.10100000352E+00 0. -1.
       -3    1    3    3    0  502 -0.62229024415E+03  0.69660642485E+03 -0.45303376425E+03  0.10381451059E+04  0.10100000352E+00 0.  1.
</event>
<event>
 5   0  0.3571498E-07  0.2804632E+04  0.7818609E-02  0.8301832E-01
        2   -1    0    0  501    0  0.00000000000E+00  0.00000000000E+00  0.10806141515E+04  0.10806141515E+04  0.25500000920E-02 0. -1.
       -2   -1    0    0    0  501  0.00000000000E+00  0.00000000000E+00 -0.18197888251E+04  0.18197888251E+04  0.25500000920E-02 0.  1.
    10030    2    1    2    0    0  0.00000000000E+00  0.00000000000E+00 -0.73917467357E+03  0.29004029766E+04  0.28046315674E+04 0.  0.
        2    1    3    3  502    0 -0.11594517468E+04  0.60333602143E+03 -0.89501863479E+03  0.15841089182E+04  0.25500000920E-02 0.  1.
       -2    1    3    3    0  502  0.11594517468E+04 -0.60333602143E+03  0.15584396121E+03  0.13162940584E+04  0.25500000920E-02 0. -1.
</event>
<event>
 5   0  0.1361741E-07  0.2800020E+04  0.7818609E-02  0.8303262E-01
        1   -1    0    0  501    0  0.00000000000E+00  0.00000000000E+00  0.12640809063E+04  0.12640809063E+04  0.50400001928E-02 0. -1.
       -1   -1    0    0    0  501  0.00000000000E+00  0.00000000000E+00 -0.15505557864E+04  0.15505557864E+04  0.50400001928E-02 0.  1.
    10030    2    1    2    0    0  0.00000000000E+00  0.00000000000E+00 -0.28647488016E+03  0.28146366927E+04  0.28000199740E+04 0.  0.
        5    1    3    3  502    0  0.76854427914E+03  0.20362335802E+03  0.10151161159E+04  0.12894206450E+04  0.46999998093E+01 0. -1.
       -5    1    3    3    0  502 -0.76854427914E+03 -0.20362335802E+03 -0.13015909961E+04  0.15252160477E+04  0.46999998093E+01 0.  1.
</event>
<event>
 5   0  0.3502141E-07  0.2790387E+04  0.7818609E-02  0.8306259E-01
        2   -1    0    0  501    0  0.00000000000E+00  0.00000000000E+00  0.22390682225E+04  0.22390682225E+04  0.25500000920E-02 0. -1.
       -2   -1    0    0    0  501  0.00000000000E+00  0.00000000000E+00 -0.86936368944E+03  0.86936368944E+03  0.25500000920E-02 0.  1.
    10030    2    1    2    0    0  0.00000000000E+00  0.00000000000E+00  0.13697045331E+04  0.31084319120E+04  0.27903867910E+04 0.  0.
        3    1    3    3  502    0 -0.81946061347E+03  0.11285310074E+04  0.64219009174E+03  0.15354172254E+04  0.10100000352E+00 0.  1.
       -3    1    3    3    0  502  0.81946061347E+03 -0.11285310074E+04  0.72751444135E+03  0.15730146866E+04  0.10100000352E+00 0. -1.
</event>
<event>
 5   0  0.3522569E-07  0.2800729E+04  0.7818609E-02  0.8303042E-01
       -2   -1    0    0    0  501  0.00000000000E+00  0.00000000000E+00  0.80751123093E+03  0.80751123094E+03  0.25500000920E-02 0.  1.
        2   -1    0    0  501    0  0.00000000000E+00  0.00000000000E+00 -0.24284753862E+04  0.24284753862E+04  0.25500000920E-02 0. -1.
    10030    2    1    2    0    0  0.00000000000E+00  0.00000000000E+00 -0.16209641553E+04  0.32359866172E+04  0.28007292968E+04 0.  0.
        1    1    3    3  502    0  0.27540380380E+02  0.37902693370E+03  0.74679319627E+03  0.83792599138E+03  0.50400001928E-02 0.  1.
       -1    1    3    3    0  502 -0.27540380380E+02 -0.37902693370E+03 -0.23677573516E+04  0.23980606258E+04  0.50400001928E-02 0. -1.
</event>
<event>
 5   0  0.3406920E-07  0.2795681E+04  0.7818609E-02  0.8304611E-01
        2   -1    0    0  501    0  0.00000000000E+00  0.00000000000E+00  0.15699596294E+04  0.15699596294E+04  0.25500000920E-02 0.  1.
       -2   -1    0    0    0  501  0.00000000000E+00  0.00000000000E+00 -0.12445910862E+04  0.12445910862E+04  0.25500000920E-02 0. -1.
    10030    2    1    2    0    0  0.00000000000E+00  0.00000000000E+00  0.32536854318E+03  0.28145507156E+04  0.27956807833E+04 0.  0.
        4    1    3    3  502    0  0.32135976847E+03  0.35614730463E+03  0.14844983417E+04  0.15600801078E+04  0.12699999809E+01 0.  1.
       -4    1    3    3    0  502 -0.32135976847E+03 -0.35614730463E+03 -0.11591297985E+04  0.12544706079E+04  0.12699999809E+01 0. -1.
</event>
<event>
 5   0  0.3571498E-07  0.2797349E+04  0.7818609E-02  0.8304092E-01
       -2   -1    0    0    0  501  0.00000000000E+00  0.00000000000E+00  0.22719095976E+04  0.22719095976E+04  0.25500000920E-02 0. -1.
        2   -1    0    0  501    0  0.00000000000E+00  0.00000000000E+00 -0.86107732863E+03  0.86107732864E+03  0.25500000920E-02 0.  1.
    10030    2    1    2    0    0  0.00000000000E+00  0.00000000000E+00  0.14108322690E+04  0.31329869262E+04  0.27973486355E+04 0.  0.
        2    1    3    3  502    0 -0.48345229871E+03  0.86458686891E+03 -0.40051009282E+03  0.10684778488E+04  0.25500000920E-02 0.  1.
       -2    1    3    3    0  502  0.48345229871E+03 -0.86458686891E+03  0.18113423618E+04  0.20645090774E+04  0.25500000920E-02 0. -1.
</event>
<event>
 5   0  0.1361741E-07  0.2799704E+04  0.7818609E-02  0.8303360E-01
       -1   -1    0    0    0  501  0.00000000000E+00  0.00000000000E+00  0.14174009685E+04  0.14174009685E+04  0.50400001928E-02 0.  1.
        1   -1    0    0  501    0  0.00000000000E+00  0.00000000000E+00 -0.13825203421E+04  0.13825203421E+04  0.50400001928E-02 0. -1.
    10030    2    1    2    0    0  0.00000000000E+00  0.00000000000E+00  0.34880626423E+02  0.27999213107E+04  0.27997040358E+04 0.  0.
        5    1    3    3  502    0  0.30864873502E+03 -0.97564920390E+03  0.97271503503E+03  0.14118611972E+04  0.46999998093E+01 0.  1.
       -5    1    3    3    0  502 -0.30864873502E+03  0.97564920390E+03 -0.93783440861E+03  0.13880601135E+04  0.46999998093E+01 0. -1.
</event>
<event>
 5   0  0.3571498E-07  0.2799955E+04  0.7818609E-02  0.8303282E-01
        2   -1    0    0  501    0  0.00000000000E+00  0.00000000000E+00  0.26387438072E+04  0.26387438072E+04  0.25500000920E-02 0. -1.
       -2   -1    0    0    0  501  0.00000000000E+00  0.00000000000E+00 -0.74275365685E+03  0.74275365685E+03  0.25500000920E-02 0.  1.
    10030    2    1    2    0    0  0.00000000000E+00  0.00000000000E+00  0.18959901503E+04  0.33814974640E+04  0.27999547227E+04 0.  0.
        2    1    3    3  502    0  0.87973870161E+03 -0.10640760451E+04  0.12279584559E+04  0.18477229182E+04  0.25500000920E-02 0.  1.
       -2    1    3    3    0  502 -0.87973870161E+03  0.10640760451E+04  0.66803169442E+03  0.15337745459E+04  0.25500000920E-02 0. -1.
</event>
<event>
 5   0  0.1361741E-07  0.2800028E+04  0.7818609E-02  0.8303260E-01
        1   -1    0    0  501    0  0.00000000000E+00  0.00000000000E+00  0.10661899948E+04  0.10661899948E+04  0.50400001928E-02 0.  1.
       -1   -1    0    0    0  501  0.00000000000E+00  0.00000000000E+00 -0.18383587639E+04  0.18383587639E+04  0.50400001928E-02 0. -1.
    10030    2    1    2    0    0  0.00000000000E+00  0.00000000000E+00 -0.77216876917E+03  0.29045487587E+04  0.28000283719E+04 0.  0.
        5    1    3    3  502    0 -0.63394886030E+03  0.84846074000E+03  0.56364669241E+03  0.11997901769E+04  0.46999998093E+01 0.  1.
       -5    1    3    3    0  502  0.63394886030E+03 -0.84846074000E+03 -0.13358154616E+04  0.17047585818E+04  0.46999998093E+01 0. -1.
</event>
<event>
 5   0  0.1357902E-07  0.2800489E+04  0.7818609E-02  0.8303116E-01
       -1   -1    0    0    0  501  0.00000000000E+00  0.00000000000E+00  0.14975284903E+04  0.14975284903E+04  0.50400001928E-02 0.  1.
        1   -1    0    0  501    0  0.00000000000E+00  0.00000000000E+00 -0.13092807110E+04  0.13092807110E+04  0.50400001928E-02 0. -1.
    10030    2    1    2    0    0  0.00000000000E+00  0.00000000000E+00  0.18824777929E+03  0.28068092012E+04  0.28004893618E+04 0.  0.
        4    1    3    3  502    0  0.51476903618E+03 -0.59463198756E+02  0.13978901669E+04  0.14908459223E+04  0.12699999809E+01 0.  1.
       -4    1    3    3    0  502 -0.51476903618E+03  0.59463198756E+02 -0.12096423876E+04  0.13159632789E+04  0.12699999809E+01 0. -1.
</event>
<event>
 5   0  0.1366235E-07  0.2800201E+04  0.7818609E-02  0.8303206E-01
        1   -1    0    0  501    0  0.00000000000E+00  0.00000000000E+00  0.10138303601E+04  0.10138303601E+04  0.50400001928E-02 0.  1.
       -1   -1    0    0    0  501  0.00000000000E+00  0.00000000000E+00 -0.19335403302E+04  0.19335403302E+04  0.50400001928E-02 0. -1.
    10030    2    1    2    0    0  0.00000000000E+00  0.00000000000E+00 -0.91970997008E+03  0.29473706903E+04  0.28002013422E+04 0.  0.
        2    1    3    3  502    0 -0.79730093730E+03 -0.10776777206E+04 -0.88507204562E+03  0.16063718686E+04  0.25500000920E-02 0.  1.
       -2    1    3    3    0  502  0.79730093730E+03  0.10776777206E+04 -0.34637924465E+02  0.13409988218E+04  0.25500000920E-02 0. -1.
</event>
<event>
 5   0  0.1357902E-07  0.2800537E+04  0.7818609E-02  0.8303102E-01
        1   -1    0    0  501    0  0.00000000000E+00  0.00000000000E+00  0.12566531624E+04  0.12566531624E+04  0.50400001928E-02 0. -1.
       -1   -1    0    0    0  501  0.00000000000E+00  0.00000000000E+00 -0.15602965702E+04  0.15602965702E+04  0.50400001928E-02 0.  1.
    10030    2    1    2    0    0  0.00000000000E+00  0.00000000000E+00 -0.30364340777E+03  0.28169497325E+04  0.28005368194E+04 0.  0.
        4    1    3    3  502    0  0.85325584308E+03  0.43797431593E+03 -0.11780376580E+04  0.15190922855E+04  0.12699999809E+01 0.  1.
       -4    1    3    3    0  502 -0.85325584308E+03 -0.43797431593E+03  0.87439425025E+03  0.12978574471E+04  0.12699999809E+01 0. -1.
</event>
<event>
 5   0  0.3522569E-07  0.2800107E+04  0.7818609E-02  0.8303235E-01
       -2   -1    0    0    0  501  0.00000000000E+00  0.00000000000E+00  0.17462237614E+04  0.17462237614E+04  0.25500000920E-02 0.  1.
        2   -1    0    0  501    0  0.00000000000E+00  0.00000000000E+00 -0.11225079566E+04  0.11225079566E+04  0.25500000920E-02 0. -1.
    10030    2    1    2    0    0  0.00000000000E+00  0.00000000000E+00  0.62371580478E+03  0.28687317179E+04  0.28001071880E+04 0.  0.
        1    1    3    3  502    0 -0.56027531817E+03  0.64139568130E+03  0.14503314571E+04  0.16818912532E+04  0.50400001928E-02 0.  1.
       -1    1    3    3    0  502  0.56027531817E+03 -0.64139568130E+03 -0.82661565229E+03  0.11868404648E+04  0.50400001928E-02 0. -1.
</event>
<event>
 5   0  0.3406920E-07  0.2797863E+04  0.7818609E-02  0.8303932E-01
       -2   -1    0    0    0  501  0.00000000000E+00  0.00000000000E+00  0.11467006865E+04  0.11467006865E+04  0.25500000920E-02 0. -1.
        2   -1    0    0  501    0  0.00000000000E+00  0.00000000000E+00 -0.17066439166E+04  0.17066439166E+04  0.25500000920E-02 0.  1.
    10030    2    1    2    0    0  0.00000000000E+00  0.00000000000E+00 -0.55994323007E+03  0.28533446031E+04  0.27978632924E+04 0.  0.
        4    1    3    3  502    0 -0.35403024198E+03 -0.12922319479E+04 -0.69020104654E+03  0.15071761400E+04  0.12699999809E+01 0. -1.
       -4    1    3    3    0  502  0.35403024198E+03  0.12922319479E+04  0.13025781647E+03  0.13461684631E+04  0.12699999809E+01 0.  1.
</event>
<event>
 5   0  0.1374680E-07  0.2795166E+04  0.7818609E-02  0.8304771E-01
       -1   -1    0    0    0  501  0.00000000000E+00  0.00000000000E+00  0.11764922840E+04  0.11764922840E+04  0.50400001928E-02 0.  1.
        1   -1    0    0  501    0  0.00000000000E+00  0.00000000000E+00 -0.16602223602E+04  0.16602223602E+04  0.50400001928E-02 0. -1.
    10030    2    1    2    0    0  0.00000000000E+00  0.00000000000E+00 -0.48373007622E+03  0.28367146442E+04  0.27951663968E+04 0.  0.
        3    1    3    3  502    0 -0.69415686683E+03 -0.92971030759E+03 -0.10325633916E+04  0.15531909669E+04  0.10100000352E+00 0. -1.
       -3    1    3    3    0  502  0.69415686683E+03  0.92971030759E+03  0.54883331542E+03  0.12835236773E+04  0.10100000352E+00 0.  1.
</event>
<event>
 5   0  0.3502141E-07  0.2799554E+04  0.7818609E-02  0.8303407E-01
        2   -1    0    0  501    0  0.00000000000E+00  0.00000000000E+00  0.15629616949E+04  0.15629616949E+04  0.25500000920E-02 0.  1.
       -2   -1    0    0    0  501  0.00000000000E+00  0.00000000000E+00 -0.12536298245E+04  0.12536298245E+04  0.25500000920E-02 0. -1.
    10030    2    1    2    0    0  0.00000000000E+00  0.00000000000E+00  0.30933187033E+03  0.28165915194E+04  0.27995538182E+04 0.  0.
        3    1    3    3  502    0 -0.45650027096E+03 -0.96931744744E+03  0.10609290565E+04  0.15078260126E+04  0.10100000352E+00 0.  1.
       -3    1    3    3    0  502  0.45650027096E+03  0.96931744744E+03 -0.75159718613E+03  0.13087655068E+04  0.10100000352E+00 0. -1.
</event>
<event>
 5   0  0.1374680E-07  0.2799811E+04  0.7818609E-02  0.8303327E-01
        1   -1    0    0  501    0  0.00000000000E+00  0.00000000000E+00  0.14224225730E+04  0.14224225730E+04  0.50400001928E-02 0.  1.
       -1   -1    0    0    0  501  0.00000000000E+00  0.00000000000E+00 -0.13777448300E+04  0.13777448300E+04  0.50400001928E-02 0. -1.
    10030    2    1    2    0    0  0.00000000000E+00  0.00000000000E+00  0.44677742952E+02  0.28001674030E+04  0.27998109551E+04 0.  0.
        3    1    3    3  502    0 -0.34320500197E+03  0.11844139761E+04  0.68507638365E+03  0.14106579322E+04  0.10100000352E+00 0.  1.
       -3    1    3    3    0  502  0.34320500197E+03 -0.11844139761E+04 -0.64039864070E+03  0.13895094708E+04  0.10100000352E+00 0. -1.
</event>
<event>
 5   0  0.1366235E-07  0.2798805E+04  0.7818609E-02  0.8303639E-01
        1   -1    0    0  501    0  0.00000000000E+00  0.00000000000E+00  0.21274594287E+04  0.21274594287E+04  0.50400001928E-02 0.  1.
       -1   -1    0    0    0  501  0.00000000000E+00  0.00000000000E+00 -0.92050075450E+03  0.92050075451E+03  0.50400001928E-02 0. -1.
    10030    2    1    2    0    0  0.00000000000E+00  0.00000000000E+00  0.12069586742E+04  0.30479601832E+04  0.27988054661E+04 0.  0.
        2    1    3    3  502    0 -0.12464548248E+04  0.63345314889E+03  0.66712413500E+03  0.15491827308E+04  0.25500000920E-02 0. -1.
       -2    1    3    3    0  502  0.12464548248E+04 -0.63345314889E+03  0.53983453915E+03  0.14987774523E+04  0.25500000920E-02 0.  1.
</event>
<event>
 5   0  0.3571498E-07  0.2800861E+04  0.7818609E-02  0.8303001E-01
       -2   -1    0    0    0  501  0.00000000000E+00  0.00000000000E+00  0.11596684744E+04  0.11596684744E+04  0.25500000920E-02 0. -1.
        2   -1    0    0  501    0  0.00000000000E+00  0.00000000000E+00 -0.16911783443E+04  0.16911783443E+04  0.25500000920E-02 0.  1.
    10030    2    1    2    0    0  0.00000000000E+00  0.00000000000E+00 -0.53150986986E+03  0.28508468187E+04  0.28008614464E+04 0.  0.
        2    1    3    3  502    0  0.11061465736E+04  0.21845104635E+02  0.60815307080E+03  0.12624926172E+04  0.25500000920E-02 0. -1.
       -2    1    3    3    0  502 -0.11061465736E+04 -0.21845104635E+02 -0.11396629407E+04  0.15883542015E+04  0.25500000920E-02 0.  1.
</event>
<event>
 5   0  0.1173363E-07  0.2799322E+04  0.7818609E-02  0.8303479E-01
       -3   -1    0    0    0  501  0.00000000000E+00  0.00000000000E+00  0.12598105441E+04  0.12598105482E+04  0.10100000352E+00 0.  1.
        3   -1    0    0  501    0  0.00000000000E+00  0.00000000000E+00 -0.15550360148E+04  0.15550360181E+04  0.10100000352E+00 0. -1.
    10030    2    1    2    0    0  0.00000000000E+00  0.00000000000E+00 -0.29522547068E+03  0.28148465662E+04  0.27993219023E+04 0.  0.
        4    1    3    3  502    0  0.70205234611E+03  0.12078232551E+03 -0.13591111947E+04  0.15344871193E+04  0.12699999809E+01 0. -1.
       -4    1    3    3    0  502 -0.70205234611E+03 -0.12078232551E+03  0.10638857240E+04  0.12803594470E+04  0.12699999809E+01 0.  1.
</event>
<event>
 5   0  0.1346049E-07  0.2802599E+04  0.7818609E-02  0.8302462E-01
        1   -1    0    0  501    0  0.00000000000E+00  0.00000000000E+00  0.15795060015E+04  0.15795060015E+04  0.50400001928E-02 0.  1.
       -1   -1    0    0    0  501  0.00000000000E+00  0.00000000000E+00 -0.12431992479E+04  0.12431992480E+04  0.50400001928E-02 0. -1.
    10030    2    1    2    0    0  0.00000000000E+00  0.00000000000E+00  0.33630675356E+03  0.28227052495E+04  0.28025992744E+04 0.  0.
        1    1    3    3  502    0 -0.86734030187E+03  0.44196018106E+03  0.11833691636E+04  0.15323089044E+04  0.50400001928E-02 0.  1.
       -1    1    3    3    0  502  0.86734030187E+03 -0.44196018106E+03 -0.84706241008E+03  0.12903963451E+04  0.50400001928E-02 0. -1.
</event>
<event>
 5   0  0.3406920E-07  0.2799040E+04  0.7818609E-02  0.8303567E-01
       -2   -1    0    0    0  501  0.00000000000E+00  0.00000000000E+00  0.11270759323E+04  0.11270759323E+04  0.25500000920E-02 0.  1.
        2   -1    0    0  501    0  0.00000000000E+00  0.00000000000E+00 -0.17378207261E+04  0.17378207261E+04  0.25500000920E-02 0. -1.
    10030    2    1    2    0    0  0.00000000000E+00  0.00000000000E+00 -0.61074479383E+03  0.28648966585E+04  0.27990397747E+04 0.  0.
        4    1    3    3  502    0 -0.89095004485E+03 -0.10792841998E+04 -0.30248906783E+03  0.14318336550E+04  0.12699999809E+01 0. -1.
       -4    1    3    3    0  502  0.89095004485E+03  0.10792841998E+04 -0.30825572599E+03  0.14330630035E+04  0.12699999809E+01 0.  1.
</event>
<event>
 5   0  0.1346049E-07  0.2797679E+04  0.7818609E-02  0.8303989E-01
       -1   -1    0    0    0  501  0.00000000000E+00  0.00000000000E+00  0.11915194786E+04  0.11915194787E+04  0.50400001928E-02 0.  1.
        1   -1    0    0  501    0  0.00000000000E+00  0.00000000000E+00 -0.16422326660E+04  0.16422326660E+04  0.50400001928E-02 0. -1.
    10030    2    1    2    0    0  0.00000000000E+00  0.00000000000E+00 -0.45071318738E+03  0.28337521447E+04  0.27976791882E+04 0.  0.
        1    1    3    3  502    0 -0.83782776364E+03  0.50040188100E+02 -0.13588445145E+04  0.15971592896E+04  0.50400001928E-02 0. -1.
       -1    1    3    3    0  502  0.83782776364E+03 -0.50040188100E+02  0.90813132708E+03  0.12365928551E+04  0.50400001928E-02 0.  1.
</event>
<event>
 5   0  0.3406920E-07  0.2799838E+04  0.7818609E-02  0.8303319E-01
       -2   -1    0    0    0  501  0.00000000000E+00  0.00000000000E+00  0.12683683297E+04  0.12683683297E+04  0.25500000920E-02 0.  1.
        2   -1    0    0  501    0  0.00000000000E+00  0.00000000000E+00 -0.15451138000E+04  0.15451138000E+04  0.25500000920E-02 0. -1.
    10030    2    1    2    0    0  0.00000000000E+00  0.00000000000E+00 -0.27674547025E+03  0.28134821297E+04  0.27998381452E+04 0.  0.
        4    1    3    3  502    0  0.47186626907E+03 -0.11264228013E+04 -0.82602152018E+03  0.14743809778E+04  0.12699999809E+01 0. -1.
       -4    1    3    3    0  502 -0.47186626907E+03  0.11264228013E+04  0.54927604993E+03  0.13391011519E+04  0.12699999809E+01 0.  1.
</event>
<event>
 5   0  0.3557628E-07  0.2799794E+04  0.7818609E-02  0.8303332E-01
       -2   -1    0    0    0  501  0.00000000000E+00  0.00000000000E+00  0.19577224663E+04  0.19577224663E+04  0.25500000920E-02 0.  1.
        2   -1    0    0  501    0  0.00000000000E+00  0.00000000000E+00 -0.10010163114E+04  0.10010163114E+04  0.25500000920E-02 0. -1.
    10030    2    1    2    0    0  0.00000000000E+00  0.00000000000E+00  0.95670615492E+03  0.29587387777E+04  0.27997943653E+04 0.  0.
        5    1    3    3  502    0  0.86977312459E+03 -0.10950103017E+04  0.54632551576E+03  0.15013482302E+04  0.46999998093E+01 0.  1.
       -5    1    3    3    0  502 -0.86977312459E+03  0.10950103017E+04  0.41038063916E+03  0.14573905476E+04  0.46999998093E+01 0. -1.
</event>
<event>
 5   0  0.1357902E-07  0.2799084E+04  0.7818609E-02  0.8303553E-01
        1   -1    0    0  501    0  0.00000000000E+00  0.00000000000E+00  0.17210497963E+04  0.17210497963E+04  0.50400001928E-02 0. -1.
       -1   -1    0    0    0  501  0.00000000000E+00  0.00000000000E+00 -0.11380944195E+04  0.11380944195E+04  0.50400001928E-02 0.  1.
    10030    2    1    2    0    0  0.00000000000E+00  0.00000000000E+00  0.58295537680E+03  0.28591442158E+04  0.27990835420E+04 0.  0.
        4    1    3    3  502    0  0.27849474186E+03  0.10849384780E+04  0.11485678239E+04  0.16043255534E+04  0.12699999809E+01 0. -1.
       -4    1    3    3    0  502 -0.27849474186E+03 -0.10849384780E+04 -0.56561244707E+03  0.12548186624E+04  0.12699999809E+01 0.  1.
</event>
<event>
 5   0  0.3557628E-07  0.2796403E+04  0.7818609E-02  0.8304386E-01
       -2   -1    0    0    0  501  0.00000000000E+00  0.00000000000E+00  0.11244154975E+04  0.11244154975E+04  0.25500000920E-02 0. -1.
        2   -1    0    0  501    0  0.00000000000E+00  0.00000000000E+00 -0.17386517931E+04  0.17386517931E+04  0.25500000920E-02 0.  1.
    10030    2    1    2    0    0  0.00000000000E+00  0.00000000000E+00 -0.61423629566E+03  0.28630672906E+04  0.27964027041E+04 0.  0.
        5    1    3    3  502    0 -0.40062136082E+03  0.13805674940E+02  0.10643134441E+04  0.11373096627E+04  0.46999998093E+01 0. -1.
       -5    1    3    3    0  502  0.40062136082E+03 -0.13805674940E+02 -0.16785497398E+04  0.17257576279E+04  0.46999998093E+01 0.  1.
</event>
<event>
 5   0  0.1366235E-07  0.2798637E+04  0.7818609E-02  0.8303692E-01
        1   -1    0    0  501    0  0.00000000000E+00  0.00000000000E+00  0.22302947780E+04  0.22302947780E+04  0.50400001928E-02 0.  1.
       -1   -1    0    0    0  501  0.00000000000E+00  0.00000000000E+00 -0.87795200403E+03  0.87795200404E+03  0.50400001928E-02 0. -1.
    10030    2    1    2    0    0  0.00000000000E+00  0.00000000000E+00  0.13523427740E+04  0.31082467821E+04  0.27986366466E+04 0.  0.
        2    1    3    3  502    0  0.33886792845E+03 -0.12920525378E+04  0.21307703546E+03  0.13526392928E+04  0.25500000920E-02 0. -1.
       -2    1    3    3    0  502 -0.33886792845E+03  0.12920525378E+04  0.11392657385E+04  0.17556074893E+04  0.25500000920E-02 0.  1.
</event>
<event>
 5   0  0.3571498E-07  0.2799460E+04  0.7818609E-02  0.8303436E-01
       -2   -1    0    0    0  501  0.00000000000E+00  0.00000000000E+00  0.10353433884E+04  0.10353433884E+04  0.25500000920E-02 0.  1.
        2   -1    0    0  501    0  0.00000000000E+00  0.00000000000E+00 -0.18923620071E+04  0.18923620071E+04  0.25500000920E-02 0. -1.
    10030    2    1    2    0    0  0.00000000000E+00  0.00000000000E+00 -0.85701861865E+03  0.29277053955E+04  0.27994602998E+04 0.  0.
        2    1    3    3  502    0 -0.90715650383E+03  0.36251462488E+03  0.61985768976E+03  0.11569672991E+04  0.25500000920E-02 0.  1.
       -2    1    3    3    0  502  0.90715650383E+03 -0.36251462488E+03 -0.14768763084E+04  0.17707380964E+04  0.25500000920E-02 0. -1.
</event>
<event>
 5   0  0.1361741E-07  0.2804844E+04  0.7818609E-02  0.8301766E-01
       -1   -1    0    0    0  501  0.00000000000E+00  0.00000000000E+00  0.85800409424E+03  0.85800409426E+03  0.50400001928E-02 0.  1.
        1   -1    0    0  501    0  0.00000000000E+00  0.00000000000E+00 -0.22922823744E+04  0.22922823744E+04  0.50400001928E-02 0. -1.
    10030    2    1    2    0    0  0.00000000000E+00  0.00000000000E+00 -0.14342782801E+04  0.31502864686E+04  0.28048441400E+04 0.  0.
        5    1    3    3  502    0 -0.84265356650E+03  0.76139933020E+03  0.20697696523E+03  0.11544070024E+04  0.46999998093E+01 0.  1.
       -5    1    3    3    0  502  0.84265356650E+03 -0.76139933020E+03 -0.16412552454E+04  0.19958794662E+04  0.46999998093E+01 0. -1.
</event>
</LesHouchesEvents>
